Membrane in water
40347
    1TMC1    C1    1   0.019   2.325  11.556 -0.6072 -0.7453 -0.1567
    1TMC1    C2    2   4.718   2.249  11.452  0.1514 -0.8161 -0.4333
    1TMC1    C3    3   0.010   2.291  11.325 -0.1682 -0.2095 -0.6304
    1TMC1    C4    4   0.097   2.434  11.544  0.1904 -0.0668 -0.1118
    1TMC1    C5    5   0.132   2.472  11.415  0.2276 -0.1776  0.1745
    1TMC1    C6    6   0.088   2.408  11.304 -0.3885 -0.0643 -0.0183
    1TMC1     C    7   4.708   2.288  11.691 -0.1208  0.1789  0.1030
    1TMC1     O    8   4.698   2.376  11.772 -0.6799 -0.7163  0.1557
    1TMC1     H    9   4.630   2.187  11.463 -0.6480  0.7590  2.0049
    1TMC1    H1   10   0.130   2.497  11.625  0.2334 -1.2321  0.7777
    1TMC1    H2   11   0.114   2.433  11.202 -2.9733  0.5408 -0.5305
    1TMC1    C7   12   0.186   2.605  11.399  0.2439  0.2649  0.5822
    1TMC1    C8   13   4.731   2.201  11.212  0.5937  0.1491  0.9031
    1TMC1    O1   14   0.221   2.673  11.493 -0.4617 -0.3367 -0.7557
    1TMC1    O2   15   0.005   2.221  11.092 -0.1125 -0.4510  0.0116
    1TMC1    O3   16   0.151   2.667  11.281  0.2981  0.5550  0.1161
    1TMC1    H3   17   0.115   2.609  11.211 -0.7280 -1.2203  2.1301
    1TMC1    O5   18   4.708   2.082  11.261 -0.1377  0.2474  0.1942
    1TMC1    H5   19   4.722   2.073  11.358 -1.1736  2.7890  0.5934
    2MPD2     C   20   4.520   1.962  12.036 -0.5939 -1.0513 -0.3417
    2MPD2    C1   21   4.519   2.101  12.030 -0.1792  0.4210  0.2994
    2MPD2    C2   22   4.576   2.160  11.922 -0.1628  0.8445 -0.4245
    2MPD2    C3   23   4.630   2.086  11.814  0.3385  0.1112 -0.4308
    2MPD2    C4   24   4.631   1.950  11.823 -0.1780  0.7224  0.4586
    2MPD2    C5   25   4.587   1.889  11.938  0.2536 -0.5588 -0.1469
    2MPD2     H   26   4.589   2.267  11.931  1.3243  0.6545 -0.4106
    2MPD2    H1   27   4.675   1.892  11.743 -0.8252 -3.4969  3.1420
    2MPD2    H2   28   4.476   1.893  12.108  0.6046 -1.1916  0.2550
    2MPD2    H3   29   4.609   1.783  11.935  0.2884 -0.5563  0.0235
    2MPD2     N   30   4.687   2.155  11.705 -0.3847  0.3159  0.0854
    2MPD2    H5   31   4.719   2.102  11.625  0.1088  0.8970 -0.0976
    2MPD2    N1   32   4.448   2.175  12.128  0.1132  0.0113  0.1945
    2MPD2    H7   33   4.463   2.275  12.133  0.6667 -0.0159 -1.0309
    3TMC1    C1   34   3.854   3.327  11.606  0.5562  0.1281  0.8767
    3TMC1    C2   35   3.862   3.197  11.637 -0.1244  0.0459 -0.6196
    3TMC1    C3   36   3.902   3.105  11.539 -0.3658 -0.0039 -0.1274
    3TMC1    C4   37   3.856   3.366  11.474 -0.0904 -0.0982 -0.3905
    3TMC1    C5   38   3.884   3.274  11.380 -0.1990  0.5445  1.2135
    3TMC1    C6   39   3.902   3.142  11.407 -0.1401 -0.7383  0.0423
    3TMC1     C   40   3.763   3.403  11.689 -0.2302 -0.0025  0.0324
    3TMC1     O   41   3.686   3.333  11.755  0.3214  0.0955  0.1387
    3TMC1     H   42   3.836   3.163  11.737 -0.5946 -3.3852 -1.8816
    3TMC1    H1   43   3.820   3.463  11.443  0.3214  0.4135  0.7320
    3TMC1    H2   44   3.927   3.069  11.331  0.6880 -2.3517  1.8575
    3TMC1    C7   45   3.859   3.317  11.244  0.5253  0.0885  0.4576
    3TMC1    C8   46   3.878   2.968  11.577 -0.4277  0.0506 -0.7196
    3TMC1    O1   47   3.922   3.405  11.186 -0.2706 -0.0937 -0.0981
    3TMC1    O2   48   3.835   2.944  11.691 -0.0706 -0.0901 -0.4572
    3TMC1    O3   49   3.792   3.219  11.189  0.1716 -0.2697  0.2907
    3TMC1    H3   50   3.730   3.189  11.259  1.3746 -0.0408  1.4732
    3TMC1    O5   51   3.817   2.917  11.470 -0.1832  0.0337 -0.3367
    3TMC1    H5   52   3.874   2.905  11.390 -0.0368  0.1396 -0.2486
    4MPD2     C   53   3.535   3.834  11.865 -0.7794  0.0144 -0.0980
    4MPD2    C1   54   3.644   3.874  11.793 -0.2655 -0.2165 -0.1876
    4MPD2    C2   55   3.724   3.770  11.742 -0.1415 -0.3313 -0.4493
    4MPD2    C3   56   3.690   3.637  11.759 -0.2006 -0.0318  0.1547
    4MPD2    C4   57   3.580   3.606  11.839  0.1805 -0.0550  0.2756
    4MPD2    C5   58   3.506   3.704  11.894  0.1224  0.1608 -0.5246
    4MPD2     H   59   3.810   3.788  11.678  1.4016  1.5627  2.1433
    4MPD2    H1   60   3.551   3.505  11.865 -0.9805  0.5839  1.5071
    4MPD2    H2   61   3.480   3.915  11.912  3.3485  1.7366  1.7525
    4MPD2    H3   62   3.424   3.687  11.963  0.0165  2.0374 -0.1737
    4MPD2     N   63   3.778   3.543  11.684 -0.0548  0.0361 -0.3169
    4MPD2    H5   64   3.855   3.577  11.627 -0.9096  1.0641 -0.8808
    4MPD2    N1   65   3.677   4.003  11.749 -0.3796 -0.9332  0.3081
    4MPD2    H7   66   3.765   4.008  11.699 -0.8991  1.4692 -0.3640
    5TCq1    O1   67   0.298   1.169  11.737 -0.7286 -0.4165  0.1872
    5TCq1    C1   68   0.239   1.162  11.854  0.5251 -0.5914 -0.4286
    5TCq1    O2   69   0.309   1.177  11.953 -0.0305 -0.1654  0.3398
    5TCq1    C2   70   0.094   1.133  11.846 -0.1477  0.2073  0.4292
    5TCq1    C3   71   0.011   1.206  11.929  0.3175 -0.2565  0.0020
    5TCq1    C4   72   4.616   1.194  11.916  0.1953  0.2091 -0.0762
    5TCq1    C5   73   4.564   1.115  11.820  0.5294 -0.2460 -0.4659
    5TCq1    C6   74   4.647   1.045  11.734  0.6817  0.3029  0.1437
    5TCq1    C7   75   0.046   1.054  11.743  0.2174  0.5446  0.0530
    5TCq1    C8   76   4.596   0.949  11.634  0.3455 -0.2771 -0.5106
    5TCq1    O4   77   4.687   0.903  11.563  0.0596 -0.3130 -0.3422
    5TCq1    C9   78   4.534   1.248  12.017  0.2249 -0.0823  0.3624
    5TCq1    O5   79   4.418   1.204  12.022 -0.6287 -0.9009 -0.4098
    5TCq1    O6   80   4.576   1.341  12.092 -0.4586  0.0920 -0.1447
    5TCq1    H1   81   0.240   1.157  11.659  1.1616  0.4511 -1.3609
    5TCq1    H2   82   0.056   1.261  12.010  2.5832 -1.6590 -0.3029
    5TCq1    H3   83   4.456   1.105  11.821  0.4735  0.3800  0.3159
    5TCq1    H4   84   0.115   0.994  11.685 -0.9661 -0.0455 -0.7426
    6MPD2     C   85   4.258   0.884  11.510  0.3106 -0.4118  0.3430
    6MPD2    C1   86   4.393   0.867  11.515  0.2790 -0.0327 -0.5754
    6MPD2    C2   87   4.465   0.790  11.430 -0.8318  0.0831  0.3800
    6MPD2    C3   88   4.396   0.745  11.315 -1.4976  0.8017 -0.2241
    6MPD2    C4   89   4.263   0.784  11.300 -0.0391  0.6234 -0.6935
    6MPD2    C5   90   4.192   0.846  11.398 -0.1625  0.1346  0.4928
    6MPD2     H   91   4.572   0.773  11.440 -0.9368 -0.2758  0.8657
    6MPD2    H1   92   4.205   0.763  11.212  0.3615 -1.4456 -0.4574
    6MPD2    H2   93   4.207   0.936  11.589 -0.2614  0.3554 -0.5336
    6MPD2    H3   94   4.087   0.871  11.388 -0.1697 -0.0729  0.0825
    6MPD2     N   95   4.459   0.649  11.225 -0.2793  0.1536  0.2439
    6MPD2    H5   96   4.550   0.612  11.251 -0.7903  0.6285  2.6233
    6MPD2    N1   97   4.458   0.941  11.623 -0.6938 -0.3310 -0.0703
    6MPD2    H7   98   4.402   1.001  11.684 -0.8941  1.2061 -1.7552
    7TCq1    O1   99   2.038   4.572  13.386  0.7527 -0.2790 -0.0905
    7TCq1    C1  100   1.915   4.575  13.333  0.1871 -0.0489  0.1650
    7TCq1    O2  101   1.808   4.598  13.388 -0.5307  0.0293  0.1111
    7TCq1    C2  102   1.922   4.508  13.207  0.2267  0.0574  0.7277
    7TCq1    C3  103   1.808   4.505  13.136  0.5839  0.3161 -0.1596
    7TCq1    C4  104   1.812   4.467  13.006  1.1087  0.0107  0.9411
    7TCq1    C5  105   1.922   4.412  12.945 -0.4165 -0.0505 -0.1581
    7TCq1    C6  106   2.034   4.410  13.020 -0.3661 -0.0695  0.1988
    7TCq1    C7  107   2.038   4.458  13.152  0.0042 -0.1746  0.4600
    7TCq1    C8  108   2.145   4.332  12.960  0.3332  0.4557  0.0348
    7TCq1    O4  109   2.115   4.251  12.877 -0.0112 -0.0165  0.2386
    7TCq1    C9  110   1.688   4.462  12.928  0.4056 -0.4929 -0.0685
    7TCq1    O5  111   1.576   4.500  12.976 -0.0476 -0.7402  0.3063
    7TCq1    O6  112   1.690   4.382  12.832  0.1946  0.2964  0.4644
    7TCq1    H1  113   2.112   4.547  13.326  0.7654 -1.7328  0.5166
    7TCq1    H2  114   1.712   4.528  13.180  0.9037  1.3214  0.0147
    7TCq1    H3  115   1.915   4.370  12.845  3.0662  2.7054 -1.5591
    7TCq1    H4  116   2.121   4.432  13.216 -2.2187 -1.7692  2.6868
    8MPD2     C  117   2.555   4.058  13.078  0.4681 -0.1593 -0.6532
    8MPD2    C1  118   2.437   4.020  13.015 -0.4191 -0.0840  0.3680
    8MPD2    C2  119   2.339   4.114  12.986 -0.0160 -0.2483  0.2459
    8MPD2    C3  120   2.367   4.248  13.025  0.7518 -0.7610  0.1851
    8MPD2    C4  121   2.489   4.287  13.078  0.1807 -0.0877 -0.0581
    8MPD2    C5  122   2.575   4.190  13.107 -0.3164  0.0539 -0.7324
    8MPD2     H  123   2.241   4.080  12.955  0.8212 -0.6441 -1.9546
    8MPD2    H1  124   2.513   4.387  13.112 -2.8630  0.8429 -0.5791
    8MPD2    H2  125   2.632   3.986  13.105  3.4689  3.4228  0.3373
    8MPD2    H3  126   2.668   4.221  13.155 -1.2742  0.1246  1.0545
    8MPD2     N  127   2.265   4.340  13.033  0.1855  0.1735  0.2927
    8MPD2    H5  128   2.279   4.428  13.082 -0.9536  1.4627 -1.6776
    8MPD2    N1  129   2.410   3.884  13.018 -0.2198  0.1257 -0.1231
    8MPD2    H7  130   2.476   3.836  13.078 -2.0892 -1.2684  0.7993
    9TMC1    C1  131   0.072   3.811  11.294  0.1306  0.3465 -0.0035
    9TMC1    C2  132   0.032   3.903  11.390 -0.2301 -0.9501  0.6230
    9TMC1    C3  133   0.058   4.037  11.368  0.1293  0.3166  0.2133
    9TMC1    C4  134   0.151   3.852  11.185  0.0181  0.3309  0.9719
    9TMC1    C5  135   0.183   3.987  11.164  0.4206 -0.5667 -0.6271
    9TMC1    C6  136   0.136   4.081  11.261  0.0848  0.1221 -0.3022
    9TMC1     C  137   0.024   3.674  11.299 -0.6220 -0.1374 -0.3659
    9TMC1     O  138   4.730   3.622  11.194 -0.8632 -0.6603  0.1863
    9TMC1     H  139   4.692   3.884  11.465 -0.1492 -0.7272  0.7622
    9TMC1    H1  140   0.183   3.773  11.118  0.9929  0.3697  1.4018
    9TMC1    H2  141   0.154   4.187  11.249 -0.4618  0.4546  1.8279
    9TMC1    C7  142   0.285   4.025  11.072 -0.4873  0.1521 -0.2163
    9TMC1    C8  143   4.712   4.131  11.444 -0.1238  0.5409 -0.4385
    9TMC1    O1  144   0.307   4.143  11.039 -0.3676  0.3061  0.5451
    9TMC1    O2  145   4.600   4.108  11.488 -0.3402  0.0064  0.1486
    9TMC1    O3  146   0.376   3.925  11.060 -0.0679  0.2173 -0.4927
    9TMC1    H3  147   0.357   3.847  11.116 -0.2074  0.5609 -0.0623
    9TMC1    O5  148   0.058   4.237  11.483 -0.2443 -0.3603  0.1132
    9TMC1    H5  149   0.147   4.238  11.441  0.0906 -1.7552  0.7894
   10MPD2     C  150   4.621   3.425  11.392 -0.6359  0.2112 -0.0863
   10MPD2    C1  151   4.685   3.515  11.478  0.5228  0.5233 -0.2066
   10MPD2    C2  152   4.676   3.491  11.617  0.3202 -1.1197 -0.3135
   10MPD2    C3  153   4.623   3.368  11.664  0.0344  0.0557  0.0555
   10MPD2    C4  154   4.577   3.278  11.573  0.4729  0.0407 -0.3436
   10MPD2    C5  155   4.573   3.303  11.436 -0.0413  0.2807 -0.7384
   10MPD2     H  156   4.707   3.573  11.681  0.7165 -1.2020 -0.4048
   10MPD2    H1  157   4.538   3.185  11.612  1.4999 -1.0626 -1.9348
   10MPD2    H2  158   4.602   3.450  11.288 -1.6054  3.0605  0.8032
   10MPD2    H3  159   4.530   3.238  11.360 -0.1366 -0.7462  0.2048
   10MPD2     N  160   4.619   3.341  11.802 -0.0319  0.0169  0.0958
   10MPD2    H5  161   4.566   3.259  11.828  2.2373 -1.4854 -0.0054
   10MPD2    N1  162   0.008   3.632  11.433  0.2267 -0.2101 -0.5947
   10MPD2    H7  163   0.059   3.682  11.505 -0.0822  1.3147 -1.4469
   11TCq1    O1  164   0.573   3.034  14.672  0.1726  0.2704 -0.3682
   11TCq1    C1  165   0.451   3.077  14.701 -0.2652 -0.1082  0.3306
   11TCq1    O2  166   0.360   3.000  14.713 -0.4848  0.5187  0.3970
   11TCq1    C2  167   0.427   3.176  14.591  0.1966  0.4543 -0.0553
   11TCq1    C3  168   0.541   3.246  14.533  0.5594 -0.4947 -0.3947
   11TCq1    C4  169   0.517   3.302  14.410 -0.7207 -1.0257 -0.3985
   11TCq1    C5  170   0.393   3.304  14.352  0.1063  0.4368 -0.5208
   11TCq1    C6  171   0.291   3.245  14.424  0.0336 -0.5974  0.0539
   11TCq1    C7  172   0.302   3.174  14.540 -0.5302  0.0643  0.4118
   11TCq1    C8  173   0.162   3.226  14.358  1.2745 -0.1644 -0.2088
   11TCq1    O4  174   0.068   3.217  14.439  0.0238 -0.3855  0.6562
   11TCq1    C9  175   0.620   3.376  14.343  0.8242 -0.0145 -0.0402
   11TCq1    O5  176   0.739   3.341  14.382 -0.2612  0.8421  0.5061
   11TCq1    O6  177   0.594   3.432  14.233 -0.8821  0.2223 -0.0965
   11TCq1    H1  178   0.641   3.104  14.688 -1.4498  1.6529  0.4769
   11TCq1    H2  179   0.638   3.258  14.581 -0.3998 -0.4281  1.4951
   11TCq1    H3  180   0.363   3.365  14.268  1.0244  0.1430 -1.0617
   11TCq1    H4  181   0.217   3.127  14.588 -1.0070  0.8167  0.3215
   12MPD2     C  182   4.668   3.168  14.174 -0.6733  0.2357 -0.2637
   12MPD2    C1  183   0.066   3.148  14.144 -0.6268 -0.2180 -0.1510
   12MPD2    C2  184   0.100   3.116  14.015 -0.2633 -0.9181  0.1558
   12MPD2    C3  185   4.735   3.095  13.924 -0.6284  0.4702 -0.5097
   12MPD2    C4  186   4.607   3.093  13.968 -0.4988 -0.2708  0.0644
   12MPD2    C5  187   4.569   3.136  14.086 -0.0565  1.3090 -0.4163
   12MPD2     H  188   0.206   3.117  13.994 -0.1023  0.2981  0.9983
   12MPD2    H1  189   4.537   3.054  13.895 -1.1220  0.8980  0.0441
   12MPD2    H2  190   4.651   3.222  14.266 -0.2338  0.9515 -0.6052
   12MPD2    H3  191   4.466   3.159  14.110 -0.5924 -0.4510 -1.0473
   12MPD2     N  192   0.017   3.047  13.799  0.1076  0.1810  0.3120
   12MPD2    H5  193   4.665   3.029  13.752  0.0275 -1.0859  0.9271
   12MPD2    N1  194   0.173   3.184  14.227  0.0819  0.1481 -0.2636
   12MPD2    H7  195   0.269   3.173  14.195  0.2964 -0.8609  0.7423
   13TCq1    O1  196   0.132   3.359  10.038 -0.5269  0.1195  0.2076
   13TCq1    C1  197   0.200   3.477  10.034 -0.1808 -0.3900  0.3045
   13TCq1    O2  198   0.258   3.522   9.937  0.3880  0.5542 -0.3156
   13TCq1    C2  199   0.150   3.562  10.137  0.5966 -0.3154  0.1435
   13TCq1    C3  200   0.136   3.693  10.111 -0.2067 -0.8142 -0.2152
   13TCq1    C4  201   0.073   3.775  10.204  0.0587  0.1994 -0.0554
   13TCq1    C5  202   0.041   3.724  10.322 -0.3022 -0.0663 -0.5830
   13TCq1    C6  203   0.053   3.591  10.347  0.1934 -0.0354  0.1967
   13TCq1    C7  204   0.105   3.504  10.255  0.0779  0.4262 -0.2800
   13TCq1    C8  205   0.004   3.547  10.478 -0.0334 -0.1717 -0.3542
   13TCq1    O4  206   4.719   3.629  10.566  0.0303 -0.0848 -0.5046
   13TCq1    C9  207   0.054   3.913  10.174  0.2142  0.1806 -0.0619
   13TCq1    O5  208   0.055   3.932  10.048  1.0209 -0.1920  0.1771
   13TCq1    O6  209   4.733   3.984  10.268 -0.1710 -0.2681  0.3902
   13TCq1    H1  210   0.070   3.349  10.114  0.2993 -0.2557  0.8339
   13TCq1    H2  211   0.183   3.754  10.035  0.6290 -3.0237 -1.4703
   13TCq1    H3  212   0.006   3.790  10.401  0.0351 -0.6066  0.0189
   13TCq1    H4  213   0.122   3.398  10.271  0.2078  0.2255 -1.7042
   14MPD2     C  214   4.596   3.217  10.554  0.8260 -0.1113 -0.4493
   14MPD2    C1  215   4.619   3.351  10.580  0.4829 -0.0209 -0.5994
   14MPD2    C2  216   4.569   3.408  10.695 -0.2862  0.6696 -0.3444
   14MPD2    C3  217   4.495   3.332  10.779  0.0045  0.3158  0.9085
   14MPD2    C4  218   4.464   3.203  10.746 -0.2050  0.2119 -0.6751
   14MPD2    C5  219   4.514   3.145  10.634  0.1719  0.2252  0.4658
   14MPD2     H  220   4.591   3.510  10.725  0.3053 -0.6023  3.5043
   14MPD2    H1  221   4.406   3.135  10.808 -0.3844  0.5819 -0.4401
   14MPD2    H2  222   4.629   3.165  10.465  0.1704 -0.4941 -0.4671
   14MPD2    H3  223   4.485   3.043  10.610 -0.7032  0.9071 -1.3782
   14MPD2     N  224   4.437   3.400  10.885 -0.0318  0.2221  0.8338
   14MPD2    H5  225   4.462   3.497  10.897 -1.7605  0.8779 -0.8168
   14MPD2    N1  226   4.703   3.413  10.480 -0.8970 -0.0243  0.1914
   14MPD2    H7  227   4.716   3.358  10.396 -0.1454 -1.3719  1.1935
   15TCq1    O1  228   2.407   2.537   2.495 -0.6382  0.3154 -0.4772
   15TCq1    C1  229   2.401   2.486   2.371  0.2821  0.2648 -0.1552
   15TCq1    O2  230   2.497   2.445   2.303  0.1672  0.2589  0.7718
   15TCq1    C2  231   2.266   2.507   2.314  0.5174  0.1424  0.3886
   15TCq1    C3  232   2.184   2.601   2.365  0.8894  0.1363  0.6598
   15TCq1    C4  233   2.050   2.598   2.329 -1.2492  0.1128  0.1760
   15TCq1    C5  234   1.999   2.509   2.236  0.4135  0.6670 -0.1993
   15TCq1    C6  235   2.090   2.418   2.184 -0.1437  0.6561  0.2909
   15TCq1    C7  236   2.221   2.417   2.225 -0.1966  0.1760 -0.1407
   15TCq1    C8  237   2.054   2.331   2.080  0.4986 -0.0308  0.0307
   15TCq1    O4  238   2.129   2.241   2.057 -0.1609 -0.0746 -0.4416
   15TCq1    C9  239   1.957   2.693   2.399 -0.3135 -0.1801 -0.1409
   15TCq1    O5  240   1.994   2.765   2.493 -0.4012  0.7475 -0.5857
   15TCq1    O6  241   1.841   2.703   2.354  0.4071 -0.3799 -0.4775
   15TCq1    H1  242   2.317   2.541   2.534 -1.3160  0.7125 -2.0790
   15TCq1    H2  243   2.211   2.676   2.439 -2.1881  0.8946  1.0299
   15TCq1    H3  244   1.891   2.505   2.222  0.4254 -1.0665  0.1498
   15TCq1    H4  245   2.292   2.345   2.188  1.9516  0.6237  3.0447
   16MPD2     C  246   1.730   2.307   1.913  0.0570 -0.2358 -0.6605
   16MPD2    C1  247   1.863   2.277   1.927  0.0401 -0.1596  0.3579
   16MPD2    C2  248   1.920   2.177   1.852 -0.6658 -0.3953  0.0345
   16MPD2    C3  249   1.847   2.109   1.755 -0.8653 -0.2227  0.0525
   16MPD2    C4  250   1.714   2.135   1.748  0.4379  1.6102  0.1330
   16MPD2    C5  251   1.655   2.237   1.824 -0.1568  0.3929 -0.5635
   16MPD2     H  252   2.027   2.161   1.858 -0.8708 -2.1967 -1.2199
   16MPD2    H1  253   1.647   2.077   1.686  0.2397  0.1017  1.7750
   16MPD2    H2  254   1.678   2.386   1.966 -0.3282 -1.3150  0.5738
   16MPD2    H3  255   1.548   2.252   1.808 -0.0562 -0.3936 -1.9795
   16MPD2     N  256   1.911   2.019   1.666  0.2051  0.3601 -0.8220
   16MPD2    H5  257   2.006   1.991   1.686  0.0874 -0.8458 -1.9570
   16MPD2    N1  258   1.929   2.357   2.028 -0.7543 -0.3279  0.3427
   16MPD2    H7  259   1.876   2.438   2.058  1.0296 -0.0777  2.7917
   17TMC1    C1  260   4.690   2.894  11.575 -1.1952 -0.2491  0.0194
   17TMC1    C2  261   4.682   2.923  11.710 -0.4977  0.0159 -0.1063
   17TMC1    C3  262   4.602   2.860  11.799 -0.6157 -0.8173  0.4763
   17TMC1    C4  263   4.633   2.775  11.527 -0.2337 -0.2034 -0.1963
   17TMC1    C5  264   4.554   2.712  11.621  0.6386  0.1231  0.0364
   17TMC1    C6  265   4.535   2.751  11.753  0.0692 -0.2953 -0.2279
   17TMC1     C  266   0.024   2.997  11.496 -0.2512 -0.5893  0.2457
   17TMC1     O  267   0.090   3.086  11.552 -0.2978 -0.7177 -0.2058
   17TMC1     H  268   4.731   3.010  11.753 -0.6085  1.0522 -2.0778
   17TMC1    H1  269   4.646   2.745  11.424  0.7935 -1.0352  0.1863
   17TMC1    H2  270   4.465   2.694  11.812  1.1480  0.0830  1.4229
   17TMC1    C7  271   4.483   2.590  11.581 -0.5632  0.5139 -0.0251
   17TMC1    C8  272   4.529   2.959  11.873 -0.5210  0.2598  0.4688
   17TMC1    O1  273   4.403   2.528  11.651 -0.0334  0.1995  0.4033
   17TMC1    O2  274   4.522   3.075  11.838 -0.0129  0.1746  0.0328
   17TMC1    O3  275   4.528   2.550  11.459 -0.4501 -0.2875  0.2095
   17TMC1    H3  276   4.473   2.476  11.425 -0.0328 -0.1045 -0.8552
   17TMC1    O5  277   4.476   2.904  11.983  0.7005 -0.4130  0.2468
   17TMC1    H5  278   4.494   2.810  12.001 -0.2220 -0.7501 -0.5831
   18MPD2     C  279   0.097   3.203  11.291  0.4633  0.5209 -0.7753
   18MPD2    C1  280   0.049   3.074  11.264  0.4613  0.4359  0.3488
   18MPD2    C2  281   0.034   3.032  11.131 -0.3085  0.0101 -0.6180
   18MPD2    C3  282   0.074   3.114  11.024  0.4815 -0.3799  0.2711
   18MPD2    C4  283   0.115   3.241  11.054 -0.0243 -0.4417  0.2463
   18MPD2    C5  284   0.123   3.284  11.184 -0.5259 -0.2639 -0.4312
   18MPD2     H  285   4.730   2.931  11.124  2.7596 -1.4391  2.8954
   18MPD2    H1  286   0.133   3.318  10.981  0.5963  1.3147  2.2456
   18MPD2    H2  287   0.119   3.235  11.391 -1.9504 -1.4372  0.4016
   18MPD2    H3  288   0.154   3.387  11.200 -1.7086 -0.0110  0.2141
   18MPD2     N  289   0.083   3.060  10.895 -0.0521 -0.5229  0.3757
   18MPD2    H5  290   0.142   3.115  10.833  1.2127 -0.9170  1.2244
   18MPD2    N1  291   0.006   2.983  11.366 -0.3979  0.4809 -0.1202
   18MPD2    H7  292   4.706   2.897  11.327  1.9506  0.5125 -2.4123
   19TMC2    C1  293   1.260   3.145  14.428 -0.3060 -0.1362 -0.1060
   19TMC2    C2  294   1.223   3.258  14.362  0.0872  0.5293 -0.1167
   19TMC2    C3  295   1.090   3.278  14.340 -0.0213  0.1910  0.0466
   19TMC2    C4  296   1.176   3.038  14.448  0.2993 -0.3643  0.3191
   19TMC2    C5  297   1.047   3.060  14.418  0.2827 -0.5756  0.1584
   19TMC2    C6  298   1.002   3.175  14.365 -0.1488 -0.1559  0.0071
   19TMC2     C  299   1.400   3.131  14.440  0.2330  0.3887  0.4124
   19TMC2     O  300   1.468   3.230  14.434 -0.8160  0.1970 -0.3841
   19TMC2     H  301   1.291   3.337  14.332  3.5878 -2.3327  0.3700
   19TMC2    H1  302   1.202   2.955  14.514 -1.8066 -0.1786  1.3781
   19TMC2    H2  303   0.907   3.169  14.312  0.3292  2.4724 -1.1596
   19TMC2    C7  304   0.960   2.950  14.444  0.0424  0.8472  0.8058
   19TMC2    C8  305   1.061   3.376  14.232  0.8981 -0.2200 -0.5424
   19TMC2    O1  306   1.006   2.839  14.459 -0.1078 -0.0294 -0.3718
   19TMC2    O2  307   1.141   3.452  14.178  0.2426  0.2414  0.5997
   19TMC2    O5  308   0.924   3.400  14.232 -0.0495  0.0026  0.1507
   19TMC2    H5  309   0.870   3.347  14.295 -0.7182 -0.8295 -1.1203
   20MPD2     C  310   1.691   3.030  14.424 -0.3835  0.2308  0.3691
   20MPD2    C1  311   1.575   2.955  14.454 -0.2376 -0.0823  0.4437
   20MPD2    C2  312   1.590   2.820  14.480  0.0452 -0.0329  1.0054
   20MPD2    C3  313   1.720   2.767  14.500 -0.1975 -0.1472 -0.0053
   20MPD2    C4  314   1.833   2.844  14.479  0.2421 -0.3562  0.8030
   20MPD2    C5  315   1.816   2.974  14.432 -0.8417  0.4385  0.5589
   20MPD2     H  316   1.504   2.753  14.482 -0.0483  0.0481 -0.4296
   20MPD2    H1  317   1.934   2.803  14.474  1.0273  1.7451 -0.3247
   20MPD2    H2  318   1.685   3.138  14.411  1.2729  0.4079  1.0388
   20MPD2    H3  319   1.908   3.031  14.427 -0.4199 -0.2840 -0.0483
   20MPD2     N  320   1.743   2.641  14.546 -0.0852 -0.1349  0.1836
   20MPD2    H5  321   1.842   2.615  14.546 -1.0781 -3.9797 -2.8920
   20MPD2    N1  322   1.441   2.996  14.451 -1.0532  0.3349  0.8237
   20MPD2    H7  323   1.367   2.928  14.462 -1.2198 -0.0564 -2.6218
   21TMC2    C1  324   3.540   2.939  14.772  0.0587  0.3410 -0.3952
   21TMC2    C2  325   3.560   2.838  14.861  0.5465 -0.6399 -0.4365
   21TMC2    C3  326   3.478   2.836  14.971  0.0320  0.0621  0.0630
   21TMC2    C4  327   3.450   3.039  14.800 -0.0293 -0.0604  0.6651
   21TMC2    C5  328   3.387   3.039  14.919 -0.0020 -0.3700  0.4434
   21TMC2    C6  329   3.398   2.933  15.003 -0.2233 -0.2045 -0.5327
   21TMC2     C  330   3.651   2.957  14.679 -0.5750  0.5075 -0.4250
   21TMC2     O  331   3.726   2.866  14.674  0.3859  0.3220 -0.3424
   21TMC2     H  332   3.624   2.754  14.838  0.3060 -0.8586 -0.3128
   21TMC2    H1  333   3.424   3.108  14.721  1.4767 -0.1059  0.1267
   21TMC2    H2  334   3.358   2.942  15.104 -0.8643  0.9539 -0.8952
   21TMC2    C7  335   3.314   3.149  14.967 -0.3168  0.0585 -0.0155
   21TMC2    C8  336   3.456   2.708  15.032 -0.3912 -0.0605 -0.6177
   21TMC2    O1  337   3.302   3.150  15.090  0.3398  0.0980 -0.1567
   21TMC2    O2  338   3.527   2.610  15.005 -0.2090  0.4980 -0.2182
   21TMC2    O5  339   3.392   2.727  15.152 -0.7059  0.2821  0.2125
   21TMC2    H5  340   3.327   2.801  15.149 -2.7103 -1.4551  0.5915
   22MPD2     C  341   3.985   3.202  14.368  0.9287 -0.2579 -0.1582
   22MPD2    C1  342   3.998   3.090  14.450 -0.2228  0.0774  0.3870
   22MPD2    C2  343   3.905   3.057  14.543 -0.3586 -0.9086 -0.5227
   22MPD2    C3  344   3.782   3.120  14.545  0.0477  0.4208  0.6831
   22MPD2    C4  345   3.766   3.234  14.463  0.9799 -0.1642 -0.3781
   22MPD2    C5  346   3.866   3.276  14.383 -0.4308  0.3152  0.3643
   22MPD2     H  347   3.921   2.970  14.605  1.8168  0.2610  0.5307
   22MPD2    H1  348   3.678   3.297  14.460  1.0753  0.0088  0.4220
   22MPD2    H2  349   4.059   3.228  14.293 -0.3817 -0.4146 -1.4784
   22MPD2    H3  350   3.863   3.363  14.318  1.2751  0.9899  1.1849
   22MPD2     N  351   3.671   3.081  14.626  0.6874 -0.6973 -0.5730
   22MPD2    H5  352   3.598   3.149  14.647 -1.0174 -1.5340 -3.8337
   22MPD2    N1  353   4.123   3.031  14.468 -0.0298  0.2524 -0.2809
   22MPD2    H7  354   4.139   2.977  14.553  0.0032  2.0181  0.8198
   23TMC2    C1  355   4.434   4.322  14.608  0.5651 -0.5689 -1.0227
   23TMC2    C2  356   4.371   4.423  14.677 -0.3753 -0.2109  0.2125
   23TMC2    C3  357   4.244   4.448  14.635 -0.2044  0.0359 -0.8331
   23TMC2    C4  358   4.387   4.263  14.502 -0.1057 -0.4033 -0.1342
   23TMC2    C5  359   4.269   4.307  14.446  0.4820 -0.6651 -0.1944
   23TMC2    C6  360   4.191   4.392  14.521 -0.4382 -0.1266  0.4649
   23TMC2     C  361   4.534   4.247  14.676  0.0120  0.9290  0.3444
   23TMC2     O  362   4.496   4.142  14.728 -0.0218  0.7425  0.3769
   23TMC2     H  363   4.416   4.466  14.766 -1.9185  0.2743  0.7478
   23TMC2    H1  364   4.449   4.196  14.444 -0.7551 -0.6181 -0.5835
   23TMC2    H2  365   4.096   4.426  14.481 -0.0263  0.0527 -0.3593
   23TMC2    C7  366   4.230   4.242  14.321 -0.1567 -0.9061  0.2068
   23TMC2    C8  367   4.176   4.568  14.679 -0.7105 -0.0161  0.3589
   23TMC2    O1  368   4.312   4.154  14.283  0.2975  0.6376 -0.2694
   23TMC2    O2  369   4.068   4.611  14.639 -0.4340 -0.0025 -0.6369
   23TMC2    O5  370   4.275   4.657  14.692 -0.3084  0.3750 -0.1206
   23TMC2    H5  371   4.368   4.625  14.699 -0.8120 -1.0097  0.1052
   24MPD2     C  372   0.308   4.173  14.717 -0.0727 -0.0168 -0.0538
   24MPD2    C1  373   0.207   4.115  14.785 -0.3356  0.4635  0.3454
   24MPD2    C2  374   0.073   4.142  14.750  0.4414  0.2134  0.1319
   24MPD2    C3  375   0.046   4.232  14.649 -0.4220 -0.7695 -0.0664
   24MPD2    C4  376   0.148   4.285  14.575  0.0641 -0.5357  0.4182
   24MPD2    C5  377   0.280   4.255  14.610 -0.1548 -0.3352  0.6275
   24MPD2     H  378   4.724   4.094  14.797  0.5780 -0.3236 -0.1809
   24MPD2    H1  379   0.120   4.360  14.503  0.5578 -0.2907  0.4842
   24MPD2    H2  380   0.408   4.141  14.744 -1.0519 -1.6391  1.7266
   24MPD2    H3  381   0.360   4.309  14.561 -0.2208 -0.8025 -0.0105
   24MPD2     N  382   4.654   4.276  14.616 -0.2021 -0.1988  0.2816
   24MPD2    H5  383   4.643   4.348  14.545 -3.5079  1.0438  2.0419
   24MPD2    N1  384   0.228   4.009  14.884 -0.4544 -0.4264  0.2378
   24MPD2    H7  385   0.148   3.990  14.944  0.7960 -2.0020  1.4116
   25TMC2    C1  386   4.351   2.129  11.457  0.4879  0.2210 -0.0229
   25TMC2    C2  387   4.327   1.996  11.448 -0.3700 -0.8190 -0.6233
   25TMC2    C3  388   4.258   1.932  11.551 -0.9514 -0.3982  0.6086
   25TMC2    C4  389   4.320   2.205  11.567  0.4078  0.2530 -0.1244
   25TMC2    C5  390   4.250   2.139  11.669  0.3854 -0.3928 -0.8744
   25TMC2    C6  391   4.237   1.997  11.670  0.0261 -0.8607  0.8561
   25TMC2     C  392   4.376   2.208  11.336  0.2511  0.7831 -0.4638
   25TMC2     O  393   4.431   2.312  11.362 -0.0915  0.4240 -0.6478
   25TMC2     H  394   4.346   1.947  11.354  1.9069 -0.0382 -0.5765
   25TMC2    H1  395   4.330   2.313  11.563 -0.7430  0.3513 -0.5081
   25TMC2    H2  396   4.186   1.941  11.747  0.1028 -0.3764  1.2545
   25TMC2    C7  397   4.183   2.195  11.784  0.2906  0.6736  0.9061
   25TMC2    C8  398   4.214   1.799  11.539  0.9982  0.9434 -0.1700
   25TMC2    O1  399   4.119   2.109  11.848 -0.1414  0.1614 -0.2034
   25TMC2    O2  400   4.249   1.725  11.450  0.4962  0.0242  0.6408
   25TMC2    O5  401   4.091   1.793  11.586 -0.1006 -0.7456 -0.5314
   25TMC2    H5  402   4.057   1.852  11.656 -1.9437 -1.0528 -1.1446
   26MPD2     C  403   4.381   2.230  10.831  0.1595 -0.0883  0.2839
   26MPD2    C1  404   4.298   2.125  10.871 -0.1112 -0.1150  0.2022
   26MPD2    C2  405   4.278   2.117  11.003 -0.1643 -0.1807  0.1866
   26MPD2    C3  406   4.330   2.205  11.091 -0.1569 -0.1149 -0.0360
   26MPD2    C4  407   4.399   2.318  11.051  0.7629 -0.2876 -0.1973
   26MPD2    C5  408   4.428   2.325  10.921 -0.2493  0.0131 -0.0080
   26MPD2     H  409   4.218   2.041  11.051  0.4964 -0.3671  0.7084
   26MPD2    H1  410   4.440   2.388  11.123 -1.4271 -0.0509  0.8453
   26MPD2    H2  411   4.387   2.245  10.724  1.7380 -0.7386  0.2836
   26MPD2    H3  412   4.489   2.408  10.888 -3.1907  1.0394 -2.8728
   26MPD2     N  413   4.313   2.161  11.224  0.3511  0.5379 -0.1511
   26MPD2    H5  414   4.244   2.087  11.232 -1.5120  2.1155 -1.5566
   26MPD2    N1  415   4.244   2.038  10.779  0.6151  0.4704  1.0183
   26MPD2    H7  416   4.260   2.052  10.680 -1.6030 -1.0827  0.4509
   27TMC2    C1  417   2.862   0.377  11.971 -0.5376  0.5285 -0.0846
   27TMC2    C2  418   2.898   0.504  11.936 -0.1575 -0.2745 -0.2627
   27TMC2    C3  419   3.021   0.552  11.963  0.6923 -0.2703 -0.1291
   27TMC2    C4  420   2.940   0.307  12.053  0.3668 -0.0637  0.8111
   27TMC2    C5  421   3.062   0.348  12.088  0.0592  0.2708 -0.1548
   27TMC2    C6  422   3.106   0.475  12.044  0.0672  0.6705  0.1567
   27TMC2     C  423   2.745   0.319  11.915 -0.0079  0.8682 -0.2730
   27TMC2     O  424   2.695   0.361  11.806 -0.5271 -0.2955  0.4253
   27TMC2     H  425   2.833   0.565  11.874 -0.3388  0.9054  1.1040
   27TMC2    H1  426   2.918   0.204  12.079  2.0677 -0.1649  1.8264
   27TMC2    H2  427   3.194   0.528  12.078 -0.6504  0.2327  2.7488
   27TMC2    C7  428   3.157   0.268  12.164  0.3578 -0.3855  0.2860
   27TMC2    C8  429   3.038   0.698  11.960 -0.4602  0.5290 -0.1523
   27TMC2    O1  430   3.268   0.310  12.170  0.6489  0.4608  0.6956
   27TMC2    O2  431   2.944   0.772  11.958  0.0672 -0.3471  0.3193
   27TMC2    O5  432   3.162   0.743  11.929 -0.4593 -0.4254  0.2885
   27TMC2    H5  433   3.234   0.677  11.924 -1.4261 -1.4093 -0.4327
   28MPD2     C  434   2.335   0.020  11.961 -0.6094 -1.0386  0.3021
   28MPD2    C1  435   2.408   0.000  12.080  0.4044  0.3549 -0.5364
   28MPD2    C2  436   2.532   0.059  12.078  0.2621 -0.3975  0.5646
   28MPD2    C3  437   2.577   0.147  11.979 -0.6885  0.4755 -0.1801
   28MPD2    C4  438   2.508   0.160  11.862 -0.0187  0.1946 -0.3172
   28MPD2    C5  439   2.389   0.091  11.857 -0.7135  0.3411 -0.0295
   28MPD2     H  440   2.600   0.058  12.163  0.3092  1.2903  0.5576
   28MPD2    H1  441   2.544   0.214  11.775  0.6436 -1.9855 -1.3899
   28MPD2    H2  442   2.234   4.720  11.945 -0.1235 -1.2653 -2.1871
   28MPD2    H3  443   2.332   0.085  11.765  0.4037 -0.6052 -0.6679
   28MPD2     N  444   2.699   0.214  11.996  0.4412 -0.6565  0.4571
   28MPD2    H5  445   2.741   0.204  12.088  0.0218 -1.7990  0.5175
   28MPD2    N1  446   2.349   4.659  12.185  0.0077  0.0164 -0.4497
   28MPD2    H7  447   2.251   4.631  12.180  0.7968 -2.7671 -0.2133
   29TMC2    C1  448   2.611   1.577  14.381  0.0107  0.9018  0.3097
   29TMC2    C2  449   2.546   1.654  14.464  0.1983 -0.0360  0.2376
   29TMC2    C3  450   2.605   1.776  14.501 -0.0458  0.9753  0.2115
   29TMC2    C4  451   2.729   1.618  14.329  0.8423 -0.4801 -0.0010
   29TMC2    C5  452   2.784   1.740  14.358 -0.0821 -0.6673  0.9553
   29TMC2    C6  453   2.723   1.818  14.449 -0.1169 -1.1793  0.2590
   29TMC2     C  454   2.556   1.449  14.344  1.4160 -0.0123 -0.6681
   29TMC2     O  455   2.640   1.357  14.340 -0.4872  0.2599  0.2339
   29TMC2     H  456   2.450   1.633  14.509 -0.4431  0.5398 -0.8689
   29TMC2    H1  457   2.770   1.553  14.252 -2.1737 -2.4159  0.0181
   29TMC2    H2  458   2.754   1.920  14.469  0.2802 -1.8073  2.7485
   29TMC2    C7  459   2.910   1.783  14.291  0.5543  1.0339  0.0647
   29TMC2    C8  460   2.536   1.860  14.592 -0.4755  0.2303 -0.3744
   29TMC2    O1  461   2.969   1.698  14.220 -0.2227  0.0709 -0.4895
   29TMC2    O2  462   2.419   1.835  14.623  0.5489  0.1214 -0.1301
   29TMC2    O5  463   2.622   1.920  14.679  0.3634 -0.1561 -0.3508
   29TMC2    H5  464   2.715   1.911  14.649  0.9527  1.4995  0.9477
   30MPD2     C  465   2.166   1.123  14.253  0.4784 -0.7806 -0.4924
   30MPD2    C1  466   2.304   1.094  14.252  0.2516  0.0976  0.1149
   30MPD2    C2  467   2.385   1.202  14.293 -0.3548  0.3141 -0.2079
   30MPD2    C3  468   2.336   1.331  14.318 -0.2049  0.0045  0.4118
   30MPD2    C4  469   2.205   1.349  14.328  0.0780 -0.0324 -0.6895
   30MPD2    C5  470   2.124   1.243  14.302 -0.2122 -0.5178 -0.3919
   30MPD2     H  471   2.490   1.179  14.300  0.3394  3.2669 -0.8981
   30MPD2    H1  472   2.160   1.438  14.370 -1.0394 -0.2156 -1.4967
   30MPD2    H2  473   2.090   1.048  14.234 -0.9470  0.4109  0.5238
   30MPD2    H3  474   2.017   1.257  14.309 -0.4800 -3.5140  1.7677
   30MPD2     N  475   2.419   1.443  14.350  0.1968  0.2457 -0.0467
   30MPD2    H5  476   2.365   1.527  14.367 -1.7463 -0.3437 -3.3161
   30MPD2    N1  477   2.363   0.971  14.239 -0.4806  0.3397 -0.2940
   30MPD2    H7  478   2.462   0.964  14.260 -0.3371 -2.2135 -1.8655
   31TMC2    C1  479   4.712   0.045  15.689 -0.0837 -0.5026  0.8545
   31TMC2    C2  480   4.580   0.024  15.659 -0.1577 -0.5862 -0.6106
   31TMC2    C3  481   4.496   4.725  15.764  0.4757  0.6605 -0.1214
   31TMC2    C4  482   0.028   0.044  15.818  0.2608 -0.1202  0.0769
   31TMC2    C5  483   4.679   4.735  15.912 -0.0803  0.5080  0.1416
   31TMC2    C6  484   4.547   4.708  15.895 -0.8068 -0.1184  0.1067
   31TMC2     C  485   0.056   0.051  15.565 -1.1653 -0.1308  0.1421
   31TMC2     O  486   4.734   0.094  15.464 -0.6744  0.4531  0.3538
   31TMC2     H  487   4.551   0.034  15.555 -1.0710 -0.8539 -0.3869
   31TMC2    H1  488   0.134   0.067  15.827  0.0708 -0.3403  3.0614
   31TMC2    H2  489   4.499   4.667  15.983 -1.2022 -2.6050 -1.2778
   31TMC2    C7  490   4.736   4.691  16.043  0.2886 -0.1286 -0.1222
   31TMC2    C8  491   4.356   4.711  15.742 -0.3182  0.3107  0.5497
   31TMC2    O1  492   4.676   4.597  16.093  0.5983  0.5429  0.2974
   31TMC2    O2  493   4.286   0.041  15.667  0.0955  0.6366 -0.3663
   31TMC2    O5  494   4.315   4.634  15.844 -0.4685 -0.3688  0.5280
   31TMC2    H5  495   4.378   4.562  15.868  0.9867  0.9166  0.5911
   32MPD2     C  496   0.502   0.014  15.307  0.3039 -0.3742 -0.7811
   32MPD2    C1  497   0.376   0.058  15.270  0.0635  0.0039 -0.7443
   32MPD2    C2  498   0.275   0.061  15.364  0.4455 -0.3066  0.5319
   32MPD2    C3  499   0.289   0.009  15.488 -0.8102 -0.0429  0.3303
   32MPD2    C4  500   0.420   4.704  15.525  0.5750 -0.6494 -0.3528
   32MPD2    C5  501   0.520   4.703  15.434 -0.1627  0.1243  0.4162
   32MPD2     H  502   0.181   0.106  15.334  0.9732 -0.1545 -0.8865
   32MPD2    H1  503   0.437   4.670  15.626 -1.8573 -0.0953  0.2585
   32MPD2    H2  504   0.586   0.014  15.238  1.3650  2.3271  0.5222
   32MPD2    H3  505   0.615   4.662  15.466  1.0459  1.1534 -1.7886
   32MPD2     N  506   0.188   0.008  15.588 -0.0497 -0.3670 -0.2929
   32MPD2    H5  507   0.218   4.708  15.678 -1.5567 -0.2280  0.2835
   32MPD2    N1  508   0.368   0.121  15.144  0.4419  0.3429 -0.6461
   32MPD2    H7  509   0.451   0.124  15.086  0.2628  1.8502 -0.8159
   33TMC2    C1  510   0.523   3.283   9.834 -0.1348 -0.0904 -0.6090
   33TMC2    C2  511   0.477   3.200   9.737  0.2312 -0.6801 -0.6232
   33TMC2    C3  512   0.536   3.213   9.617 -0.0083  0.0198  0.7997
   33TMC2    C4  513   0.615   3.385   9.813  0.4735  0.2940  0.0617
   33TMC2    C5  514   0.666   3.393   9.683 -0.0464  0.2097  0.8088
   33TMC2    C6  515   0.636   3.303   9.583  0.2651  0.3159 -0.5377
   33TMC2     C  516   0.461   3.262   9.967  0.3074  0.8816  0.7578
   33TMC2     O  517   0.386   3.164   9.982 -0.0133 -0.7299 -0.2661
   33TMC2     H  518   0.393   3.135   9.758 -1.3735  1.2292 -1.1212
   33TMC2    H1  519   0.654   3.457   9.883  1.5269  0.9298 -1.1827
   33TMC2    H2  520   0.685   3.309   9.487 -0.2369  4.4256 -0.5238
   33TMC2    C7  521   0.781   3.474   9.678 -0.2746 -0.2397  0.1378
   33TMC2    C8  522   0.496   3.119   9.519  0.5379  0.8882  0.0807
   33TMC2    O1  523   0.795   3.569   9.753 -0.0415 -0.0204  0.2502
   33TMC2    O2  524   0.414   3.029   9.546 -0.2424  0.6163  0.2503
   33TMC2    O5  525   0.494   3.183   9.407  0.2027  0.6632 -0.6194
   33TMC2    H5  526   0.578   3.232   9.397 -0.3610  1.6243 -0.7183
   34MPD2     C  527   0.363   3.365  10.458  0.2715 -0.1836  0.2821
   34MPD2    C1  528   0.333   3.254  10.384  0.6264  0.1554  0.7549
   34MPD2    C2  529   0.389   3.245  10.261  0.1787 -0.3236  0.6390
   34MPD2    C3  530   0.460   3.349  10.200  0.5277 -0.0878 -0.3885
   34MPD2    C4  531   0.464   3.470  10.271 -0.5440  0.8727  0.4948
   34MPD2    C5  532   0.427   3.471  10.406  0.5875 -0.1471 -0.3357
   34MPD2     H  533   0.363   3.155  10.206  2.6408 -0.4608 -0.3213
   34MPD2    H1  534   0.519   3.554  10.230  0.6359 -0.3146 -0.3390
   34MPD2    H2  535   0.327   3.372  10.561 -0.6863  1.5246 -0.1560
   34MPD2    H3  536   0.454   3.556  10.467 -1.5914  0.3749 -0.1016
   34MPD2     N  537   0.504   3.349  10.064  0.2422 -0.5442  0.0365
   34MPD2    H5  538   0.548   3.430  10.022  2.0154 -2.0428 -1.0127
   34MPD2    N1  539   0.269   3.153  10.459 -0.6295  1.3660 -0.3981
   34MPD2    H7  540   0.247   3.182  10.553  3.7436  1.8741  0.4567
   35TMC2    C1  541   0.663   3.848  11.804  0.5444  0.0988  0.0222
   35TMC2    C2  542   0.531   3.889  11.807  0.2941  0.5645 -0.2998
   35TMC2    C3  543   0.455   3.836  11.910  0.1044 -0.2253 -0.5620
   35TMC2    C4  544   0.705   3.732  11.862 -0.1158 -0.4335  0.0910
   35TMC2    C5  545   0.612   3.668  11.944  0.5587  0.0044 -0.5062
   35TMC2    C6  546   0.489   3.716  11.969  0.2004 -0.0082 -0.0262
   35TMC2     C  547   0.750   3.934  11.724 -0.3144  0.0710  0.6164
   35TMC2     O  548   0.710   4.015  11.641 -0.0031 -0.0213  0.2495
   35TMC2     H  549   0.514   3.982  11.754 -1.5210  0.6611  0.4288
   35TMC2    H1  550   0.796   3.681  11.833  1.2444  1.1961  1.4419
   35TMC2    H2  551   0.430   3.676  12.050  0.3407  0.1796  0.1693
   35TMC2    C7  552   0.640   3.529  11.992  0.6249 -0.4610 -0.9895
   35TMC2    C8  553   0.321   3.881  11.938  0.4018  0.1702  0.4146
   35TMC2    O1  554   0.757   3.497  11.984  0.0186  0.4062  0.2637
   35TMC2    O2  555   0.237   3.804  11.978  0.3077  0.4990  0.2240
   35TMC2    O5  556   0.298   3.976  11.849  0.0461 -0.5513  0.8668
   35TMC2    H5  557   0.367   4.043  11.868 -0.9540 -0.3261  3.6615
   36MPD2     C  558   1.212   4.057  11.558 -0.0676 -0.4180 -0.4708
   36MPD2    C1  559   1.225   4.002  11.685 -0.0995 -0.2965  0.0098
   36MPD2    C2  560   1.114   3.945  11.749  0.0382  0.7130 -0.1647
   36MPD2    C3  561   0.993   3.946  11.687  0.8203 -0.0959 -0.0187
   36MPD2    C4  562   0.983   4.004  11.561  0.8678 -0.2585  0.4925
   36MPD2    C5  563   1.090   4.052  11.499 -0.7219  0.2854  0.7935
   36MPD2     H  564   1.120   3.906  11.850  4.8084 -0.5438 -0.9116
   36MPD2    H1  565   0.894   4.008  11.500 -0.2654  0.7453  2.2236
   36MPD2    H2  566   1.296   4.107  11.511 -0.1444  0.7105  0.6013
   36MPD2    H3  567   1.073   4.103  11.405  0.9219 -1.6596 -0.5686
   36MPD2     N  568   0.879   3.909  11.764 -0.6377 -0.7134 -0.1339
   36MPD2    H5  569   0.892   3.858  11.851  0.8096 -0.4244 -0.1852
   36MPD2    N1  570   1.359   3.996  11.739 -0.6840  0.0273  0.4566
   36MPD2    H7  571   1.433   4.035  11.681 -0.7940 -1.1716 -0.4685
   37TMC2    C1  572   4.041   0.575  12.078 -0.2557 -0.5182  0.1675
   37TMC2    C2  573   4.084   0.618  11.959  0.3744 -0.1888  0.1772
   37TMC2    C3  574   4.211   0.663  11.951  0.1509 -0.4475 -0.2462
   37TMC2    C4  575   4.125   0.564  12.191  0.2291  0.3946 -0.0357
   37TMC2    C5  576   4.256   0.589  12.168  0.0519  0.7557 -0.2206
   37TMC2    C6  577   4.303   0.656  12.055 -0.7757  0.4861 -0.5158
   37TMC2     C  578   3.911   0.512  12.091 -0.2422 -0.3145  0.2900
   37TMC2     O  579   3.812   0.537  12.019 -0.2065 -0.5815  0.5728
   37TMC2     H  580   4.017   0.616  11.874  0.0118 -0.7924  0.4756
   37TMC2    H1  581   4.102   0.513  12.284 -0.4118 -2.0932 -1.5570
   37TMC2    H2  582   4.408   0.657  12.029 -0.7333 -1.8358 -0.4284
   37TMC2    C7  583   4.355   0.546  12.268  0.6683 -0.0372 -0.3857
   37TMC2    C8  584   4.243   0.744  11.836  0.0770  0.6963 -0.2138
   37TMC2    O1  585   4.317   0.462  12.349  0.0198  0.0462 -0.2347
   37TMC2    O2  586   4.160   0.740  11.750  0.1749  0.8247 -0.7656
   37TMC2    O5  587   4.295   0.852  11.895  0.0767 -0.4418 -0.1186
   37TMC2    H5  588   4.368   0.836  11.959  0.6205 -1.2133 -0.9368
   38MPD2     C  589   3.633   0.105  12.237  0.2863  0.3612 -0.2365
   38MPD2    C1  590   3.760   0.085  12.297 -0.1946 -0.4540 -1.0568
   38MPD2    C2  591   3.848   0.191  12.278 -0.0631  0.3285 -0.4534
   38MPD2    C3  592   3.826   0.306  12.204  0.7200  0.0815  0.4773
   38MPD2    C4  593   3.697   0.326  12.162  0.1157  0.3463  1.0015
   38MPD2    C5  594   3.601   0.225  12.177  0.6591 -0.4018 -0.5760
   38MPD2     H  595   3.950   0.172  12.311  0.0179 -0.3207 -1.0660
   38MPD2    H1  596   3.663   0.420  12.120  0.0903 -0.5067 -0.8815
   38MPD2    H2  597   3.548   0.039  12.242  1.6466 -1.3667  0.2478
   38MPD2    H3  598   3.498   0.241  12.150  0.2838  0.2316  1.2584
   38MPD2     N  599   3.928   0.400  12.173  0.6533  0.3107 -0.4229
   38MPD2    H5  600   4.023   0.377  12.202  0.9690  2.0845 -0.0382
   38MPD2    N1  601   3.801   4.714  12.374 -0.3127 -0.2224 -0.0006
   38MPD2    H7  602   3.885   4.714  12.430 -1.4162  0.0400  1.6325
   39TMC2    C1  603   2.804   1.245   1.739 -0.0493 -0.0694 -0.2664
   39TMC2    C2  604   2.802   1.301   1.863  1.0775  0.5626 -0.9686
   39TMC2    C3  605   2.919   1.339   1.925 -0.3281 -0.2690 -0.3150
   39TMC2    C4  606   2.920   1.229   1.671  0.0212  0.5295 -0.0579
   39TMC2    C5  607   3.032   1.255   1.743 -0.9275  0.1750 -0.1217
   39TMC2    C6  608   3.041   1.305   1.875  0.2517 -0.6260 -0.2254
   39TMC2     C  609   2.673   1.203   1.686 -0.2461 -0.0861  0.0703
   39TMC2     O  610   2.574   1.240   1.741 -0.4889  0.4356 -0.3570
   39TMC2     H  611   2.705   1.337   1.895  1.0412 -0.1056 -0.3423
   39TMC2    H1  612   2.925   1.200   1.566  2.0378  1.2521 -0.1781
   39TMC2    H2  613   3.135   1.327   1.924 -1.7237  1.1556  2.7539
   39TMC2    C7  614   3.150   1.268   1.658  0.3994  0.2305  0.0111
   39TMC2    C8  615   2.906   1.404   2.057  0.1269 -0.2732  0.1306
   39TMC2    O1  616   3.145   1.214   1.549 -0.1174 -0.0146 -0.4718
   39TMC2    O2  617   2.795   1.393   2.111 -0.1330  0.2822  0.5256
   39TMC2    O5  618   3.000   1.496   2.083 -0.0491 -0.4015 -0.2773
   39TMC2    H5  619   3.075   1.485   2.022  1.2716  0.2535  1.2347
   40MPD2     C  620   2.626   0.895   1.507 -1.0050 -0.5934  0.2153
   40MPD2    C1  621   2.593   1.022   1.544  0.3307  0.2475  0.1823
   40MPD2    C2  622   2.470   1.079   1.517  0.4495  0.8290  0.3751
   40MPD2    C3  623   2.366   1.009   1.466 -0.0460 -0.2201  0.5326
   40MPD2    C4  624   2.399   0.882   1.426 -0.8613  0.5007  0.0111
   40MPD2    C5  625   2.528   0.830   1.442  0.0520  0.0307 -0.7460
   40MPD2     H  626   2.457   1.181   1.552 -2.6543  0.3465  0.6404
   40MPD2    H1  627   2.322   0.815   1.390 -0.3389  0.1620 -0.4745
   40MPD2    H2  628   2.720   0.848   1.532 -0.2178  2.2696  2.6531
   40MPD2    H3  629   2.548   0.731   1.402  1.6343  0.1535 -0.2937
   40MPD2     N  630   2.234   1.062   1.444 -0.0195 -0.3683 -0.6041
   40MPD2    H5  631   2.169   0.992   1.413  1.6739 -2.5556  0.7905
   40MPD2    N1  632   2.695   1.093   1.608  0.1020  0.0459  0.0436
   40MPD2    H7  633   2.785   1.048   1.618 -1.1285 -2.9671 -2.4599
   41TMC2    C1  634   1.588   3.654  13.616  0.1968  0.9784  0.0985
   41TMC2    C2  635   1.657   3.767  13.640 -0.0223  0.6219 -0.2023
   41TMC2    C3  636   1.632   3.876  13.556  0.0303  0.6342 -0.4660
   41TMC2    C4  637   1.514   3.637  13.501  0.0303  0.1777  0.1312
   41TMC2    C5  638   1.491   3.746  13.417 -0.1018  0.4185 -0.3887
   41TMC2    C6  639   1.552   3.864  13.444  0.7215 -0.4367 -0.6628
   41TMC2     C  640   1.594   3.560  13.723 -0.1552 -0.9651  0.5669
   41TMC2     O  641   1.705   3.557  13.778 -0.1998 -0.1931  0.2371
   41TMC2     H  642   1.713   3.784  13.731 -0.8798  1.9777  0.0668
   41TMC2    H1  643   1.471   3.540  13.481 -1.2579  0.7794 -0.0279
   41TMC2    H2  644   1.525   3.948  13.382 -1.4422  0.1348  1.0648
   41TMC2    C7  645   1.385   3.737  13.322 -0.4031  0.4792  0.8197
   41TMC2    C8  646   1.664   3.999  13.616 -0.5164 -0.1755  0.1282
   41TMC2    O1  647   1.278   3.686  13.353  0.4516 -0.1167 -0.3213
   41TMC2    O2  648   1.751   4.014  13.697 -0.1693 -0.1416  0.3802
   41TMC2    O5  649   1.550   4.072  13.621 -0.0240  0.5970  0.5414
   41TMC2    H5  650   1.485   4.044  13.553  2.1934  1.0209 -1.7428
   42MPD2     C  651   1.361   3.311  13.875 -0.0937 -0.0169 -0.3436
   42MPD2    C1  652   1.464   3.406  13.866  0.2171  0.3725 -0.8376
   42MPD2    C2  653   1.547   3.415  13.984  0.0906 -0.4812  0.1900
   42MPD2    C3  654   1.534   3.330  14.098 -0.3551 -0.1437  0.0007
   42MPD2    C4  655   1.428   3.245  14.096 -0.1951 -0.0828 -0.4004
   42MPD2    C5  656   1.341   3.235  13.991  0.0059 -0.0484  0.3485
   42MPD2     H  657   1.631   3.483  13.987 -0.2618 -0.0508  0.2750
   42MPD2    H1  658   1.401   3.197  14.189 -1.4399  0.4634 -0.4787
   42MPD2    H2  659   1.282   3.289  13.804  0.5968 -2.5535 -0.3336
   42MPD2    H3  660   1.256   3.168  13.984 -0.0475 -0.0100  0.6062
   42MPD2     N  661   1.617   3.347  14.215 -0.6277 -0.4387  0.4220
   42MPD2    H5  662   1.594   3.294  14.298 -1.7249 -1.2588 -0.4173
   42MPD2    N1  663   1.482   3.484  13.750 -0.2895  0.2521  0.4982
   42MPD2    H7  664   1.398   3.493  13.694 -0.4116 -1.8773  0.3650
   43TMC2    C1  665   2.366   2.194   1.036  0.1415  0.7054 -0.1846
   43TMC2    C2  666   2.264   2.287   1.046  0.0429 -0.0791  0.1321
   43TMC2    C3  667   2.274   2.376   1.149 -0.4636  0.1868  0.5651
   43TMC2    C4  668   2.458   2.164   1.130 -0.1964 -0.5698  0.4302
   43TMC2    C5  669   2.456   2.247   1.235  0.8896 -0.9691  0.2948
   43TMC2    C6  670   2.363   2.348   1.249 -0.3478 -0.6862  0.8933
   43TMC2     C  671   2.418   2.145   0.908  0.2559 -0.7232 -0.0603
   43TMC2     O  672   2.487   2.046   0.919 -0.4130  0.2164  0.1609
   43TMC2     H  673   2.198   2.299   0.961  0.2132  0.6082  0.0964
   43TMC2    H1  674   2.538   2.092   1.114 -0.7728 -0.9412 -0.7475
   43TMC2    H2  675   2.344   2.409   1.337 -1.5682  1.2268 -0.7016
   43TMC2    C7  676   2.573   2.251   1.316  0.2587 -0.9016 -0.7045
   43TMC2    C8  677   2.168   2.472   1.158  0.4870  0.0321  0.9496
   43TMC2    O1  678   2.665   2.189   1.262 -0.1427 -0.4015 -0.0778
   43TMC2    O2  679   2.056   2.432   1.123 -0.3795 -0.2737  0.4191
   43TMC2    O5  680   2.191   2.545   1.267  0.0902 -0.0832 -0.4372
   43TMC2    H5  681   2.289   2.555   1.271 -0.4418  3.5836  2.6679
   44MPD2     C  682   2.492   2.182   0.406 -0.4865 -0.1031  0.0870
   44MPD2    C1  683   2.531   2.090   0.496  0.5378  0.7383  0.3740
   44MPD2    C2  684   2.487   2.103   0.626 -0.2954  0.2491 -0.4677
   44MPD2    C3  685   2.425   2.217   0.674 -1.4873 -0.0274  0.5178
   44MPD2    C4  686   2.406   2.319   0.581  0.0438  0.1569 -0.0150
   44MPD2    C5  687   2.429   2.298   0.450 -0.7364 -0.5816  0.2070
   44MPD2     H  688   2.511   2.020   0.691  0.8397  0.8605 -0.1079
   44MPD2    H1  689   2.362   2.413   0.614 -0.2099  0.1387 -0.2963
   44MPD2    H2  690   2.514   2.179   0.300 -1.4418  0.4992 -0.1320
   44MPD2    H3  691   2.409   2.381   0.382 -1.1943 -2.9525 -2.5536
   44MPD2     N  692   2.380   2.228   0.805 -0.2823 -0.5036  0.5042
   44MPD2    H5  693   2.344   2.320   0.830  2.8908  1.5036 -2.2116
   44MPD2    N1  694   2.587   1.964   0.467 -0.3116 -0.1311  0.7890
   44MPD2    H7  695   2.601   1.893   0.538  1.6707 -1.2181 -0.6667
   45TMC2    C1  696   3.867   4.422   9.840 -0.3115 -0.3509  1.1880
   45TMC2    C2  697   3.976   4.346   9.810 -0.1090 -0.1143  0.0286
   45TMC2    C3  698   4.099   4.407   9.798 -0.4501  0.2742 -0.2610
   45TMC2    C4  699   3.874   4.558   9.866 -0.2690  0.4731 -0.0262
   45TMC2    C5  700   3.999   4.613   9.850 -0.5993 -0.2004  0.0376
   45TMC2    C6  701   4.109   4.545   9.810  0.4150  0.1531  0.2145
   45TMC2     C  702   3.744   4.368   9.797 -0.4811 -0.6037 -0.2719
   45TMC2     O  703   3.740   4.257   9.750 -0.2110  0.7712  0.0123
   45TMC2     H  704   3.983   4.238   9.813 -1.9499 -0.2082  1.3091
   45TMC2    H1  705   3.798   4.620   9.913 -0.9229  1.1165 -1.9503
   45TMC2    H2  706   4.208   4.577   9.779  0.7298  1.1729  2.3166
   45TMC2    C7  707   4.011   0.020   9.877 -0.2297 -0.0232  0.3487
   45TMC2    C8  708   4.196   4.344   9.715 -0.0961  0.1041  0.8029
   45TMC2    O1  709   3.922   0.067   9.944  0.3776 -0.1052  0.7673
   45TMC2    O2  710   4.223   4.388   9.602 -0.0309 -0.0229  0.1245
   45TMC2    O5  711   4.232   4.225   9.768 -0.3678 -0.3075  0.1240
   45TMC2    H5  712   4.188   4.198   9.851 -0.6847 -0.5850 -0.1317
   46MPD2     C  713   3.467   4.317   9.680  0.5005  0.4125  0.3092
   46MPD2    C1  714   3.504   4.428   9.754  0.5093 -0.3079 -0.3179
   46MPD2    C2  715   3.406   4.526   9.766  0.0538  0.0649  0.1468
   46MPD2    C3  716   3.281   4.506   9.693  0.4221 -0.1262 -0.3609
   46MPD2    C4  717   3.256   4.386   9.629  0.1764 -0.7022  0.1286
   46MPD2    C5  718   3.353   4.294   9.619  0.0886  0.2556  0.0216
   46MPD2     H  719   3.426   4.620   9.816 -0.6826  0.2968  0.0142
   46MPD2    H1  720   3.169   4.371   9.567  0.7765 -1.1598 -0.6010
   46MPD2    H2  721   3.541   4.244   9.648 -1.2495 -2.4180  2.6855
   46MPD2    H3  722   3.330   4.203   9.564 -1.2854 -0.3224  1.5718
   46MPD2     N  723   3.190   4.614   9.682  0.3995 -0.1946  0.0642
   46MPD2    H5  724   3.221   4.708   9.699 -0.0202 -0.2300  1.0437
   46MPD2    N1  725   3.632   4.454   9.806 -0.4175 -0.2164 -0.2300
   46MPD2    H7  726   3.642   4.537   9.863  0.1721  0.4745 -1.3208
   47TMC2    C1  727   1.304   0.772   9.060  0.0940  0.1098 -0.0289
   47TMC2    C2  728   1.334   0.652   9.000  0.3053  0.1550  0.2538
   47TMC2    C3  729   1.244   0.593   8.919  0.4015  0.8774 -1.2498
   47TMC2    C4  730   1.185   0.835   9.029 -0.5166 -0.0152 -0.1701
   47TMC2    C5  731   1.105   0.772   8.939  0.9637  0.2176 -0.0008
   47TMC2    C6  732   1.126   0.652   8.887 -0.0408 -0.9182 -0.5586
   47TMC2     C  733   1.407   0.838   9.136  0.3533  0.2483  0.6352
   47TMC2     O  734   1.396   0.957   9.158 -0.5436 -0.2920  0.2612
   47TMC2     H  735   1.417   0.586   9.020 -0.5748 -1.1771 -0.4769
   47TMC2    H1  736   1.161   0.934   9.066  0.2031  0.1718 -0.2049
   47TMC2    H2  737   1.051   0.598   8.830 -0.6739 -0.2670 -0.3436
   47TMC2    C7  738   0.971   0.829   8.914  0.7889 -0.1716  0.5044
   47TMC2    C8  739   1.279   0.460   8.867 -0.0244  0.0187  0.0328
   47TMC2    O1  740   0.889   0.750   8.863  0.1836 -0.5478  0.0418
   47TMC2    O2  741   1.355   0.377   8.916 -0.0895  0.2245 -0.2053
   47TMC2    O5  742   1.251   0.456   8.731 -0.4431 -0.4292 -0.2116
   47TMC2    H5  743   1.212   0.543   8.709  0.0186  0.3044  1.8602
   48MPD2     C  744   1.620   0.879   9.338 -0.1870 -0.1963  0.1139
   48MPD2    C1  745   1.591   0.752   9.291  0.3511  0.6635  0.1205
   48MPD2    C2  746   1.635   0.637   9.346  0.4267 -0.0806  0.1471
   48MPD2    C3  747   1.736   0.644   9.438 -0.3727 -0.1261  0.4477
   48MPD2    C4  748   1.775   0.771   9.488  0.2114  0.2130  0.7738
   48MPD2    C5  749   1.713   0.889   9.442  0.1360 -1.1174 -0.2284
   48MPD2     H  750   1.599   0.539   9.318 -3.0317  0.5007  2.6108
   48MPD2    H1  751   1.849   0.790   9.565  2.1115  1.0042 -1.2486
   48MPD2    H2  752   1.582   0.968   9.291  2.1476 -0.4290 -2.1886
   48MPD2    H3  753   1.730   0.992   9.471 -2.3359 -0.9621  0.6534
   48MPD2     N  754   1.788   0.519   9.476  0.1601  0.9623 -0.2850
   48MPD2    H5  755   1.755   0.434   9.432  1.8215 -0.6175  1.4452
   48MPD2    N1  756   1.486   0.736   9.194  0.2228 -0.2118  0.2133
   48MPD2    H7  757   1.456   0.642   9.170 -1.6150  0.3648  0.2460
   49TMC2    C1  758   4.503   2.365   9.832  0.6344 -0.3119  0.0847
   49TMC2    C2  759   4.620   2.370   9.761 -0.5731  0.3772  0.3892
   49TMC2    C3  760   4.646   2.259   9.684 -0.2560 -0.0415 -0.0762
   49TMC2    C4  761   4.414   2.257   9.814 -0.1112 -0.1687  0.1981
   49TMC2    C5  762   4.451   2.149   9.749 -1.0719 -1.0541  0.5507
   49TMC2    C6  763   4.570   2.152   9.679  0.0513  0.1500 -0.5266
   49TMC2     C  764   4.457   2.485   9.899  0.3661  0.8201  0.1270
   49TMC2     O  765   4.469   2.600   9.861  0.0738  0.2280  0.0893
   49TMC2     H  766   4.694   2.446   9.781 -0.6453  0.4993  0.1912
   49TMC2    H1  767   4.318   2.269   9.862 -1.0614  1.4502 -2.0901
   49TMC2    H2  768   4.605   2.066   9.622 -0.4482 -0.5553  0.2334
   49TMC2    C7  769   4.344   2.056   9.714  0.4408 -0.2902 -0.0250
   49TMC2    C8  770   0.053   2.245   9.657  0.9435 -0.1172  0.1606
   49TMC2    O1  771   4.231   2.094   9.736 -0.0684  0.0499  0.0698
   49TMC2    O2  772   0.109   2.139   9.643 -0.2320  0.3525 -0.2773
   49TMC2    O5  773   0.100   2.363   9.599  0.4366  0.5776 -0.1991
   49TMC2    H5  774   0.032   2.433   9.585 -0.6412 -0.0153  1.9258
   50MPD2     C  775   4.342   2.678  10.101  0.2860 -0.0369 -0.3164
   50MPD2    C1  776   4.341   2.543  10.118  0.6965 -0.2268  0.0184
   50MPD2    C2  777   4.293   2.487  10.233 -0.1599 -0.1851 -0.4376
   50MPD2    C3  778   4.226   2.561  10.327  0.0350 -0.6380 -0.2157
   50MPD2    C4  779   4.222   2.698  10.306 -0.1850 -0.5689 -0.6894
   50MPD2    C5  780   4.272   2.752  10.192  0.5363 -0.5060 -0.2297
   50MPD2     H  781   4.304   2.379  10.230  0.3193 -0.1382 -0.4124
   50MPD2    H1  782   4.168   2.760  10.377 -4.3931 -2.5939 -2.1326
   50MPD2    H2  783   4.363   2.728  10.007 -0.2419  1.1424  0.2001
   50MPD2    H3  784   4.261   2.855  10.160  1.3473  0.7025  3.3769
   50MPD2     N  785   4.178   2.504  10.443 -0.1168 -0.2159  0.3055
   50MPD2    H5  786   4.141   2.571  10.510  0.2725  1.5232 -1.2219
   50MPD2    N1  787   4.409   2.451  10.027 -0.3645  0.2364 -0.4727
   50MPD2    H7  788   4.400   2.353  10.053 -0.8860  0.7583  1.3073
   51TMC2    C1  789   4.198   1.692   2.013  0.1716 -0.2821  0.2709
   51TMC2    C2  790   4.068   1.722   2.042 -0.0516 -0.1210  0.0816
   51TMC2    C3  791   4.039   1.853   2.058 -0.0117  0.4284 -0.6811
   51TMC2    C4  792   4.299   1.788   2.017  0.5136  0.3078  0.0872
   51TMC2    C5  793   4.269   1.923   2.034 -0.2060  0.3338 -0.5137
   51TMC2    C6  794   4.135   1.955   2.047  0.1925 -0.3340 -0.2208
   51TMC2     C  795   4.224   1.559   1.980  0.3398 -0.5028 -0.8342
   51TMC2     O  796   4.149   1.468   2.020 -0.0923  0.2205 -0.1641
   51TMC2     H  797   3.995   1.644   2.060 -0.0298 -0.1154  0.1933
   51TMC2    H1  798   4.404   1.765   2.024  0.4792  0.6526  1.7373
   51TMC2    H2  799   4.108   2.056   2.021 -0.1112 -0.4174 -0.2225
   51TMC2    C7  800   4.357   2.017   1.967  0.3842  0.7881 -0.5532
   51TMC2    C8  801   3.897   1.895   2.051  0.4897  0.4497  0.0381
   51TMC2    O1  802   4.439   1.972   1.890  0.4247  0.0734  0.4002
   51TMC2    O2  803   3.863   2.000   2.111 -0.4200  0.0775 -0.6324
   51TMC2    O5  804   3.887   1.891   1.915 -0.1389  0.4084  0.1921
   51TMC2    H5  805   3.939   1.819   1.874 -0.1082  0.6194 -0.1397
   52MPD2     C  806   4.489   1.258   1.658  0.0321 -0.7256 -0.4637
   52MPD2    C1  807   4.358   1.248   1.704 -0.5488  0.4783 -1.0882
   52MPD2    C2  808   4.310   1.337   1.807  0.6543 -0.5877  0.2119
   52MPD2    C3  809   4.397   1.438   1.848 -0.8719 -0.1395 -0.4800
   52MPD2    C4  810   4.523   1.446   1.803  0.5341 -0.1343  0.2321
   52MPD2    C5  811   4.566   1.364   1.700 -0.0706 -0.4295 -0.8215
   52MPD2     H  812   4.208   1.326   1.843  0.2680 -1.5631 -1.1582
   52MPD2    H1  813   4.586   1.524   1.844 -0.0435  1.3006 -1.6156
   52MPD2    H2  814   4.532   1.201   1.577  0.8432 -1.1246  0.2388
   52MPD2    H3  815   4.669   1.371   1.665  0.2394  0.2296  0.2301
   52MPD2     N  816   4.348   1.551   1.914  0.3867 -0.0233  0.4941
   52MPD2    H5  817   4.404   1.634   1.896  2.6388 -0.8277  3.7110
   52MPD2    N1  818   4.262   1.162   1.647  0.0321 -0.0843 -0.5110
   52MPD2    H7  819   4.171   1.166   1.694  1.1380 -1.4272  1.7883
   53TMC2    C1  820   4.722   0.262  12.829 -0.2013 -0.2682  1.1189
   53TMC2    C2  821   0.067   0.164  12.883  0.1549  0.3626 -0.5198
   53TMC2    C3  822   4.736   0.089  12.977 -0.3220 -0.3808  0.2682
   53TMC2    C4  823   4.588   0.273  12.843  0.1804  0.1721  0.5013
   53TMC2    C5  824   4.523   0.177  12.912 -0.4138  0.2845 -0.2830
   53TMC2    C6  825   4.593   0.088  12.981 -0.5256  0.0377  0.4749
   53TMC2     C  826   0.055   0.346  12.730 -0.3446  0.1883 -0.7278
   53TMC2     O  827   0.176   0.364  12.739 -0.6861  0.1078 -0.5035
   53TMC2     H  828   0.175   0.157  12.869  0.1825 -1.3046  0.4302
   53TMC2    H1  829   4.531   0.350  12.792  0.6340  0.4659  0.4408
   53TMC2    H2  830   4.538   0.015  13.039 -0.4914  1.6637  2.5793
   53TMC2    C7  831   4.386   0.151  12.873  1.4812 -0.3808  0.1338
   53TMC2    C8  832   0.079   4.735  13.054 -0.3455 -0.3027 -0.1625
   53TMC2    O1  833   4.340   0.240  12.802 -0.2269  0.0834  0.5331
   53TMC2    O2  834   0.191   4.709  13.005  0.7276  0.0907 -0.1445
   53TMC2    O5  835   0.009   4.669  13.148  0.2927 -0.3418 -0.5330
   53TMC2    H5  836   4.679   4.727  13.191 -0.6603 -1.2632 -0.7617
   54MPD2     C  837   0.083   0.546  12.490 -0.1184 -0.2123 -0.4813
   54MPD2    C1  838   4.703   0.474  12.524  0.0918 -0.2580  0.0930
   54MPD2    C2  839   4.589   0.494  12.453  0.1800 -0.4914  0.2735
   54MPD2    C3  840   4.586   0.585  12.351  0.5512  0.1525 -0.1009
   54MPD2    C4  841   4.696   0.660  12.315  0.6194 -0.0100 -0.3375
   54MPD2    C5  842   0.070   0.645  12.389 -1.0363 -0.0792  0.0671
   54MPD2     H  843   4.495   0.444  12.477  0.4201 -0.4721  1.2487
   54MPD2    H1  844   4.693   0.729  12.232  0.1795  1.1151  0.6228
   54MPD2    H2  845   0.171   0.526  12.550  0.1683 -0.6019 -1.0302
   54MPD2    H3  846   0.154   0.705  12.354  0.1896 -1.9899 -0.2464
   54MPD2     N  847   4.473   0.615  12.268 -0.0407 -0.0494  0.1251
   54MPD2    H5  848   4.476   0.694  12.204  1.7147 -0.1285  0.1285
   54MPD2    N1  849   4.698   0.382  12.629  0.5070 -0.7139 -0.1773
   54MPD2    H7  850   4.607   0.342  12.644  1.2321 -2.5462 -0.7206
   55TMC2    C1  851   0.964   2.055  17.548  0.0160 -0.5502  0.4392
   55TMC2    C2  852   0.868   2.022  17.455  0.1542  0.7473  0.8686
   55TMC2    C3  853   0.795   1.906  17.470 -0.6249 -0.1213 -0.4461
   55TMC2    C4  854   0.983   1.982  17.659  0.7594 -0.6229  0.0638
   55TMC2    C5  855   0.915   1.862  17.667  0.3824  0.0101  0.3055
   55TMC2    C6  856   0.815   1.821  17.579 -0.6229 -0.0769  0.8173
   55TMC2     C  857   0.971   2.202  17.570  0.0428  0.2541  0.5300
   55TMC2     O  858   0.979   2.238  17.687  0.6790  0.4143 -0.2790
   55TMC2     H  859   0.852   2.090  17.372  0.1915  0.3468  0.5375
   55TMC2    H1  860   1.061   2.019  17.725 -0.3487  2.3374 -0.2661
   55TMC2    H2  861   0.756   1.732  17.596 -0.6649 -0.3531 -0.7443
   55TMC2    C7  862   0.943   1.762   0.032  0.3712  0.4464  0.0517
   55TMC2    C8  863   0.679   1.869  17.391 -0.7201  0.4505 -0.1589
   55TMC2    O1  864   0.920   1.645   0.007 -1.0835 -0.2397 -0.2322
   55TMC2    O2  865   0.643   1.750  17.383  0.0531 -0.7184  0.1920
   55TMC2    O5  866   0.628   1.969  17.315  0.2740  0.1433 -0.6179
   55TMC2    H5  867   0.649   2.059  17.347 -1.4613  0.7170 -1.0774
   56MPD2     C  868   0.936   2.462  17.305  0.0412  0.1401 -0.0232
   56MPD2    C1  869   0.929   2.412  17.438  0.1285 -0.6788  0.0885
   56MPD2    C2  870   0.891   2.487  17.546  0.6036 -0.1337 -0.5663
   56MPD2    C3  871   0.833   2.612  17.520  0.2816  0.8740  1.1004
   56MPD2    C4  872   0.822   2.663  17.391 -0.3025  0.3875  0.3531
   56MPD2    C5  873   0.880   2.587  17.289 -0.7126  0.0325 -0.3253
   56MPD2     H  874   0.899   2.450  17.648  2.6987  0.2958 -0.5785
   56MPD2    H1  875   0.779   2.761  17.376 -1.7744 -0.0789  1.4960
   56MPD2    H2  876   0.968   2.416  17.213 -1.5490  1.6785 -1.3319
   56MPD2    H3  877   0.869   2.631  17.191  3.5238  1.0265 -0.3216
   56MPD2     N  878   0.795   2.689  17.638 -0.2265 -0.3822 -0.0428
   56MPD2    H5  879   0.836   2.667  17.729 -0.2560  0.5337  0.1876
   56MPD2    N1  880   0.968   2.269  17.451 -0.1450 -0.1410 -0.2029
   56MPD2    H7  881   0.989   2.220  17.365  1.2175  1.0428 -0.5405
   57TMC2    C1  882   4.426   3.146  13.184 -1.1917  0.2653  0.4848
   57TMC2    C2  883   4.357   3.213  13.081  0.4429  0.1770  0.5372
   57TMC2    C3  884   4.418   3.315  13.022 -0.5375  0.0630 -0.4981
   57TMC2    C4  885   4.558   3.171  13.203 -0.0929  0.5388 -0.8253
   57TMC2    C5  886   4.617   3.272  13.134 -0.9285 -0.0995  0.3762
   57TMC2    C6  887   4.549   3.334  13.032  0.3646 -0.1126  0.1145
   57TMC2     C  888   4.353   3.134  13.308 -0.3105  0.0440  0.4532
   57TMC2     O  889   4.407   3.155  13.413 -0.2736  0.2615 -0.1108
   57TMC2     H  890   4.249   3.206  13.080  0.4119  1.0811 -1.9951
   57TMC2    H1  891   4.601   3.119  13.287 -1.9787  0.2041 -0.0518
   57TMC2    H2  892   4.605   3.414  12.983  1.8881  0.2739  2.4469
   57TMC2    C7  893   0.016   3.308  13.164  0.7814 -0.1176 -0.2177
   57TMC2    C8  894   4.351   3.414  12.948 -0.7802 -0.1193 -0.1382
   57TMC2    O1  895   0.059   3.424  13.150 -0.0388  0.4643  0.1388
   57TMC2    O2  896   4.413   3.511  12.899 -0.2143  0.4873 -0.0269
   57TMC2    O5  897   4.233   3.372  12.899  0.0282  0.1082  0.0167
   57TMC2    H5  898   4.197   3.286  12.929 -1.3142  0.7461  0.2487
   58MPD2     C  899   3.904   3.088  13.548  0.6847 -0.0095  0.0455
   58MPD2    C1  900   4.036   3.112  13.595 -0.0093  0.5476  0.4001
   58MPD2    C2  901   4.140   3.108  13.509  0.8039 -0.2291 -0.0437
   58MPD2    C3  902   4.125   3.082  13.378  0.3979  0.2669  0.0235
   58MPD2    C4  903   3.998   3.039  13.333 -0.7993 -0.0541 -1.0784
   58MPD2    C5  904   3.893   3.044  13.418 -0.1388  0.3154 -0.5509
   58MPD2     H  905   4.230   3.143  13.557 -0.0350  1.1822  0.4972
   58MPD2    H1  906   3.992   3.007  13.230 -1.2761  0.5592 -1.2421
   58MPD2    H2  907   3.812   3.091  13.605  0.3994  2.6599 -0.5909
   58MPD2    H3  908   3.793   3.036  13.377 -0.6170 -1.8707  1.0416
   58MPD2     N  909   4.236   3.077  13.284 -0.2275  0.0006  0.1247
   58MPD2    H5  910   4.208   3.058  13.189 -0.7322 -0.5185  0.3765
   58MPD2    N1  911   4.049   3.153  13.728 -0.1087  0.2158  0.1120
   58MPD2    H7  912   4.138   3.189  13.762 -0.4880  0.6325  0.6517
   59TMC2    C1  913   2.280   3.315  12.734  0.4644  0.4002 -0.5560
   59TMC2    C2  914   2.376   3.377  12.650  0.4498  0.1806 -0.0733
   59TMC2    C3  915   2.340   3.414  12.517  0.1612  0.8532  1.1979
   59TMC2    C4  916   2.150   3.292  12.699 -0.0848  0.0940 -0.7706
   59TMC2    C5  917   2.114   3.332  12.569 -0.0349 -0.2015  0.2325
   59TMC2    C6  918   2.209   3.382  12.480 -0.5853  0.2011 -0.2429
   59TMC2     C  919   2.301   3.280  12.872 -0.5550 -0.1005 -0.0049
   59TMC2     O  920   2.227   3.196  12.919  0.4870  0.6080 -0.9529
   59TMC2     H  921   2.481   3.385  12.678 -0.2372 -1.3603  2.9740
   59TMC2    H1  922   2.073   3.250  12.762  1.7147 -0.6156  0.9518
   59TMC2    H2  923   2.183   3.378  12.375 -1.6909  2.2984 -0.0341
   59TMC2    C7  924   1.977   3.306  12.524  0.4120 -0.2023 -0.0243
   59TMC2    C8  925   2.439   3.444  12.417  0.2536 -0.4865  1.0785
   59TMC2    O1  926   1.915   3.217  12.584  0.1506  0.0428 -0.0712
   59TMC2    O2  927   2.560   3.436  12.439  0.5868  0.2731  0.0546
   59TMC2    O5  928   2.381   3.515  12.319  0.3025  0.2214 -0.4133
   59TMC2    H5  929   2.286   3.540  12.315  0.4790  0.7646 -1.0568
   60MPD2     C  930   2.401   3.254  13.145 -0.3273 -0.3367  0.5511
   60MPD2    C1  931   2.427   3.361  13.066 -0.3709  0.6718 -0.4796
   60MPD2    C2  932   2.505   3.462  13.115 -1.1260  0.3949 -0.0261
   60MPD2    C3  933   2.557   3.457  13.244 -0.8638  0.4677 -0.0683
   60MPD2    C4  934   2.545   3.338  13.314  0.2882  0.3928 -0.3526
   60MPD2    C5  935   2.452   3.242  13.265 -0.2558  0.5088  0.2411
   60MPD2     H  936   2.533   3.534  13.039 -2.0273 -1.2506 -1.8901
   60MPD2    H1  937   2.593   3.339  13.411 -2.2133  0.5597  0.9017
   60MPD2    H2  938   2.343   3.168  13.114 -2.0289  0.5724  1.2023
   60MPD2    H3  939   2.441   3.151  13.322  1.5627  0.7558  0.9697
   60MPD2     N  940   2.629   3.562  13.310 -0.0271  0.2049 -0.8329
   60MPD2    H5  941   2.677   3.546  13.398  0.3037  1.1854 -0.8305
   60MPD2    N1  942   2.391   3.368  12.930 -0.5065 -0.2495  0.0951
   60MPD2    H7  943   2.417   3.449  12.875  4.0581 -2.3410 -0.8138
   61TMC2    C1  944   1.781   4.182  15.704  0.4784  0.1312  0.2947
   61TMC2    C2  945   1.688   4.104  15.763 -0.3364  0.1922 -0.4106
   61TMC2    C3  946   1.612   4.151  15.863 -0.3536  0.4782  0.0365
   61TMC2    C4  947   1.777   4.316  15.733  0.7655  0.6297 -0.4489
   61TMC2    C5  948   1.687   4.364  15.826  0.2051 -0.3720 -0.5366
   61TMC2    C6  949   1.609   4.284  15.900 -0.4450 -0.0732 -0.2323
   61TMC2     C  950   1.847   4.126  15.590 -0.2989 -0.2813  0.1005
   61TMC2     O  951   1.855   4.004  15.579 -0.1672 -0.0799 -0.2607
   61TMC2     H  952   1.683   4.003  15.723 -1.5478 -0.0818  0.4617
   61TMC2    H1  953   1.852   4.380  15.688 -0.0967  1.5160 -0.6230
   61TMC2    H2  954   1.530   4.315  15.967 -1.2989 -0.7189 -0.9574
   61TMC2    C7  955   1.702   4.511  15.851  0.3166  0.8461  0.6074
   61TMC2    C8  956   1.504   4.064  15.899  0.5915  1.0225 -0.0807
   61TMC2    O1  957   1.762   4.573  15.771  0.7632 -0.2579  0.5626
   61TMC2    O2  958   1.511   3.942  15.892 -0.7821  0.3916  0.3911
   61TMC2    O5  959   1.384   4.125  15.888 -0.1740 -0.0694 -0.4520
   61TMC2    H5  960   1.392   4.220  15.864  0.7235 -0.0799 -0.2162
   62MPD2     C  961   2.025   4.062  15.355 -0.0655  0.5958  0.0983
   62MPD2    C1  962   1.969   4.187  15.380  0.2380  0.2742  0.0913
   62MPD2    C2  963   1.970   4.285  15.279 -0.1154 -0.0684  0.6578
   62MPD2    C3  964   2.025   4.257  15.157 -0.2298  0.0803  0.3242
   62MPD2    C4  965   2.077   4.131  15.138 -0.0220 -0.3387  0.9959
   62MPD2    C5  966   2.075   4.034  15.232 -0.0443  0.4685  0.5093
   62MPD2     H  967   1.912   4.377  15.282 -1.0712 -0.6209 -0.9994
   62MPD2    H1  968   2.111   4.105  15.039 -0.7718  0.7825  0.4393
   62MPD2    H2  969   2.020   3.978  15.423 -2.1318  1.0619  0.5397
   62MPD2    H3  970   2.109   3.934  15.206 -0.3825  1.5081 -3.9543
   62MPD2     N  971   2.036   4.342  15.043  0.0754  0.0883  0.5426
   62MPD2    H5  972   2.079   4.307  14.957  4.2692  0.8628  2.2955
   62MPD2    N1  973   1.895   4.222  15.496 -0.0630 -0.6442  0.3892
   62MPD2    H7  974   1.864   4.318  15.501 -0.0858 -0.6358  0.0636
   63TMC2    C1  975   1.463   0.602  10.426  0.6247  1.1946 -0.0363
   63TMC2    C2  976   1.513   0.595  10.554  0.2154 -0.4763 -0.1906
   63TMC2    C3  977   1.609   0.687  10.588  0.2519 -0.2597 -0.2927
   63TMC2    C4  978   1.512   0.688  10.333 -0.5480  0.0410 -0.1125
   63TMC2    C5  979   1.620   0.763  10.368  0.1180  0.2525  0.1205
   63TMC2    C6  980   1.660   0.770  10.497 -0.2620  0.3886 -0.2862
   63TMC2     C  981   1.381   0.493  10.381  0.3379 -0.4127  0.0985
   63TMC2     O  982   1.357   0.495  10.264  0.8466  0.4464 -0.3953
   63TMC2     H  983   1.474   0.535  10.636 -0.0770 -2.4985 -1.8010
   63TMC2    H1  984   1.476   0.680  10.231 -1.1064 -0.1542  0.0958
   63TMC2    H2  985   1.753   0.822  10.519 -0.7850  0.4478  1.8079
   63TMC2    C7  986   1.678   0.859  10.272 -0.1457 -0.2015  0.6557
   63TMC2    C8  987   1.660   0.687  10.723  1.0221 -0.0677 -0.7535
   63TMC2    O1  988   1.742   0.955  10.315  0.3553  0.0264 -0.0585
   63TMC2    O2  989   1.629   0.594  10.799 -0.0588 -0.4727  0.4420
   63TMC2    O5  990   1.676   0.818  10.761 -0.3644 -0.0948  0.1537
   63TMC2    H5  991   1.685   0.880  10.685  1.7239  1.7182  1.8848
   64MPD2     C  992   1.251   0.001  10.390 -0.3410  0.6469 -0.6497
   64MPD2    C1  993   1.294   0.028  10.515  0.1955  0.6881  0.4779
   64MPD2    C2  994   1.342   0.158  10.547 -0.2317  0.1524  0.0244
   64MPD2    C3  995   1.332   0.260  10.447  0.5278  0.3039 -0.4314
   64MPD2    C4  996   1.287   0.228  10.316  0.0716 -0.1543  0.4226
   64MPD2    C5  997   1.249   0.103  10.295 -0.1424  0.4700 -0.0189
   64MPD2     H  998   1.385   0.176  10.645 -0.8158 -2.4366  0.7619
   64MPD2    H1  999   1.281   0.292  10.229 -1.1285 -2.1120 -0.9286
   64MPD2    H2 1000   1.213   4.644  10.349 -2.1354  0.7985  0.6559
   64MPD2    H3 1001   1.215   0.065  10.199 -1.8090  1.1607  0.2844
   64MPD2     N 1002   1.376   0.388  10.475 -0.1604 -0.3105  0.6200
   64MPD2    H5 1003   1.429   0.396  10.561 -1.1861  0.0474  1.2164
   64MPD2    N1 1004   1.307   4.661  10.607  0.1523  0.3885  0.4926
   64MPD2    H7 1005   1.352   4.679  10.696  1.8665  0.0710 -0.2953
   65TMC2    C1 1006   2.161   4.441  15.594 -0.7253 -0.3432  0.2559
   65TMC2    C2 1007   2.212   4.439  15.466 -0.4590  0.2997 -0.1601
   65TMC2    C3 1008   2.199   4.549  15.388 -0.4220 -0.2766  0.8771
   65TMC2    C4 1009   2.083   4.548  15.633  0.2527 -0.0061  0.0594
   65TMC2    C5 1010   2.073   4.655  15.548 -0.4624 -1.2748 -0.6977
   65TMC2    C6 1011   2.133   4.664  15.420 -0.9679  0.0199  0.0832
   65TMC2     C 1012   2.172   4.328  15.688 -0.0993  0.4169  1.0908
   65TMC2     O 1013   2.117   4.339  15.796  0.7987 -0.0918 -0.0992
   65TMC2     H 1014   2.255   4.353  15.416  1.5877  0.4876  1.2689
   65TMC2    H1 1015   2.043   4.543  15.734 -2.5407 -0.8052 -1.0846
   65TMC2    H2 1016   2.110   0.017  15.362  0.2312  1.0610  1.1945
   65TMC2    C7 1017   2.064   0.050  15.609  0.4593  0.1209  0.3576
   65TMC2    C8 1018   2.287   4.545  15.268  0.2619  0.1207  0.0224
   65TMC2    O1 1019   2.109   0.150  15.552 -0.1548 -0.0599 -0.1163
   65TMC2    O2 1020   2.320   4.439  15.216  0.4931 -0.3862  0.2446
   65TMC2    O5 1021   2.325   4.671  15.244 -0.2005 -0.3513 -0.1401
   65TMC2    H5 1022   2.316   4.725  15.325  1.9999  0.7323 -0.6184
   66MPD2     C 1023   2.267   4.105  15.854 -0.1838 -0.1143  0.4245
   66MPD2    C1 1024   2.285   4.109  15.719  0.0683  0.6498  0.4622
   66MPD2    C2 1025   2.324   3.989  15.657 -0.3223  1.5452  0.4035
   66MPD2    C3 1026   2.356   3.876  15.732 -0.4385  0.3063 -0.1076
   66MPD2    C4 1027   2.351   3.874  15.868  0.7514 -0.2771 -0.3807
   66MPD2    C5 1028   2.306   3.994  15.931  0.5626 -0.0395 -0.2386
   66MPD2     H 1029   2.324   3.996  15.549  0.8267  0.7926  0.3590
   66MPD2    H1 1030   2.379   3.792  15.934 -0.2759  0.9086  1.5190
   66MPD2    H2 1031   2.244   4.195  15.910  0.3461 -0.4198  1.1432
   66MPD2    H3 1032   2.311   3.989  16.039  0.4839  1.1894 -0.1794
   66MPD2     N 1033   2.400   3.759  15.669 -0.0816  0.5700  0.1221
   66MPD2    H5 1034   2.436   3.685  15.728  0.0954 -0.1962 -0.9381
   66MPD2    N1 1035   2.243   4.220  15.640 -0.7196  0.2617  0.1459
   66MPD2    H7 1036   2.265   4.221  15.541  2.9019 -0.5271  0.9493
   67TMC2    C1 1037   2.622   3.285  14.208  0.1384  0.3734 -0.7132
   67TMC2    C2 1038   2.522   3.367  14.251  0.8762 -0.4965 -0.5783
   67TMC2    C3 1039   2.523   3.389  14.389  0.1587  0.2908 -0.6658
   67TMC2    C4 1040   2.712   3.228  14.294  0.5242 -0.1916 -0.0161
   67TMC2    C5 1041   2.708   3.258  14.425  0.2987  0.5676 -0.5431
   67TMC2    C6 1042   2.617   3.339  14.476 -0.2314 -0.1506 -0.2004
   67TMC2     C 1043   2.636   3.241  14.072 -0.1276  0.7705  0.4085
   67TMC2     O 1044   2.750   3.229  14.034 -0.1284  0.1328 -0.1159
   67TMC2     H 1045   2.448   3.405  14.183  0.8662  3.1434  1.4673
   67TMC2    H1 1046   2.793   3.168  14.255  1.3647 -0.6950  2.4827
   67TMC2    H2 1047   2.588   3.348  14.580 -0.2482  0.2290 -0.2393
   67TMC2    C7 1048   2.791   3.174  14.508 -0.2064  0.1442  0.7354
   67TMC2    C8 1049   2.430   3.496  14.435 -0.6053  0.1162  0.0014
   67TMC2    O1 1050   2.832   3.068  14.458 -0.1691  0.5094  0.1151
   67TMC2    O2 1051   2.384   3.500  14.552 -0.6365 -0.3009 -0.4307
   67TMC2    O5 1052   2.416   3.594  14.349 -0.2831 -0.1050 -0.6476
   67TMC2    H5 1053   2.483   3.579  14.279  0.7054  1.1087  0.0394
   68MPD2     C 1054   2.592   3.172  13.780 -0.1355  0.2640  0.0164
   68MPD2    C1 1055   2.495   3.194  13.875  0.4120  0.2299 -0.2654
   68MPD2    C2 1056   2.365   3.191  13.851  0.6896  0.2464 -0.7115
   68MPD2    C3 1057   2.321   3.178  13.719  0.3226  0.5616 -0.1688
   68MPD2    C4 1058   2.413   3.168  13.619  0.8973  0.2657 -0.3977
   68MPD2    C5 1059   2.550   3.159  13.648  0.0112  0.1554  0.2132
   68MPD2     H 1060   2.292   3.206  13.930  0.1100 -0.2905 -1.1404
   68MPD2    H1 1061   2.377   3.160  13.518  1.3045 -0.1738 -0.5124
   68MPD2    H2 1062   2.697   3.180  13.808 -0.3615 -0.3461  1.0283
   68MPD2    H3 1063   2.618   3.145  13.565 -1.6354 -4.0443 -0.4631
   68MPD2     N 1064   2.190   3.176  13.679 -0.5649 -0.1550 -0.2424
   68MPD2    H5 1065   2.171   3.185  13.580  3.0887  0.2325 -0.8962
   68MPD2    N1 1066   2.518   3.222  14.011 -0.0376  0.0380  0.5415
   68MPD2    H7 1067   2.438   3.219  14.072  0.6343  1.8060  1.4965
   69TMC2    C1 1068   4.446   0.900  12.703 -0.0966 -0.3013 -0.3041
   69TMC2    C2 1069   4.321   0.959  12.696 -0.3028 -0.4712  0.4433
   69TMC2    C3 1070   4.301   1.057  12.601 -0.1388 -0.8303 -0.2193
   69TMC2    C4 1071   4.547   0.930  12.612 -0.3136 -0.0441  0.5991
   69TMC2    C5 1072   4.520   1.016  12.513  0.4868 -0.2453  0.3039
   69TMC2    C6 1073   4.393   1.082  12.498 -0.0928  0.0936 -0.6558
   69TMC2     C 1074   4.451   0.792  12.798  0.3817  0.2709 -0.2637
   69TMC2     O 1075   4.344   0.758  12.850  0.0876 -0.1476  0.2899
   69TMC2     H 1076   4.251   0.948  12.778 -2.7134  1.6991 -1.3042
   69TMC2    H1 1077   4.641   0.877  12.616  0.3621  1.0762 -0.4124
   69TMC2    H2 1078   4.366   1.152  12.420 -0.8058 -1.3165 -1.6704
   69TMC2    C7 1079   4.606   1.036  12.404  0.0544 -0.2980 -0.8508
   69TMC2    C8 1080   4.177   1.124  12.604 -0.2368 -0.1613 -0.2708
   69TMC2    O1 1081   4.568   1.039  12.289 -0.3598 -0.0234  0.4302
   69TMC2    O2 1082   4.074   1.072  12.647  0.1469  0.1060  0.2480
   69TMC2    O5 1083   4.206   1.251  12.589 -0.2929  0.5520 -0.3744
   69TMC2    H5 1084   4.301   1.260  12.569  0.1851 -2.9021  0.4767
   70MPD2     C 1085   0.004   0.624  12.943 -0.2266  1.0284 -0.5633
   70MPD2    C1 1086   4.608   0.654  12.925  0.0074 -0.5143 -0.3232
   70MPD2    C2 1087   4.515   0.576  13.000  0.2466  0.2475 -0.4111
   70MPD2    C3 1088   4.569   0.487  13.096 -0.4091  0.5611 -0.1246
   70MPD2    C4 1089   4.707   0.480  13.121 -0.6125  0.0573  0.0394
   70MPD2    C5 1090   0.052   0.533  13.032 -0.2934  0.5917 -0.0318
   70MPD2     H 1091   4.409   0.592  12.983  0.0823 -0.5106 -0.0722
   70MPD2    H1 1092   0.019   0.417  13.195 -3.4572  0.7608  2.4906
   70MPD2    H2 1093   0.074   0.662  12.869 -1.7806  3.3970 -0.8010
   70MPD2    H3 1094   0.159   0.511  13.029 -0.3930 -0.1131  1.3610
   70MPD2     N 1095   4.487   0.404  13.173  0.0643 -1.2590  0.8373
   70MPD2    H5 1096   4.540   0.367  13.252 -0.3952  0.9653  2.1914
   70MPD2    N1 1097   4.580   0.752  12.824  0.2695  0.3645  1.0320
   70MPD2    H7 1098   4.658   0.805  12.785 -1.2868  1.7895 -0.1263
   71TMC2    C1 1099   2.095   0.762   1.780  0.0288 -0.0501 -0.2340
   71TMC2    C2 1100   2.220   0.775   1.822  0.4478  0.5104  0.1262
   71TMC2    C3 1101   2.228   0.838   1.938  0.7007  0.1733 -0.1855
   71TMC2    C4 1102   1.981   0.799   1.845  0.5151 -0.0909 -0.0664
   71TMC2    C5 1103   2.006   0.851   1.967  0.2009  0.2314 -0.1098
   71TMC2    C6 1104   2.126   0.872   2.028 -0.8229  0.4413 -0.3597
   71TMC2     C 1105   2.076   0.746   1.636  0.1978  0.1474  0.0004
   71TMC2     O 1106   1.996   0.822   1.584 -0.7103 -0.7080 -0.0836
   71TMC2     H 1107   2.303   0.757   1.755 -0.0571 -0.3607 -0.2635
   71TMC2    H1 1108   1.891   0.819   1.788  0.4034 -0.9685 -0.1980
   71TMC2    H2 1109   2.129   0.910   2.129  0.5945 -3.3942  1.0557
   71TMC2    C7 1110   1.895   0.918   2.034 -0.4795 -0.1747  0.1433
   71TMC2    C8 1111   2.362   0.845   1.986  0.5943 -0.1748  0.9900
   71TMC2    O1 1112   1.922   0.985   2.130  0.0042  0.2115 -0.5329
   71TMC2    O2 1113   2.446   0.765   1.944  0.2888  0.2081 -0.1241
   71TMC2    O5 1114   2.380   0.953   2.063  0.6017 -0.4875  0.1900
   71TMC2    H5 1115   2.305   1.015   2.076  0.7743 -0.3390  0.4646
   72MPD2     C 1116   2.194   0.546   1.176  0.0972 -0.0218  0.1233
   72MPD2    C1 1117   2.105   0.644   1.213  0.0035  0.0396 -0.0429
   72MPD2    C2 1118   2.083   0.674   1.345 -0.6012  0.3271  0.1120
   72MPD2    C3 1119   2.167   0.623   1.441  0.1717  0.8367  0.0983
   72MPD2    C4 1120   2.257   0.520   1.405 -0.4685 -0.1725  0.1995
   72MPD2    C5 1121   2.273   0.492   1.275 -0.5186  0.4372 -0.3117
   72MPD2     H 1122   2.020   0.755   1.378 -0.2316  1.0356 -0.9070
   72MPD2    H1 1123   2.327   0.481   1.478  1.5535 -0.2416 -1.7724
   72MPD2    H2 1124   2.222   0.529   1.073  1.5159 -1.6507  0.7799
   72MPD2    H3 1125   2.349   0.425   1.237  0.7228  0.6706  1.7723
   72MPD2     N 1126   2.159   0.655   1.577  0.6050  0.2240 -0.1687
   72MPD2    H5 1127   2.225   0.609   1.639 -1.9106 -2.5227  0.4558
   72MPD2    N1 1128   2.029   0.713   1.112 -0.1321  0.0068  0.1593
   72MPD2    H7 1129   1.978   0.792   1.148 -0.2059  0.0314  0.0030
   73TMC2    C1 1130   1.161   2.312  14.380  0.6393  0.2581 -0.0123
   73TMC2    C2 1131   1.130   2.359  14.504 -0.5984 -0.4083  0.1867
   73TMC2    C3 1132   1.182   2.285  14.610  0.0552  0.4027  0.1551
   73TMC2    C4 1133   1.226   2.194  14.365  0.2186  0.2387  0.2433
   73TMC2    C5 1134   1.264   2.122  14.476 -0.1265  0.4609  0.9497
   73TMC2    C6 1135   1.240   2.166  14.604  0.3829 -0.0992 -0.0085
   73TMC2     C 1136   1.214   2.411  14.279 -0.0208  0.2677 -0.1810
   73TMC2     O 1137   1.313   2.368  14.217 -0.3886  0.0041 -0.1836
   73TMC2     H 1138   1.096   2.462  14.502 -0.6934 -0.4146  2.5724
   73TMC2    H1 1139   1.234   2.139  14.272 -0.7820  0.0059  0.2980
   73TMC2    H2 1140   1.270   2.111  14.693  3.1404 -0.3427 -1.0727
   73TMC2    C7 1141   1.400   2.073  14.460 -0.5188  0.4114 -0.2461
   73TMC2    C8 1142   1.212   2.360  14.729  0.0140  0.0415 -0.1538
   73TMC2    O1 1143   1.442   1.985  14.530 -0.1398  0.0041 -0.1026
   73TMC2    O2 1144   1.315   2.347  14.790 -0.6755  0.0936  0.0553
   73TMC2    O5 1145   1.096   2.362  14.799  0.7901 -0.2432  0.2502
   73TMC2    H5 1146   1.019   2.373  14.739  0.8109  2.5515  0.7425
   74MPD2     C 1147   1.316   2.867  14.082  0.1631 -0.0111 -0.4913
   74MPD2    C1 1148   1.393   2.761  14.114  0.0212 -0.1282 -0.1917
   74MPD2    C2 1149   1.335   2.646  14.165 -0.0550  0.0832  0.2969
   74MPD2    C3 1150   1.197   2.638  14.197 -0.5186  0.6409 -0.5787
   74MPD2    C4 1151   1.127   2.754  14.182 -0.2399  0.9357 -0.8919
   74MPD2    C5 1152   1.182   2.867  14.120 -0.1298 -0.4543  0.5733
   74MPD2     H 1153   1.400   2.563  14.192  0.9430  0.4368 -1.0538
   74MPD2    H1 1154   1.024   2.766  14.213  0.4624  0.2611  1.6959
   74MPD2    H2 1155   1.362   2.955  14.039  0.7902  0.4774  1.1900
   74MPD2    H3 1156   1.114   2.947  14.093 -0.1769 -1.0321 -1.0260
   74MPD2     N 1157   1.144   2.529  14.270 -0.0164  0.0278  0.5196
   74MPD2    H5 1158   1.047   2.526  14.297  0.2083  2.7608  1.6677
   74MPD2    N1 1159   1.535   2.767  14.093 -0.3900 -0.8517 -0.0914
   74MPD2    H7 1160   1.555   2.842  14.028 -1.4709 -1.2212 -0.8499
   75TMC2    C1 1161   1.965   3.151  13.707 -0.3356 -0.1120 -0.1719
   75TMC2    C2 1162   1.873   3.073  13.774 -0.4506  0.8396 -0.9871
   75TMC2    C3 1163   1.742   3.089  13.742  0.4266 -0.2358  0.0505
   75TMC2    C4 1164   1.926   3.251  13.616 -0.0093  0.2163  0.4420
   75TMC2    C5 1165   1.791   3.262  13.593  0.4420  0.2688 -0.3822
   75TMC2    C6 1166   1.700   3.173  13.645 -0.3456  0.2483 -0.0363
   75TMC2     C 1167   2.094   3.145  13.766  0.7627 -0.1175 -0.2869
   75TMC2     O 1168   2.088   3.123  13.887  0.8955 -0.0074 -0.0589
   75TMC2     H 1169   1.904   2.999  13.847 -0.7712  1.1402 -0.5458
   75TMC2    H1 1170   2.007   3.304  13.567  0.7875  0.1712  1.6975
   75TMC2    H2 1171   1.596   3.187  13.621 -0.9170  0.5667  2.6617
   75TMC2    C7 1172   1.750   3.354  13.492 -0.1924 -0.1260 -0.0568
   75TMC2    C8 1173   1.634   3.050  13.831  0.2207 -0.3636 -0.2835
   75TMC2    O1 1174   1.645   3.336  13.429 -0.0335  0.4206  0.1653
   75TMC2    O2 1175   1.526   3.022  13.784  0.4082  0.2454  0.2982
   75TMC2    O5 1176   1.689   3.013  13.947  0.1818 -0.7620  0.1154
   75TMC2    H5 1177   1.773   3.054  13.979 -1.0145  0.2645  1.9343
   76TMC2    C1 1178   0.840   4.548  11.690  0.4373 -0.2356  0.1292
   76TMC2    C2 1179   0.964   4.545  11.627 -0.0111 -1.1629  0.3208
   76TMC2    C3 1180   1.048   4.445  11.659  0.4966 -0.1673 -0.5428
   76TMC2    C4 1181   0.789   4.436  11.745  0.0148  0.9713  0.6645
   76TMC2    C5 1182   0.879   4.343  11.776  1.0914  0.0257  0.4475
   76TMC2    C6 1183   1.005   4.336  11.727 -0.2402  0.3146 -0.4951
   76TMC2     C 1184   0.779   4.673  11.732  0.3911  1.0023 -0.5805
   76TMC2     O 1185   0.658   4.678  11.748  0.1989  0.1052 -0.3147
   76TMC2     H 1186   1.008   4.629  11.574  0.1845 -2.1038 -1.0199
   76TMC2    H1 1187   0.691   4.447  11.790 -0.0249  1.1089  0.5437
   76TMC2    H2 1188   1.082   4.260  11.734 -0.9116 -0.1309  2.1823
   76TMC2    C7 1189   0.842   4.251  11.884 -0.2763  0.4571 -0.4097
   76TMC2    C8 1190   1.165   4.420  11.566 -0.1035  0.0928  0.2702
   76TMC2    O1 1191   0.724   4.223  11.911  0.0157 -0.6514  0.1565
   76TMC2    O2 1192   1.275   4.382  11.605 -0.0290 -0.5166  0.3001
   76TMC2    O5 1193   1.144   4.457  11.439 -0.0955 -0.8727  0.9788
   76TMC2    H5 1194   1.048   4.460  11.419  0.5528 -0.6050 -2.1589
   77MPD2     C 1195   0.828   0.412  11.900 -0.1819 -0.2042  0.3558
   77MPD2    C1 1196   0.715   0.352  11.858  0.4194  0.2046  0.1514
   77MPD2    C2 1197   0.728   0.223  11.811  0.2360 -0.3698  0.3914
   77MPD2    C3 1198   0.852   0.158  11.810  0.5852 -0.6536  0.1521
   77MPD2    C4 1199   0.967   0.226  11.859  0.4099  0.7505  0.4969
   77MPD2    C5 1200   0.952   0.354  11.909 -0.1634  0.2217  0.0316
   77MPD2     H 1201   0.638   0.173  11.777 -0.4346  0.9305  0.2629
   77MPD2    H1 1202   1.063   0.177  11.850  0.4247  0.8940 -0.1724
   77MPD2    H2 1203   0.826   0.508  11.949 -0.9245 -1.2026  2.2697
   77MPD2    H3 1204   1.036   0.414  11.945  0.1503 -0.2643  0.1095
   77MPD2     N 1205   0.875   0.030  11.772  0.4070 -0.2996  0.8072
   77MPD2    H5 1206   0.972   4.735  11.777  0.9124  1.0979 -0.4088
   77MPD2    N1 1207   0.588   0.409  11.863  0.0200 -0.1955  0.1571
   77MPD2    H7 1208   0.510   0.358  11.824 -0.6005  1.2359 -0.5056
   78TMC2    C1 1209   1.425   0.620   2.224  0.0203  0.1410  0.0609
   78TMC2    C2 1210   1.335   0.531   2.159  0.4541 -0.0218 -0.3001
   78TMC2    C3 1211   1.378   0.458   2.054 -0.1496  0.7109 -0.6376
   78TMC2    C4 1212   1.557   0.625   2.186 -0.3034  0.0050 -0.3134
   78TMC2    C5 1213   1.593   0.541   2.093  1.0340 -0.2647  0.0810
   78TMC2    C6 1214   1.507   0.468   2.013  0.4384  0.1755 -0.0010
   78TMC2     C 1215   1.372   0.738   2.296 -0.4442 -0.2602  0.4599
   78TMC2     O 1216   1.253   0.745   2.303 -0.1028 -0.1942 -0.4596
   78TMC2     H 1217   1.229   0.524   2.184  0.0424 -1.2766 -2.4197
   78TMC2    H1 1218   1.618   0.711   2.211 -1.7247  0.7996  0.4136
   78TMC2    H2 1219   1.533   0.404   1.930  0.3457  0.1559 -0.0142
   78TMC2    C7 1220   1.737   0.532   2.074  0.2412  0.6661 -0.3519
   78TMC2    C8 1221   1.296   0.347   2.011 -0.6789 -0.1554  0.7497
   78TMC2    O1 1222   1.778   0.459   1.984  1.1545 -0.0326  0.0836
   78TMC2    O2 1223   1.195   0.304   2.068  0.1161  0.5083  1.1128
   78TMC2    O5 1224   1.314   0.341   1.877 -0.1828 -0.1412 -0.5174
   78TMC2    H5 1225   1.369   0.412   1.839 -1.3642  1.6390  1.0757
   79MPD1     C 1226   1.422   1.170   2.573 -0.2573 -0.6135  0.6426
   79MPD1    C1 1227   1.315   1.114   2.526 -0.2524  0.0694 -0.6583
   79MPD1    C2 1228   1.321   0.994   2.458  0.2039  0.4972 -0.1762
   79MPD1    C3 1229   1.444   0.922   2.445 -0.1426  0.1764  0.0549
   79MPD1    C4 1230   1.552   0.980   2.506 -1.0324 -0.0123 -0.4246
   79MPD1    C5 1231   1.543   1.102   2.569 -0.1792  0.2437 -0.6228
   79MPD1     H 1232   1.232   0.957   2.407 -0.6119 -0.3256  1.8249
   79MPD1    H1 1233   1.650   0.935   2.498 -0.2997  1.5285 -0.0905
   79MPD1    H2 1234   1.421   1.270   2.616  0.2799  0.1055 -1.0469
   79MPD1    H3 1235   1.627   1.153   2.616 -1.4041  0.1276  1.6590
   79MPD1     N 1236   1.466   0.808   2.367 -0.2648 -0.3923 -0.2771
   79MPD1    H5 1237   1.558   0.766   2.369  0.2214  0.8549  2.9354
   79MPD1    N1 1238   1.201   1.196   2.524  0.0888  0.1521 -0.4832
   79MPD1    H6 1239   1.184   1.249   2.609 -0.3706 -1.1788  0.2507
   79MPD1    H7 1240   1.116   1.142   2.509  0.0727 -0.0190  0.2324
   80TMC2    C1 1241   0.071   4.255  12.152  0.0659 -0.3214 -0.2272
   80TMC2    C2 1242   0.164   4.322  12.074  0.1117 -0.2588  0.8066
   80TMC2    C3 1243   0.160   4.288  11.948  0.4180  0.5096  0.2617
   80TMC2    C4 1244   4.721   4.155  12.111  0.2822 -0.1982  0.3776
   80TMC2    C5 1245   4.732   4.123  11.975  0.1726 -0.5033  0.0870
   80TMC2    C6 1246   0.081   4.194  11.900 -0.6305  0.2260  0.9374
   80TMC2     C 1247   0.060   4.288  12.289  0.3884  0.5214 -0.3566
   80TMC2     O 1248   0.155   4.281  12.361  0.8441  0.3265 -0.2794
   80TMC2     H 1249   0.220   4.405  12.115  0.2993  0.7882 -1.6197
   80TMC2    H1 1250   4.640   4.110  12.168  0.9667  1.0006  2.2986
   80TMC2    H2 1251   0.089   4.185  11.792 -0.9684  0.9917  0.8548
   80TMC2    C7 1252   4.649   4.016  11.920 -0.1270 -0.3525  0.1197
   80TMC2    C8 1253   0.223   4.378  11.858  0.1732 -0.9600  0.1414
   80TMC2    O1 1254   4.640   4.028  11.797 -0.3974  0.0484  0.4960
   80TMC2    O2 1255   0.324   4.443  11.882 -0.6305 -0.5076  0.3624
   80TMC2    O5 1256   0.136   4.416  11.762 -0.5307 -0.1107  0.2759
   80TMC2    H5 1257   0.043   4.392  11.782 -0.6032 -0.9923 -1.1198
   81MPD2     C 1258   4.629   4.176  12.512  0.3826 -0.0253  0.4197
   81MPD2    C1 1259   4.585   4.271  12.422 -0.1547 -0.2059 -0.4427
   81MPD2    C2 1260   4.453   4.310  12.429  0.6872 -0.2972 -0.6851
   81MPD2    C3 1261   4.365   4.263  12.526 -0.4965  0.5602 -0.0501
   81MPD2    C4 1262   4.412   4.159  12.607 -0.5016  0.2921  0.6336
   81MPD2    C5 1263   4.542   4.120  12.609  1.2174 -0.7734 -0.5186
   81MPD2     H 1264   4.424   4.379  12.350  2.3677  0.2106 -0.8607
   81MPD2    H1 1265   4.343   4.103  12.668  0.9486  0.3958  2.3633
   81MPD2    H2 1266   4.730   4.138  12.503  0.4997  1.2504 -3.6421
   81MPD2    H3 1267   4.580   4.045  12.678  0.0812 -0.3358  0.5876
   81MPD2     N 1268   4.230   4.298  12.546  0.2094 -0.4095  0.2105
   81MPD2    H5 1269   4.181   4.245  12.618 -0.0354  0.0399  0.3712
   81MPD2    N1 1270   4.663   4.315  12.311  0.3798 -0.4894  0.3500
   81MPD2    H7 1271   4.618   4.357  12.231 -1.0131  1.7218  2.2962
   82TMC2    C1 1272   3.197   3.201  11.460 -0.0118  0.4966 -0.0523
   82TMC2    C2 1273   3.329   3.205  11.432  0.5113  0.1184 -0.4447
   82TMC2    C3 1274   3.393   3.086  11.405  0.0636  0.1020  0.3171
   82TMC2    C4 1275   3.122   3.082  11.466 -0.4896 -0.2875  0.2117
   82TMC2    C5 1276   3.191   2.968  11.455 -0.1090 -0.1890 -0.4147
   82TMC2    C6 1277   3.327   2.967  11.432 -0.3304 -0.0417 -0.0557
   82TMC2     C 1278   3.115   3.318  11.454 -0.0725 -0.1762  0.6065
   82TMC2     O 1279   2.995   3.301  11.435  0.6122  0.3205 -1.2831
   82TMC2     H 1280   3.373   3.302  11.412  0.0102  0.3358 -0.5108
   82TMC2    H1 1281   3.022   3.080  11.507 -0.9193  1.3933 -0.7269
   82TMC2    H2 1282   3.377   2.872  11.415  2.3985  1.3495  0.2904
   82TMC2    C7 1283   3.140   2.865  11.545 -0.4659 -1.0760  0.3178
   82TMC2    C8 1284   3.529   3.095  11.356 -0.7370  0.3421 -0.2828
   82TMC2    O1 1285   3.021   2.842  11.535  0.1700  0.0718  0.5262
   82TMC2    O2 1286   3.586   3.203  11.364  0.3675 -0.5181  0.2813
   82TMC2    O5 1287   3.569   2.999  11.271 -0.4295 -0.6993 -0.5713
   82TMC2    H5 1288   3.505   2.924  11.263 -0.5923 -0.5532 -0.6499
   83MPD2     C 1289   3.040   3.834  11.469  0.3852  0.1763 -0.0986
   83MPD2    C1 1290   2.971   3.731  11.411  0.6073 -0.5281  0.0888
   83MPD2    C2 1291   3.012   3.601  11.425  0.0496 -0.5478  0.4802
   83MPD2    C3 1292   3.134   3.571  11.486 -0.0197 -0.8291 -0.3300
   83MPD2    C4 1293   3.206   3.678  11.534  0.5269 -0.2200  0.2964
   83MPD2    C5 1294   3.163   3.808  11.523  0.3338 -0.0463  0.1847
   83MPD2     H 1295   2.955   3.533  11.363  1.3849 -0.7777 -0.4879
   83MPD2    H1 1296   3.302   3.669  11.582  0.4053 -1.0368  0.3737
   83MPD2    H2 1297   3.004   3.936  11.458  2.8352  0.7852 -2.4671
   83MPD2    H3 1298   3.232   3.886  11.552  2.2203 -1.1184 -1.3948
   83MPD2     N 1299   3.183   3.438  11.490 -0.5596  0.7409  0.4709
   83MPD2    H5 1300   3.275   3.424  11.531 -0.7313  0.4537  0.7648
   83MPD2    N1 1301   2.855   3.769  11.345  0.3931 -0.6414 -0.4126
   83MPD2    H7 1302   2.841   3.869  11.342  0.7498 -0.5653  0.4833
   84TMC2    C1 1303   4.068   2.404  10.819 -0.2152 -0.0305 -0.7136
   84TMC2    C2 1304   3.984   2.300  10.832 -0.3477 -0.0505 -0.0127
   84TMC2    C3 1305   3.967   2.220  10.724  0.3376 -0.0587 -0.1917
   84TMC2    C4 1306   4.113   2.442  10.696  0.6464  0.2175  0.1903
   84TMC2    C5 1307   4.095   2.349  10.591 -0.0413  0.3043 -1.0444
   84TMC2    C6 1308   4.012   2.244  10.595 -0.5795 -1.1042  0.5618
   84TMC2     C 1309   4.109   2.494  10.926 -0.3575  0.9455 -0.3296
   84TMC2     O 1310   4.198   2.577  10.898 -0.4810  0.2504  0.2613
   84TMC2     H 1311   3.944   2.266  10.926  2.0918  1.3744  1.5292
   84TMC2    H1 1312   4.185   2.523  10.684 -1.2995  1.2452 -4.4680
   84TMC2    H2 1313   3.998   2.171  10.516  1.5787  0.6529 -1.4523
   84TMC2    C7 1314   4.152   2.373  10.461  0.1950 -0.1217 -0.4244
   84TMC2    C8 1315   3.867   2.114  10.743 -0.0693  0.0684 -0.0022
   84TMC2    O1 1316   4.166   2.274  10.393  0.1754  0.3814  0.7720
   84TMC2    O2 1317   3.840   2.073  10.856  0.4111 -0.4980  0.5720
   84TMC2    O5 1318   3.809   2.071  10.627  0.0295  0.9681 -0.0089
   84TMC2    H5 1319   3.833   2.134  10.556 -0.1675  1.0250 -0.0251
   85TMC2    C1 1320   4.564   0.636  16.095  0.5283  0.2368  0.3289
   85TMC2    C2 1321   4.526   0.639  15.963 -0.3665 -0.2522  0.3127
   85TMC2    C3 1322   4.572   0.743  15.896 -0.2138  0.2489  0.4487
   85TMC2    C4 1323   4.633   0.738  16.161  0.3028 -0.3531 -0.4666
   85TMC2    C5 1324   4.680   0.834  16.081 -0.6875  0.0931 -0.1296
   85TMC2    C6 1325   4.660   0.839  15.947  1.0611 -0.8175  0.1251
   85TMC2     C 1326   4.561   0.509  16.167  0.5179  0.3422 -0.1280
   85TMC2     O 1327   4.633   0.512  16.270 -0.2132 -0.0598  0.1769
   85TMC2     H 1328   4.462   0.566  15.915  0.4507  0.1135 -1.3356
   85TMC2    H1 1329   4.679   0.729  16.259  0.1649 -0.7785 -0.4369
   85TMC2    H2 1330   4.699   0.916  15.882 -1.1260 -0.1850 -0.4029
   85TMC2    C7 1331   0.067   0.889  16.124  0.0266 -0.2403 -0.5876
   85TMC2    C8 1332   4.530   0.780  15.762  0.5623 -0.2507 -0.6001
   85TMC2    O1 1333   0.157   0.897  16.049  0.3610  0.5530  0.0137
   85TMC2    O2 1334   4.524   0.891  15.718 -0.0640  0.1744 -0.3051
   85TMC2    O5 1335   4.521   0.663  15.699 -0.0596  0.3766  0.8079
   85TMC2    H5 1336   4.551   0.594  15.762 -0.1581 -0.6051 -0.2189
   86MPD2     C 1337   4.443   0.030  16.289  0.1589 -0.0390 -0.0957
   86MPD2    C1 1338   4.361   0.066  16.186  0.2136 -0.2847  0.0826
   86MPD2    C2 1339   4.380   0.192  16.134  0.0466 -0.4874 -0.0939
   86MPD2    C3 1340   4.470   0.282  16.178  0.4821 -0.0916  0.7376
   86MPD2    C4 1341   4.557   0.238  16.279 -0.2026  0.5941  0.3443
   86MPD2    C5 1342   4.548   0.110  16.325  0.1304 -0.3819 -0.2260
   86MPD2     H 1343   4.300   0.227  16.069  0.8766  0.9952 -0.3208
   86MPD2    H1 1344   4.632   0.303  16.322  1.4095 -2.3349  1.9410
   86MPD2    H2 1345   4.436   4.672  16.344 -1.3563 -1.2152 -2.3056
   86MPD2    H3 1346   4.622   0.069  16.393 -0.4938 -3.2783 -1.3249
   86MPD2     N 1347   4.469   0.413  16.125  0.6921 -0.2470 -0.0033
   86MPD2    H5 1348   4.409   0.428  16.045  0.9951  0.6631 -0.0567
   86MPD2    N1 1349   4.244   4.723  16.161 -0.3528  0.0306  0.6771
   86MPD2    H7 1350   4.182   0.006  16.083  0.2992  1.8255  0.6007
   87TMC2    C1 1351   2.589   3.040   0.410  0.5171  0.0189  0.0818
   87TMC2    C2 1352   2.619   2.998   0.529 -0.0891 -0.3629 -0.2412
   87TMC2    C3 1353   2.527   2.991   0.626 -0.2355  1.1457  0.1922
   87TMC2    C4 1354   2.466   3.090   0.383  0.0439 -0.3361  0.5707
   87TMC2    C5 1355   2.372   3.097   0.482 -0.0066 -0.6724  0.7339
   87TMC2    C6 1356   2.397   3.036   0.602 -0.0570 -0.4198 -0.1371
   87TMC2     C 1357   2.676   3.007   0.295 -0.6885  0.1682  0.2783
   87TMC2     O 1358   2.644   3.058   0.190 -0.2786 -0.2791 -0.3810
   87TMC2     H 1359   2.719   2.965   0.557 -0.5577 -1.2695  0.3527
   87TMC2    H1 1360   2.437   3.135   0.289 -1.4078  2.6460  2.4363
   87TMC2    H2 1361   2.323   3.029   0.680 -0.7236 -0.6518 -0.7928
   87TMC2    C7 1362   2.235   3.130   0.457 -0.2060  0.1215  0.4228
   87TMC2    C8 1363   2.541   2.893   0.727 -0.0366 -0.0749 -0.5269
   87TMC2    O1 1364   2.164   3.131   0.555 -0.0124 -0.1108 -0.0851
   87TMC2    O2 1365   2.617   2.797   0.720 -0.3889  0.0772  0.6734
   87TMC2    O5 1366   2.471   2.944   0.829 -0.2480 -0.4336  0.4303
   87TMC2    H5 1367   2.438   3.034   0.810  2.5078  0.5472  0.2827
   88MPD2     C 1368   2.031   3.178   0.159 -0.1382  0.0923  0.0303
   88MPD2    C1 1369   2.071   3.195   0.290 -0.3383  0.2049  0.0187
   88MPD2    C2 1370   1.982   3.256   0.374 -0.1661  0.6760  0.1831
   88MPD2    C3 1371   1.860   3.302   0.337 -0.2145  0.0587 -0.3697
   88MPD2    C4 1372   1.818   3.274   0.207  0.2797 -0.2914 -0.3928
   88MPD2    C5 1373   1.906   3.225   0.116 -1.2061 -0.3123 -1.2727
   88MPD2     H 1374   2.022   3.279   0.472 -1.0923  0.0300  0.7137
   88MPD2    H1 1375   1.718   3.295   0.170 -0.7749 -2.3179  1.2307
   88MPD2    H2 1376   2.099   3.142   0.083 -0.7178 -0.4880 -0.2180
   88MPD2    H3 1377   1.873   3.211   0.014 -3.1486  0.9537 -0.8244
   88MPD2     N 1378   1.769   3.364   0.425  0.1408 -0.2371  0.4532
   88MPD2    H5 1379   1.676   3.376   0.386  0.0459  0.0605  0.7794
   88MPD2    N1 1380   2.200   3.144   0.329 -0.2328  0.6397  0.0066
   88MPD2    H7 1381   2.258   3.105   0.256 -4.7046 -2.1559 -2.0554
   89TMC2    C1 1382   3.676   1.919   1.584 -0.3671  0.3390 -1.0106
   89TMC2    C2 1383   3.799   1.976   1.605 -0.6947 -0.0814  0.2205
   89TMC2    C3 1384   3.806   2.101   1.642 -0.1168 -0.1646 -0.1081
   89TMC2    C4 1385   3.560   1.988   1.584  0.2911  0.1904  0.5146
   89TMC2    C5 1386   3.569   2.118   1.626  0.2793  0.1896  0.5626
   89TMC2    C6 1387   3.689   2.179   1.653  0.9897 -0.4791  0.1000
   89TMC2     C 1388   3.676   1.770   1.572 -0.1429 -0.3359 -0.2294
   89TMC2     O 1389   3.776   1.704   1.548 -0.0420 -0.0848 -0.5565
   89TMC2     H 1390   3.883   1.908   1.607 -0.6159 -0.0110 -0.5780
   89TMC2    H1 1391   3.473   1.949   1.534 -0.6710  3.8479 -0.7129
   89TMC2    H2 1392   3.699   2.287   1.658 -0.2881 -0.3705  0.3864
   89TMC2    C7 1393   3.463   2.208   1.582  0.6358 -0.1771  0.2541
   89TMC2    C8 1394   3.934   2.163   1.689 -0.4676 -0.5116  0.1441
   89TMC2    O1 1395   3.377   2.159   1.510  0.1208 -0.3404  0.6690
   89TMC2    O2 1396   3.938   2.262   1.763 -0.4050  0.1755  0.6339
   89TMC2    O5 1397   4.035   2.072   1.685  0.3707  0.0798 -0.6113
   89TMC2    H5 1398   4.028   2.023   1.601  2.4800  0.8859 -1.2521
   90MPD2     C 1399   3.401   1.340   1.533 -0.5513 -0.1681 -0.8043
   90MPD2    C1 1400   3.332   1.424   1.618 -0.1824  0.6332  0.0817
   90MPD2    C2 1401   3.389   1.550   1.644 -0.1412  0.5062  0.0413
   90MPD2    C3 1402   3.510   1.589   1.588 -0.3890 -0.2704 -0.1182
   90MPD2    C4 1403   3.580   1.493   1.508 -0.6595  0.2599 -0.5233
   90MPD2    C5 1404   3.520   1.380   1.468  0.2606  0.2697  1.0319
   90MPD2     H 1405   3.345   1.629   1.704 -0.2665  0.0405  0.5625
   90MPD2    H1 1406   3.674   1.528   1.465 -0.7207 -0.1586 -0.9887
   90MPD2    H2 1407   3.366   1.243   1.499  0.4462 -0.6703 -0.4294
   90MPD2    H3 1408   3.561   1.314   1.393 -1.9090  0.8899 -0.7084
   90MPD2     N 1409   3.553   1.718   1.612 -0.0411  0.4486 -0.1465
   90MPD2    H5 1410   3.497   1.785   1.665 -0.5869 -1.5217  1.7574
   90MPD2    N1 1411   3.221   1.377   1.694  0.8814  0.2823  0.5551
   90MPD2    H7 1412   3.182   1.448   1.755 -2.3756 -0.9776 -0.0488
   91TMC2    C1 1413   4.539   1.544  16.818  0.6067 -0.3493  0.5490
   91TMC2    C2 1414   4.601   1.470  16.917  0.2349 -0.1577  0.8845
   91TMC2    C3 1415   4.534   1.450  17.032  0.4757 -0.0185  0.0305
   91TMC2    C4 1416   4.411   1.585  16.828  0.1463 -0.3695  0.3690
   91TMC2    C5 1417   4.347   1.561  16.941 -0.7730 -0.4275 -0.0182
   91TMC2    C6 1418   4.411   1.502  17.049  0.7581 -0.1092  0.4684
   91TMC2     C 1419   4.586   1.546  16.682 -0.7136  0.2821  0.7173
   91TMC2     O 1420   4.492   1.546  16.608  0.6944 -0.0720 -0.0625
   91TMC2     H 1421   4.703   1.438  16.898 -0.0938  0.7643 -2.2944
   91TMC2    H1 1422   4.359   1.640  16.750 -0.4545 -3.2019 -1.1926
   91TMC2    H2 1423   4.353   1.481  17.139 -1.5136  1.6286 -0.5970
   91TMC2    C7 1424   4.215   1.505  16.927 -0.3523 -0.8626 -0.1996
   91TMC2    C8 1425   4.608   1.372  17.132 -0.4618 -0.0484 -1.5543
   91TMC2    O1 1426   4.150   1.511  17.030  0.3272 -1.1690  0.6096
   91TMC2    O2 1427   4.728   1.352  17.117 -0.1885  0.6055  0.0318
   91TMC2    O5 1428   4.554   1.400  17.252  0.3973  0.3175  0.1404
   91TMC2    H5 1429   4.510   1.488  17.253  1.9384  1.1184 -1.2456
   92MPD2     C 1430   4.717   1.446  16.431 -0.1332 -0.8428  0.5050
   92MPD2    C1 1431   0.051   1.498  16.540 -0.0225 -0.2240 -0.2117
   92MPD2    C2 1432   0.180   1.506  16.529  0.6114  0.4120 -0.2019
   92MPD2    C3 1433   0.250   1.470  16.416 -0.2023 -0.1248 -0.0080
   92MPD2    C4 1434   0.177   1.415  16.309  0.9075 -0.2828 -0.4954
   92MPD2    C5 1435   0.042   1.397  16.322 -0.2080  0.2567 -0.1522
   92MPD2     H 1436   0.236   1.556  16.607 -1.8296  1.0125  1.1851
   92MPD2    H1 1437   0.216   1.385  16.212  1.4260  0.4818 -0.5206
   92MPD2    H2 1438   4.610   1.425  16.432  0.6249 -4.6421  1.7454
   92MPD2    H3 1439   4.717   1.346  16.249 -0.7408 -0.5160  0.8192
   92MPD2     N 1440   0.391   1.488  16.423  0.5620 -0.2387 -0.0115
   92MPD2    H5 1441   0.436   1.516  16.509 -1.0452 -2.8060  1.6893
   92MPD2    N1 1442   4.719   1.526  16.661 -0.6518 -0.1363  0.5633
   92MPD2    H7 1443   0.045   1.559  16.735 -0.9788 -0.6878  1.0826
   93TMC2    C1 1444   1.897   1.662  14.325 -0.7190 -0.4322  0.8601
   93TMC2    C2 1445   1.837   1.701  14.439  0.2100 -0.2406  0.0304
   93TMC2    C3 1446   1.909   1.778  14.521  0.5289  0.2129 -0.3465
   93TMC2    C4 1447   2.030   1.682  14.307  0.0800 -0.4026 -0.5307
   93TMC2    C5 1448   2.103   1.758  14.393  0.4932 -0.2004 -0.5625
   93TMC2    C6 1449   2.043   1.810  14.503  0.0091 -0.3482 -0.6371
   93TMC2     C 1450   1.850   1.534  14.270 -0.5055  0.6793  0.6630
   93TMC2     O 1451   1.935   1.456  14.224  0.0722  0.9764  0.0956
   93TMC2     H 1452   1.732   1.684  14.463  0.2565  0.8828  1.0161
   93TMC2    H1 1453   2.070   1.639  14.215  1.8131  0.6130 -0.2640
   93TMC2    H2 1454   2.098   1.869  14.575  1.1354 -0.3575 -1.4775
   93TMC2    C7 1455   2.227   1.805  14.339  0.1520 -0.2519 -0.2415
   93TMC2    C8 1456   1.849   1.789  14.648 -0.0548 -0.2350  0.1745
   93TMC2    O1 1457   2.298   1.728  14.275 -0.3201 -0.2963 -0.2076
   93TMC2    O2 1458   1.735   1.752  14.671 -0.3064 -0.1171 -0.3167
   93TMC2    O5 1459   1.948   1.773  14.739  0.1471  0.5052 -0.3745
   93TMC2    H5 1460   2.042   1.784  14.716  0.9616 -2.4262  1.5519
   94MPD2     C 1461   1.687   1.289  14.207  0.7172 -0.3967  0.9812
   94MPD2    C1 1462   1.636   1.407  14.253  0.8497  0.5343  0.3074
   94MPD2    C2 1463   1.498   1.411  14.264 -0.1649 -0.2212 -0.5936
   94MPD2    C3 1464   1.417   1.316  14.226  0.4945 -0.4953  0.5135
   94MPD2    C4 1465   1.468   1.198  14.180  0.1996  0.5735 -0.2524
   94MPD2    C5 1466   1.600   1.186  14.166  0.0439 -0.0281  0.1440
   94MPD2     H 1467   1.453   1.501  14.305 -3.1021 -1.7720 -0.3874
   94MPD2    H1 1468   1.406   1.113  14.152 -1.6402  1.2207  1.8915
   94MPD2    H2 1469   1.790   1.287  14.172  1.0441 -1.2470  2.0029
   94MPD2    H3 1470   1.636   1.093  14.124 -1.4051 -2.4544  4.3338
   94MPD2     N 1471   1.272   1.331  14.206  0.5882 -0.1492  0.1731
   94MPD2    H5 1472   1.214   1.258  14.166 -1.5011  2.2120 -1.1457
   94MPD2    N1 1473   1.712   1.516  14.288  0.0442  0.4578 -0.0531
   94MPD2    H7 1474   1.654   1.596  14.312  1.1956  1.2366  0.1274
   95TMC2    C1 1475   1.743   2.820  15.810  0.1606 -0.2704  0.0072
   95TMC2    C2 1476   1.663   2.900  15.734  0.2084 -0.2994  0.1804
   95TMC2    C3 1477   1.531   2.915  15.770 -0.0147  0.6454  0.1302
   95TMC2    C4 1478   1.688   2.749  15.922  0.3163 -0.1023 -0.0271
   95TMC2    C5 1479   1.554   2.754  15.943  0.2958 -0.8582 -0.1739
   95TMC2    C6 1480   1.481   2.852  15.879  0.5062 -0.2088 -0.3860
   95TMC2     C 1481   1.876   2.808  15.787 -0.4678  0.3996  0.3702
   95TMC2     O 1482   1.944   2.739  15.860  0.1244  0.1096 -0.2483
   95TMC2     H 1483   1.700   2.955  15.649  0.3883 -1.2217 -0.3390
   95TMC2    H1 1484   1.748   2.678  15.979  0.7320 -0.4646 -0.9198
   95TMC2    H2 1485   1.374   2.861  15.894  0.7854  0.8682  1.0357
   95TMC2    C7 1486   1.500   2.686  16.055  0.1720 -0.0165  1.0143
   95TMC2    C8 1487   1.450   3.012  15.690  0.3969 -0.0339  0.2480
   95TMC2    O1 1488   1.584   2.611  16.104  0.2644  0.5776 -0.3773
   95TMC2    O2 1489   1.475   3.039  15.574 -0.1020 -0.0095 -0.1258
   95TMC2    O5 1490   1.362   3.079  15.762  0.4585  0.7875 -0.3798
   95TMC2    H5 1491   1.381   3.069  15.858  2.4129 -1.0621 -0.9518
   96MPD2     C 1492   2.326   2.924  15.565 -0.2842 -0.8252 -0.9874
   96MPD2    C1 1493   2.252   3.044  15.576 -0.2384 -0.2791 -0.7531
   96MPD2    C2 1494   2.117   3.035  15.618  0.3620  0.5810 -0.0354
   96MPD2    C3 1495   2.068   2.912  15.668  0.4324 -0.3463 -0.1652
   96MPD2    C4 1496   2.150   2.800  15.670  0.6150 -0.6789  0.4159
   96MPD2    C5 1497   2.280   2.808  15.624 -0.6607  0.7931  0.4598
   96MPD2     H 1498   2.049   3.119  15.621 -0.3571  0.0525 -1.5111
   96MPD2    H1 1499   2.126   2.702  15.708  1.4340 -1.1719 -0.3440
   96MPD2    H2 1500   2.426   2.932  15.525 -0.1552  0.7479 -0.3496
   96MPD2    H3 1501   2.349   2.726  15.639  1.5854  3.0154  2.4644
   96MPD2     N 1502   1.934   2.903  15.700 -0.3166  0.4970  0.0373
   96MPD2    H5 1503   1.867   2.959  15.648  1.3301  2.5076  0.1194
   96MPD2    N1 1504   2.321   3.168  15.551 -0.7114 -0.4582 -0.2383
   96MPD2    H7 1505   2.417   3.172  15.517 -1.1245  0.0305 -1.3454
   97TMC2    C1 1506   0.017   1.683   0.510  0.1672 -0.1150 -0.5952
   97TMC2    C2 1507   4.698   1.697   0.380 -0.2869  0.7267  0.6162
   97TMC2    C3 1508   4.700   1.828   0.334 -0.0080  0.0306  0.1708
   97TMC2    C4 1509   0.063   1.790   0.578 -0.4658 -0.3613  0.4554
   97TMC2    C5 1510   0.046   1.914   0.535  1.2900 -0.0707 -0.9385
   97TMC2    C6 1511   4.733   1.936   0.406 -0.4956 -0.3863  0.3308
   97TMC2     C 1512   4.671   1.595   0.594 -0.0709  0.6900  0.2818
   97TMC2     O 1513   4.555   1.623   0.598  0.4795 -0.1413  0.2214
   97TMC2     H 1514   4.653   1.612   0.330 -1.4576  2.3443 -1.0669
   97TMC2    H1 1515   0.097   1.780   0.681 -0.9049  1.0303  0.7384
   97TMC2    H2 1516   4.701   2.033   0.369 -2.2214 -1.4804 -1.0663
   97TMC2    C7 1517   0.102   2.021   0.617  0.1514  0.4415  0.0514
   97TMC2    C8 1518   4.600   1.867   0.229 -0.1007 -0.1896  0.0157
   97TMC2    O1 1519   0.193   1.995   0.696  0.2486 -0.4141  0.5469
   97TMC2    O2 1520   4.542   1.974   0.238  0.4955 -0.6011 -0.7656
   97TMC2    O5 1521   4.551   1.757   0.171  0.5675 -0.2636  0.4905
   97TMC2    H5 1522   4.618   1.686   0.159 -1.5703 -2.8045  3.4665
   98MPD2     C 1523   4.625   1.320   1.030  0.3911 -0.5785 -0.9636
   98MPD2    C1 1524   4.528   1.388   0.957 -0.2315  0.5428  0.4805
   98MPD2    C2 1525   4.580   1.458   0.850  0.0905 -0.2599 -0.2211
   98MPD2    C3 1526   4.701   1.446   0.799 -0.1595 -0.8457 -0.5868
   98MPD2    C4 1527   0.058   1.365   0.863  1.0717  0.4935 -0.1716
   98MPD2    C5 1528   0.016   1.300   0.975  0.5051 -0.1002  1.1021
   98MPD2     H 1529   4.509   1.523   0.800  0.3169 -0.7751 -1.2195
   98MPD2    H1 1530   0.162   1.373   0.835  1.0650  2.8837  0.4942
   98MPD2    H2 1531   4.602   1.269   1.123 -0.3629  2.6704  0.6239
   98MPD2    H3 1532   0.093   1.247   1.030  0.0558 -1.4005  0.4825
   98MPD2     N 1533   0.010   1.520   0.688  0.2087 -0.3724  0.0155
   98MPD2    H5 1534   0.109   1.510   0.672  0.6282 -0.8016  3.0384
   98MPD2    N1 1535   4.398   1.397   1.010 -0.2673 -0.0595  0.3174
   98MPD2    H7 1536   4.378   1.362   1.104  0.3382  0.6990  0.7231
   99TMC2    C1 1537   2.790   2.558   2.048 -0.7631 -0.7317  0.1569
   99TMC2    C2 1538   2.849   2.537   2.173 -0.1123 -0.3337 -0.6886
   99TMC2    C3 1539   2.808   2.617   2.275 -0.3959 -0.2998 -0.1324
   99TMC2    C4 1540   2.675   2.627   2.034  0.8045  0.1414 -0.3872
   99TMC2    C5 1541   2.627   2.702   2.137 -0.3171  0.3949  1.0112
   99TMC2    C6 1542   2.688   2.695   2.265 -0.2157 -0.7959 -0.1893
   99TMC2     C 1543   2.859   2.507   1.933 -0.1838 -0.1564 -0.2939
   99TMC2     O 1544   2.980   2.500   1.934 -0.4423 -0.2148 -0.0590
   99TMC2     H 1545   2.933   2.470   2.185 -0.0636 -0.5366 -2.1035
   99TMC2    H1 1546   2.616   2.633   1.943  0.5020  2.3904 -0.0431
   99TMC2    H2 1547   2.646   2.758   2.342  0.6028 -0.9901  0.4170
   99TMC2    C7 1548   2.495   2.758   2.132 -0.1430 -0.5183 -0.6291
   99TMC2    C8 1549   2.837   2.566   2.411  0.7682  0.0447  0.8492
   99TMC2    O1 1550   2.471   2.844   2.216  0.0254 -0.2157  0.6598
   99TMC2    O2 1551   2.931   2.496   2.435  0.0020 -0.2075  0.7089
   99TMC2    O5 1552   2.715   2.532   2.464  0.3796 -0.0390 -0.0885
   99TMC2    H5 1553   2.645   2.569   2.406  1.0717 -0.0888 -0.9496
  100MPD2     C 1554   2.918   2.406   1.660  0.3274  0.2277 -0.1510
  100MPD2    C1 1555   2.789   2.430   1.712 -0.0973 -0.1184 -0.0265
  100MPD2    C2 1556   2.679   2.402   1.631  0.2576 -1.5066 -0.8293
  100MPD2    C3 1557   2.683   2.360   1.499  0.5852 -0.0198 -0.4808
  100MPD2    C4 1558   2.809   2.338   1.452  0.2253  0.7311 -0.3242
  100MPD2    C5 1559   2.918   2.369   1.527  0.6605  0.2485 -0.1321
  100MPD2     H 1560   2.583   2.429   1.673  1.6880  2.6693 -0.2216
  100MPD2    H1 1561   2.828   2.318   1.347 -1.9705  3.4055 -1.2334
  100MPD2    H2 1562   3.010   2.431   1.711  0.9938 -1.1276 -0.7057
  100MPD2    H3 1563   3.012   2.371   1.474  0.7210  0.0816 -0.0313
  100MPD2     N 1564   2.568   2.325   1.430  0.9093  0.2334  0.0359
  100MPD2    H5 1565   2.479   2.340   1.476  1.4631  1.2818  0.7561
  100MPD2    N1 1566   2.762   2.468   1.842 -0.0724 -0.5646  0.4664
  100MPD2    H7 1567   2.663   2.467   1.864 -0.0801  1.6819  0.6373
  101TMC2    C1 1568   2.718   0.032  13.202 -0.1675  0.8772  0.2748
  101TMC2    C2 1569   2.588   0.044  13.161 -0.2593  0.2140  0.3668
  101TMC2    C3 1570   2.555   0.155  13.085 -0.2900 -0.1837 -0.5600
  101TMC2    C4 1571   2.822   0.124  13.177 -0.4659 -0.6155  0.4208
  101TMC2    C5 1572   2.777   0.235  13.109  0.8822  0.1616 -0.2868
  101TMC2    C6 1573   2.650   0.257  13.073 -0.2672 -0.0989 -0.3240
  101TMC2     C 1574   2.754   4.630  13.227  0.0417 -0.0414 -0.3829
  101TMC2     O 1575   2.669   4.548  13.245 -0.2882  0.3255  0.3870
  101TMC2     H 1576   2.522   4.708  13.207 -0.7835  0.9970  0.8362
  101TMC2    H1 1577   2.923   0.113  13.215 -0.6090  0.0545  1.0046
  101TMC2    H2 1578   2.627   0.338  13.004 -1.0050 -0.9261 -1.0506
  101TMC2    C7 1579   2.885   0.289  13.023  0.1840  0.5605 -0.2473
  101TMC2    C8 1580   2.417   0.199  13.080  0.1231  0.7117 -0.4331
  101TMC2    O1 1581   2.998   0.245  13.047  0.9029  0.8630 -0.0576
  101TMC2    O2 1582   2.380   0.309  13.120 -0.0513 -0.2192  0.5372
  101TMC2    O5 1583   2.343   0.090  13.062 -0.1213 -0.3626 -0.2853
  101TMC2    H5 1584   2.396   0.020  13.019  2.8159  1.4806  0.2986
  102MPD2     C 1585   3.082   4.488  13.130  0.3975 -0.2376  0.1202
  102MPD2    C1 1586   2.953   4.479  13.177 -0.6176 -0.5883  0.8136
  102MPD2    C2 1587   2.914   4.359  13.220  0.4517 -0.2273 -0.0649
  102MPD2    C3 1588   2.996   4.248  13.210 -1.0877 -0.1323  0.1615
  102MPD2    C4 1589   3.127   4.262  13.150  0.0224 -0.5243 -1.0310
  102MPD2    C5 1590   3.178   4.389  13.129  0.1335 -0.0800 -0.5417
  102MPD2     H 1591   2.818   4.354  13.270  1.2375  0.5309  1.4985
  102MPD2    H1 1592   3.196   4.178  13.151  2.4909  1.4990  0.4706
  102MPD2    H2 1593   3.121   4.582  13.090 -0.7825 -0.0401 -0.5729
  102MPD2    H3 1594   3.279   4.399  13.092 -1.0514 -2.0847 -4.3599
  102MPD2     N 1595   2.955   4.124  13.271 -0.2614  0.1090 -0.3493
  102MPD2    H5 1596   2.892   4.118  13.350 -0.7206 -0.0507 -0.7283
  102MPD2    N1 1597   2.881   4.602  13.187 -0.0803 -0.2384  0.6647
  102MPD2    H7 1598   2.928   4.678  13.138 -1.3599 -0.8591 -1.5331
  103TMC2    C1 1599   1.416   4.195  12.425  0.0712  0.5700 -0.4915
  103TMC2    C2 1600   1.511   4.291  12.432  0.3490  0.0865 -0.3216
  103TMC2    C3 1601   1.614   4.286  12.517 -0.0843 -0.0593  0.4744
  103TMC2    C4 1602   1.417   4.100  12.517 -0.1547 -0.2879  0.5522
  103TMC2    C5 1603   1.514   4.098  12.618 -0.9931  0.1729 -0.5754
  103TMC2    C6 1604   1.625   4.186  12.612  0.1486  0.6167 -0.1226
  103TMC2     C 1605   1.315   4.211  12.326 -0.2516 -0.1592  0.5922
  103TMC2     O 1606   1.343   4.276  12.225 -0.7360 -0.8702  0.5000
  103TMC2     H 1607   1.508   4.378  12.367  2.9681  2.0376  2.1948
  103TMC2    H1 1608   1.326   4.043  12.535 -0.8193  0.6163  0.0801
  103TMC2    H2 1609   1.695   4.184  12.694 -1.5244  0.5342  1.3044
  103TMC2    C7 1610   1.494   4.028  12.745 -0.0480 -0.7958 -0.1917
  103TMC2    C8 1611   1.717   4.375  12.491 -0.3741 -0.2682  0.0339
  103TMC2    O1 1612   1.587   4.039  12.826 -0.3617 -0.2533  0.6389
  103TMC2    O2 1613   1.737   4.429  12.382 -0.1936 -0.1675 -0.3511
  103TMC2    O5 1614   1.801   4.371  12.599  0.2223  0.7863 -0.0655
  103TMC2    H5 1615   1.751   4.368  12.684  1.6073  0.6991  0.7490
  104MPD2     C 1616   0.977   4.065  12.348  0.4309 -0.2447 -0.0956
  104MPD2    C1 1617   1.083   4.136  12.283 -0.1031 -0.0497 -0.0058
  104MPD2    C2 1618   1.073   4.172  12.153 -0.7637 -0.1884  0.1782
  104MPD2    C3 1619   0.956   4.162  12.081 -0.6622 -0.4416 -0.4904
  104MPD2    C4 1620   0.851   4.108  12.147 -0.4220 -0.4148  0.2102
  104MPD2    C5 1621   0.857   4.054  12.274  0.1076 -0.7898 -0.0149
  104MPD2     H 1622   1.164   4.214  12.111 -1.2134  1.6175  1.0364
  104MPD2    H1 1623   0.750   4.094  12.110 -0.2862  0.2195 -0.3956
  104MPD2    H2 1624   0.988   4.024  12.447 -0.9327 -2.8489 -1.0277
  104MPD2    H3 1625   0.772   4.000  12.315 -0.9459  0.4020 -0.6465
  104MPD2     N 1626   0.956   4.221  11.952 -0.0851  0.2809 -0.1642
  104MPD2    H5 1627   1.040   4.270  11.926  0.4769  0.5482  2.1896
  104MPD2    N1 1628   1.200   4.143  12.357 -0.0520  0.1349  0.5844
  104MPD2    H7 1629   1.194   4.096  12.448  2.6715  2.5453  2.0136
  105TMC2    C1 1630   3.084   3.126  17.295 -0.0931 -0.3390 -0.1234
  105TMC2    C2 1631   3.078   3.064  17.178 -0.1616  0.6454 -0.3927
  105TMC2    C3 1632   3.080   2.928  17.182 -0.6450 -0.3176  0.7039
  105TMC2    C4 1633   3.087   3.074  17.419  0.2756  0.3380 -0.3726
  105TMC2    C5 1634   3.073   2.936  17.416  0.2998 -0.6386  0.4590
  105TMC2    C6 1635   3.078   2.864  17.301 -0.1129 -0.3640  0.5708
  105TMC2     C 1636   3.087   3.278  17.296 -0.1728 -0.9189 -0.3216
  105TMC2     O 1637   3.137   3.330  17.397  0.4844 -0.1245 -0.2969
  105TMC2     H 1638   3.093   3.123  17.088 -0.1526  0.4656 -0.5082
  105TMC2    H1 1639   3.090   3.134  17.509  0.3193 -3.5300  2.1827
  105TMC2    H2 1640   3.082   2.755  17.299 -0.7705 -0.3536 -1.9531
  105TMC2    C7 1641   3.083   2.862  17.539  0.9474  0.8571 -0.1714
  105TMC2    C8 1642   3.067   2.842  17.065 -0.3558 -0.0613  0.4095
  105TMC2    O1 1643   3.126   2.748  17.533 -0.3929 -0.5923  0.6532
  105TMC2    O2 1644   3.111   2.725  17.063 -0.4288  0.6423  0.0005
  105TMC2    O5 1645   2.985   2.903  16.979 -0.1512  0.8289 -0.4178
  105TMC2    H5 1646   2.957   2.992  17.009 -0.3956  0.9849 -1.1136
  106MPD2     C 1647   2.884   3.708  17.111 -0.8770  0.0601  0.9226
  106MPD2    C1 1648   2.879   3.614  17.008 -0.3102 -0.2892  0.2936
  106MPD2    C2 1649   2.939   3.495  17.030  0.2526  0.2250 -0.2011
  106MPD2    C3 1650   3.006   3.463  17.150  0.1158 -0.4858  0.1119
  106MPD2    C4 1651   3.034   3.566  17.236 -0.4778 -0.8136  0.0322
  106MPD2    C5 1652   2.979   3.690  17.211 -0.8710 -0.2452  0.2105
  106MPD2     H 1653   2.927   3.419  16.953 -0.9019  0.4217 -0.2071
  106MPD2    H1 1654   3.094   3.545  17.323 -2.1777 -2.0326  0.9088
  106MPD2    H2 1655   2.822   3.796  17.098  0.7878  0.9222 -1.1890
  106MPD2    H3 1656   2.980   3.760  17.294 -1.9139  0.3808 -0.2969
  106MPD2     N 1657   3.027   3.322  17.180 -0.0377 -0.8330  0.2505
  106MPD2    H5 1658   2.984   3.257  17.115 -1.5570 -0.7762  1.1982
  106MPD2    N1 1659   2.797   3.633  16.895  0.5760 -0.3699  0.4392
  106MPD2    H7 1660   2.801   3.565  16.820 -0.1773 -0.0338  0.0981
  107TMC2    C1 1661   3.746   2.609  11.932 -0.8361 -0.2178 -0.9410
  107TMC2    C2 1662   3.684   2.492  11.928 -0.0673 -0.0191 -0.0955
  107TMC2    C3 1663   3.728   2.409  11.829 -0.7068  0.5516 -0.2652
  107TMC2    C4 1664   3.839   2.647  11.841  0.0481  0.1811  0.3606
  107TMC2    C5 1665   3.872   2.560  11.741 -0.4000  0.0299 -0.0776
  107TMC2    C6 1666   3.817   2.436  11.732  0.2500  1.2940 -0.0020
  107TMC2     C 1667   3.684   2.708  12.031 -0.6408 -0.0922 -0.5904
  107TMC2     O 1668   3.625   2.668  12.130 -0.1065 -0.2812  0.4119
  107TMC2     H 1669   3.627   2.460  12.015  0.3007 -0.6406 -0.0781
  107TMC2    H1 1670   3.898   2.738  11.844  2.3977 -1.2895 -1.2549
  107TMC2    H2 1671   3.856   2.359  11.666 -0.0493 -0.4726  1.8955
  107TMC2    C7 1672   3.967   2.604  11.644  0.2372 -0.5631 -0.6625
  107TMC2    C8 1673   3.708   2.269  11.847  0.0645 -0.3302  0.9691
  107TMC2    O1 1674   4.058   2.680  11.682 -0.3340  0.0655  0.4395
  107TMC2    O2 1675   3.790   2.185  11.806 -0.1816 -0.2953  0.4302
  107TMC2    O5 1676   3.607   2.238  11.932 -0.3127 -0.8376 -0.2267
  107TMC2    H5 1677   3.535   2.305  11.938 -0.0775 -0.5832 -0.2413
  108MPD2     C 1678   3.722   3.074  11.984  0.2349  0.5524 -0.4264
  108MPD2    C1 1679   3.702   2.957  12.055 -0.4655 -0.3969 -0.1363
  108MPD2    C2 1680   3.638   2.960  12.177  0.1115 -0.4087  0.0166
  108MPD2    C3 1681   3.599   3.078  12.236 -0.4891  0.1266 -0.0967
  108MPD2    C4 1682   3.617   3.196  12.162 -0.2991  0.3474 -0.4665
  108MPD2    C5 1683   3.680   3.189  12.044  0.8305 -0.6778  0.5166
  108MPD2     H 1684   3.616   2.865  12.223 -0.4649  0.1375  0.8626
  108MPD2    H1 1685   3.589   3.295  12.197  0.5754 -0.0904  1.4654
  108MPD2    H2 1686   3.765   3.086  11.885 -0.7821  1.6849 -0.7396
  108MPD2    H3 1687   3.707   3.285  12.002 -1.7670  0.4199  1.3831
  108MPD2     N 1688   3.528   3.082  12.357  0.0469  0.4978 -0.0166
  108MPD2    H5 1689   3.485   3.170  12.386 -2.0198 -1.3379  2.3968
  108MPD2    N1 1690   3.725   2.835  11.986  0.3077 -0.1039  0.1824
  108MPD2    H7 1691   3.775   2.837  11.897 -0.5702 -1.9042 -0.3635
  109TMC2    C1 1692   3.327   0.916   1.642 -0.1668  0.1181 -1.0117
  109TMC2    C2 1693   3.298   0.833   1.536 -0.1537  0.2741  0.0224
  109TMC2    C3 1694   3.394   0.812   1.435  0.1751  0.0041 -0.5240
  109TMC2    C4 1695   3.444   0.989   1.650 -0.7421 -0.0379  0.0015
  109TMC2    C5 1696   3.531   0.966   1.547 -0.2416  0.3165 -0.1263
  109TMC2    C6 1697   3.507   0.885   1.440  0.6964 -0.0884  0.6731
  109TMC2     C 1698   3.225   0.939   1.755 -0.1101 -0.4696  0.5019
  109TMC2     O 1699   3.239   1.030   1.831  0.1822  0.1486  0.5861
  109TMC2     H 1700   3.213   0.766   1.536 -0.4271  0.6160  0.6207
  109TMC2    H1 1701   3.460   1.070   1.720 -2.0647  0.8542 -0.7314
  109TMC2    H2 1702   3.572   0.884   1.354 -1.5306 -1.7320 -0.9778
  109TMC2    C7 1703   3.656   1.050   1.534  0.2455  0.6733 -0.2192
  109TMC2    C8 1704   3.350   0.747   1.314  0.1508  0.3298  0.0572
  109TMC2    O1 1705   3.719   1.049   1.429 -0.1887  0.1223  0.2808
  109TMC2    O2 1706   3.239   0.703   1.296 -0.1755 -0.0693 -0.3817
  109TMC2    O5 1707   3.452   0.730   1.222  0.3249 -0.0137  0.0377
  109TMC2    H5 1708   3.541   0.768   1.239  1.2316 -2.1297  0.0241
  110MPD2     C 1709   2.765   0.848   1.968  0.4633 -0.3227  0.3209
  110MPD2    C1 1710   2.791   0.743   1.883  0.4741  0.3326  0.3559
  110MPD2    C2 1711   2.916   0.736   1.824  0.4212  0.4176 -0.0680
  110MPD2    C3 1712   3.001   0.849   1.832  0.4771  0.1936  0.8634
  110MPD2    C4 1713   2.965   0.961   1.910 -0.1596  0.4605 -0.1968
  110MPD2    C5 1714   2.849   0.953   1.980  0.7685 -0.3985  0.5362
  110MPD2     H 1715   2.951   0.661   1.752 -0.7519 -1.2048  1.0669
  110MPD2    H1 1716   3.031   1.047   1.913 -1.8371  1.7250  0.5918
  110MPD2    H2 1717   2.676   0.833   2.028  0.8938 -0.1541  0.9956
  110MPD2    H3 1718   2.824   1.036   2.045  1.7287  1.5334 -1.5485
  110MPD2     N 1719   3.121   0.850   1.752 -1.0026  0.0169  0.7979
  110MPD2    H5 1720   3.133   0.770   1.691  1.6948 -1.0974  2.7694
  110MPD2    N1 1721   2.691   0.642   1.867  0.6028  0.3133  0.4202
  110MPD2    H7 1722   2.604   0.647   1.919  0.0704 -1.2910 -0.3245
  111TMC2    C1 1723   3.829   0.961  11.802  0.7526 -0.7347 -0.3370
  111TMC2    C2 1724   3.945   1.039  11.780  0.4069 -0.2396 -0.2624
  111TMC2    C3 1725   4.027   1.056  11.884 -0.3468 -0.1613 -0.5948
  111TMC2    C4 1726   3.799   0.913  11.924  0.6666  0.3366 -0.3778
  111TMC2    C5 1727   3.885   0.941  12.024 -0.0320  0.5163 -0.5847
  111TMC2    C6 1728   3.998   1.016  12.016 -0.0144 -0.5066  0.2793
  111TMC2     C 1729   3.733   0.952  11.692  0.1513  0.7104  0.3414
  111TMC2     O 1730   3.773   0.977  11.578 -0.3371  0.6770 -0.6540
  111TMC2     H 1731   3.978   1.079  11.684  1.4936  0.8863  0.5768
  111TMC2    H1 1732   3.715   0.846  11.936  0.3240  0.2542 -3.2345
  111TMC2    H2 1733   4.061   1.040  12.100  1.0924  0.7401 -0.9151
  111TMC2    C7 1734   3.857   0.875  12.154  0.1698 -0.7424 -0.1058
  111TMC2    C8 1735   4.140   1.147  11.855  0.0107 -0.1992  0.2800
  111TMC2    O1 1736   3.746   0.830  12.172  0.1012  0.0019  0.2005
  111TMC2    O2 1737   4.203   1.152  11.754  0.2864 -0.1145  0.0136
  111TMC2    O5 1738   4.178   1.195  11.978  0.7663 -0.1614  0.1096
  111TMC2    H5 1739   4.274   1.212  11.988  1.2200 -1.6855 -1.6456
  112MPD2     C 1740   3.259   0.916  11.505 -0.0490  0.4988 -0.5276
  112MPD2    C1 1741   3.374   0.913  11.437  0.2592  0.1397  0.0447
  112MPD2    C2 1742   3.490   0.916  11.518 -0.2011 -0.3180 -0.0158
  112MPD2    C3 1743   3.487   0.932  11.655  0.4083 -0.3909  0.3595
  112MPD2    C4 1744   3.366   0.924  11.722 -0.0166 -1.2886 -0.3088
  112MPD2    C5 1745   3.248   0.919  11.645 -0.1172  0.0385  0.7989
  112MPD2     H 1746   3.581   0.917  11.460 -0.4522  2.0530 -0.3608
  112MPD2    H1 1747   3.357   0.928  11.830 -2.3994  1.4074 -0.6016
  112MPD2    H2 1748   3.168   0.885  11.455  0.5162  0.0825 -1.2996
  112MPD2    H3 1749   3.147   0.913  11.685 -0.7585  0.9334 -0.6829
  112MPD2     N 1750   3.602   0.930  11.740  0.2601  0.3651 -0.2076
  112MPD2    H5 1751   3.592   0.940  11.840  0.6721 -3.8195  0.2173
  112MPD2    N1 1752   3.374   0.910  11.293 -0.4966  0.0672 -0.1889
  112MPD2    H7 1753   3.469   0.925  11.262  0.1922  1.5528  2.6438
  113TMC2    C1 1754   1.347   2.277   0.627 -0.4706  0.9195  0.7385
  113TMC2    C2 1755   1.342   2.258   0.490 -0.2603  0.7003  0.8954
  113TMC2    C3 1756   1.261   2.159   0.446 -0.9288  0.3894  0.8334
  113TMC2    C4 1757   1.274   2.199   0.716  0.9267 -0.3156  0.5002
  113TMC2    C5 1758   1.202   2.093   0.662 -0.8409 -0.1082  0.1011
  113TMC2    C6 1759   1.199   2.069   0.522  0.7993  0.3429 -0.3207
  113TMC2     C 1760   1.433   2.370   0.690  0.1238  0.2053 -0.0657
  113TMC2     O 1761   1.379   2.421   0.788  0.1326  0.6821  0.1370
  113TMC2     H 1762   1.390   2.332   0.427 -0.3496 -1.5778 -1.8507
  113TMC2    H1 1763   1.290   2.220   0.821  1.3522 -1.0341  0.5814
  113TMC2    H2 1764   1.121   2.002   0.487 -1.2726  2.3251  0.4706
  113TMC2    C7 1765   1.158   1.990   0.753 -0.7334  0.8585  0.4464
  113TMC2    C8 1766   1.278   2.142   0.304 -0.0907 -0.1058  0.7600
  113TMC2    O1 1767   1.146   1.883   0.694 -0.3151  0.1993  0.1456
  113TMC2    O2 1768   1.324   2.229   0.232 -0.4264 -0.5223 -0.1487
  113TMC2    O5 1769   1.292   2.007   0.287  0.4281 -0.2509  0.1132
  113TMC2    H5 1770   1.294   1.952   0.368 -1.1375 -1.2410 -0.5263
  114MPD2     C 1771   1.909   2.551   0.838 -0.2995 -0.0834 -0.4327
  114MPD2    C1 1772   1.783   2.555   0.888  0.2237 -0.2377  0.8831
  114MPD2    C2 1773   1.674   2.506   0.826  0.0709 -0.3505 -0.7890
  114MPD2    C3 1774   1.678   2.449   0.701 -0.3208 -0.1960  0.3565
  114MPD2    C4 1775   1.801   2.453   0.641  0.1526  0.3193  0.3889
  114MPD2    C5 1776   1.913   2.499   0.713  0.6733  0.1013 -0.1137
  114MPD2     H 1777   1.581   2.516   0.881  0.7144 -1.6438  0.5349
  114MPD2    H1 1778   1.803   2.425   0.536  0.7791 -0.0383  0.4984
  114MPD2    H2 1779   2.000   2.577   0.890  1.1867 -2.4410 -1.9019
  114MPD2    H3 1780   2.007   2.497   0.660 -0.2891  2.6606 -1.8963
  114MPD2     N 1781   1.563   2.383   0.634 -0.3765 -0.3162 -0.3476
  114MPD2    H5 1782   1.584   2.316   0.561 -1.5196 -0.3630 -0.6379
  114MPD2    N1 1783   1.754   2.617   1.014  0.3468 -0.2091 -0.1731
  114MPD2    H7 1784   1.667   2.594   1.060  1.5426 -3.7009  0.3627
  115TMC2    C1 1785   2.329   0.329   0.162 -0.0115  0.1667 -0.1980
  115TMC2    C2 1786   2.455   0.334   0.214  0.1473 -0.3090  1.0542
  115TMC2    C3 1787   2.516   0.456   0.229 -0.8110  0.0785 -0.0932
  115TMC2    C4 1788   2.273   0.438   0.112 -0.0197 -0.3388 -0.1676
  115TMC2    C5 1789   2.340   0.553   0.125 -0.6116  0.0821  0.6367
  115TMC2    C6 1790   2.454   0.571   0.192 -0.7156 -0.4540  0.7851
  115TMC2     C 1791   2.257   0.210   0.121 -0.0955  0.2059 -0.1294
  115TMC2     O 1792   2.205   0.218   0.011  0.1488 -0.6800 -0.0554
  115TMC2     H 1793   2.505   0.242   0.239  2.4929  0.9732  1.0377
  115TMC2    H1 1794   2.169   0.439   0.080 -0.1125 -0.9312  0.1335
  115TMC2    H2 1795   2.505   0.662   0.222 -1.7520  1.5571 -3.6063
  115TMC2    C7 1796   2.280   0.656   0.041  0.6667 -0.2360  1.1576
  115TMC2    C8 1797   2.603   0.475   0.348  0.2542 -0.1325  0.3087
  115TMC2    O1 1798   2.159   0.646   0.008  0.3050  0.0693  0.2884
  115TMC2    O2 1799   2.676   0.575   0.358  0.0367  0.0124 -0.3639
  115TMC2    O5 1800   2.599   0.372   0.434  0.0663 -0.1816 -0.0519
  115TMC2    H5 1801   2.546   0.296   0.401 -0.8483 -0.2431  1.5698
  116MPD2     C 1802   2.132   4.453   0.198  0.0069 -0.2465  0.4769
  116MPD2    C1 1803   2.110   4.531   0.088 -0.3355  0.1273  0.3467
  116MPD2    C2 1804   2.160   4.661   0.088  0.2834  0.6752  0.4457
  116MPD2    C3 1805   2.225   4.711   0.197  0.1384 -0.6905  0.1823
  116MPD2    C4 1806   2.240   4.626   0.303  0.2321  0.2776  0.3108
  116MPD2    C5 1807   2.191   4.503   0.305  0.1795 -0.2647 -0.3105
  116MPD2     H 1808   2.161   4.728   0.002 -1.6426 -0.3194 -0.3546
  116MPD2    H1 1809   2.293   4.665   0.389  0.1376  3.8513 -1.2616
  116MPD2    H2 1810   2.097   4.351   0.201 -1.6949  0.3666  1.3649
  116MPD2    H3 1811   2.179   4.458   0.403 -0.4031 -1.8996 -1.1343
  116MPD2     N 1812   2.284   0.101   0.203 -0.2519 -0.1153  0.1033
  116MPD2    H5 1813   2.334   0.121   0.289 -1.5785 -0.7718  1.0368
  116MPD2    N1 1814   2.051   4.471  17.716 -0.7909 -0.0907  0.9435
  116MPD2    H7 1815   2.038   4.370  17.715 -0.9116 -0.0824  1.8826
  117TMC2    C1 1816   0.693   2.175  14.088 -0.3376  0.2589  0.8137
  117TMC2    C2 1817   0.747   2.081  14.171  0.1429 -0.0574  0.6742
  117TMC2    C3 1818   0.815   2.113  14.287  0.4581  0.6103 -0.2749
  117TMC2    C4 1819   0.699   2.305  14.128  0.4445 -0.2085 -1.2028
  117TMC2    C5 1820   0.754   2.335  14.250  0.2097  0.3693 -0.0161
  117TMC2    C6 1821   0.817   2.241  14.328 -0.5429  0.3521 -0.1918
  117TMC2     C 1822   0.606   2.134  13.980 -1.0029 -0.4602  1.0147
  117TMC2     O 1823   0.591   2.012  13.966 -0.2320 -0.1774  0.4019
  117TMC2     H 1824   0.736   1.980  14.134 -0.1829 -0.4414  1.8446
  117TMC2    H1 1825   0.651   2.387  14.076  0.4079  0.2926 -0.3755
  117TMC2    H2 1826   0.869   2.276  14.417  0.0824 -0.1268 -0.3731
  117TMC2    C7 1827   0.761   2.473  14.298 -0.2165 -0.6583  0.2836
  117TMC2    C8 1828   0.887   2.012  14.359 -0.3185 -0.8702 -0.5195
  117TMC2    O1 1829   0.868   2.507  14.355 -0.0433  0.6582 -0.2017
  117TMC2    O2 1830   0.952   2.055  14.455 -0.3953  0.3987 -0.1106
  117TMC2    O5 1831   0.816   1.895  14.358  0.4331 -0.2926  0.4455
  117TMC2    H5 1832   0.729   1.898  14.312  0.7851  0.0902 -0.1963
  118MPD2     C 1833   0.525   2.741  14.271  0.6413  0.4373  0.4479
  118MPD2    C1 1834   0.643   2.680  14.303  0.1900 -0.2692 -0.5491
  118MPD2    C2 1835   0.743   2.754  14.364  0.0253 -0.5381 -0.3203
  118MPD2    C3 1836   0.728   2.891  14.373 -0.0657 -0.0203 -0.0098
  118MPD2    C4 1837   0.604   2.949  14.345 -0.5871 -0.4020  0.2388
  118MPD2    C5 1838   0.508   2.870  14.290  0.2005 -0.3455 -0.2834
  118MPD2     H 1839   0.833   2.712  14.408 -0.0045 -0.8526 -0.5655
  118MPD2    H1 1840   0.592   3.056  14.335  1.0807 -0.3233 -0.9757
  118MPD2    H2 1841   0.452   2.680  14.219  2.8346 -0.5416 -1.5121
  118MPD2    H3 1842   0.416   2.924  14.274 -0.9818 -2.3942 -0.3457
  118MPD2     N 1843   0.827   2.980  14.423  0.2647 -0.1801  0.4679
  118MPD2    H5 1844   0.793   3.076  14.420 -1.4374 -0.8598 -2.4237
  118MPD2    N1 1845   0.646   2.541  14.283  0.1798  0.8001 -0.0965
  118MPD2    H7 1846   0.564   2.507  14.233 -1.4483  0.8215  2.5688
  119TMC2    C1 1847   3.906   3.464  13.525  0.0001  0.1368 -0.2598
  119TMC2    C2 1848   3.913   3.436  13.388 -0.0229  0.1079  0.4258
  119TMC2    C3 1849   3.802   3.406  13.322 -0.4404  0.6197  0.6096
  119TMC2    C4 1850   3.794   3.423  13.598  0.4769  0.3495  0.7963
  119TMC2    C5 1851   3.685   3.376  13.521 -0.2624 -0.1042 -0.5056
  119TMC2    C6 1852   3.677   3.378  13.381  0.0868  0.2639 -1.0698
  119TMC2     C 1853   4.025   3.464  13.614 -0.5426  0.4873  0.5486
  119TMC2     O 1854   4.007   3.483  13.733 -0.2387 -0.2538  0.2108
  119TMC2     H 1855   4.001   3.459  13.329 -0.3773  0.4598  0.0372
  119TMC2    H1 1856   3.780   3.426  13.706  0.9797  0.0458  0.8721
  119TMC2    H2 1857   3.591   3.331  13.333  0.3164 -0.4864 -0.7498
  119TMC2    C7 1858   3.572   3.323  13.589 -0.2923 -0.4160 -0.5682
  119TMC2    C8 1859   3.817   3.374  13.185  0.6862  0.0812  0.2486
  119TMC2    O1 1860   3.461   3.350  13.551 -0.3194  0.4428  0.4771
  119TMC2    O2 1861   3.922   3.344  13.131 -0.0267  0.2707  0.1174
  119TMC2    O5 1862   3.698   3.393  13.133  0.3642  0.4027  0.2800
  119TMC2    H5 1863   3.638   3.451  13.185  1.4695  0.2607  1.7060
  120MPD2     C 1864   4.516   3.376  13.701  0.2699  0.4672 -1.0985
  120MPD2    C1 1865   4.412   3.403  13.787  0.0880  0.7069 -0.3741
  120MPD2    C2 1866   4.297   3.452  13.739  0.0862  0.0359  0.1153
  120MPD2    C3 1867   4.278   3.460  13.605  0.6030  0.4163 -0.0340
  120MPD2    C4 1868   4.382   3.448  13.520  0.5103  0.7317 -0.0653
  120MPD2    C5 1869   4.501   3.403  13.572 -0.0194  0.9228 -0.0174
  120MPD2     H 1870   4.208   3.463  13.800  0.0013  0.6880 -0.1287
  120MPD2    H1 1871   4.366   3.441  13.413  0.2357  0.2869  0.0078
  120MPD2    H2 1872   4.613   3.340  13.734  0.1774 -0.7673 -2.1670
  120MPD2    H3 1873   4.579   3.361  13.509 -0.0176 -0.8210  1.1392
  120MPD2     N 1874   4.150   3.477  13.550  0.3125  0.0162 -0.4620
  120MPD2    H5 1875   4.153   3.502  13.452  0.0980 -1.0208 -0.7362
  120MPD2    N1 1876   4.435   3.390  13.926 -0.4618  0.1353  0.0641
  120MPD2    H7 1877   4.530   3.369  13.956 -0.3498 -2.6510 -2.2449
  121TMC2    C1 1878   0.334   4.665  13.848 -0.4425 -1.4434  0.3239
  121TMC2    C2 1879   0.407   4.562  13.793  0.0175  0.3863  0.6925
  121TMC2    C3 1880   0.370   4.428  13.813 -0.6900  0.5149  0.0326
  121TMC2    C4 1881   0.232   4.624  13.934 -0.3008 -0.1867 -0.9268
  121TMC2    C5 1882   0.192   4.494  13.953  0.7762 -0.1963  0.3389
  121TMC2    C6 1883   0.265   4.395  13.896  0.5182 -0.4842 -0.2950
  121TMC2     C 1884   0.388   0.063  13.873 -0.6874 -0.4522 -0.0971
  121TMC2     O 1885   0.388   0.103  13.987 -0.5940  0.2628 -0.2925
  121TMC2     H 1886   0.486   4.589  13.724 -1.5391  1.6338 -0.6006
  121TMC2    H1 1887   0.187   4.706  13.988 -0.8615 -1.0399 -0.1100
  121TMC2    H2 1888   0.228   4.293  13.896 -2.3169  0.5423 -0.6836
  121TMC2    C7 1889   0.059   4.470  14.001  0.3729  0.3814 -0.7347
  121TMC2    C8 1890   0.424   4.318  13.735 -0.1178 -0.2232 -0.5942
  121TMC2    O1 1891   0.003   4.363  13.981 -0.6738 -0.3446  0.5675
  121TMC2    O2 1892   0.369   4.212  13.707 -0.2635  0.3502  0.0795
  121TMC2    O5 1893   0.556   4.335  13.732 -0.3486 -0.4936 -0.2486
  121TMC2    H5 1894   0.587   4.407  13.791 -0.4249 -0.6509 -0.0146
  122MPD2     C 1895   0.559   0.306  13.865  0.4976 -0.2983  0.3808
  122MPD2    C1 1896   0.527   0.230  13.757 -0.1521 -0.3033 -0.1622
  122MPD2    C2 1897   0.558   0.277  13.634  0.2046  0.7304 -0.2918
  122MPD2    C3 1898   0.623   0.394  13.612 -0.4629 -0.3942  0.2705
  122MPD2    C4 1899   0.658   0.468  13.727 -0.1522  0.4812  0.1549
  122MPD2    C5 1900   0.629   0.425  13.851 -0.1711 -0.4595 -0.0788
  122MPD2     H 1901   0.527   0.218  13.548 -2.5861  0.7805  0.6841
  122MPD2    H1 1902   0.720   0.558  13.721  0.3391  0.1169 -0.2130
  122MPD2    H2 1903   0.554   0.271  13.968 -0.3478 -2.1945 -0.3041
  122MPD2    H3 1904   0.681   0.458  13.941  1.1691 -2.0164 -0.2761
  122MPD2     N 1905   0.666   0.432  13.487 -0.3424  0.5310  0.0661
  122MPD2    H5 1906   0.701   0.527  13.484  1.4666 -0.1490 -0.1441
  122MPD2    N1 1907   0.454   0.107  13.766 -0.2108 -0.7046  0.3149
  122MPD2    H7 1908   0.433   0.056  13.680 -0.3576  0.8437 -0.5592
  123TMC2    C1 1909   3.952   4.047  11.337 -0.1089  0.0266 -0.2648
  123TMC2    C2 1910   3.892   4.169  11.318 -0.4306 -0.5241  0.3215
  123TMC2    C3 1911   3.945   4.245  11.222 -1.1908  1.1165 -0.2441
  123TMC2    C4 1912   4.035   4.002  11.241 -0.3850  0.0972  0.2564
  123TMC2    C5 1913   4.087   4.084  11.141 -0.5366 -0.1607 -0.4671
  123TMC2    C6 1914   4.042   4.212  11.133 -0.4940  0.9555 -0.3343
  123TMC2     C 1915   3.856   3.950  11.391 -0.1685  0.6467  0.9444
  123TMC2     O 1916   3.790   3.972  11.489  0.1633  0.0942 -0.5677
  123TMC2     H 1917   3.806   4.202  11.375 -0.1483  0.2739  0.2851
  123TMC2    H1 1918   4.075   3.902  11.253  0.8297  0.4777 -0.6630
  123TMC2    H2 1919   4.076   4.273  11.051 -1.0171  1.9055  0.1603
  123TMC2    C7 1920   4.148   4.016  11.029 -0.1124  0.2099 -0.0762
  123TMC2    C8 1921   3.885   4.379  11.198  0.1308 -0.0459 -0.0990
  123TMC2    O1 1922   4.150   3.894  11.029 -0.0012  0.0060  0.4932
  123TMC2    O2 1923   3.843   4.448  11.288 -0.1608  0.2103  0.4018
  123TMC2    O5 1924   3.888   4.414  11.067  0.3178 -0.4486 -0.1838
  123TMC2    H5 1925   3.901   4.334  11.012  1.5562 -0.1006 -0.3994
  124MPD2     C 1926   3.535   3.566  11.275 -0.6449  0.2618 -0.7771
  124MPD2    C1 1927   3.597   3.615  11.161 -0.5871  0.3914  0.0958
  124MPD2    C2 1928   3.703   3.705  11.170 -0.1604 -0.8481 -0.1070
  124MPD2    C3 1929   3.730   3.765  11.294 -0.4298  0.5288 -0.4187
  124MPD2    C4 1930   3.655   3.728  11.404  0.2314  0.8390 -0.4747
  124MPD2    C5 1931   3.569   3.624  11.396 -0.6438  0.2924 -0.3743
  124MPD2     H 1932   3.750   3.747  11.082 -0.1051  1.1600  0.8763
  124MPD2    H1 1933   3.673   3.776  11.500 -2.3104  0.2159  0.3168
  124MPD2    H2 1934   3.470   3.480  11.266 -0.0185 -0.4262  1.2823
  124MPD2    H3 1935   3.522   3.590  11.487 -1.2939 -0.0326 -0.8347
  124MPD2     N 1936   3.832   3.856  11.295  0.1128 -0.2979  0.4138
  124MPD2    H5 1937   3.884   3.864  11.209  0.2837  1.5201  0.6926
  124MPD2    N1 1938   3.559   3.557  11.038 -0.4011 -0.5856  0.1452
  124MPD2    H7 1939   3.493   3.480  11.041 -1.4214  0.3036  0.8126
  125TMC2    C1 1940   0.169   0.908   9.000 -0.1128  0.8714 -0.4010
  125TMC2    C2 1941   0.048   0.969   8.982 -0.0057  0.6568  0.6703
  125TMC2    C3 1942   0.046   1.095   8.923  0.1459  0.4916  0.2548
  125TMC2    C4 1943   0.283   0.951   8.936 -0.6463  0.0373  0.2071
  125TMC2    C5 1944   0.284   1.077   8.877 -0.0645 -0.1645 -0.1650
  125TMC2    C6 1945   0.163   1.151   8.877 -0.2894 -0.4599 -0.6285
  125TMC2     C 1946   0.169   0.771   9.045  0.0146  0.5911 -0.2480
  125TMC2     O 1947   0.260   0.706   9.002 -0.4317  0.0774 -0.5436
  125TMC2     H 1948   4.690   0.925   9.014 -0.6624  1.7904  0.3099
  125TMC2    H1 1949   0.377   0.903   8.964 -1.8064 -1.2159  1.9494
  125TMC2    H2 1950   0.157   1.246   8.826 -1.8160  0.7695  1.9114
  125TMC2    C7 1951   0.403   1.150   8.850 -0.4189  0.4114 -0.1277
  125TMC2    C8 1952   4.650   1.146   8.902 -0.3411 -0.4746  0.2869
  125TMC2    O1 1953   0.405   1.271   8.831  0.0952 -0.0118  0.0325
  125TMC2    O2 1954   4.552   1.128   8.978  0.3987 -0.7407  0.0472
  125TMC2    O5 1955   4.644   1.171   8.772 -0.0709 -0.0042  0.2657
  125TMC2    H5 1956   4.732   1.160   8.730 -1.1660  0.0009 -1.9851
  126MPD1     C 1957   0.022   0.383   9.327  0.3233  0.3295  0.0606
  126MPD1    C1 1958   4.698   0.497   9.374 -0.0462 -0.8117  0.8121
  126MPD1    C2 1959   4.708   0.609   9.298 -0.2953  0.1326  0.5122
  126MPD1    C3 1960   0.054   0.611   9.194  0.1813  0.5480 -0.9766
  126MPD1    C4 1961   0.137   0.507   9.162 -0.1741  0.2455 -0.0828
  126MPD1    C5 1962   0.118   0.386   9.234  0.2814  0.1693 -0.3569
  126MPD1     H 1963   4.651   0.698   9.324  2.6644  1.4107  2.7293
  126MPD1    H1 1964   0.209   0.511   9.081  1.5696 -0.8183  1.4043
  126MPD1    H2 1965   0.008   0.292   9.385 -1.0773  1.1688  1.0305
  126MPD1    H3 1966   0.168   0.296   9.202  1.7639  0.6846  0.5310
  126MPD1     N 1967   0.065   0.732   9.126 -0.0685  0.0924  0.1809
  126MPD1    H5 1968   4.732   0.803   9.148  0.2180  0.3491  0.2523
  126MPD1    N1 1969   4.602   0.479   9.475 -0.6059  0.2675 -0.0375
  126MPD1    H6 1970   4.587   0.567   9.523  1.2451  0.4468  0.2184
  126MPD1    H7 1971   4.634   0.406   9.538 -2.6187 -1.5470 -1.1207
  127TMC2    C1 1972   1.518   4.072   9.797 -0.0439  0.0428  0.1611
  127TMC2    C2 1973   1.444   4.083   9.912  0.8382 -0.0927 -0.1776
  127TMC2    C3 1974   1.359   3.975   9.941  0.5676  0.2267  0.6716
  127TMC2    C4 1975   1.477   3.983   9.697  0.0653  0.0388 -0.4043
  127TMC2    C5 1976   1.374   3.898   9.725 -0.5678  0.6844 -0.5500
  127TMC2    C6 1977   1.315   3.887   9.843  0.3097  0.3751  0.7541
  127TMC2     C 1978   1.603   4.188   9.766  0.6393  0.8244  0.0669
  127TMC2     O 1979   1.610   4.278   9.849  0.2681  0.1330  0.3024
  127TMC2     H 1980   1.466   4.156   9.989  0.0184 -2.8270  2.6823
  127TMC2    H1 1981   1.519   3.987   9.597  1.7701  2.1437  0.3781
  127TMC2    H2 1982   1.244   3.806   9.859  1.6910 -1.1348 -0.7710
  127TMC2    C7 1983   1.325   3.818   9.609  0.2550  0.1768  0.7711
  127TMC2    C8 1984   1.317   3.974  10.081 -0.7516 -0.3879  0.4998
  127TMC2    O1 1985   1.395   3.819   9.507  0.0233  0.0338 -0.0150
  127TMC2    O2 1986   1.367   4.053  10.159  0.5157 -0.1467 -0.2680
  127TMC2    O5 1987   1.207   3.898  10.098  0.3917 -0.0588  0.1560
  127TMC2    H5 1988   1.171   3.858  10.016 -0.2919  0.8317  0.0174
  128MPD2     C 1989   1.834   4.233   9.475 -0.2633 -0.2625 -0.1402
  128MPD2    C1 1990   1.756   4.274   9.579  0.2205  0.6342 -0.0633
  128MPD2    C2 1991   1.749   4.409   9.617 -0.9059 -0.0281 -0.1545
  128MPD2    C3 1992   1.822   4.501   9.543  0.2606  0.5337 -0.4546
  128MPD2    C4 1993   1.902   4.459   9.436  1.4664  0.2722 -0.1125
  128MPD2    C5 1994   1.907   4.322   9.413 -0.4936  0.1471  0.6612
  128MPD2     H 1995   1.678   4.441   9.693 -0.6169  0.1890  0.0252
  128MPD2    H1 1996   1.968   4.525   9.382  0.9751  1.2114  0.4296
  128MPD2    H2 1997   1.856   4.131   9.447  0.7638 -0.0374 -0.1269
  128MPD2    H3 1998   1.974   4.279   9.339 -1.7740 -3.2471  1.4808
  128MPD2     N 1999   1.818   4.631   9.587 -0.7295 -0.3902 -0.5225
  128MPD2    H5 2000   1.782   4.657   9.679  0.7452  2.1038 -0.6512
  128MPD2    N1 2001   1.682   4.175   9.652  0.3424 -0.1288  0.3480
  128MPD2    H7 2002   1.693   4.079   9.621 -3.1544  0.2967 -2.1477
  129TMC2    C1 2003   3.176   0.423   1.506 -0.2527  0.2865 -0.3762
  129TMC2    C2 2004   3.046   0.479   1.486  0.6564  0.3010  0.3433
  129TMC2    C3 2005   2.967   0.404   1.403  0.4257 -0.4497 -0.0249
  129TMC2    C4 2006   3.225   0.311   1.445 -0.1266  0.1191 -0.3129
  129TMC2    C5 2007   3.143   0.246   1.359  0.7353 -0.3599 -0.0103
  129TMC2    C6 2008   3.018   0.297   1.340 -0.3397 -0.0588 -0.0782
  129TMC2     C 2009   3.253   0.496   1.603 -0.2226 -0.4467 -0.3470
  129TMC2     O 2010   3.195   0.582   1.668 -0.6000 -0.0953  0.2142
  129TMC2     H 2011   2.999   0.562   1.537  0.2920 -0.3792  1.1210
  129TMC2    H1 2012   3.319   0.270   1.479 -0.7419 -1.0903 -0.0955
  129TMC2    H2 2013   2.956   0.238   1.272  0.4112 -0.0380 -0.7870
  129TMC2    C7 2014   3.149   0.104   1.373 -0.0960 -0.0844  0.1305
  129TMC2    C8 2015   2.841   0.454   1.343 -0.2247  0.0975 -0.4670
  129TMC2    O1 2016   3.044   0.039   1.375 -0.2821  0.3638 -0.2982
  129TMC2    O2 2017   2.757   0.388   1.286 -0.3470  0.7457  0.3344
  129TMC2    O5 2018   2.866   0.582   1.320  0.2266 -0.2391 -0.5928
  129TMC2    H5 2019   2.943   0.631   1.355 -0.1680  0.8237 -1.2217
  130MPD2     C 2020   3.451   0.593   1.797 -0.5653 -0.3387 -0.1998
  130MPD2    C1 2021   3.479   0.564   1.666 -1.0401 -0.5728  0.6977
  130MPD2    C2 2022   3.605   0.583   1.610 -0.4949  0.2149  0.2383
  130MPD2    C3 2023   3.693   0.669   1.675 -0.7896  0.3310 -0.6856
  130MPD2    C4 2024   3.654   0.718   1.798  0.7335 -0.9094  0.4700
  130MPD2    C5 2025   3.540   0.677   1.856  0.7230  0.1963  0.1051
  130MPD2     H 2026   3.621   0.551   1.507  0.0515 -1.6871  0.9102
  130MPD2    H1 2027   3.701   0.800   1.850 -0.0508 -0.1127 -0.0572
  130MPD2    H2 2028   3.356   0.574   1.846 -0.0907 -2.2267  0.0138
  130MPD2    H3 2029   3.504   0.723   1.947 -0.0593  2.2230 -1.2297
  130MPD2     N 2030   3.807   0.705   1.610 -0.0840 -0.4479 -0.8394
  130MPD2    H5 2031   3.825   0.655   1.523 -0.3336  0.3987 -1.3704
  130MPD2    N1 2032   3.389   0.489   1.588 -0.0933 -0.6085  0.1439
  130MPD2    H7 2033   3.424   0.454   1.499 -1.9724 -2.3880  0.1261
  131TMC2    C1 2034   3.730   4.262  10.255  0.1187 -0.0405 -0.3843
  131TMC2    C2 2035   3.627   4.354  10.245 -0.9229 -0.3643  0.7223
  131TMC2    C3 2036   3.670   4.485  10.236 -0.3883  0.1938 -0.9214
  131TMC2    C4 2037   3.860   4.296  10.277  0.9537  0.3897 -0.1370
  131TMC2    C5 2038   3.897   4.430  10.270 -0.4782  0.7057  0.4219
  131TMC2    C6 2039   3.803   4.526  10.247  0.9802 -0.2964  0.3188
  131TMC2     C 2040   3.704   4.120  10.277 -0.0516 -0.3130  0.8647
  131TMC2     O 2041   3.775   4.057  10.352  0.3513  0.1499 -0.7230
  131TMC2     H 2042   3.523   4.328  10.230 -1.6329  1.3613  2.6945
  131TMC2    H1 2043   3.928   4.226  10.323 -1.1910 -1.5150  0.1618
  131TMC2    H2 2044   3.827   4.631  10.235 -1.4593  0.2361  0.0367
  131TMC2    C7 2045   4.022   4.450  10.196  0.0957  0.6155  0.4239
  131TMC2    C8 2046   3.586   4.577  10.173 -0.0029 -1.0713 -0.4568
  131TMC2    O1 2047   4.066   4.349  10.149  0.8122 -0.1038  0.4194
  131TMC2    O2 2048   3.571   4.574  10.051  0.0654 -0.2942 -0.1843
  131TMC2    O5 2049   3.480   4.588  10.258 -1.0408  0.1052  0.2718
  131TMC2    H5 2050   3.503   4.573  10.353 -0.9212 -0.9261  0.0860
  132MPD2     C 2051   3.459   3.906  10.112 -0.0005  0.5314 -0.1211
  132MPD2    C1 2052   3.547   3.942  10.216 -0.2106  0.0842 -0.7010
  132MPD2    C2 2053   3.571   3.858  10.324  0.5240  0.5643  0.0984
  132MPD2    C3 2054   3.494   3.737  10.330  0.1346 -0.3691 -0.5086
  132MPD2    C4 2055   3.397   3.710  10.235 -0.7316  0.2010 -0.0080
  132MPD2    C5 2056   3.401   3.781  10.119 -0.8953 -0.3066 -0.1341
  132MPD2     H 2057   3.654   3.869  10.393 -1.1671  0.9713  2.0555
  132MPD2    H1 2058   3.337   3.619  10.236  0.0024 -0.2748  0.3349
  132MPD2    H2 2059   3.433   3.961  10.022  1.1346 -0.7560 -1.2320
  132MPD2    H3 2060   3.333   3.756  10.039 -0.5840 -0.4943 -0.3380
  132MPD2     N 2061   3.514   3.650  10.439 -0.3654  0.4068 -0.3725
  132MPD2    H5 2062   3.583   3.681  10.507 -0.1747  0.5768 -0.6413
  132MPD2    N1 2063   3.609   4.073  10.199 -0.0416  0.4164  0.3152
  132MPD2    H7 2064   3.578   4.135  10.124 -0.3649 -0.6521 -0.4342
  133TMC2    C1 2065   3.072   1.042   9.700 -0.3326 -0.6484  0.6450
  133TMC2    C2 2066   3.155   1.123   9.774  0.2561 -0.2691  0.2915
  133TMC2    C3 2067   3.129   1.256   9.776 -0.2063  0.1213 -0.2774
  133TMC2    C4 2068   2.964   1.096   9.634  0.0440 -0.5356 -0.0503
  133TMC2    C5 2069   2.947   1.237   9.635  0.1835 -0.0212  0.1847
  133TMC2    C6 2070   3.039   1.316   9.699  0.6478  0.4415 -0.1853
  133TMC2     C 2071   3.091   0.900   9.690 -0.0074  0.0169 -0.3399
  133TMC2     O 2072   2.992   0.830   9.665  0.5895  0.0708 -0.0694
  133TMC2     H 2073   3.228   1.079   9.841  0.0185 -2.0606 -0.6448
  133TMC2    H1 2074   2.886   1.028   9.600  1.6055 -0.1922 -4.3215
  133TMC2    H2 2075   3.017   1.422   9.708 -1.9543 -0.1643  0.7793
  133TMC2    C7 2076   2.851   1.302   9.548 -0.2274  0.1781 -0.1024
  133TMC2    C8 2077   3.211   1.344   9.850 -0.0477 -0.4243  0.4513
  133TMC2    O1 2078   2.820   1.419   9.553 -0.1943  0.2097  0.1996
  133TMC2    O2 2079   3.165   1.444   9.907  0.8628 -0.3675 -0.6931
  133TMC2    O5 2080   3.337   1.315   9.831 -0.3588 -0.9172 -0.9992
  133TMC2    H5 2081   3.356   1.235   9.778  3.0793 -0.1712 -0.8876
  134MPD2     C 2082   3.404   0.715   9.752 -0.1001 -0.0454 -0.2526
  134MPD2    C1 2083   3.269   0.733   9.730  0.4806  0.0596  0.0185
  134MPD2    C2 2084   3.195   0.614   9.725 -0.6851  0.4347 -0.3798
  134MPD2    C3 2085   3.248   0.485   9.707 -0.8290 -0.4631 -0.4115
  134MPD2    C4 2086   3.388   0.481   9.709 -0.0394  0.0343 -0.0741
  134MPD2    C5 2087   3.464   0.592   9.736 -0.8920 -0.0666 -0.3482
  134MPD2     H 2088   3.088   0.626   9.733 -0.6951  0.0418  0.1062
  134MPD2    H1 2089   3.436   0.384   9.697  2.8836  1.7724 -2.2751
  134MPD2    H2 2090   3.465   0.803   9.764 -0.0001  0.0396 -1.4395
  134MPD2    H3 2091   3.572   0.580   9.735 -0.9662 -0.7300 -0.1755
  134MPD2     N 2092   3.165   0.365   9.697  0.3107 -0.1887 -0.2686
  134MPD2    H5 2093   3.213   0.277   9.679  0.5129 -0.4401  1.4900
  134MPD2    N1 2094   3.220   0.865   9.726 -0.2451 -0.7870 -0.0458
  134MPD2    H7 2095   3.281   0.945   9.732 -1.4193  0.0576  0.6328
  135TMC2    C1 2096   0.718   1.096   9.635 -0.4853  0.0127  0.1386
  135TMC2    C2 2097   0.665   1.106   9.765  0.4807 -0.2447  0.5963
  135TMC2    C3 2098   0.632   0.994   9.830  0.4745 -0.2234  0.0264
  135TMC2    C4 2099   0.737   0.969   9.576  0.1899  0.1473 -0.7646
  135TMC2    C5 2100   0.711   0.852   9.654  0.1270 -0.5157 -0.0822
  135TMC2    C6 2101   0.661   0.865   9.783 -0.1506  0.1976 -0.1324
  135TMC2     C 2102   0.723   1.214   9.555  0.3946 -0.3351 -0.0362
  135TMC2     O 2103   0.663   1.308   9.605 -0.2937 -0.2033 -0.0791
  135TMC2     H 2104   0.642   1.199   9.816 -0.7363 -0.2472  0.0423
  135TMC2    H1 2105   0.765   0.969   9.471  0.8099  2.1309 -0.6119
  135TMC2    H2 2106   0.629   0.779   9.840  0.4428  0.5228  0.6955
  135TMC2    C7 2107   0.738   0.727   9.584  0.7422  0.0710  0.0208
  135TMC2    C8 2108   0.561   1.004   9.951  0.1178  0.1402  0.3959
  135TMC2    O1 2109   0.770   0.738   9.465 -0.4959  0.2382 -0.9158
  135TMC2    O2 2110   0.574   0.928  10.049 -0.2234 -0.4053 -0.0300
  135TMC2    O5 2111   0.466   1.096   9.944 -0.5656 -0.1186 -0.5338
  135TMC2    H5 2112   0.443   1.102   9.849 -1.5213 -0.2390 -0.3099
  136MPD2     C 2113   0.796   1.455   9.406  0.0947 -0.6913 -0.3434
  136MPD2    C1 2114   0.845   1.328   9.376 -0.4165  0.1234 -0.0144
  136MPD2    C2 2115   0.943   1.317   9.277 -0.2839 -0.3659 -0.9292
  136MPD2    C3 2116   0.982   1.428   9.207 -1.0205 -0.9296 -0.4280
  136MPD2    C4 2117   0.920   1.547   9.221 -0.1677 -0.8346 -0.4324
  136MPD2    C5 2118   0.831   1.557   9.323  0.0932 -0.7125  0.2468
  136MPD2     H 2119   0.990   1.220   9.261  2.4732  0.8159 -0.0378
  136MPD2    H1 2120   0.948   1.634   9.162 -0.0037 -1.4417 -1.2584
  136MPD2    H2 2121   0.727   1.481   9.486  1.7003  0.1306  0.7859
  136MPD2    H3 2122   0.795   1.656   9.348  0.1891 -0.0152 -2.4064
  136MPD2     N 2123   1.090   1.427   9.113  0.4014 -0.4208 -0.0562
  136MPD2    H5 2124   1.113   1.513   9.066  4.0626 -0.3388  1.8974
  136MPD2    N1 2125   0.810   1.214   9.449 -0.2691  0.4034 -0.2426
  136MPD2    H7 2126   0.857   1.125   9.439  0.9509  1.1642 -1.2455
  137TMC2    C1 2127   0.460   0.599   9.370  0.5397  0.3351 -0.2154
  137TMC2    C2 2128   0.535   0.690   9.305  0.4636 -0.1275 -0.1873
  137TMC2    C3 2129   0.480   0.816   9.291 -0.2426 -0.2743 -0.1238
  137TMC2    C4 2130   0.348   0.640   9.430 -0.0482  0.4915 -0.1890
  137TMC2    C5 2131   0.296   0.768   9.412 -0.0144 -0.0886  0.6420
  137TMC2    C6 2132   0.362   0.861   9.339 -0.0104  0.4885  0.0311
  137TMC2     C 2133   0.477   0.456   9.348  0.9631  0.1445 -0.0761
  137TMC2     O 2134   0.533   0.424   9.242 -0.1739  0.1658  0.5807
  137TMC2     H 2135   0.621   0.654   9.248  1.6712  0.6455  1.1639
  137TMC2    H1 2136   0.284   0.581   9.494 -0.4261 -1.4639 -2.3956
  137TMC2    H2 2137   0.318   0.952   9.299 -0.2035 -0.1549 -1.2160
  137TMC2    C7 2138   0.168   0.811   9.462 -0.7745 -0.2092 -0.5175
  137TMC2    C8 2139   0.545   0.879   9.176 -0.4580  0.2042 -0.1018
  137TMC2    O1 2140   0.114   0.905   9.413 -0.1761 -0.1873  0.6068
  137TMC2    O2 2141   0.632   0.831   9.111 -0.0370  0.4081  0.1640
  137TMC2    O5 2142   0.526   1.007   9.186 -0.6159  0.3361 -0.3939
  137TMC2    H5 2143   0.473   1.039   9.263  1.9265  1.9747  0.6489
  138MPD2     C 2144   0.355   0.169   9.542  0.1299 -1.1227 -0.1321
  138MPD2    C1 2145   0.435   0.241   9.451 -0.1846  0.0846 -0.0414
  138MPD2    C2 2146   0.530   0.171   9.374  0.3241  0.2595 -0.6364
  138MPD2    C3 2147   0.544   0.037   9.394 -0.1985 -0.6495  0.3029
  138MPD2    C4 2148   0.470   4.703   9.478  0.3014  0.3864  0.5504
  138MPD2    C5 2149   0.375   0.033   9.553  0.3250 -0.1863 -0.0389
  138MPD2     H 2150   0.593   0.220   9.301 -2.1245  0.1211 -2.8517
  138MPD2    H1 2151   0.470   4.595   9.488 -0.6580  0.2623 -0.6880
  138MPD2    H2 2152   0.285   0.223   9.604 -2.9047 -2.0107 -2.7914
  138MPD2    H3 2153   0.318   4.713   9.626  0.7438 -0.2473  0.2447
  138MPD2     N 2154   0.644   4.716   9.318 -0.4704 -0.3584 -0.7498
  138MPD2    H5 2155   0.709   0.040   9.269 -2.1898  1.2051 -1.1268
  138MPD2    N1 2156   0.414   0.377   9.440  0.5977  0.7775  0.2760
  138MPD2    H7 2157   0.362   0.416   9.518  1.1724 -0.2476  1.1626
  139TMC2    C1 2158   0.619   3.281  13.676 -0.2267  0.7035 -0.4572
  139TMC2    C2 2159   0.701   3.371  13.623  0.4442  0.9171 -0.3695
  139TMC2    C3 2160   0.654   3.466  13.529  0.0233  0.6404 -0.2375
  139TMC2    C4 2161   0.481   3.290  13.654 -1.2190 -0.0980  0.3175
  139TMC2    C5 2162   0.434   3.397  13.583  0.2879 -0.1471 -0.4048
  139TMC2    C6 2163   0.520   3.492  13.520  0.2554 -0.3678 -0.7222
  139TMC2     C 2164   0.681   3.156  13.731 -0.4727  0.2602  0.2242
  139TMC2     O 2165   0.803   3.156  13.743  0.4040  0.1244 -0.2153
  139TMC2     H 2166   0.804   3.358  13.654  0.2516  2.1656  0.8000
  139TMC2    H1 2167   0.416   3.207  13.679 -1.0333 -0.2701  0.2378
  139TMC2    H2 2168   0.491   3.563  13.444 -0.8226  0.7064  0.7044
  139TMC2    C7 2169   0.315   3.455  13.634  0.2371  0.2022  0.4004
  139TMC2    C8 2170   0.739   3.576  13.480 -0.1529 -0.3244 -0.2376
  139TMC2    O1 2171   0.257   3.537  13.564  0.0244 -0.7607  0.1917
  139TMC2    O2 2172   0.787   3.572  13.370 -0.0097 -0.3508 -0.5432
  139TMC2    O5 2173   0.800   3.634  13.588  0.3215 -0.3049  0.4096
  139TMC2    H5 2174   0.748   3.629  13.671 -2.0561  2.2916 -0.9302
  140MPD2     C 2175   0.523   2.863  13.872 -0.7352 -0.3040 -0.0104
  140MPD2    C1 2176   0.628   2.933  13.817 -0.1338  0.3921 -0.0891
  140MPD2    C2 2177   0.758   2.886  13.828 -0.3351 -0.2233 -0.8546
  140MPD2    C3 2178   0.777   2.772  13.909 -0.3097  0.6607  0.0741
  140MPD2    C4 2179   0.666   2.702  13.970 -0.2791 -0.0059  0.1300
  140MPD2    C5 2180   0.541   2.755  13.954  0.4298  0.3743 -0.8453
  140MPD2     H 2181   0.844   2.940  13.791 -0.8660 -0.6169 -2.6275
  140MPD2    H1 2182   0.675   2.616  14.035  2.9985  0.4711  0.3084
  140MPD2    H2 2183   0.422   2.903  13.874  0.0245  1.6556 -1.0764
  140MPD2    H3 2184   0.457   2.703  13.999  0.9135  1.3919  1.1799
  140MPD2     N 2185   0.908   2.723  13.919 -0.5836  0.0153  0.1971
  140MPD2    H5 2186   0.977   2.773  13.863 -2.1057  3.0020  1.0115
  140MPD2    N1 2187   0.591   3.054  13.759  0.2354  0.9250  0.3351
  140MPD2    H7 2188   0.493   3.070  13.740 -0.0644 -0.1211  0.9732
  141TMC2    C1 2189   1.778   3.447  14.364 -0.1750  0.6786 -0.1976
  141TMC2    C2 2190   1.684   3.461  14.466 -0.1741 -0.4211  0.8569
  141TMC2    C3 2191   1.705   3.572  14.546  0.5257  0.1500 -0.5037
  141TMC2    C4 2192   1.892   3.527  14.361 -0.2712  0.2856  0.6371
  141TMC2    C5 2193   1.905   3.638  14.442 -0.1435 -0.0225 -0.2826
  141TMC2    C6 2194   1.807   3.661  14.531  0.6442 -0.2157 -0.1491
  141TMC2     C 2195   1.724   3.435  14.231  0.3740 -0.2836 -0.1840
  141TMC2     O 2196   1.769   3.518  14.155  0.0972 -0.2043  0.4800
  141TMC2     H 2197   1.602   3.396  14.494 -0.1711 -0.9465 -0.3523
  141TMC2    H1 2198   1.958   3.513  14.276 -0.2963  2.2248  0.3102
  141TMC2    H2 2199   1.799   3.755  14.585 -0.9453  1.1648 -2.8383
  141TMC2    C7 2200   1.945   3.760  14.368  0.2151  0.0983  0.5177
  141TMC2    C8 2201   1.623   3.569  14.665  0.6821 -0.4082  0.0278
  141TMC2    O1 2202   1.993   3.733  14.256 -0.2884  0.1362  0.6919
  141TMC2    O2 2203   1.504   3.552  14.649  0.5576 -0.1747  0.5084
  141TMC2    O5 2204   1.676   3.654  14.756  0.0038  0.2394 -0.1050
  141TMC2    H5 2205   1.774   3.643  14.758  0.0314  0.4101 -0.5346
  142TMC2    C1 2206   4.210   3.389  10.491 -0.1418  0.3507  0.5196
  142TMC2    C2 2207   4.266   3.398  10.372 -0.5010 -0.4315  0.0180
  142TMC2    C3 2208   4.352   3.503  10.349  0.3271  0.0892  0.0912
  142TMC2    C4 2209   4.246   3.476  10.592  0.3109  0.7394  0.5709
  142TMC2    C5 2210   4.339   3.566  10.576  0.0161 -0.2737 -1.0347
  142TMC2    C6 2211   4.395   3.587  10.455  0.1799  0.6092  0.3512
  142TMC2     C 2212   4.115   3.277  10.509 -0.1936  0.0291  0.1282
  142TMC2     O 2213   4.082   3.216  10.409 -0.3621  0.1996  0.2270
  142TMC2     H 2214   4.237   3.341  10.284 -3.0376 -0.5297  0.9197
  142TMC2    H1 2215   4.192   3.468  10.686 -2.2171 -1.0805 -1.0701
  142TMC2    H2 2216   4.476   3.658  10.439 -0.0990  0.3903 -2.1089
  142TMC2    C7 2217   4.344   3.676  10.672 -0.5876  0.1952  0.6386
  142TMC2    C8 2218   4.426   3.498  10.226 -0.4693  0.4210 -0.0243
  142TMC2    O1 2219   4.306   3.657  10.787  0.6029  0.2889 -0.2948
  142TMC2    O2 2220   4.437   3.400  10.153  0.4419 -0.2629 -0.1990
  142TMC2    O5 2221   4.473   3.620  10.204  0.7736 -0.1041  0.5629
  142TMC2    H5 2222   4.440   3.685  10.270 -2.5476  0.1677 -1.3659
  143MPD2     C 2223   3.882   2.932  10.791 -1.0686 -0.0759 -0.0619
  143MPD2    C1 2224   3.854   2.979  10.663 -0.8271  0.1561  0.5952
  143MPD2    C2 2225   3.936   3.079  10.609 -0.1307  0.5093  0.2337
  143MPD2    C3 2226   4.039   3.131  10.689  0.3054 -0.1704 -0.1465
  143MPD2    C4 2227   4.058   3.085  10.816 -0.4243 -0.4209 -0.3556
  143MPD2    C5 2228   3.981   2.986  10.873  0.4132 -0.5191  0.3904
  143MPD2     H 2229   3.906   3.123  10.515 -1.3682 -1.5318 -0.3306
  143MPD2    H1 2230   4.139   3.129  10.873 -0.5428 -0.0293 -0.4847
  143MPD2    H2 2231   3.822   2.855  10.839  0.1031 -1.4921 -0.8729
  143MPD2    H3 2232   4.009   2.954  10.972  3.3719  0.5375 -0.1106
  143MPD2     N 2233   4.114   3.242  10.641  0.1853  0.2109 -0.0525
  143MPD2    H5 2234   4.176   3.292  10.704 -0.5652  0.1142  0.7531
  143MPD2    N1 2235   3.730   2.924  10.610  0.2166  0.0995 -0.3094
  143MPD2    H7 2236   3.684   2.850  10.660 -0.6449  0.9472  0.1566
  144TMC2    C1 2237   2.108   1.574   0.817 -0.0751  0.5127 -0.3156
  144TMC2    C2 2238   2.175   1.460   0.792 -0.3473 -0.5365 -0.3091
  144TMC2    C3 2239   2.309   1.445   0.841  0.5768  0.3990  0.3984
  144TMC2    C4 2240   2.148   1.652   0.921 -0.4772  0.5731 -0.9661
  144TMC2    C5 2241   2.262   1.616   0.990  0.2811 -0.0312 -0.4973
  144TMC2    C6 2242   2.349   1.520   0.951  0.5409  0.4963  0.5682
  144TMC2     C 2243   1.984   1.594   0.744 -0.6626  0.0413 -0.3877
  144TMC2     O 2244   1.967   1.525   0.639 -0.8269  0.0003 -0.0741
  144TMC2     H 2245   2.146   1.392   0.713 -1.1791 -0.1739 -0.3115
  144TMC2    H1 2246   2.082   1.726   0.966  0.0572 -0.7305  1.9312
  144TMC2    H2 2247   2.443   1.499   1.001 -0.5552  0.4908  2.6269
  144TMC2    C7 2248   2.312   1.695   1.099  0.4603  0.7634  0.3663
  144TMC2    C8 2249   2.376   1.339   0.776  0.0910  0.0007 -0.2159
  144TMC2    O1 2250   2.388   1.636   1.173 -0.3918  0.8306  0.1374
  144TMC2    O2 2251   2.328   1.259   0.697  0.1197  0.1487  0.0762
  144TMC2    O5 2252   2.504   1.370   0.791 -0.2582  0.4519  0.2017
  144TMC2    H5 2253   2.525   1.447   0.847 -0.1950  0.3056  0.3791
  145MPD2     C 2254   1.526   1.838   0.690 -0.0657 -0.2101 -0.5307
  145MPD2    C1 2255   1.576   1.734   0.622 -0.4431  0.5015 -0.2152
  145MPD2    C2 2256   1.700   1.678   0.655  0.4156  0.3068 -0.0821
  145MPD2    C3 2257   1.779   1.745   0.749 -0.4785  0.3443 -0.9855
  145MPD2    C4 2258   1.722   1.854   0.817  0.3150 -0.2674  0.4057
  145MPD2    C5 2259   1.598   1.894   0.788  0.8563  0.2722 -0.1379
  145MPD2     H 2260   1.733   1.592   0.596  2.8744  0.3627  1.2011
  145MPD2    H1 2261   1.781   1.910   0.889  0.7394 -1.3384  0.8899
  145MPD2    H2 2262   1.425   1.876   0.673 -0.5420 -1.3517 -0.2524
  145MPD2    H3 2263   1.557   1.979   0.842  0.4869  1.2397 -1.9300
  145MPD2     N 2264   1.908   1.705   0.791 -0.3222 -0.9552 -0.3236
  145MPD2    H5 2265   1.961   1.762   0.857 -0.0134 -1.4586 -0.1427
  145MPD2    N1 2266   1.511   1.671   0.516  0.2678  0.3020 -0.6639
  145MPD2    H7 2267   1.553   1.592   0.469 -0.8517  0.1860 -1.4682
  146TMC2    C1 2268   2.625   1.409  13.106 -0.4334 -0.0369  0.3218
  146TMC2    C2 2269   2.554   1.500  13.032  0.4608  0.0321  0.0942
  146TMC2    C3 2270   2.557   1.518  12.899 -0.0576 -0.7078 -0.4844
  146TMC2    C4 2271   2.699   1.315  13.037  0.0913  0.2716 -0.4743
  146TMC2    C5 2272   2.698   1.320  12.902 -0.7155  1.0695  0.0715
  146TMC2    C6 2273   2.635   1.421  12.834  0.3713 -0.2138 -0.0156
  146TMC2     C 2274   2.614   1.406  13.250  0.1970 -0.0835 -0.1641
  146TMC2     O 2275   2.520   1.469  13.293 -0.0006 -0.0985 -0.5688
  146TMC2     H 2276   2.485   1.565  13.084 -1.6891 -0.2044 -2.4560
  146TMC2    H1 2277   2.721   1.218  13.081  1.2264  1.3897  1.4365
  146TMC2    H2 2278   2.621   1.414  12.726  2.8246 -3.9507 -0.0820
  146TMC2    C7 2279   2.775   1.228  12.817  0.6885 -0.2292 -0.3594
  146TMC2    C8 2280   2.449   1.577  12.837  0.1816  0.0556 -0.2779
  146TMC2    O1 2281   2.758   1.246  12.696  0.2633 -0.0646  0.1681
  146TMC2    O2 2282   2.354   1.623  12.899  0.1255 -0.4702  0.5244
  146TMC2    O5 2283   2.488   1.626  12.714  0.2122  0.6687 -0.0756
  146TMC2    H5 2284   2.582   1.602  12.700  0.5223  2.4056 -1.0684
  147MPD2     C 2285   3.069   0.835  12.709 -0.0517 -0.7534  0.1224
  147MPD2    C1 2286   3.046   0.833  12.845 -0.5385 -0.7160 -0.0069
  147MPD2    C2 2287   2.956   0.923  12.908  0.1446  0.5197 -0.2708
  147MPD2    C3 2288   2.895   1.016  12.824 -0.7832  0.2871  0.1092
  147MPD2    C4 2289   2.919   1.012  12.689 -0.7293  0.7730 -0.3536
  147MPD2    C5 2290   3.003   0.919  12.629  0.0122  0.6030 -0.0227
  147MPD2     H 2291   2.951   0.932  13.016  0.0262  0.1385 -0.2465
  147MPD2    H1 2292   2.875   1.076  12.613 -1.7771 -0.1250 -0.5074
  147MPD2    H2 2293   3.135   0.766  12.657  2.2167  0.4285  1.4071
  147MPD2    H3 2294   3.025   0.901  12.524  1.3269 -0.9491  0.5308
  147MPD2     N 2295   2.828   1.123  12.892 -0.3267 -0.3591 -0.1836
  147MPD2    H5 2296   2.818   1.129  12.993 -0.7906 -1.2906 -0.1803
  147MPD2    N1 2297   3.121   0.739  12.918  0.5633  0.3169  0.0015
  147MPD2    H7 2298   3.175   0.669  12.868 -0.2813 -0.4319  0.1375
  148TMC2    C1 2299   3.427   0.089  11.007  0.3501  0.1366  1.2768
  148TMC2    C2 2300   3.555   0.146  11.010 -0.4696  0.0299  0.2285
  148TMC2    C3 2301   3.656   0.082  11.080 -0.6110  0.3508 -0.0748
  148TMC2    C4 2302   3.400   4.713  11.086  0.4029  0.0571  0.4323
  148TMC2    C5 2303   3.509   4.653  11.150 -0.3320 -0.3223 -0.0707
  148TMC2    C6 2304   3.635   4.701  11.142  0.0246  0.0128  0.5318
  148TMC2     C 2305   3.362   0.091  10.881  0.2517  0.0649 -0.0751
  148TMC2     O 2306   3.353   0.206  10.834 -0.0405 -0.5231 -0.2613
  148TMC2     H 2307   3.573   0.222  10.935  1.4426 -0.5574  0.0869
  148TMC2    H1 2308   3.314   4.650  11.068  1.1547 -0.8049 -0.1656
  148TMC2    H2 2309   3.715   4.637  11.178  0.0853 -0.1245  0.1515
  148TMC2    C7 2310   3.505   4.516  11.117 -0.4600  0.2125  0.0047
  148TMC2    C8 2311   3.795   0.121  11.062  0.0010 -0.7724 -0.0803
  148TMC2    O1 2312   3.468   4.497  10.998 -0.1227  0.7961 -0.6781
  148TMC2    O2 2313   3.889   0.045  11.082  0.3144 -0.3028 -0.4493
  148TMC2    O5 2314   3.812   0.253  11.040 -0.2910  0.2784  0.2683
  148TMC2    H5 2315   3.731   0.308  11.044 -1.0251 -0.7892  0.1911
  149MPD2     C 2316   3.225   0.054  10.620  0.3833 -0.3009  0.1228
  149MPD2    C1 2317   3.271   4.691  10.709  0.2566  0.3705 -0.5849
  149MPD2    C2 2318   3.232   4.557  10.683  0.3168 -0.2158 -0.0516
  149MPD2    C3 2319   3.150   4.533  10.574  0.0783  0.2197  0.2360
  149MPD2    C4 2320   3.122   4.629  10.483 -0.4508 -0.6223  0.0691
  149MPD2    C5 2321   3.153   0.024  10.509 -0.0710  0.1812  0.3172
  149MPD2     H 2322   3.259   4.478  10.752 -2.1867  0.1431  1.3059
  149MPD2    H1 2323   3.054   4.611  10.401  0.7433 -3.9477 -0.2224
  149MPD2    H2 2324   3.236   0.161  10.638  2.2348 -0.1778 -1.6286
  149MPD2    H3 2325   3.120   0.104  10.443 -2.4271 -1.3278 -0.3473
  149MPD2     N 2326   3.079   4.418  10.551  0.4064 -0.0986  0.4778
  149MPD2    H5 2327   3.030   4.415  10.461  0.1609  1.4410  0.5621
  149MPD2    N1 2328   3.337   4.708  10.827  0.3573 -0.1623  0.3470
  149MPD2    H7 2329   3.360   4.625  10.881  0.0432  0.1722  0.9845
  150TMC2    C1 2330   0.771   3.287  12.527  0.0605 -0.0947  0.5480
  150TMC2    C2 2331   0.747   3.393  12.445 -0.5225 -0.1603 -0.1914
  150TMC2    C3 2332   0.852   3.465  12.399 -0.1028  0.2100  0.4904
  150TMC2    C4 2333   0.896   3.246  12.557  0.3190 -0.8180 -0.6459
  150TMC2    C5 2334   0.997   3.312  12.495 -0.0523  0.5984 -0.7362
  150TMC2    C6 2335   0.975   3.419  12.416  0.3806 -0.4721  0.2092
  150TMC2     C 2336   0.667   3.187  12.566 -0.3952 -0.1842  0.4322
  150TMC2     O 2337   0.701   3.081  12.620 -0.0331  0.1867  0.0793
  150TMC2     H 2338   0.649   3.416  12.403 -0.0236  0.5662 -0.9669
  150TMC2    H1 2339   0.914   3.151  12.606  0.4645 -0.8348 -0.7311
  150TMC2    H2 2340   1.061   3.470  12.373 -0.4310 -0.9083 -1.9155
  150TMC2    C7 2341   1.126   3.246  12.482 -0.5042 -0.5584 -0.5793
  150TMC2    C8 2342   0.827   3.574  12.308  0.5113  0.7071 -0.5817
  150TMC2    O1 2343   1.188   3.285  12.383 -0.2785 -0.0823  0.2580
  150TMC2    O2 2344   0.920   3.637  12.259 -0.6369 -0.6857 -0.0884
  150TMC2    O5 2345   0.701   3.627  12.320  0.0781 -0.5129  0.2875
  150TMC2    H5 2346   0.638   3.573  12.373  0.4687  1.8376  3.1143
  151MPD2     C 2347   0.176   3.018  12.555 -0.1376 -0.0469 -0.1431
  151MPD2    C1 2348   0.181   3.135  12.488  0.1545  0.1688  0.0589
  151MPD2    C2 2349   0.306   3.204  12.493 -0.5222 -0.0096 -0.0151
  151MPD2    C3 2350   0.417   3.145  12.549  0.7657 -0.2393  0.1767
  151MPD2    C4 2351   0.412   3.011  12.594 -0.1866 -0.0319 -0.0842
  151MPD2    C5 2352   0.287   2.946  12.595 -0.1117 -0.2796 -0.4520
  151MPD2     H 2353   0.308   3.299  12.442 -1.5637  0.5145  0.9220
  151MPD2    H1 2354   0.505   2.955  12.606  0.4580  0.8984 -0.7079
  151MPD2    H2 2355   0.076   2.978  12.570 -0.9328  1.4829 -1.4246
  151MPD2    H3 2356   0.276   2.850  12.644 -1.7966  0.6263  0.9140
  151MPD2     N 2357   0.540   3.220  12.529  0.2932  0.0952 -0.3429
  151MPD2    H5 2358   0.528   3.312  12.489 -0.0806 -0.2494 -1.0228
  151MPD2    N1 2359   0.068   3.181  12.415  0.4380 -0.0551 -0.4640
  151MPD2    H7 2360   4.732   3.110  12.410 -0.7503  1.0986  0.2389
  152TMC2    C1 2361   0.382   3.263  12.877 -0.2540 -0.2859  0.7106
  152TMC2    C2 2362   0.454   3.149  12.883  0.7436 -0.3043  0.6620
  152TMC2    C3 2363   0.585   3.150  12.914 -0.0393  0.8603  0.5359
  152TMC2    C4 2364   0.438   3.383  12.885  0.7552  0.7334 -0.3133
  152TMC2    C5 2365   0.573   3.383  12.908 -0.2835  0.3756  0.4562
  152TMC2    C6 2366   0.655   3.265  12.917 -0.4518  0.5714  0.0492
  152TMC2     C 2367   0.243   3.262  12.847 -0.3826  0.5506  0.1452
  152TMC2     O 2368   0.191   3.371  12.818 -0.5390  1.2786  0.1391
  152TMC2     H 2369   0.406   3.055  12.855  0.4612  1.4409 -4.7328
  152TMC2    H1 2370   0.391   3.479  12.864 -2.2927 -0.7621 -0.3218
  152TMC2    H2 2371   0.760   3.269  12.944 -0.4416 -0.4028  0.1283
  152TMC2    C7 2372   0.642   3.500  12.858  0.6060  0.3191 -0.2640
  152TMC2    C8 2373   0.646   3.032  12.971 -0.1035  0.3481 -0.3848
  152TMC2    O1 2374   0.571   3.590  12.821 -0.2648  0.1352  0.6727
  152TMC2    O2 2375   0.767   3.028  12.992  0.2037 -0.0558 -0.7370
  152TMC2    O5 2376   0.560   2.975  13.055  0.4116 -0.7399 -0.4821
  152TMC2    H5 2377   0.463   2.983  13.043  0.0111 -0.8211  2.7458
  153MPD2     C 2378   4.728   2.997  12.892  0.8529 -0.6328 -0.2728
  153MPD2    C1 2379   0.041   3.118  12.844 -0.5682  0.3134  0.4925
  153MPD2    C2 2380   4.689   3.196  12.769  0.3670 -0.2448 -0.3091
  153MPD2    C3 2381   4.563   3.160  12.748  0.1593  0.5906 -0.2376
  153MPD2    C4 2382   4.515   3.042  12.798  0.5726  0.6533 -0.1340
  153MPD2    C5 2383   4.599   2.958  12.860  0.2384  0.7468  0.2158
  153MPD2     H 2384   4.724   3.289  12.725  1.7180 -1.2812 -1.3947
  153MPD2    H1 2385   4.412   3.008  12.797  0.7197  0.1970  0.6447
  153MPD2    H2 2386   0.056   2.915  12.922 -1.0401 -2.0201 -0.0139
  153MPD2    H3 2387   4.560   2.858  12.881  2.4708 -0.3577 -0.9683
  153MPD2     N 2388   4.473   3.240  12.669 -0.8525  0.1932 -0.9279
  153MPD2    H5 2389   4.511   3.327  12.633  1.5727 -1.0518 -1.3938
  153MPD2    N1 2390   0.179   3.142  12.865  0.2613 -0.1041 -0.2180
  153MPD2    H7 2391   0.229   3.067  12.912  1.2333  0.3306 -0.5854
  154TMC2    C1 2392   1.801   2.882   0.627  0.0361 -0.6807  0.7243
  154TMC2    C2 2393   1.807   2.987   0.710  0.6622 -0.3220  0.0754
  154TMC2    C3 2394   1.928   3.017   0.767  0.1796 -0.5530  0.0057
  154TMC2    C4 2395   1.910   2.808   0.591 -0.3164 -0.2546  0.2405
  154TMC2    C5 2396   2.025   2.845   0.656  0.9169  0.9429 -0.0352
  154TMC2    C6 2397   2.037   2.943   0.746  0.1628  0.2957  0.1365
  154TMC2     C 2398   1.658   2.852   0.589 -0.2071 -0.0671  0.0443
  154TMC2     O 2399   1.566   2.908   0.648  0.3930  0.2581  0.1821
  154TMC2     H 2400   1.724   3.048   0.744  0.0719 -0.4222 -1.2127
  154TMC2    H1 2401   1.903   2.728   0.517  0.4811  0.8975 -1.0866
  154TMC2    H2 2402   2.124   2.970   0.804  0.6772 -1.2819  0.0782
  154TMC2    C7 2403   2.148   2.785   0.613 -0.2913  0.0074  0.1031
  154TMC2    C8 2404   1.927   3.132   0.853  0.3549 -0.7462  0.0271
  154TMC2    O1 2405   2.231   2.764   0.698  0.4167 -0.1594 -0.1622
  154TMC2    O2 2406   1.832   3.179   0.909 -0.1202 -0.0401 -0.3977
  154TMC2    O5 2407   2.033   3.199   0.809  0.1539 -0.8634  0.7409
  154TMC2    H5 2408   2.071   3.160   0.727  1.3919 -1.5045  1.6145
  155MPD2     C 2409   1.526   2.635   0.313 -0.7490 -0.0188 -0.0800
  155MPD2    C1 2410   1.529   2.707   0.431  0.1661 -0.8812 -0.0413
  155MPD2    C2 2411   1.402   2.719   0.499  0.2523 -1.4337  0.0164
  155MPD2    C3 2412   1.301   2.634   0.460 -0.0048  0.0259 -0.2056
  155MPD2    C4 2413   1.299   2.567   0.339 -0.1053  0.6656 -0.3452
  155MPD2    C5 2414   1.418   2.570   0.272  0.1689  0.3625 -0.2235
  155MPD2     H 2415   1.386   2.777   0.589  1.7752 -0.3253 -0.4218
  155MPD2    H1 2416   1.215   2.519   0.290  0.1394 -1.5164  1.3925
  155MPD2    H2 2417   1.616   2.625   0.254 -1.2451 -0.6379 -0.7282
  155MPD2    H3 2418   1.439   2.504   0.188  1.4570  0.8187 -0.2591
  155MPD2     N 2419   1.188   2.647   0.543  0.0127  0.3058 -0.4465
  155MPD2    H5 2420   1.177   2.729   0.602  1.2019  0.0255  0.1608
  155MPD2    N1 2421   1.650   2.762   0.481 -0.6219 -0.7101  0.2109
  155MPD2    H7 2422   1.736   2.764   0.426 -0.9255 -1.7484 -0.3045
  156TMC2    C1 2423   0.366   0.762  11.499  0.6543 -0.1705 -0.4861
  156TMC2    C2 2424   0.463   0.703  11.422  0.4205 -0.1873 -0.5805
  156TMC2    C3 2425   0.443   0.701  11.284  1.0215 -0.0416  0.0267
  156TMC2    C4 2426   0.250   0.820  11.445  0.1471 -0.4876  0.6142
  156TMC2    C5 2427   0.238   0.821  11.307  0.7051  0.8030 -0.6403
  156TMC2    C6 2428   0.332   0.759  11.228  0.0140 -0.4171  0.7075
  156TMC2     C 2429   0.410   0.822  11.623 -0.6874 -0.1208 -0.5581
  156TMC2     O 2430   0.331   0.886  11.689  0.5111 -0.6733 -0.3423
  156TMC2     H 2431   0.545   0.653  11.473 -0.4109  0.0072  0.9552
  156TMC2    H1 2432   0.177   0.853  11.518 -0.0449  0.1700  0.1350
  156TMC2    H2 2433   0.321   0.772  11.121 -0.8799  0.0241  0.8492
  156TMC2    C7 2434   0.183   0.945  11.252 -0.3071  0.5053 -0.1791
  156TMC2    C8 2435   0.536   0.639  11.190 -0.3494 -0.7002  1.1124
  156TMC2    O1 2436   0.237   0.998  11.157 -0.2733 -0.4481 -0.2741
  156TMC2    O2 2437   0.503   0.615  11.073 -0.0185  0.1076 -0.0056
  156TMC2    O5 2438   0.660   0.682  11.207 -0.3656  0.4469  0.2021
  156TMC2    H5 2439   0.674   0.738  11.286 -0.8903  2.0023 -0.8081
  157MPD2     C 2440   0.751   0.869  11.746  0.5519  0.2711  0.1138
  157MPD2    C1 2441   0.617   0.894  11.740  0.2689  0.2165 -0.2702
  157MPD2    C2 2442   0.559   0.981  11.827  0.4386  0.3006  0.1183
  157MPD2    C3 2443   0.637   1.048  11.919  0.3003 -0.6068  0.0811
  157MPD2    C4 2444   0.771   1.024  11.925 -0.1665 -0.0349  0.2729
  157MPD2    C5 2445   0.828   0.942  11.830 -0.0742  0.0638 -0.3138
  157MPD2     H 2446   0.453   1.005  11.828 -0.2314 -2.6047 -1.1410
  157MPD2    H1 2447   0.835   1.077  11.994  0.0750  0.9223 -0.6870
  157MPD2    H2 2448   0.786   0.784  11.688  2.0811  0.1954  1.1620
  157MPD2    H3 2449   0.929   0.905  11.841 -0.8514 -1.8760  0.3637
  157MPD2     N 2450   0.579   1.142  11.998 -0.2827 -0.3451  0.0396
  157MPD2    H5 2451   0.488   1.176  11.969 -1.0436 -0.3035  2.5329
  157MPD2    N1 2452   0.541   0.816  11.641  0.2224  0.9128 -0.0645
  157MPD2    H7 2453   0.599   0.759  11.581 -1.2282  0.2922 -0.8607
  158TMC2    C1 2454   0.632   4.112  13.362 -0.1922  0.7512 -0.2483
  158TMC2    C2 2455   0.697   4.136  13.243 -0.0495 -0.2215  0.8006
  158TMC2    C3 2456   0.658   4.250  13.170  0.4683 -0.1622  0.0503
  158TMC2    C4 2457   0.530   4.195  13.400  0.5606  0.8401  0.7374
  158TMC2    C5 2458   0.493   4.310  13.318  0.6258 -0.9289 -0.5123
  158TMC2    C6 2459   0.559   4.337  13.205 -0.3369  0.4252 -0.0242
  158TMC2     C 2460   0.698   4.012  13.445 -0.6604 -0.2225 -0.2304
  158TMC2     O 2461   0.794   3.952  13.397 -0.2604  0.1262  0.1847
  158TMC2     H 2462   0.788   4.085  13.213  0.8567  1.5475  0.4974
  158TMC2    H1 2463   0.474   4.190  13.492  0.1647  0.1946  0.4582
  158TMC2    H2 2464   0.534   4.428  13.152  0.3122  0.1286 -0.8422
  158TMC2    C7 2465   0.385   4.393  13.365 -0.6119 -0.0108 -0.3983
  158TMC2    C8 2466   0.720   4.269  13.041  0.4116  0.3027 -0.3531
  158TMC2    O1 2467   0.391   4.516  13.341  0.0744 -0.1445 -0.7889
  158TMC2    O2 2468   0.836   4.239  12.999  0.3827 -0.1685 -0.2922
  158TMC2    O5 2469   0.628   4.322  12.960 -0.0709  0.2744  0.3270
  158TMC2    H5 2470   0.537   4.301  12.988  0.3575  0.5510  1.9536
  159MPD2     C 2471   0.848   3.923  13.937  0.1072  0.3850  0.5188
  159MPD2    C1 2472   0.727   3.991  13.939  0.6882  0.8959  0.1858
  159MPD2    C2 2473   0.661   4.022  13.821 -0.2125  0.2815 -0.7912
  159MPD2    C3 2474   0.727   3.989  13.697 -0.1093 -0.3974 -0.0721
  159MPD2    C4 2475   0.849   3.926  13.703 -0.2094  0.1939  0.6879
  159MPD2    C5 2476   0.909   3.894  13.823  0.5004 -0.4854  0.3959
  159MPD2     H 2477   0.563   4.068  13.820  0.3274  1.4268 -0.0474
  159MPD2    H1 2478   0.900   3.899  13.612  0.4829  0.6544  0.9359
  159MPD2    H2 2479   0.894   3.899  14.032 -0.3425 -2.1329  0.0826
  159MPD2    H3 2480   1.007   3.852  13.838  1.2158 -0.2075 -3.4803
  159MPD2     N 2481   0.664   4.038  13.580 -0.0628 -0.0222  0.4641
  159MPD2    H5 2482   0.588   4.102  13.599 -2.3587 -2.3879 -0.7751
  159MPD2    N1 2483   0.671   4.004  14.069 -0.1626 -0.0274 -0.0280
  159MPD2    H7 2484   0.724   3.962  14.144 -0.6234 -0.9021 -0.1898
  160TMC2    C1 2485   4.700   1.876   1.411  0.1931 -0.0466  0.8542
  160TMC2    C2 2486   4.712   1.738   1.428 -0.3260 -0.0828  0.0296
  160TMC2    C3 2487   0.104   1.683   1.424  0.2621 -0.5499 -0.2754
  160TMC2    C4 2488   0.071   1.949   1.371  0.4661 -0.4048  0.0618
  160TMC2    C5 2489   0.187   1.883   1.338  0.4584 -0.5580  0.1256
  160TMC2    C6 2490   0.212   1.751   1.376  0.6426  0.2966  0.3827
  160TMC2     C 2491   4.571   1.928   1.452  0.6167 -0.0686 -0.1739
  160TMC2     O 2492   4.509   1.862   1.532 -0.0946 -0.5717 -0.0106
  160TMC2     H 2493   4.628   1.672   1.450 -0.5239  0.4695  0.9184
  160TMC2    H1 2494   0.068   2.057   1.363  1.0091 -0.1926  2.8830
  160TMC2    H2 2495   0.301   1.703   1.336  1.0168  1.4031 -0.0913
  160TMC2    C7 2496   0.295   1.968   1.281 -0.0175  0.2266 -0.1357
  160TMC2    C8 2497   0.117   1.542   1.432  0.8277  0.3946 -0.7660
  160TMC2    O1 2498   0.259   2.080   1.246  0.3399  0.0487 -0.7787
  160TMC2    O2 2499   0.015   1.475   1.411  0.0135 -0.3505  0.6958
  160TMC2    O5 2500   0.247   1.500   1.412 -0.1571  0.1784  0.1760
  160TMC2    H5 2501   0.320   1.564   1.431  0.2930 -0.5097  0.7670
  161MPD2     C 2502   4.394   2.125   1.567 -0.0139  0.6609 -0.0103
  161MPD2    C1 2503   4.443   2.139   1.437 -0.2652  0.0618 -0.0760
  161MPD2    C2 2504   4.395   2.233   1.350  0.0121  0.2243  0.0075
  161MPD2    C3 2505   4.293   2.316   1.384  0.2009  0.1135 -0.3140
  161MPD2    C4 2506   4.238   2.297   1.510  0.6830  0.1702 -0.0971
  161MPD2    C5 2507   4.297   2.217   1.607 -0.4271  0.0590 -0.7597
  161MPD2     H 2508   4.445   2.244   1.255  1.4004  0.2661  0.7462
  161MPD2    H1 2509   4.147   2.346   1.543  0.2392 -0.5067 -0.3249
  161MPD2    H2 2510   4.441   2.053   1.634  1.6404  0.6979 -1.1311
  161MPD2    H3 2511   4.252   2.212   1.705 -0.3121  1.9185 -0.6114
  161MPD2     N 2512   4.237   2.414   1.302  0.3482  0.3799  0.9646
  161MPD2    H5 2513   4.152   2.462   1.331  0.1301  1.1120 -0.8665
  161MPD2    N1 2514   4.545   2.053   1.395 -0.3158 -0.2680 -0.1756
  161MPD2    H7 2515   4.595   2.074   1.309  0.6228 -0.2323  0.3717
  162TMC2    C1 2516   2.646   4.440   0.833  0.3014 -0.3153 -0.1695
  162TMC2    C2 2517   2.572   4.535   0.773 -0.4298  0.3080 -0.1220
  162TMC2    C3 2518   2.450   4.560   0.823 -0.3703 -0.0501  0.0860
  162TMC2    C4 2519   2.588   4.364   0.926  0.2584  0.4968  0.2990
  162TMC2    C5 2520   2.463   4.382   0.968 -0.6085 -0.7480  0.0236
  162TMC2    C6 2521   2.389   4.486   0.921  0.7216  0.2013  0.5221
  162TMC2     C 2522   2.781   4.419   0.786 -0.1438  0.0642  0.6241
  162TMC2     O 2523   2.799   4.460   0.672  0.3234 -0.0720 -0.0208
  162TMC2     H 2524   2.626   4.605   0.711  2.2055 -0.9667  0.7522
  162TMC2    H1 2525   2.641   4.283   0.977  0.9394  1.2321  0.7574
  162TMC2    H2 2526   2.293   4.515   0.964  0.2016 -1.6607  0.6302
  162TMC2    C7 2527   2.410   4.314   1.086 -0.3622  0.0628 -0.4149
  162TMC2    C8 2528   2.382   4.675   0.766  0.4471 -0.2915  0.2318
  162TMC2    O1 2529   2.291   4.274   1.081 -0.2764  0.4706  0.7437
  162TMC2    O2 2530   2.318   0.013   0.839  0.1175  0.2895 -0.0889
  162TMC2    O5 2531   2.413   4.692   0.640 -0.5247  0.6636  0.0723
  162TMC2    H5 2532   2.455   4.613   0.599 -1.8119  0.2152 -0.3997
  163MPD2     C 2533   3.237   4.175   0.794 -0.2192  1.2713  0.1515
  163MPD2    C1 2534   3.180   4.250   0.690  0.3061 -0.5738 -0.5832
  163MPD2    C2 2535   3.060   4.316   0.712  0.0685 -0.4700 -0.1221
  163MPD2    C3 2536   2.997   4.298   0.837 -0.5089  0.8319  0.0462
  163MPD2    C4 2537   3.042   4.211   0.933  0.1750  0.2983 -0.0174
  163MPD2    C5 2538   3.166   4.159   0.914 -0.0012 -0.1760 -0.3258
  163MPD2     H 2539   3.005   4.370   0.636 -0.8233 -0.4226  0.5562
  163MPD2    H1 2540   2.972   4.180   1.009 -0.8240  1.4588 -0.4788
  163MPD2    H2 2541   3.335   4.130   0.790 -2.1839 -2.8215 -3.0868
  163MPD2    H3 2542   3.203   4.098   0.996  2.2929  1.0160 -0.4943
  163MPD2     N 2543   2.865   4.352   0.866  0.4684 -0.0130  0.1771
  163MPD2    H5 2544   2.817   4.322   0.950 -0.3988  2.0640  0.4191
  163MPD2    N1 2545   3.256   4.270   0.570  0.1104 -0.2587 -0.0136
  163MPD2    H7 2546   3.339   4.212   0.560 -0.6098 -0.6933 -3.1267
  164TMC2    C1 2547   3.662   4.238  11.701 -0.5706  0.2189 -0.8207
  164TMC2    C2 2548   3.800   4.240  11.713  0.1661 -0.7457  0.2986
  164TMC2    C3 2549   3.866   4.354  11.671  0.1679  0.0628 -0.3130
  164TMC2    C4 2550   3.590   4.336  11.640  0.1780  0.2213  0.6280
  164TMC2    C5 2551   3.662   4.444  11.599  0.0023  0.6892 -0.6007
  164TMC2    C6 2552   3.801   4.448  11.603  0.7391 -0.6374  0.6260
  164TMC2     C 2553   3.591   4.110  11.737 -0.1081  0.6438 -0.2490
  164TMC2     O 2554   3.469   4.136  11.750 -0.3881  0.3986 -0.2201
  164TMC2     H 2555   3.861   4.168  11.767  0.8192 -0.0243  0.5194
  164TMC2    H1 2556   3.483   4.320  11.635 -0.1743  2.2678  1.8041
  164TMC2    H2 2557   3.852   4.519  11.538  2.5290  1.2666  4.1202
  164TMC2    C7 2558   3.590   4.550  11.536  0.7910 -0.6139 -0.3187
  164TMC2    C8 2559   4.011   4.329  11.662  0.4121  0.0645  0.0112
  164TMC2    O1 2560   3.476   4.523  11.506  0.6250 -0.7023  0.9192
  164TMC2    O2 2561   4.066   4.221  11.656 -0.0356  0.1596 -0.5539
  164TMC2    O5 2562   4.045   4.428  11.575 -0.0491  0.8997  0.3785
  164TMC2    H5 2563   4.013   4.516  11.604  0.1341  0.8557  0.7120
  165TMC2    C1 2564   0.098   2.292   1.576  0.1869  0.2368 -0.5279
  165TMC2    C2 2565   0.041   2.357   1.477 -0.2342 -0.0302  0.3199
  165TMC2    C3 2566   0.119   2.405   1.378  0.6019 -0.2379 -0.3485
  165TMC2    C4 2567   0.228   2.290   1.602  0.1110  0.3673  0.0166
  165TMC2    C5 2568   0.311   2.350   1.511 -1.0150 -0.7335  0.4694
  165TMC2    C6 2569   0.258   2.407   1.400 -0.8180 -0.7424  0.1861
  165TMC2     C 2570   0.015   2.270   1.694 -0.1991 -0.2126  0.2599
  165TMC2     O 2571   0.020   2.156   1.749 -0.3945  0.1410 -0.2083
  165TMC2     H 2572   4.671   2.354   1.455 -1.0085 -1.8412  4.2357
  165TMC2    H1 2573   0.264   2.256   1.699 -2.5425 -0.1496  0.8288
  165TMC2    H2 2574   0.320   2.456   1.327 -1.2884 -2.7855 -1.5702
  165TMC2    C7 2575   0.449   2.351   1.536  0.0489  0.3116 -0.5867
  165TMC2    C8 2576   0.051   2.468   1.262  0.3844  0.3286 -0.0700
  165TMC2    O1 2577   0.518   2.325   1.439 -0.0644  0.5510  0.3285
  165TMC2    O2 2578   4.672   2.504   1.250  0.7605  0.2856 -0.3292
  165TMC2    O5 2579   0.137   2.445   1.160  0.1645 -0.0191  0.8074
  165TMC2    H5 2580   0.226   2.409   1.177  0.3839  0.1499  0.0119
  166MPD2     C 2581   4.359   2.383   2.007 -0.2756 -0.0625 -0.3086
  166MPD2    C1 2582   4.408   2.259   1.966 -0.4162 -0.3357 -0.2483
  166MPD2    C2 2583   4.509   2.251   1.876  0.4395  0.3610  0.4296
  166MPD2    C3 2584   4.561   2.371   1.830  0.4104 -0.1693  0.3658
  166MPD2    C4 2585   4.521   2.493   1.873  0.0478 -0.0195  0.3751
  166MPD2    C5 2586   4.414   2.498   1.953 -0.3598  0.5520  0.2121
  166MPD2     H 2587   4.548   2.155   1.846  0.0415  0.5616 -0.7441
  166MPD2    H1 2588   4.568   2.582   1.832 -1.4671  0.1911 -0.9374
  166MPD2    H2 2589   4.268   2.401   2.063 -1.1738  0.0335 -1.8095
  166MPD2    H3 2590   4.384   2.595   1.992  0.9918  0.6027  1.1221
  166MPD2     N 2591   4.665   2.375   1.733  0.3613  0.1929 -0.4656
  166MPD2    H5 2592   4.693   2.465   1.695 -1.3880  1.0086  0.1937
  166MPD2    N1 2593   4.341   2.146   2.010  0.1177  0.0493  0.0640
  166MPD2    H7 2594   4.271   2.151   2.084  0.6842 -1.4477  0.7042
  167TMC2    C1 2595   2.883   4.336  12.509 -0.4597 -0.1033 -0.1631
  167TMC2    C2 2596   2.744   4.336  12.525  0.0610 -0.5035 -0.5012
  167TMC2    C3 2597   2.691   4.230  12.596 -0.4602  0.3712 -0.0568
  167TMC2    C4 2598   2.966   4.235  12.558 -0.1937 -0.4222  0.4647
  167TMC2    C5 2599   2.894   4.128  12.602 -0.0993 -0.1189  0.6029
  167TMC2    C6 2600   2.764   4.128  12.639 -0.1218 -0.0733 -0.6829
  167TMC2     C 2601   2.939   4.451  12.440 -0.6847 -0.1638  0.1687
  167TMC2     O 2602   2.858   4.506  12.362 -0.2806 -0.5280  0.3114
  167TMC2     H 2603   2.682   4.405  12.470  0.2663 -0.5779 -0.8271
  167TMC2    H1 2604   3.073   4.239  12.547 -0.4087  1.2230 -1.0369
  167TMC2    H2 2605   2.706   4.054  12.693 -2.1558  0.2605 -2.3737
  167TMC2    C7 2606   2.953   3.997  12.604 -0.4793 -0.2412  0.2968
  167TMC2    C8 2607   2.547   4.227  12.608  0.2706 -0.4597 -0.1109
  167TMC2    O1 2608   2.892   3.906  12.659  0.2943  0.2859 -0.3041
  167TMC2    O2 2609   2.481   4.227  12.504 -0.0978  0.3040  0.0066
  167TMC2    O5 2610   2.532   4.311  12.710  0.2173 -0.5197  0.5869
  167TMC2    H5 2611   2.620   4.317  12.752  0.2644  0.0485  0.3975
  168MPD2     C 2612   3.274   4.604  12.465 -0.6037 -0.2000  0.9126
  168MPD2    C1 2613   3.143   4.597  12.437  0.1568 -0.0767  0.1397
  168MPD2    C2 2614   3.092   4.691  12.351 -0.7316  0.4941  0.1714
  168MPD2    C3 2615   3.171   0.068  12.313 -0.2557 -0.5473 -0.5058
  168MPD2    C4 2616   3.300   0.078  12.352  0.4671 -0.5449  0.7291
  168MPD2    C5 2617   3.358   4.701  12.413  0.0418  0.0854 -0.3111
  168MPD2     H 2618   2.991   4.692  12.312 -0.7622 -0.5461  0.2389
  168MPD2    H1 2619   3.352   0.169  12.324  0.3507 -0.8407 -0.4747
  168MPD2    H2 2620   3.317   4.524  12.525 -1.4810 -1.2358  0.1682
  168MPD2    H3 2621   3.464   4.705  12.436  0.4094 -0.3121 -1.9575
  168MPD2     N 2622   3.105   0.161  12.228  0.3061  0.0045 -0.2117
  168MPD2    H5 2623   3.007   0.134  12.228  0.3143 -0.0307  0.0749
  168MPD2    N1 2624   3.067   4.482  12.474 -0.3294 -0.0150  0.0174
  168MPD2    H7 2625   3.114   4.420  12.539 -0.0436  0.2724  0.0837
  169MPD1     C 2626   1.825   2.794   9.476  0.5414  0.8164 -0.6097
  169MPD1    C1 2627   1.846   2.914   9.410 -0.5127 -0.1213  0.2436
  169MPD1    C2 2628   1.741   3.007   9.419 -0.8479  0.4996  0.2453
  169MPD1    C3 2629   1.624   2.979   9.492 -0.1147  0.2393 -0.1947
  169MPD1    C4 2630   1.608   2.857   9.554 -0.6619 -0.1731 -0.7255
  169MPD1    C5 2631   1.712   2.767   9.538  0.0297 -0.9133  0.0605
  169MPD1     H 2632   1.759   3.104   9.374  0.5773 -0.1541 -0.6163
  169MPD1    H1 2633   1.523   2.823   9.613  2.0323 -1.9417  2.1310
  169MPD1    H2 2634   1.893   2.710   9.467 -2.3553 -1.6749  0.8015
  169MPD1    H3 2635   1.695   2.668   9.581 -1.5010 -0.8832 -0.4459
  169MPD1     N 2636   1.538   3.088   9.513  0.0871 -0.4707 -0.1189
  169MPD1    H5 2637   1.563   3.180   9.478  1.6202 -0.8051  0.0972
  169MPD1    N1 2638   1.964   2.953   9.348  0.2124  0.0314  0.4231
  169MPD1    H6 2639   1.986   3.043   9.391 -0.7813  0.8928 -0.8868
  169MPD1    H7 2640   2.046   2.893   9.358  0.1850 -0.0211  0.3337
  170MPD1     C 2641   4.491   1.418  13.335 -0.4500 -0.4202 -0.7132
  170MPD1    C1 2642   4.523   1.449  13.465 -0.0590  0.4160  0.2914
  170MPD1    C2 2643   4.436   1.530  13.536 -0.6112 -0.8116  0.2101
  170MPD1    C3 2644   4.310   1.571  13.483  0.5525  0.2089 -0.4222
  170MPD1    C4 2645   4.277   1.525  13.357  0.5593 -0.6134 -0.1180
  170MPD1    C5 2646   4.368   1.449  13.285 -0.4666  0.3540 -0.8407
  170MPD1     H 2647   4.460   1.575  13.631 -1.6540 -1.0825  0.6006
  170MPD1    H1 2648   4.182   1.539  13.307 -0.2513  0.3133  1.6539
  170MPD1    H2 2649   4.558   1.360  13.273 -1.1113 -2.4319  0.4530
  170MPD1    H3 2650   4.341   1.414  13.186 -3.0017  0.5314 -0.1946
  170MPD1     N 2651   4.222   1.639  13.563 -0.1918 -0.5298  1.4808
  170MPD1    H5 2652   4.246   1.648  13.661 -2.9149 -1.0673  2.2042
  170MPD1    N1 2653   4.652   1.425  13.511 -0.6314  0.6934  0.3171
  170MPD1    H6 2654   4.713   1.358  13.465 -0.8394 -1.3067  2.9617
  170MPD1    H7 2655   4.652   1.418  13.613 -2.1037 -0.4398  0.2235
  171MPD1     C 2656   1.872   2.413  16.102 -0.3263  0.5292  0.0811
  171MPD1    C1 2657   1.886   2.347  15.979  0.4159  0.0140 -0.4603
  171MPD1    C2 2658   1.961   2.230  15.972 -0.0527 -0.2917  0.8136
  171MPD1    C3 2659   2.014   2.174  16.090 -0.0204 -0.9956  0.0131
  171MPD1    C4 2660   1.999   2.241  16.209 -0.6566 -0.3533 -0.2820
  171MPD1    C5 2661   1.936   2.359  16.212 -0.2057  0.0453  0.0966
  171MPD1     H 2662   1.982   2.184  15.876 -0.9993 -0.3617  0.6463
  171MPD1    H1 2663   2.051   2.199  16.295  1.4898 -0.0442 -1.4168
  171MPD1    H2 2664   1.808   2.500  16.104 -0.6465  0.3136 -0.5110
  171MPD1    H3 2665   1.934   2.407  16.309  0.9604  1.8074 -0.7483
  171MPD1     N 2666   2.093   2.053  16.083  0.2722 -0.8295  0.5840
  171MPD1    H5 2667   2.124   2.019  16.173  0.7706  1.7238  1.3928
  171MPD1    N1 2668   1.843   2.411  15.857 -0.1015  0.1459  0.4856
  171MPD1    H6 2669   1.817   2.341  15.788  3.1453 -0.1026 -0.4965
  171MPD1    H7 2670   1.755   2.462  15.865 -0.5127 -0.6196  0.8849
  172MPD1     C 2671   1.937   1.284  17.571 -0.3536 -0.2414 -0.0666
  172MPD1    C1 2672   1.957   1.415  17.531 -0.5085  0.1614 -0.4034
  172MPD1    C2 2673   1.995   1.509  17.619 -0.2055 -1.0103  0.0226
  172MPD1    C3 2674   2.000   1.479   0.008  0.4889  0.7052 -0.1630
  172MPD1    C4 2675   1.982   1.349   0.046 -0.4755  0.1767 -0.0154
  172MPD1    C5 2676   1.941   1.258  17.705 -0.2930 -0.0076  0.3605
  172MPD1     H 2677   2.008   1.612  17.587  0.4702 -1.3436 -0.7779
  172MPD1    H1 2678   1.992   1.326   0.152  1.4902  0.9562 -0.0370
  172MPD1    H2 2679   1.891   1.206  17.511 -1.8165  0.7335 -0.2042
  172MPD1    H3 2680   1.909   1.163   0.004 -0.4198 -0.8240 -1.5467
  172MPD1     N 2681   2.029   1.567   0.115 -0.1565 -0.5288 -0.4313
  172MPD1    H5 2682   2.040   1.526   0.207 -1.1408  0.2130  0.0203
  172MPD1    N1 2683   1.921   1.445  17.403 -0.8043  0.1961 -0.1624
  172MPD1    H6 2684   1.975   1.516  17.354 -3.0161  1.0800 -1.3321
  172MPD1    H7 2685   1.922   1.373  17.330 -2.8531  1.2199 -1.1975
  173MPD1     C 2686   3.199   0.935  13.864  0.4260  0.2283  0.0804
  173MPD1    C1 2687   3.299   1.024  13.858 -0.5021 -0.4074  0.6337
  173MPD1    C2 2688   3.297   1.125  13.951 -0.4119 -0.2758 -0.1831
  173MPD1    C3 2689   3.189   1.149  14.038  0.8194 -0.0710 -0.0743
  173MPD1    C4 2690   3.088   1.062  14.035 -0.3903 -0.0699 -0.2075
  173MPD1    C5 2691   3.092   0.954  13.943  0.1740 -0.2005  0.3128
  173MPD1     H 2692   3.377   1.198  13.955  0.1462 -0.8221 -1.7022
  173MPD1    H1 2693   3.007   1.063  14.107 -0.4126  0.6454 -0.2519
  173MPD1    H2 2694   3.191   0.851  13.796  2.6177  0.4009 -0.3783
  173MPD1    H3 2695   3.011   0.882  13.943 -0.5731  0.6345 -0.7048
  173MPD1     N 2696   3.210   1.252  14.137 -0.1528  0.2684 -0.3029
  173MPD1    H5 2697   3.279   1.324  14.118 -1.4007  1.9474  1.6708
  173MPD1    N1 2698   3.411   1.002  13.778  0.2086 -0.7584  0.3678
  173MPD1    H6 2699   3.458   1.087  13.747 -1.3317 -0.7026 -1.7685
  173MPD1    H7 2700   3.390   0.956  13.690 -3.4655  1.6474 -0.0141
  174MPD1     C 2701   3.871   1.535  14.145 -0.9353  0.3299 -0.5928
  174MPD1    C1 2702   3.849   1.575  14.271 -0.2925 -0.5206 -0.4491
  174MPD1    C2 2703   3.717   1.593  14.316  0.1822 -0.8251  0.1595
  174MPD1    C3 2704   3.611   1.590  14.227  0.6429  0.2717 -0.0019
  174MPD1    C4 2705   3.636   1.564  14.094 -0.0203  0.2411  0.0152
  174MPD1    C5 2706   3.764   1.539  14.059 -0.1674  0.1016  0.3965
  174MPD1     H 2707   3.688   1.602  14.420  1.3112 -0.4508  0.4349
  174MPD1    H1 2708   3.563   1.563  14.015 -2.1579  1.6509  1.9651
  174MPD1    H2 2709   3.963   1.499  14.102 -0.2813  1.1519  0.1159
  174MPD1    H3 2710   3.774   1.511  13.955 -0.0340  0.2818  0.3602
  174MPD1     N 2711   3.475   1.589  14.263 -0.4154  0.3192 -0.0511
  174MPD1    H5 2712   3.414   1.563  14.186  2.1167 -1.0955 -1.5859
  174MPD1    N1 2713   3.949   1.561  14.366 -0.2408  0.2023  0.1563
  174MPD1    H6 2714   4.039   1.576  14.321 -0.1337  1.3823  0.7857
  174MPD1    H7 2715   3.942   1.638  14.431 -2.2546 -0.6789  0.9743
  175MPD1     C 2716   1.263   2.675  15.459  0.6348 -0.8373 -0.5941
  175MPD1    C1 2717   1.388   2.618  15.477  0.4939  0.4371 -0.0755
  175MPD1    C2 2718   1.405   2.539  15.593 -0.2003  0.2292  0.2511
  175MPD1    C3 2719   1.302   2.523  15.684 -0.2528 -0.7348  0.3208
  175MPD1    C4 2720   1.176   2.565  15.652  0.5451 -0.0561 -0.7192
  175MPD1    C5 2721   1.162   2.642  15.547  0.8637 -0.7243  0.0700
  175MPD1     H 2722   1.507   2.508  15.615 -0.2506 -0.8661 -1.0123
  175MPD1    H1 2723   1.090   2.547  15.717 -0.8212  0.8252 -2.2860
  175MPD1    H2 2724   1.237   2.730  15.369  0.9338 -0.5224 -0.4860
  175MPD1    H3 2725   1.066   2.690  15.528  1.3462  0.1236 -0.2186
  175MPD1     N 2726   1.314   2.445  15.805 -0.0662 -0.6566  0.7189
  175MPD1    H5 2727   1.227   2.425  15.852  0.3547 -0.1264  1.7276
  175MPD1    N1 2728   1.485   2.628  15.377 -0.9055  0.3546  0.2087
  175MPD1    H6 2729   1.480   2.557  15.305 -1.3001  2.1183 -1.5148
  175MPD1    H7 2730   1.575   2.625  15.425 -2.5700  1.3080  3.4481
  176MPD1     C 2731   2.996   4.037  17.729  0.2817  0.0713 -0.6577
  176MPD1    C1 2732   3.024   4.103  17.613 -1.0457 -0.0961 -0.0263
  176MPD1    C2 2733   3.029   4.241  17.618  0.5011  0.4162 -0.1829
  176MPD1    C3 2734   2.996   4.314  17.731  0.2778 -0.4752  0.0183
  176MPD1    C4 2735   2.950   4.248   0.101  0.1771 -0.0912  0.4809
  176MPD1    C5 2736   2.948   4.112   0.092  0.4528 -0.5248 -0.1970
  176MPD1     H 2737   3.083   4.291  17.539  0.7576 -0.1570 -0.3758
  176MPD1    H1 2738   2.901   4.284   0.191  0.1074  1.1441 -0.0486
  176MPD1    H2 2739   3.001   3.929  17.727  1.0341  0.0903  0.1797
  176MPD1    H3 2740   2.897   4.063   0.174  3.9717  0.5025  2.5825
  176MPD1     N 2741   3.008   4.456  17.730 -0.3274  0.2802  0.1619
  176MPD1    H5 2742   3.038   4.492  17.640 -0.8936  2.1759  0.7526
  176MPD1    N1 2743   3.078   4.040  17.501 -0.8178  0.5345  0.4504
  176MPD1    H6 2744   3.045   3.945  17.484 -0.7623  0.3723  1.2301
  176MPD1    H7 2745   3.047   4.094  17.421  1.6493 -0.3255 -1.0970
  177MPD1     C 2746   2.078   4.671  10.372 -0.2405 -0.1928  0.4974
  177MPD1    C1 2747   2.002   4.591  10.294  0.1024 -0.6168  0.2651
  177MPD1    C2 2748   1.971   4.635  10.168  0.1885  0.5012  0.0075
  177MPD1    C3 2749   1.983   0.034  10.128 -0.0672  0.2538  0.0846
  177MPD1    C4 2750   2.036   0.115  10.230 -0.4585  0.6130 -0.2175
  177MPD1    C5 2751   2.101   0.067  10.342  0.1137 -0.4140 -0.0719
  177MPD1     H 2752   1.933   4.572  10.088 -0.8295  1.3316 -0.1705
  177MPD1    H1 2753   2.057   0.219  10.206 -0.0270  0.4245 -0.6519
  177MPD1    H2 2754   2.128   4.643  10.464 -0.5350  2.2729  1.4281
  177MPD1    H3 2755   2.159   0.125  10.413 -2.8733  1.1459  1.0721
  177MPD1     N 2756   1.944   0.076  10.002 -0.3627  0.2509  0.3816
  177MPD1    H5 2757   1.904   0.005   9.940  0.4199 -0.6098  0.8687
  177MPD1    N1 2758   1.997   4.460  10.324 -0.1757  0.2832 -0.7006
  177MPD1    H6 2759   1.915   4.420  10.278 -1.3533 -0.1424  1.7248
  177MPD1    H7 2760   1.993   4.446  10.425  0.0662  1.5860 -0.5141
  178MPD1     C 2761   3.919   0.683   0.386  0.6120 -1.3092  0.1908
  178MPD1    C1 2762   3.919   0.564   0.321 -0.1262  0.2164  0.3596
  178MPD1    C2 2763   3.985   0.556   0.192 -0.0388 -0.6951 -0.1462
  178MPD1    C3 2764   4.072   0.651   0.150 -0.2354  0.1062  0.0383
  178MPD1    C4 2765   4.080   0.768   0.229 -0.5093  0.0253 -0.5127
  178MPD1    C5 2766   4.005   0.785   0.344  0.3956  0.9157  0.5969
  178MPD1     H 2767   3.979   0.463   0.136 -0.3090 -1.1558  0.6407
  178MPD1    H1 2768   4.154   0.843   0.202  0.8447 -0.8615  0.7346
  178MPD1    H2 2769   3.878   0.695   0.486  0.4320  2.6448 -0.3650
  178MPD1    H3 2770   4.014   0.878   0.400  0.1882  0.1138  1.9639
  178MPD1     N 2771   4.131   0.664   0.024  0.2677 -0.1234  0.4439
  178MPD1    H5 2772   4.199   0.738   0.010  1.3044 -0.7195  2.2777
  178MPD1    N1 2773   3.837   0.464   0.379 -0.3184 -0.3968 -0.1716
  178MPD1    H6 2774   3.814   0.475   0.478  2.7729 -1.7354  0.6731
  178MPD1    H7 2775   3.877   0.371   0.369  0.3145 -0.1842  0.4457
  179MPD1     C 2776   3.279   3.594  16.127 -0.3380  0.1791  0.4092
  179MPD1    C1 2777   3.151   3.546  16.090  0.0425 -0.0734 -0.2852
  179MPD1    C2 2778   3.138   3.411  16.064 -0.4516 -0.0770  0.9748
  179MPD1    C3 2779   3.246   3.326  16.061  0.8235 -0.3584 -0.3345
  179MPD1    C4 2780   3.374   3.374  16.083 -0.5390 -0.5917  0.4742
  179MPD1    C5 2781   3.382   3.501  16.119 -0.0905  0.6110  0.4163
  179MPD1     H 2782   3.043   3.373  16.029 -0.2111 -0.2014  0.4496
  179MPD1    H1 2783   3.470   3.325  16.082  1.6410  3.6957  2.6903
  179MPD1    H2 2784   3.287   3.701  16.143 -2.2284 -0.0636  3.0033
  179MPD1    H3 2785   3.481   3.546  16.132 -0.3198  1.5217 -0.9989
  179MPD1     N 2786   3.234   3.187  16.044  0.2105  0.0423 -0.5256
  179MPD1    H5 2787   3.318   3.133  16.064 -0.0548  0.2746  1.2781
  179MPD1    N1 2788   3.046   3.633  16.068  0.3682 -0.1478 -0.1265
  179MPD1    H6 2789   2.951   3.597  16.059 -0.0090  1.0361 -0.7719
  179MPD1    H7 2790   3.064   3.732  16.051 -1.4551  0.4430  1.4603
  180MPD1     C 2791   4.380   0.634  14.990 -0.0589 -0.3162  0.0754
  180MPD1    C1 2792   4.353   0.719  14.889 -0.9811 -0.5840 -0.0311
  180MPD1    C2 2793   4.282   0.671  14.783 -0.2113 -0.5531  0.9890
  180MPD1    C3 2794   4.210   0.549  14.796  0.3509 -0.0497  1.3036
  180MPD1    C4 2795   4.240   0.463  14.896  0.3184  0.1930  0.6076
  180MPD1    C5 2796   4.320   0.509  14.993  0.1339  0.5014 -0.1087
  180MPD1     H 2797   4.260   0.722  14.689  1.5917 -1.2927  0.1673
  180MPD1    H1 2798   4.209   0.360  14.886 -0.3683  0.5896 -1.3326
  180MPD1    H2 2799   4.433   0.670  15.078  0.4027  0.6433 -0.5877
  180MPD1    H3 2800   4.349   0.458  15.084  0.2032  0.1670 -0.3215
  180MPD1     N 2801   4.122   0.522  14.695  0.3257  0.1254  0.3213
  180MPD1    H5 2802   4.110   0.595  14.626  2.0116  1.1231  1.0868
  180MPD1    N1 2803   4.410   0.841  14.878 -0.7015 -0.3407 -0.3034
  180MPD1    H6 2804   4.348   0.906  14.829  1.1089  0.9871 -0.8082
  180MPD1    H7 2805   4.429   0.878  14.971  1.1702  1.1982 -1.2988
  181MPD1     C 2806   0.493   2.505  10.193 -0.2315 -0.2010  0.3741
  181MPD1    C1 2807   0.546   2.382  10.165 -0.3953 -0.9245 -0.0606
  181MPD1    C2 2808   0.679   2.376  10.122 -1.1499 -0.0779  0.1711
  181MPD1    C3 2809   0.745   2.488  10.081  0.6698 -0.2814  0.3994
  181MPD1    C4 2810   0.689   2.613  10.101  0.2491 -0.1941 -0.1048
  181MPD1    C5 2811   0.569   2.617  10.169 -0.2321  0.4879 -0.7359
  181MPD1     H 2812   0.728   2.280  10.112 -0.5712  0.1922  0.4164
  181MPD1    H1 2813   0.733   2.705  10.065 -1.1366  1.3680  2.2101
  181MPD1    H2 2814   0.389   2.517  10.219  0.2483  2.3925  1.1033
  181MPD1    H3 2815   0.525   2.714  10.191 -1.8373 -0.5808  0.6915
  181MPD1     N 2816   0.880   2.492  10.038  0.4513  0.3294 -0.5461
  181MPD1    H5 2817   0.926   2.581  10.022 -0.7180  0.9933 -0.1945
  181MPD1    N1 2818   0.483   2.264  10.200 -0.0728  0.6070 -1.3260
  181MPD1    H6 2819   0.381   2.267  10.208  0.0839  0.9503  0.3973
  181MPD1    H7 2820   0.520   2.187  10.144 -0.7494  0.1222 -1.1136
  182MPD1     C 2821   2.114   1.534   2.190  0.3171 -0.6772  0.2415
  182MPD1    C1 2822   2.126   1.450   2.079 -0.2874 -0.1089  0.3168
  182MPD1    C2 2823   2.014   1.379   2.043  0.3225  0.4927  0.8565
  182MPD1    C3 2824   1.888   1.408   2.087 -0.9978 -0.4102  0.4561
  182MPD1    C4 2825   1.875   1.504   2.187  0.6318 -0.7556 -0.1911
  182MPD1    C5 2826   1.991   1.564   2.236 -0.4339  0.8011  0.1157
  182MPD1     H 2827   2.035   1.295   1.978  1.8797  1.5392  0.0287
  182MPD1    H1 2828   1.783   1.528   2.239  0.4072 -0.5826 -0.6692
  182MPD1    H2 2829   2.197   1.585   2.238  0.0945 -1.6055  1.6152
  182MPD1    H3 2830   1.978   1.639   2.313 -1.0996  0.7428  0.0583
  182MPD1     N 2831   1.769   1.358   2.032 -0.3014 -0.6871  0.2086
  182MPD1    H5 2832   1.685   1.402   2.069 -0.1623 -0.8038  0.6653
  182MPD1    N1 2833   2.252   1.411   2.033  0.7156  0.0755  0.1940
  182MPD1    H6 2834   2.251   1.366   1.942 -2.1931  0.3421  0.0913
  182MPD1    H7 2835   2.320   1.486   2.026 -1.1475  1.6599 -0.7633
  183MPD1     C 2836   1.422   1.466   9.338 -0.0198  0.2021  0.2758
  183MPD1    C1 2837   1.551   1.509   9.309 -0.5158  0.4160 -0.2912
  183MPD1    C2 2838   1.584   1.639   9.325  0.6862 -0.7572  0.0251
  183MPD1    C3 2839   1.492   1.725   9.391 -0.1166 -0.2643  0.6996
  183MPD1    C4 2840   1.369   1.675   9.434 -0.0866  0.3473  0.1539
  183MPD1    C5 2841   1.332   1.547   9.404  0.3712 -0.7166 -0.9236
  183MPD1     H 2842   1.678   1.684   9.293 -0.9040  4.2125  2.3917
  183MPD1    H1 2843   1.308   1.722   9.510 -0.4194  1.8934 -1.0874
  183MPD1    H2 2844   1.384   1.366   9.324 -0.5451 -0.0122  3.0924
  183MPD1    H3 2845   1.239   1.499   9.432 -0.0001  1.6701  1.9117
  183MPD1     N 2846   1.527   1.863   9.413 -0.2832  0.2366  0.5826
  183MPD1    H5 2847   1.618   1.890   9.379  0.8478 -1.3828  2.3274
  183MPD1    N1 2848   1.631   1.421   9.238  0.0654  0.5186 -0.2883
  183MPD1    H6 2849   1.732   1.434   9.236  0.1688 -0.1788  0.3806
  183MPD1    H7 2850   1.611   1.323   9.259 -0.7074  0.3253 -1.9008
  184MPD1     C 2851   1.017   4.104   9.840  0.6312  0.3542  0.4948
  184MPD1    C1 2852   1.033   4.045   9.711  0.2891  0.7977 -0.1686
  184MPD1    C2 2853   1.134   4.094   9.633 -0.4748 -0.2767 -0.7650
  184MPD1    C3 2854   1.218   4.200   9.670  0.0335 -0.7885  0.1859
  184MPD1    C4 2855   1.195   4.252   9.794 -0.4938 -0.4176  0.1234
  184MPD1    C5 2856   1.096   4.205   9.885 -0.6951  0.1269 -0.6173
  184MPD1     H 2857   1.147   4.051   9.535 -0.1605 -0.8339 -0.4840
  184MPD1    H1 2858   1.253   4.332   9.839 -1.3251  0.9668 -1.2617
  184MPD1    H2 2859   0.943   4.074   9.913  0.7520 -3.4310 -0.9195
  184MPD1    H3 2860   1.070   4.254   9.978 -1.0209  2.6344 -2.0094
  184MPD1     N 2861   1.318   4.259   9.595  0.5764 -0.0939  0.4075
  184MPD1    H5 2862   1.371   4.333   9.639  1.5080 -0.4717 -0.0743
  184MPD1    N1 2863   0.960   3.934   9.678 -0.2051 -0.8420  0.1523
  184MPD1    H6 2864   0.952   3.924   9.577  0.7153 -1.2065  0.1071
  184MPD1    H7 2865   0.875   3.927   9.732 -0.5977 -0.0796 -0.3811
  185MPD1     C 2866   2.085   4.025   9.090 -0.1638  1.3972  0.2371
  185MPD1    C1 2867   2.063   4.151   9.031 -0.3265  0.5329  0.5660
  185MPD1    C2 2868   1.932   4.204   9.036 -0.4867  0.8099 -0.1261
  185MPD1    C3 2869   1.830   4.133   9.096  0.1763  0.3273 -1.2906
  185MPD1    C4 2870   1.855   3.999   9.130 -0.2294  0.0971  0.4509
  185MPD1    C5 2871   1.985   3.950   9.127 -0.1495 -0.0307 -0.0588
  185MPD1     H 2872   1.923   4.301   8.989 -0.6955  0.0560 -1.6280
  185MPD1    H1 2873   1.786   3.935   9.183 -0.2497  0.0042  0.3134
  185MPD1    H2 2874   2.185   3.984   9.100 -0.2991  1.2092  0.7918
  185MPD1    H3 2875   2.014   3.857   9.174  0.8622  0.0737 -0.4603
  185MPD1     N 2876   1.710   4.183   9.126 -0.7275 -0.2215 -0.2231
  185MPD1    H5 2877   1.648   4.118   9.172 -2.8459  2.0385  0.1188
  185MPD1    N1 2878   2.171   4.223   8.971  0.0587 -0.0351 -0.4690
  185MPD1    H6 2879   2.252   4.173   8.934  0.7600  1.2352 -0.6308
  185MPD1    H7 2880   2.138   4.298   8.911  2.3855  0.9569 -0.5410
  186MPD1     C 2881   3.390   3.476  15.617  0.5522 -0.2081  0.1373
  186MPD1    C1 2882   3.523   3.457  15.637 -0.1720  0.4546 -0.4294
  186MPD1    C2 2883   3.584   3.524  15.743  1.0206  0.4334 -0.5827
  186MPD1    C3 2884   3.518   3.629  15.807 -0.7143 -0.2187 -0.6113
  186MPD1    C4 2885   3.386   3.647  15.776 -0.1453  0.2001 -0.1616
  186MPD1    C5 2886   3.320   3.576  15.683  0.0259  0.5274  0.1633
  186MPD1     H 2887   3.674   3.497  15.797  0.8791  1.5944  0.2306
  186MPD1    H1 2888   3.333   3.713  15.845  2.3234  0.0255  1.9047
  186MPD1    H2 2889   3.340   3.414  15.544 -2.9181  0.6472  1.7531
  186MPD1    H3 2890   3.212   3.584  15.678  0.0053 -0.2529 -0.5784
  186MPD1     N 2891   3.564   3.706  15.911  0.3900 -0.8317  0.2516
  186MPD1    H5 2892   3.511   3.778  15.959  0.9352 -0.3819  0.1752
  186MPD1    N1 2893   3.594   3.358  15.576  0.1798 -0.0305 -0.0027
  186MPD1    H6 2894   3.691   3.387  15.581 -0.2472  1.3517  0.4284
  186MPD1    H7 2895   3.567   3.336  15.480  3.1064  1.6274 -1.1972
  187MPD1     C 2896   3.798   0.806   0.013 -0.4364  0.4817  0.5487
  187MPD1    C1 2897   3.674   0.807   0.068  0.1801 -0.4461 -0.9147
  187MPD1    C2 2898   3.562   0.802  17.729  0.0357  0.8052 -0.2236
  187MPD1    C3 2899   3.581   0.789  17.588 -0.3289  0.5111 -0.0915
  187MPD1    C4 2900   3.704   0.778  17.542 -0.1610 -0.2690 -0.3612
  187MPD1    C5 2901   3.813   0.788  17.624 -0.2484 -1.2126 -0.2015
  187MPD1     H 2902   3.465   0.811   0.032  1.0139  1.3184  1.7357
  187MPD1    H1 2903   3.730   0.764  17.438  2.4490  0.4645  0.1972
  187MPD1    H2 2904   3.885   0.794   0.076  0.5022 -0.8274 -0.9883
  187MPD1    H3 2905   3.910   0.765  17.582  0.3722 -0.3333  0.7458
  187MPD1     N 2906   3.469   0.785  17.496 -0.1547 -0.2711 -0.5827
  187MPD1    H5 2907   3.498   0.774  17.399  2.0017 -0.3301  0.0556
  187MPD1    N1 2908   3.662   0.798   0.208 -0.4349  0.6083 -0.0717
  187MPD1    H6 2909   3.747   0.824   0.257 -0.8421  0.4604  0.7239
  187MPD1    H7 2910   3.588   0.859   0.242 -1.5913 -2.2207  2.5898
  188MPD1     C 2911   4.032   1.751  10.059 -0.7290 -0.2738 -0.0369
  188MPD1    C1 2912   3.904   1.774  10.102 -0.9684 -0.6293 -0.3433
  188MPD1    C2 2913   3.825   1.661  10.122  0.8980 -0.7865  0.1757
  188MPD1    C3 2914   3.887   1.534  10.109 -0.2291  0.6510  0.1808
  188MPD1    C4 2915   4.019   1.517  10.097 -0.6404 -0.1228  0.3245
  188MPD1    C5 2916   4.085   1.627  10.065  0.0118  0.3457  0.2029
  188MPD1     H 2917   3.717   1.668  10.126  0.9877  0.2625  0.7111
  188MPD1    H1 2918   4.064   1.420  10.077  1.4452  0.5738  1.7412
  188MPD1    H2 2919   4.100   1.833  10.036 -0.5633 -0.3511  0.1797
  188MPD1    H3 2920   4.181   1.629  10.015 -0.3285  1.4621 -0.4097
  188MPD1     N 2921   3.806   1.417  10.108  0.1956  0.6201  0.3872
  188MPD1    H5 2922   3.858   1.334  10.084  0.5245  1.1984 -0.9394
  188MPD1    N1 2923   3.837   1.900  10.106  0.2478 -0.2122 -0.1107
  188MPD1    H6 2924   3.893   1.972  10.149 -0.7798  1.0224 -0.8412
  188MPD1    H7 2925   3.742   1.902  10.143  0.5661 -1.1789  0.7642
  189MPD1     C 2926   4.218   2.841   1.481 -0.8154 -0.3326  0.5110
  189MPD1    C1 2927   4.314   2.752   1.445 -0.4550  0.3115 -0.0427
  189MPD1    C2 2928   4.383   2.777   1.317  0.2388  0.5052 -0.0646
  189MPD1    C3 2929   4.329   2.871   1.226  0.6943  0.2413  0.2812
  189MPD1    C4 2930   4.222   2.951   1.266  0.5905 -0.5261 -0.1354
  189MPD1    C5 2931   4.179   2.938   1.395  0.1080  0.0763  0.4195
  189MPD1     H 2932   4.469   2.719   1.286  1.2893  1.7071  0.5551
  189MPD1    H1 2933   4.171   3.014   1.194  1.4133 -1.1837 -1.3036
  189MPD1    H2 2934   4.153   2.825   1.566  0.0455 -0.5310  1.1288
  189MPD1    H3 2935   4.092   2.995   1.426 -0.2657  0.6516 -1.7027
  189MPD1     N 2936   4.363   2.863   1.085 -0.0221 -0.4952  0.1752
  189MPD1    H5 2937   4.442   2.801   1.069  1.0552  1.2114 -1.0757
  189MPD1    N1 2938   4.363   2.658   1.535 -0.1193 -0.2815  0.0310
  189MPD1    H6 2939   4.383   2.568   1.492 -3.6194 -0.1172 -1.9215
  189MPD1    H7 2940   4.304   2.638   1.615 -0.1582  0.8047  0.2770
  190MPD1     C 2941   3.660   0.691  15.414  0.2766 -0.4961 -0.0952
  190MPD1    C1 2942   3.782   0.638  15.378  0.0677 -0.1191  0.5137
  190MPD1    C2 2943   3.813   0.510  15.418 -0.3862  0.3404  0.9396
  190MPD1    C3 2944   3.709   0.431  15.474 -0.4570 -0.7783 -0.1671
  190MPD1    C4 2945   3.582   0.479  15.491 -0.4696  0.0513  0.3720
  190MPD1    C5 2946   3.559   0.608  15.457  1.2319  0.6731 -0.0461
  190MPD1     H 2947   3.908   0.460  15.399 -1.0389 -0.9293  0.9774
  190MPD1    H1 2948   3.498   0.423  15.530  1.3167 -2.7684  0.1359
  190MPD1    H2 2949   3.640   0.797  15.400  1.7652 -0.0806  0.9134
  190MPD1    H3 2950   3.459   0.649  15.457  1.3930  1.0589  1.8492
  190MPD1     N 2951   3.744   0.301  15.517  0.7026 -0.6881 -0.2600
  190MPD1    H5 2952   3.840   0.273  15.498  0.7507 -1.6932  1.5154
  190MPD1    N1 2953   3.882   0.728  15.339 -0.3270 -0.3290 -0.3634
  190MPD1    H6 2954   3.842   0.810  15.293  0.0580 -1.9501 -3.5510
  190MPD1    H7 2955   3.950   0.684  15.278  0.3555 -0.8180  0.7419
  191MPD1     C 2956   2.845   2.357  13.550  0.2094 -0.4324  0.2649
  191MPD1    C1 2957   2.916   2.359  13.433 -0.0981  0.0210 -0.1046
  191MPD1    C2 2958   2.876   2.438  13.326  1.0048 -0.4606 -0.3452
  191MPD1    C3 2959   2.764   2.518  13.341 -0.3680 -0.0472  0.3695
  191MPD1    C4 2960   2.695   2.525  13.457 -0.3213  0.5654  0.2448
  191MPD1    C5 2961   2.737   2.442  13.560 -0.4665 -0.6799 -0.0078
  191MPD1     H 2962   2.927   2.449  13.231 -2.0316 -3.2028 -2.2949
  191MPD1    H1 2963   2.608   2.587  13.475 -0.7089  0.3073 -0.7347
  191MPD1    H2 2964   2.855   2.290  13.634 -1.3235  0.6704  1.3153
  191MPD1    H3 2965   2.682   2.445  13.654  0.9777  0.5514  0.8079
  191MPD1     N 2966   2.709   2.571  13.218 -0.1465 -0.2305 -0.3339
  191MPD1    H5 2967   2.758   2.542  13.134 -0.7542 -0.4759 -0.6103
  191MPD1    N1 2968   3.025   2.275  13.412  0.6175  0.1597  0.6681
  191MPD1    H6 2969   3.089   2.299  13.336  0.7310 -0.8831  0.4421
  191MPD1    H7 2970   3.080   2.258  13.495 -0.3337 -2.6957  0.7077
  192MPD1     C 2971   1.787   2.950  13.011  0.0133 -0.8375 -0.2709
  192MPD1    C1 2972   1.859   2.970  12.893 -0.3153  0.2322 -0.5291
  192MPD1    C2 2973   1.992   2.927  12.888 -1.0956  0.3022  0.4616
  192MPD1    C3 2974   2.047   2.854  12.999 -0.4757  0.5581 -0.1297
  192MPD1    C4 2975   1.971   2.832  13.114  0.5933  0.0819  0.7905
  192MPD1    C5 2976   1.842   2.879  13.124 -0.3810  0.3834 -0.4474
  192MPD1     H 2977   2.042   2.953  12.796 -1.1203 -0.6323  0.1840
  192MPD1    H1 2978   2.005   2.768  13.195  2.2521  0.4646  0.3892
  192MPD1    H2 2979   1.684   2.981  13.024  0.7677  1.4801  0.0388
  192MPD1    H3 2980   1.791   2.872  13.219  2.3930 -1.0781  0.9291
  192MPD1     N 2981   2.177   2.800  12.995 -0.1109  0.0551  0.6618
  192MPD1    H5 2982   2.207   2.752  13.080  0.6104 -0.1769  0.2768
  192MPD1    N1 2983   1.794   3.007  12.776 -0.2868  0.4915  0.6608
  192MPD1    H6 2984   1.855   3.033  12.699  0.1738 -1.8713  0.2166
  192MPD1    H7 2985   1.718   3.071  12.799 -1.3828 -0.6851  0.3755
  193MPD1     C 2986   2.310   1.789  16.361 -0.5726 -0.7214  0.0520
  193MPD1    C1 2987   2.255   1.907  16.408 -0.3033  0.7786 -0.3906
  193MPD1    C2 2988   2.331   1.993  16.488 -0.6923  0.0304  0.2036
  193MPD1    C3 2989   2.459   1.954  16.523  0.4553 -0.0232 -0.1897
  193MPD1    C4 2990   2.511   1.837  16.476 -0.7387  0.4220  0.2888
  193MPD1    C5 2991   2.433   1.748  16.404  0.2856 -0.3734 -0.0575
  193MPD1     H 2992   2.296   2.093  16.513  1.0484  0.9135 -0.8021
  193MPD1    H1 2993   2.614   1.803  16.483 -0.4061  1.1784 -0.7982
  193MPD1    H2 2994   2.257   1.718  16.298  0.2922 -0.1937 -1.2704
  193MPD1    H3 2995   2.467   1.648  16.378  1.2839  0.3279 -1.4536
  193MPD1     N 2996   2.552   2.029  16.594  0.6858 -0.1512  0.2761
  193MPD1    H5 2997   2.643   1.987  16.607  0.7081 -0.0189  0.5488
  193MPD1    N1 2998   2.133   1.950  16.360 -0.5827  0.2994 -0.2771
  193MPD1    H6 2999   2.069   1.871  16.355 -1.0692  0.6610  0.2880
  193MPD1    H7 3000   2.089   2.007  16.432  1.7906  1.6211  0.1198
  194MPD1     C 3001   0.285   4.002  17.225 -0.5666 -0.0846  0.0382
  194MPD1    C1 3002   0.406   3.980  17.280  0.0207 -0.4788  0.5584
  194MPD1    C2 3003   0.441   3.853  17.318  0.0421  0.0448  0.5267
  194MPD1    C3 3004   0.350   3.748  17.299 -0.0908 -0.3157  0.5700
  194MPD1    C4 3005   0.223   3.772  17.240  0.0930 -0.1260  0.3078
  194MPD1    C5 3006   0.198   3.902  17.203  0.0347 -0.2734  0.2312
  194MPD1     H 3007   0.538   3.839  17.365  0.5410  0.2878 -0.4324
  194MPD1    H1 3008   0.156   3.691  17.214 -2.4594  1.4585  2.0058
  194MPD1    H2 3009   0.252   4.100  17.192 -0.5932 -0.5808 -1.4118
  194MPD1    H3 3010   0.103   3.926  17.157 -0.4436 -1.2109  0.7212
  194MPD1     N 3011   0.374   3.613  17.344 -0.5723 -0.1384  0.5263
  194MPD1    H5 3012   0.304   3.541  17.329 -0.0020 -0.2201 -1.6848
  194MPD1    N1 3013   0.489   4.084  17.318  0.5439 -0.4681  0.1377
  194MPD1    H6 3014   0.465   4.173  17.274 -1.0606 -0.9368  0.0551
  194MPD1    H7 3015   0.583   4.056  17.290  0.0723  0.6791 -2.6569
  195MPD1     C 3016   2.389   1.267   1.196 -0.0482  0.0200 -0.2439
  195MPD1    C1 3017   2.292   1.210   1.118  0.1539 -0.6557  0.2457
  195MPD1    C2 3018   2.317   1.106   1.033 -0.2703  0.2115 -0.1282
  195MPD1    C3 3019   2.441   1.041   1.034 -0.1663  0.3142 -0.6887
  195MPD1    C4 3020   2.537   1.090   1.124 -0.1498 -0.1582  0.1415
  195MPD1    C5 3021   2.514   1.209   1.191  0.2789 -0.5926  0.2624
  195MPD1     H 3022   2.237   1.075   0.966  0.2711 -1.8880  0.1850
  195MPD1    H1 3023   2.632   1.038   1.133 -1.2946 -2.2479  0.1547
  195MPD1    H2 3024   2.376   1.354   1.259 -1.9535 -0.8315  0.5459
  195MPD1    H3 3025   2.593   1.254   1.251  1.1248  0.7367 -1.8269
  195MPD1     N 3026   2.472   0.925   0.966  0.3172  0.5770 -0.0545
  195MPD1    H5 3027   2.563   0.881   0.972  0.0355  0.1745  1.2489
  195MPD1    N1 3028   2.171   1.280   1.094  0.4888  0.3696  0.5697
  195MPD1    H6 3029   2.143   1.332   1.177 -0.8862  0.1763  0.2399
  195MPD1    H7 3030   2.101   1.214   1.059 -0.0636 -0.5944  3.4395
  196MPD1     C 3031   1.533   0.514   0.228  0.2469 -0.0355  0.6798
  196MPD1    C1 3032   1.566   0.651   0.221  0.5295 -0.3986 -0.3595
  196MPD1    C2 3033   1.629   0.715   0.328 -0.4533  0.1754 -0.0465
  196MPD1    C3 3034   1.665   0.637   0.439 -0.0096  0.1111  0.2112
  196MPD1    C4 3035   1.639   0.505   0.444  0.4157 -0.7214 -0.2680
  196MPD1    C5 3036   1.573   0.442   0.341  0.0315  0.0306 -0.1250
  196MPD1     H 3037   1.652   0.820   0.312 -0.4262  0.2034  0.1779
  196MPD1    H1 3038   1.650   0.444   0.533  3.4046  3.0841  1.9530
  196MPD1    H2 3039   1.480   0.462   0.149  3.0088 -2.4772  0.4699
  196MPD1    H3 3040   1.540   0.340   0.357  3.9568 -0.8034  2.8549
  196MPD1     N 3041   1.735   0.687   0.552  0.1064  0.1086 -0.8110
  196MPD1    H5 3042   1.756   0.622   0.627  0.9074  0.9793 -0.2756
  196MPD1    N1 3043   1.524   0.728   0.109  0.4023  0.3150 -0.6513
  196MPD1    H6 3044   1.590   0.796   0.071 -0.6868  0.8361 -1.5901
  196MPD1    H7 3045   1.512   0.670   0.025 -2.0190 -0.5892  0.3242
  197MPD1     C 3046   0.593   3.323  16.821  0.3301  0.2738  0.5620
  197MPD1    C1 3047   0.649   3.378  16.932  0.5923 -0.1359 -0.2441
  197MPD1    C2 3048   0.779   3.345  16.960 -0.3008 -0.4648  0.6430
  197MPD1    C3 3049   0.857   3.260  16.871 -0.2219  0.0930 -0.3420
  197MPD1    C4 3050   0.794   3.217  16.753 -0.8582 -0.6023  0.1419
  197MPD1    C5 3051   0.666   3.257  16.724 -0.2414 -0.2634  0.0322
  197MPD1     H 3052   0.819   3.378  17.055  1.6663  2.5624 -1.2489
  197MPD1    H1 3053   0.841   3.151  16.682  3.5291  2.2204  0.4333
  197MPD1    H2 3054   0.487   3.328  16.801  0.3939 -1.5124 -0.2480
  197MPD1    H3 3055   0.618   3.205  16.641 -0.6604 -0.7073  0.5509
  197MPD1     N 3056   0.995   3.243  16.890  0.1304 -1.0405  0.2077
  197MPD1    H5 3057   1.036   3.176  16.826 -0.5772 -0.4521 -0.8520
  197MPD1    N1 3058   0.569   3.461  17.016  0.1482 -0.1101 -0.1301
  197MPD1    H6 3059   0.500   3.507  16.956 -1.0617 -0.9075  0.6631
  197MPD1    H7 3060   0.616   3.537  17.065  0.9787 -2.0998  2.1037
  198MPD1     C 3061   3.249   1.447  15.667  0.0613  0.0886 -0.6921
  198MPD1    C1 3062   3.342   1.539  15.720  0.2006 -0.1345 -0.2242
  198MPD1    C2 3063   3.445   1.495  15.800  0.2689 -0.3904 -0.3088
  198MPD1    C3 3064   3.467   1.361  15.820  0.6616  0.0377 -0.3065
  198MPD1    C4 3065   3.370   1.268  15.780  0.2505 -0.9042  0.6416
  198MPD1    C5 3066   3.270   1.318  15.702  0.3002 -0.1689  0.3816
  198MPD1     H 3067   3.508   1.571  15.846 -1.1246 -0.5967  1.9080
  198MPD1    H1 3068   3.376   1.163  15.806  2.8725 -1.1859 -1.1378
  198MPD1    H2 3069   3.158   1.472  15.613 -0.1825 -0.7889 -0.6927
  198MPD1    H3 3070   3.211   1.239  15.658  0.4324 -0.0466 -0.0197
  198MPD1     N 3071   3.571   1.330  15.906 -0.7129  0.0412  0.1178
  198MPD1    H5 3072   3.626   1.403  15.950 -0.6945  0.3311 -0.3861
  198MPD1    N1 3073   3.332   1.675  15.703  0.2670  0.3703  0.3805
  198MPD1    H6 3074   3.413   1.736  15.703 -1.0197  2.0865 -2.5258
  198MPD1    H7 3075   3.267   1.704  15.630 -0.0749 -0.3618  0.3892
  199MPD1     C 3076   0.685   1.891   9.582 -1.2765  0.0232  0.0568
  199MPD1    C1 3077   0.698   1.991   9.490  0.4282 -0.2325 -0.0474
  199MPD1    C2 3078   0.664   2.121   9.531  0.5443 -0.0786  0.2351
  199MPD1    C3 3079   0.588   2.139   9.647 -0.4477  0.2527 -0.7969
  199MPD1    C4 3080   0.576   2.033   9.738  0.1565 -0.5596  0.4327
  199MPD1    C5 3081   0.622   1.912   9.705  0.4889  0.1542 -0.5699
  199MPD1     H 3082   0.674   2.198   9.455 -1.2124 -0.2636 -0.1812
  199MPD1    H1 3083   0.518   2.045   9.829  1.7733 -0.5668  1.4603
  199MPD1    H2 3084   0.720   1.792   9.555  3.3450  1.6028  0.1577
  199MPD1    H3 3085   0.599   1.827   9.768  0.6761 -0.6217 -1.5391
  199MPD1     N 3086   0.541   2.267   9.688 -0.4274  0.0963  0.5186
  199MPD1    H5 3087   0.495   2.268   9.779  0.2511  4.0729  0.8254
  199MPD1    N1 3088   0.779   1.974   9.381  0.0136 -0.1528  0.0209
  199MPD1    H6 3089   0.771   1.880   9.343 -0.4870  0.4104 -1.2415
  199MPD1    H7 3090   0.755   2.042   9.310 -0.5660  1.5958  1.8826
  200MPD1     C 3091   4.316   2.155  14.649 -0.6674 -0.6667  0.2067
  200MPD1    C1 3092   4.426   2.154  14.571 -0.3813  0.1567  0.1057
  200MPD1    C2 3093   4.550   2.169  14.630  0.1078 -0.7533 -0.4132
  200MPD1    C3 3094   4.558   2.194  14.766 -0.7650 -0.2948 -0.4589
  200MPD1    C4 3095   4.444   2.190  14.846 -0.5879  0.0603  0.4516
  200MPD1    C5 3096   4.327   2.170  14.784 -0.5196  0.2636 -0.1811
  200MPD1     H 3097   4.636   2.165  14.565 -0.2313  2.2283 -1.0490
  200MPD1    H1 3098   4.443   2.218  14.951 -0.1862  0.7556  0.2639
  200MPD1    H2 3099   4.219   2.132  14.606 -0.8043  2.8477 -1.3418
  200MPD1    H3 3100   4.231   2.158  14.832 -0.2284 -0.4356  0.2229
  200MPD1     N 3101   4.686   2.211  14.821 -0.1830 -0.4154 -0.3311
  200MPD1    H5 3102   0.024   2.174  14.762 -1.9354 -2.0982 -1.5045
  200MPD1    N1 3103   4.412   2.107  14.439  0.3575 -0.0458  0.3330
  200MPD1    H6 3104   4.481   2.141  14.372 -0.1766  0.3052 -0.0436
  200MPD1    H7 3105   4.328   2.141  14.392 -0.1133 -2.1283 -0.3236
  201MPD1     C 3106   1.936   1.962  13.963 -0.0462 -0.3035 -0.8194
  201MPD1    C1 3107   2.066   1.917  13.992  0.5567  0.0968 -0.1501
  201MPD1    C2 3108   2.084   1.782  13.973  0.0446 -0.3028 -0.9440
  201MPD1    C3 3109   1.986   1.693  13.956  1.0804 -0.4003  0.2627
  201MPD1    C4 3110   1.859   1.739  13.965  0.1144  0.6921 -0.2277
  201MPD1    C5 3111   1.831   1.876  13.958  0.0242  0.4535 -0.6286
  201MPD1     H 3112   2.186   1.745  13.978  0.0539 -0.0642  0.7651
  201MPD1    H1 3113   1.768   1.679  13.964  0.5375  0.0708 -1.7659
  201MPD1    H2 3114   1.915   2.067  13.945 -1.4439 -1.1142 -3.7383
  201MPD1    H3 3115   1.733   1.919  13.943 -0.2829 -0.1687 -0.3979
  201MPD1     N 3116   2.018   1.555  13.942 -0.2008  0.2595  0.7082
  201MPD1    H5 3117   2.116   1.533  13.952 -0.2400  0.6239  1.8302
  201MPD1    N1 3118   2.174   2.007  14.004  0.1568 -0.3477 -0.1876
  201MPD1    H6 3119   2.152   2.102  14.034 -0.0131 -0.1460 -0.9743
  201MPD1    H7 3120   2.246   1.972  14.068  0.1876  0.0791  0.0155
  202MPD1     C 3121   2.319   0.940   8.988 -0.4406  0.0330  0.3921
  202MPD1    C1 3122   2.283   1.067   8.952 -0.0509 -0.6933 -0.2209
  202MPD1    C2 3123   2.246   1.137   9.071 -0.0263 -0.5943  0.4386
  202MPD1    C3 3124   2.297   1.100   9.195  0.2163 -0.0802 -0.2113
  202MPD1    C4 3125   2.358   0.982   9.209  0.8664 -0.1304 -0.1115
  202MPD1    C5 3126   2.375   0.898   9.106  0.1632 -0.2292 -0.3633
  202MPD1     H 3127   2.213   1.238   9.052  1.3316 -0.3595 -0.6883
  202MPD1    H1 3128   2.402   0.955   9.304 -0.5510 -0.7155  0.3873
  202MPD1    H2 3129   2.305   0.860   8.916 -0.4843 -0.5201  1.0175
  202MPD1    H3 3130   2.419   0.800   9.123 -2.8126 -1.5238 -0.0846
  202MPD1     N 3131   2.300   1.177   9.312  0.1054  0.5062 -0.0088
  202MPD1    H5 3132   2.352   1.137   9.390 -1.0242  0.8269  0.9003
  202MPD1    N1 3133   2.209   1.088   8.838 -0.2421 -0.0006 -0.5207
  202MPD1    H6 3134   2.257   1.053   8.755 -2.7703  1.0494 -2.4515
  202MPD1    H7 3135   2.183   1.186   8.824 -1.7817 -0.4590 -0.9137
  203MPD1     C 3136   0.390   2.115  13.086  0.1756 -0.0145 -0.2468
  203MPD1    C1 3137   0.339   2.034  12.981  0.3152 -0.3329 -0.4789
  203MPD1    C2 3138   0.416   1.935  12.918 -0.3316 -0.2790  0.3769
  203MPD1    C3 3139   0.545   1.925  12.947  0.6710  0.6925 -0.0911
  203MPD1    C4 3140   0.604   2.019  13.032  0.3749  0.2610 -0.0343
  203MPD1    C5 3141   0.525   2.112  13.099 -0.9731 -0.0098 -0.2742
  203MPD1     H 3142   0.363   1.864  12.857  0.2344  1.1975 -1.8408
  203MPD1    H1 3143   0.710   2.028  13.049  0.4638  0.0057 -0.4602
  203MPD1    H2 3144   0.325   2.168  13.154  1.8960  0.1846  1.2471
  203MPD1    H3 3145   0.583   2.173  13.167 -0.9724 -0.8682  0.5051
  203MPD1     N 3146   0.616   1.820  12.885 -0.2082  0.0896 -0.7212
  203MPD1    H5 3147   0.561   1.770  12.816 -2.3413 -0.5734  1.4458
  203MPD1    N1 3148   0.202   2.046  12.952  0.0517 -0.1094  0.1234
  203MPD1    H6 3149   0.188   2.017  12.856 -0.7349 -0.2221  0.2782
  203MPD1    H7 3150   0.167   2.141  12.964  0.2364 -0.5144  3.7574
  204MPD1     C 3151   4.630   2.867  17.566 -0.2180  0.1349  0.1032
  204MPD1    C1 3152   4.695   2.842  17.441 -0.4877  0.0701 -0.6545
  204MPD1    C2 3153   0.087   2.782  17.453 -0.0557 -0.3368  0.0208
  204MPD1    C3 3154   0.137   2.737  17.569 -0.0777  0.1176 -0.1125
  204MPD1    C4 3155   0.060   2.742  17.688 -0.3850  0.6321 -0.6773
  204MPD1    C5 3156   4.675   2.807  17.687 -0.6639 -0.2157  0.2762
  204MPD1     H 3157   0.153   2.765  17.369 -2.0684 -0.3205 -1.5704
  204MPD1    H1 3158   0.088   2.694   0.038  2.6224 -0.4642 -2.1400
  204MPD1    H2 3159   4.536   2.922  17.564  0.5511  1.4832  0.8063
  204MPD1    H3 3160   4.611   2.798   0.031 -0.2612  0.0371  0.6029
  204MPD1     N 3161   0.269   2.674  17.571 -0.2833 -0.6995 -0.2278
  204MPD1    H5 3162   0.307   2.665  17.477  1.2205  1.7569  0.1659
  204MPD1    N1 3163   4.648   2.907  17.322 -0.0028 -0.0262 -0.7304
  204MPD1    H6 3164   4.547   2.922  17.323  0.0882  0.5079  0.6798
  204MPD1    H7 3165   4.688   2.877  17.233  3.4513 -1.2706  1.2349
  205MPD1     C 3166   0.913   1.264  17.340  0.1747  0.4878  0.1163
  205MPD1    C1 3167   0.810   1.190  17.394 -0.5263 -0.0692 -0.0268
  205MPD1    C2 3168   0.771   1.231  17.521 -0.0112  0.0892 -0.1133
  205MPD1    C3 3169   0.818   1.349  17.577 -0.0961 -0.0176 -0.2760
  205MPD1    C4 3170   0.904   1.427  17.509 -0.4355 -0.2996  0.2438
  205MPD1    C5 3171   0.958   1.383  17.390 -0.0855  0.2760 -0.0798
  205MPD1     H 3172   0.693   1.182  17.578 -0.5593  1.1999  0.0892
  205MPD1    H1 3173   0.937   1.524  17.544  1.2516 -1.4110  1.7183
  205MPD1    H2 3174   0.948   1.240  17.240  0.7570  0.8378  0.2395
  205MPD1    H3 3175   1.021   1.453  17.336 -1.3547  1.1525 -0.4095
  205MPD1     N 3176   0.762   1.407  17.696  0.2743  0.1950  0.2117
  205MPD1    H5 3177   0.803   1.498  17.715 -1.0136  1.0669 -1.1547
  205MPD1    N1 3178   0.769   1.071  17.334  0.4827 -0.8143  0.1179
  205MPD1    H6 3179   0.774   1.070  17.233  1.2051 -1.6035  0.1577
  205MPD1    H7 3180   0.674   1.046  17.359  0.0662  1.1515  0.4719
  206MPD1     C 3181   0.781   4.407  17.250  0.4108 -1.2958  0.0052
  206MPD1    C1 3182   0.801   4.320  17.147  0.8623 -0.2176 -0.4385
  206MPD1    C2 3183   0.692   4.286  17.068 -0.0543 -0.3055  0.2413
  206MPD1    C3 3184   0.568   4.343  17.087 -1.4660 -0.5156 -0.3293
  206MPD1    C4 3185   0.561   4.436  17.185  0.0162  0.0670  0.0039
  206MPD1    C5 3186   0.664   4.468  17.265  0.3014 -0.2486  0.6337
  206MPD1     H 3187   0.695   4.214  16.987 -2.1148  0.8358 -0.8484
  206MPD1    H1 3188   0.469   4.486  17.211 -0.0376 -0.4018  0.7040
  206MPD1    H2 3189   0.854   4.433  17.326  1.5307 -2.4002 -0.6873
  206MPD1    H3 3190   0.653   4.548  17.337  1.3932  1.6386 -1.2982
  206MPD1     N 3191   0.458   4.330  17.005 -0.8614  0.3977  0.6983
  206MPD1    H5 3192   0.377   4.386  17.030  0.0927  1.8981  0.4326
  206MPD1    N1 3193   0.916   4.248  17.127  0.0040  0.5034  0.7542
  206MPD1    H6 3194   0.929   4.241  17.026 -1.5757  2.5998  0.3950
  206MPD1    H7 3195   0.992   4.305  17.162  1.8552 -0.3598 -1.8806
  207MPD1     C 3196   2.766   3.057  10.069 -0.5990  0.2365 -0.0983
  207MPD1    C1 3197   2.854   3.135  10.136 -0.7734 -0.0534 -0.1950
  207MPD1    C2 3198   2.978   3.096  10.174 -0.9637 -0.1832  0.3779
  207MPD1    C3 3199   3.014   2.967  10.166  0.9216 -0.7675 -0.2973
  207MPD1    C4 3200   2.921   2.878  10.101  1.1290  0.5996 -0.0380
  207MPD1    C5 3201   2.801   2.924  10.055 -0.2448 -0.1508  0.4632
  207MPD1     H 3202   3.036   3.169  10.228 -1.7557  1.5048 -1.0613
  207MPD1    H1 3203   2.950   2.775  10.084  1.5709  0.7665 -0.3077
  207MPD1    H2 3204   2.673   3.096  10.031 -1.4563 -0.3369  1.4359
  207MPD1    H3 3205   2.729   2.860  10.005 -0.9723 -1.6839  3.4915
  207MPD1     N 3206   3.127   2.911  10.226 -0.5707 -0.2165 -0.6002
  207MPD1    H5 3207   3.132   2.810  10.238 -1.1989  0.0127  1.7494
  207MPD1    N1 3208   2.811   3.270  10.151 -0.1816 -0.1457 -0.2634
  207MPD1    H6 3209   2.710   3.282  10.151 -0.1081  0.4332 -3.6497
  207MPD1    H7 3210   2.839   3.305  10.243  3.0822  2.1037 -2.1105
  208MPD1     C 3211   1.156   0.333   0.341 -0.1412  0.0208 -0.1862
  208MPD1    C1 3212   1.065   0.443   0.341  0.4510 -0.1268 -0.5783
  208MPD1    C2 3213   1.045   0.501   0.468 -1.0368  0.5844 -0.2585
  208MPD1    C3 3214   1.117   0.463   0.578 -0.3972  0.3571  0.5558
  208MPD1    C4 3215   1.208   0.361   0.570  0.6127 -0.0691 -0.3915
  208MPD1    C5 3216   1.232   0.296   0.447 -0.2115 -0.4920 -0.1254
  208MPD1     H 3217   0.960   0.566   0.483 -1.7851 -0.3073 -0.6631
  208MPD1    H1 3218   1.256   0.315   0.656  1.4221 -0.7757 -1.2168
  208MPD1    H2 3219   1.168   0.271   0.253  1.7483 -0.7598  0.6340
  208MPD1    H3 3220   1.302   0.213   0.452 -0.4807 -0.7732 -1.0320
  208MPD1     N 3221   1.095   0.544   0.689  0.8212 -0.5085  0.0884
  208MPD1    H5 3222   1.018   0.610   0.682  1.3566 -0.0668 -1.6170
  208MPD1    N1 3223   0.974   0.461   0.239 -0.3445 -0.1889  0.4143
  208MPD1    H6 3224   1.005   0.443   0.143  1.3190  1.1343  0.6935
  208MPD1    H7 3225   0.936   0.555   0.235  0.3797  0.1237  0.9010
  209MPD1     C 3226   3.185   1.289  10.421 -0.4672 -0.3924 -0.2180
  209MPD1    C1 3227   3.216   1.414  10.365 -0.7366 -0.0099  0.7811
  209MPD1    C2 3228   3.263   1.501  10.459 -1.1239 -0.4383 -0.1192
  209MPD1    C3 3229   3.296   1.483  10.589  0.1972 -0.4083  0.3262
  209MPD1    C4 3230   3.272   1.359  10.634  0.3762 -0.3441 -0.5459
  209MPD1    C5 3231   3.217   1.259  10.554  0.2188  0.0064 -0.0023
  209MPD1     H 3232   3.262   1.602  10.420 -1.7578  0.0887  1.2946
  209MPD1    H1 3233   3.300   1.345  10.738 -0.1955 -0.9060 -0.4648
  209MPD1    H2 3234   3.143   1.215  10.355  0.8328 -1.5999  0.3045
  209MPD1    H3 3235   3.221   1.156  10.588  0.8429  0.1552  0.3754
  209MPD1     N 3236   3.354   1.594  10.654  0.0843  0.0806  0.3009
  209MPD1    H5 3237   3.358   1.678  10.597 -1.2096 -0.5848 -0.7479
  209MPD1    N1 3238   3.191   1.447  10.231 -0.3835  0.0242  0.0802
  209MPD1    H6 3239   3.185   1.360  10.179  0.2049  0.4380 -0.6821
  209MPD1    H7 3240   3.260   1.513  10.195 -1.6421 -0.2226 -2.7551
  210MPD1     C 3241   3.901   2.129  11.446 -0.4394 -0.7225  0.4749
  210MPD1    C1 3242   3.794   2.043  11.455 -0.1814 -0.0972  0.0004
  210MPD1    C2 3243   3.727   1.991  11.340  0.1432 -0.4153  0.5225
  210MPD1    C3 3244   3.780   2.018  11.214 -0.0527 -0.0509  0.0123
  210MPD1    C4 3245   3.883   2.105  11.208  0.3304  0.0158  0.6354
  210MPD1    C5 3246   3.940   2.156  11.313  0.4688 -0.7608 -0.2707
  210MPD1     H 3247   3.638   1.929  11.347 -1.1267  1.3440 -0.0224
  210MPD1    H1 3248   3.927   2.143  11.116 -1.1510  0.3881  0.0798
  210MPD1    H2 3249   3.947   2.173  11.534 -0.4237 -0.0481  0.1331
  210MPD1    H3 3250   4.017   2.230  11.294 -0.0133 -0.6079 -1.6378
  210MPD1     N 3251   3.725   1.973  11.093 -0.3606 -0.5968  0.3236
  210MPD1    H5 3252   3.757   2.006  11.002 -0.8362 -0.5372  0.1773
  210MPD1    N1 3253   3.754   1.997  11.579 -0.4120 -0.1928  0.3112
  210MPD1    H6 3254   3.795   2.052  11.654  0.8908 -2.4404  1.2319
  210MPD1    H7 3255   3.654   1.981  11.592 -0.4461  1.3371  1.9405
  211MPD1     C 3256   1.105   0.846  16.693  0.2827  0.4352  0.8754
  211MPD1    C1 3257   1.180   0.960  16.708  0.4118  0.4234 -0.4852
  211MPD1    C2 3258   1.128   1.081  16.659  0.3550  0.1179  0.1561
  211MPD1    C3 3259   0.998   1.084  16.613  0.6048 -0.7209 -0.4054
  211MPD1    C4 3260   0.921   0.971  16.614  0.1133  0.1563 -0.6570
  211MPD1    C5 3261   0.973   0.849  16.645  0.0171  0.1276 -0.5506
  211MPD1     H 3262   1.187   1.171  16.657 -0.2413  0.4693 -1.2374
  211MPD1    H1 3263   0.818   0.968  16.580 -0.0631 -0.3053 -0.0806
  211MPD1    H2 3264   1.130   0.748  16.732 -3.0480  0.3676  2.8127
  211MPD1    H3 3265   0.917   0.756  16.640 -2.3755  1.5147  0.5228
  211MPD1     N 3266   0.955   1.208  16.567  0.2564  0.4175 -0.0420
  211MPD1    H5 3267   1.020   1.286  16.566  2.4498 -1.4140  0.4665
  211MPD1    N1 3268   1.310   0.960  16.758  1.0449  0.5620  0.6873
  211MPD1    H6 3269   1.337   1.054  16.789  1.6053  0.0084  1.8761
  211MPD1    H7 3270   1.319   0.894  16.835  0.8858 -0.9552 -0.5952
  212MPD1     C 3271   4.589   4.371  16.597 -0.1494 -0.2366  0.0808
  212MPD1    C1 3272   4.522   4.416  16.711  0.3388  0.4344  0.0924
  212MPD1    C2 3273   4.439   4.332  16.778 -0.6070 -0.0586  0.0043
  212MPD1    C3 3274   4.406   4.209  16.723  0.4975  1.0396  0.4657
  212MPD1    C4 3275   4.471   4.168  16.612 -0.5556  0.0739 -0.6400
  212MPD1    C5 3276   4.562   4.250  16.551 -1.1051 -0.3702 -0.2240
  212MPD1     H 3277   4.394   4.362  16.873 -0.9920  0.4784 -0.3451
  212MPD1    H1 3278   4.455   4.066  16.582 -1.8342 -0.1459  0.7908
  212MPD1    H2 3279   4.668   4.417  16.538 -1.6781  2.5554  0.2239
  212MPD1    H3 3280   4.619   4.209  16.468  0.4783 -0.1231  0.7308
  212MPD1     N 3281   4.306   4.123  16.780 -0.4465 -0.7236  0.0314
  212MPD1    H5 3282   4.278   4.037  16.733 -1.0770 -0.6002  0.1749
  212MPD1    N1 3283   4.567   4.532  16.774 -0.0971  0.1698 -0.0571
  212MPD1    H6 3284   4.484   4.568  16.821  0.2803  1.5360 -0.4211
  212MPD1    H7 3285   4.616   4.600  16.715 -2.9119  1.7073 -0.6558
  213MPD1     C 3286   2.803   0.223  16.028 -0.1694  0.3646  0.0369
  213MPD1    C1 3287   2.786   0.108  15.958 -0.2085 -0.2380  0.0891
  213MPD1    C2 3288   2.729   0.124  15.834  0.0224 -1.0752  0.0740
  213MPD1    C3 3289   2.727   0.249  15.771  0.3856 -0.7110  0.5263
  213MPD1    C4 3290   2.782   0.360  15.832  0.5188  0.0513 -0.3577
  213MPD1    C5 3291   2.813   0.344  15.968 -0.4531  0.4207 -0.0742
  213MPD1     H 3292   2.701   0.034  15.779  0.1487 -0.1667 -1.4799
  213MPD1    H1 3293   2.785   0.456  15.782 -0.0029  0.3623  0.2191
  213MPD1    H2 3294   2.843   0.220  16.129 -0.9361 -2.0608  0.2607
  213MPD1    H3 3295   2.862   0.419  16.029  0.1526 -0.7151  0.8416
  213MPD1     N 3296   2.689   0.255  15.634 -0.1343 -0.4850 -0.3176
  213MPD1    H5 3297   2.636   0.176  15.598  0.3268 -1.4575  1.1041
  213MPD1    N1 3298   2.775   4.729  16.033  0.4206 -0.3110  0.3396
  213MPD1    H6 3299   2.846   4.735  16.106  1.2644  2.0280 -0.6450
  213MPD1    H7 3300   2.802   4.642  15.989  2.7826 -0.8687  2.8627
  214MPD1     C 3301   2.586   4.321  14.915  0.1157  0.1752  0.0036
  214MPD1    C1 3302   2.656   4.331  15.033 -0.1891 -0.1725 -0.6320
  214MPD1    C2 3303   2.673   4.460  15.085 -0.3185 -0.5802 -0.2043
  214MPD1    C3 3304   2.621   4.574  15.027  0.3879  0.3511 -0.4847
  214MPD1    C4 3305   2.563   4.555  14.906 -0.3165 -0.2424  0.1947
  214MPD1    C5 3306   2.543   4.433  14.848  0.1182  0.3798 -1.0242
  214MPD1     H 3307   2.723   4.458  15.181 -1.8615 -0.9148  0.5969
  214MPD1    H1 3308   2.519   4.636  14.850  0.7118  0.1648 -0.0280
  214MPD1    H2 3309   2.562   4.225  14.870 -0.6409  0.4083 -0.0930
  214MPD1    H3 3310   2.488   4.423  14.754  1.9494  1.1880 -2.1687
  214MPD1     N 3311   2.637   4.705  15.074 -0.0915  0.3613  0.2346
  214MPD1    H5 3312   2.586   0.037  15.019  0.8087  0.2459 -0.7262
  214MPD1    N1 3313   2.724   4.212  15.080 -0.0836 -0.1560  0.3544
  214MPD1    H6 3314   2.664   4.131  15.066 -0.6293  0.3630 -0.3039
  214MPD1    H7 3315   2.732   4.222  15.181 -1.5892  1.2909  0.3365
  215MPD1     C 3316   2.461   1.946  10.227 -0.3665  0.3240 -0.2206
  215MPD1    C1 3317   2.484   2.086  10.242  0.6546  0.5277 -0.3406
  215MPD1    C2 3318   2.592   2.130  10.315  0.8536  0.2258  0.0288
  215MPD1    C3 3319   2.673   2.039  10.369  0.3586 -0.2493  0.7491
  215MPD1    C4 3320   2.658   1.899  10.358 -0.0751  0.0863  0.7808
  215MPD1    C5 3321   2.549   1.856  10.292  0.3702 -0.2003  0.3436
  215MPD1     H 3322   2.613   2.237  10.324 -1.0790  0.5293  0.8743
  215MPD1    H1 3323   2.725   1.827  10.403  0.7122  0.6777  0.5539
  215MPD1    H2 3324   2.379   1.907  10.169 -0.8748  0.4088  0.4383
  215MPD1    H3 3325   2.539   1.749  10.286 -0.8991  0.1149 -2.9188
  215MPD1     N 3326   2.776   2.103  10.461  0.1442  0.1461  0.9051
  215MPD1    H5 3327   2.773   2.203  10.474 -0.7885  0.2730 -0.2692
  215MPD1    N1 3328   2.422   2.172  10.150  0.1986  0.4066 -0.0812
  215MPD1    H6 3329   2.331   2.134  10.126  2.0692 -2.4150 -2.6522
  215MPD1    H7 3330   2.410   2.268  10.182 -1.1908 -0.0455  0.7517
  216MPD1     C 3331   4.437   4.397  17.717  0.1641  0.6996  0.5912
  216MPD1    C1 3332   4.437   4.296   0.065  0.0788 -0.1237  0.5783
  216MPD1    C2 3333   4.483   4.173   0.039  0.2719 -0.4369 -0.6146
  216MPD1    C3 3334   4.547   4.146  17.664 -0.8347 -0.3924  0.5078
  216MPD1    C4 3335   4.552   4.247  17.565  0.1102  0.0848 -0.6304
  216MPD1    C5 3336   4.503   4.366  17.601  0.0089  0.1355 -0.3408
  216MPD1     H 3337   4.459   4.093   0.107  0.6269 -0.5215 -0.5874
  216MPD1    H1 3338   4.604   4.235  17.471  1.7569 -1.5105  0.4672
  216MPD1    H2 3339   4.391   4.494  17.737  1.8022  2.0742 -2.3770
  216MPD1    H3 3340   4.515   4.444  17.527  0.2299  0.7644  0.3695
  216MPD1     N 3341   4.595   4.011  17.642 -0.2404  0.3403 -0.4922
  216MPD1    H5 3342   4.576   3.935  17.706 -2.3606  0.0113 -1.5059
  216MPD1    N1 3343   4.373   4.333   0.183  0.5427  0.3021  0.2635
  216MPD1    H6 3344   4.387   4.431   0.207 -1.3634  0.5514  0.3182
  216MPD1    H7 3345   4.412   4.276   0.259  1.1699 -0.7139 -0.8232
  217MPD1     C 3346   1.521   2.130   9.128 -0.2602 -0.3187  0.3180
  217MPD1    C1 3347   1.618   2.051   9.073  0.6465  0.2368  0.4923
  217MPD1    C2 3348   1.591   1.921   9.040  0.0386  0.1644 -0.0641
  217MPD1    C3 3349   1.461   1.876   9.053 -0.6825  0.2529  0.7424
  217MPD1    C4 3350   1.361   1.958   9.103 -0.0840  0.5959  0.1343
  217MPD1    C5 3351   1.395   2.082   9.144 -0.4474  0.5165  0.2222
  217MPD1     H 3352   1.674   1.855   9.021 -1.3582 -1.8228  0.7751
  217MPD1    H1 3353   1.259   1.923   9.113 -0.0180 -0.2664 -2.2952
  217MPD1    H2 3354   1.548   2.234   9.143 -0.7308 -0.5386  2.7258
  217MPD1    H3 3355   1.319   2.158   9.160 -0.3800  0.6199  0.0478
  217MPD1     N 3356   1.430   1.743   9.024 -0.1123 -0.0152 -0.2598
  217MPD1    H5 3357   1.331   1.720   9.030  0.4343 -2.1436  0.3687
  217MPD1    N1 3358   1.754   2.094   9.073  0.1514 -0.0040 -0.4331
  217MPD1    H6 3359   1.806   2.051   8.997  0.5310 -0.4475  0.0796
  217MPD1    H7 3360   1.775   2.193   9.063 -1.8133  0.5795  1.2048
  218MPD1     C 3361   2.008   2.053  13.645  0.3757  0.0405  0.7606
  218MPD1    C1 3362   2.061   2.137  13.547 -0.2527  0.3397  0.2159
  218MPD1    C2 3363   2.169   2.098  13.471 -0.6366  0.0351 -0.4801
  218MPD1    C3 3364   2.220   1.972  13.474  0.1267 -0.5951 -0.1569
  218MPD1    C4 3365   2.162   1.883  13.562  0.0458  0.6500  0.8632
  218MPD1    C5 3366   2.057   1.920  13.648 -0.8168 -0.6413  0.2012
  218MPD1     H 3367   2.208   2.178  13.409 -3.6200  1.8400 -0.0427
  218MPD1    H1 3368   2.186   1.778  13.560  1.5665  0.9800  1.3174
  218MPD1    H2 3369   1.929   2.085  13.712  0.0989  3.2215 -1.1263
  218MPD1    H3 3370   2.010   1.847  13.712  2.1906 -0.5999  2.4240
  218MPD1     N 3371   2.336   1.945  13.393  0.8749 -0.4203  0.1256
  218MPD1    H5 3372   2.384   2.016  13.338  1.8621  1.2552  3.1528
  218MPD1    N1 3373   2.015   2.270  13.561  0.4449 -0.1466  0.6233
  218MPD1    H6 3374   1.928   2.273  13.614  1.2537 -1.4074  2.0398
  218MPD1    H7 3375   2.024   2.326  13.477  1.6358  0.1225  0.9349
  219MPD1     C 3376   2.564   2.028  12.427 -0.2439 -0.6699  0.5404
  219MPD1    C1 3377   2.461   1.986  12.504 -0.1996  0.0868  0.5411
  219MPD1    C2 3378   2.483   1.967  12.639 -0.7229 -0.0417 -0.7441
  219MPD1    C3 3379   2.603   1.986  12.700  0.0147  0.7173  0.1732
  219MPD1    C4 3380   2.708   2.036  12.617  0.3973  0.3018  0.4418
  219MPD1    C5 3381   2.688   2.047  12.485 -0.1626  0.6031  0.5030
  219MPD1     H 3382   2.401   1.919  12.691 -1.4735  0.2192 -1.6896
  219MPD1    H1 3383   2.807   2.054  12.656  0.3301  0.7671  0.3940
  219MPD1    H2 3384   2.553   2.036  12.319 -2.4512  1.5234  0.9305
  219MPD1    H3 3385   2.770   2.073  12.419 -1.8061  3.4858 -0.4133
  219MPD1     N 3386   2.622   1.973  12.839  0.3703  0.4640 -0.4431
  219MPD1    H5 3387   2.718   1.974  12.870  0.3937  0.0984 -0.4980
  219MPD1    N1 3388   2.338   1.954  12.438 -0.2057 -0.4021 -0.5944
  219MPD1    H6 3389   2.257   1.976  12.495 -1.5733 -1.2751 -2.1693
  219MPD1    H7 3390   2.318   1.997  12.348 -1.4242  0.7528  0.2365
  220MPD1     C 3391   1.848   3.586  10.347  0.0730 -0.6405  0.2428
  220MPD1    C1 3392   1.794   3.462  10.309 -0.2128 -0.4548  0.4836
  220MPD1    C2 3393   1.880   3.353  10.310  1.1860 -0.1880  0.5715
  220MPD1    C3 3394   2.013   3.367  10.343  0.0098  1.1184 -0.2941
  220MPD1    C4 3395   2.063   3.491  10.374 -0.0199 -0.1352  0.0721
  220MPD1    C5 3396   1.977   3.595  10.388  0.4098 -0.1802  0.5856
  220MPD1     H 3397   1.846   3.253  10.288 -2.0220  1.2370 -0.8544
  220MPD1    H1 3398   2.168   3.511  10.393 -0.4439  1.3977  0.8206
  220MPD1    H2 3399   1.787   3.675  10.357 -0.1984 -0.7278 -0.6858
  220MPD1    H3 3400   2.010   3.691  10.426  0.0178  1.0142 -2.0953
  220MPD1     N 3401   2.092   3.254  10.327 -0.2070 -0.8710  0.1828
  220MPD1    H5 3402   2.049   3.169  10.292  1.4059 -2.3547  1.8292
  220MPD1    N1 3403   1.655   3.452  10.314  0.2388  0.3487  0.2579
  220MPD1    H6 3404   1.618   3.374  10.259 -0.7140  2.4421 -2.0470
  220MPD1    H7 3405   1.604   3.535  10.284 -1.2360  0.0509  1.9673
  221MPD1     C 3406   0.387   0.659  16.206 -0.7933  0.0065  0.3793
  221MPD1    C1 3407   0.353   0.525  16.182 -0.1510  0.3688  0.4484
  221MPD1    C2 3408   0.409   0.426  16.264  0.3575 -1.1439 -0.1026
  221MPD1    C3 3409   0.497   0.463  16.368 -0.0556 -0.3566 -0.1299
  221MPD1    C4 3410   0.518   0.599  16.395  0.1299 -0.0613  0.2702
  221MPD1    C5 3411   0.459   0.697  16.318 -0.2091  0.4697  0.5042
  221MPD1     H 3412   0.376   0.323  16.267  2.6269 -1.8716 -0.4805
  221MPD1    H1 3413   0.582   0.626  16.479  0.1370 -0.9287  0.5453
  221MPD1    H2 3414   0.366   0.740  16.137  1.2796  0.2666  0.0435
  221MPD1    H3 3415   0.477   0.803  16.333 -0.3075  0.6959 -0.9062
  221MPD1     N 3416   0.558   0.367  16.461 -0.0248  0.0719  0.2055
  221MPD1    H5 3417   0.605   0.414  16.538 -0.8556 -0.4296  1.0093
  221MPD1    N1 3418   0.277   0.505  16.066  0.1631 -0.2041 -0.4129
  221MPD1    H6 3419   0.227   0.589  16.038 -0.0339  0.1500  1.0221
  221MPD1    H7 3420   0.222   0.420  16.068  1.3838 -0.9887  0.4165
  222MPD1     C 3421   4.505   3.905  17.106 -0.1179  1.0600  0.0388
  222MPD1    C1 3422   4.495   4.042  17.092  0.6719  0.3643  0.1363
  222MPD1    C2 3423   4.433   4.114  17.191  0.2069 -0.4640 -0.0519
  222MPD1    C3 3424   4.359   4.041  17.288 -0.1689 -0.4002  0.1336
  222MPD1    C4 3425   4.355   3.908  17.285  0.4465 -0.0001  0.0044
  222MPD1    C5 3426   4.435   3.837  17.198 -0.3546 -0.0672  0.2395
  222MPD1     H 3427   4.430   4.222  17.191 -2.5107 -0.5563 -4.9253
  222MPD1    H1 3428   4.295   3.853  17.357 -1.2986 -1.0609 -2.2680
  222MPD1    H2 3429   4.575   3.848  17.046 -0.2723 -0.2486  1.0939
  222MPD1    H3 3430   4.439   3.729  17.194  0.2184 -0.0742  1.0472
  222MPD1     N 3431   4.275   4.102  17.385  0.0768  0.2474 -0.6471
  222MPD1    H5 3432   4.234   4.041  17.455  3.2265 -2.4043 -1.1710
  222MPD1    N1 3433   4.579   4.117  17.005 -0.4377 -0.1273  0.5595
  222MPD1    H6 3434   4.536   4.198  16.962  0.7215  0.4770  0.5383
  222MPD1    H7 3435   4.595   4.051  16.929 -1.6232 -0.5665  0.6845
  223MPD1     C 3436   3.975   4.064   0.602 -0.5171  0.3045  0.2580
  223MPD1    C1 3437   4.044   4.182   0.587 -0.3872 -0.1046  0.6407
  223MPD1    C2 3438   4.085   4.222   0.462  0.3690 -0.0919 -0.7698
  223MPD1    C3 3439   4.056   4.147   0.349 -0.5536 -0.1498  0.5379
  223MPD1    C4 3440   3.979   4.032   0.363  0.0511  0.1780 -1.2791
  223MPD1    C5 3441   3.940   3.994   0.492 -0.4865  0.1135  0.0505
  223MPD1     H 3442   4.146   4.312   0.457 -1.1583  0.9423 -1.0920
  223MPD1    H1 3443   3.959   3.963   0.282  1.1798 -1.8035  0.1218
  223MPD1    H2 3444   3.950   4.032   0.702  3.0134 -1.8463  0.4622
  223MPD1    H3 3445   3.888   3.899   0.495  0.5064 -0.4039  0.9170
  223MPD1     N 3446   4.099   4.186   0.220 -0.4073 -0.1495  0.3638
  223MPD1    H5 3447   4.157   4.269   0.218  1.5524 -1.4499  2.5144
  223MPD1    N1 3448   4.091   4.240   0.706  0.3695  0.0717 -0.1473
  223MPD1    H6 3449   4.033   4.230   0.789  1.3029 -0.5843  0.4231
  223MPD1    H7 3450   4.095   4.341   0.697  2.2241  0.0292  0.2420
  224MPD1     C 3451   0.985   1.306  10.260 -0.5630  0.1816 -0.0578
  224MPD1    C1 3452   1.068   1.214  10.199 -0.3711  0.4741  0.1616
  224MPD1    C2 3453   1.148   1.257  10.095 -0.5043  0.0178  0.4408
  224MPD1    C3 3454   1.168   1.392  10.069 -0.2474  0.8258 -0.0352
  224MPD1    C4 3455   1.085   1.486  10.134  0.4463 -0.3150 -0.2278
  224MPD1    C5 3456   1.001   1.439  10.224 -0.5803  0.0620  0.3814
  224MPD1     H 3457   1.210   1.181  10.049 -0.5881 -0.3810  0.9814
  224MPD1    H1 3458   1.075   1.591  10.109  1.2122  0.1551  1.4518
  224MPD1    H2 3459   0.908   1.280  10.330  0.2456  1.2065  1.2248
  224MPD1    H3 3460   0.921   1.504  10.256 -0.5168 -0.1865  1.0390
  224MPD1     N 3461   1.262   1.447   9.976  0.3388 -0.1242 -0.4757
  224MPD1    H5 3462   1.260   1.548   9.960  2.0838  0.0263  0.2897
  224MPD1    N1 3463   1.055   1.080  10.223  0.4268 -0.3188 -0.3531
  224MPD1    H6 3464   1.147   1.041  10.242  1.1515  0.6943 -1.7425
  224MPD1    H7 3465   1.006   1.063  10.310 -1.6954 -1.7482 -1.8209
  225MPD1     C 3466   3.011   2.421  12.225  0.0266  0.2251  0.6042
  225MPD1    C1 3467   3.039   2.404  12.361 -0.6336  0.2053 -0.4581
  225MPD1    C2 3468   2.929   2.394  12.444 -0.3636 -0.4090  0.1836
  225MPD1    C3 3469   2.799   2.412  12.401 -0.0530  0.6386 -0.3445
  225MPD1    C4 3470   2.771   2.425  12.264  0.0213 -0.2832  0.4093
  225MPD1    C5 3471   2.882   2.425  12.183  0.0540 -0.2541  0.2730
  225MPD1     H 3472   2.954   2.382  12.548  2.2005 -1.3684 -0.5411
  225MPD1    H1 3473   2.666   2.439  12.241  0.2975 -1.6394 -1.7514
  225MPD1    H2 3474   3.082   2.420  12.143  2.8996  0.3814  3.1084
  225MPD1    H3 3475   2.861   2.427  12.076 -0.5193 -0.7684  0.3745
  225MPD1     N 3476   2.696   2.428  12.496  0.1901  0.1051 -0.0869
  225MPD1    H5 3477   2.601   2.444  12.463  0.2482  2.3805  0.8477
  225MPD1    N1 3478   3.173   2.366  12.398  0.3029 -0.1360 -0.2493
  225MPD1    H6 3479   3.244   2.402  12.334  1.3076 -1.9956 -0.1815
  225MPD1    H7 3480   3.200   2.407  12.487 -0.5474  0.8088 -0.4279
  226MPD1     C 3481   1.874   3.229   9.817  0.0189 -0.2656  0.0018
  226MPD1    C1 3482   1.830   3.101   9.782  0.1937 -0.2334  0.4074
  226MPD1    C2 3483   1.709   3.060   9.826 -0.5928  0.7492  0.1515
  226MPD1    C3 3484   1.627   3.135   9.909 -0.2729 -0.4341  0.0846
  226MPD1    C4 3485   1.666   3.263   9.935 -0.1494  0.9664 -0.3040
  226MPD1    C5 3486   1.791   3.307   9.897  0.2293 -0.6545 -0.3262
  226MPD1     H 3487   1.686   2.955   9.814  0.4431  0.5030  0.2922
  226MPD1    H1 3488   1.607   3.333   9.992  0.5777  0.9445  0.4775
  226MPD1    H2 3489   1.973   3.265   9.792  0.1291  0.0489  0.8783
  226MPD1    H3 3490   1.836   3.401   9.928  1.1655 -1.3515  0.4113
  226MPD1     N 3491   1.505   3.077   9.958  0.7068  0.2766 -0.3968
  226MPD1    H5 3492   1.490   2.983   9.923  1.4632  0.4416 -1.1661
  226MPD1    N1 3493   1.926   3.012   9.733  0.4729  0.1098 -0.2113
  226MPD1    H6 3494   1.883   2.931   9.688 -2.3455  2.0404 -1.0334
  226MPD1    H7 3495   1.982   3.055   9.659  1.5099  0.9270  1.0364
  227MPD1     C 3496   0.805   2.960  10.802 -0.4026 -0.3547 -0.8132
  227MPD1    C1 3497   0.788   2.849  10.717  0.3391 -0.3470  0.3393
  227MPD1    C2 3498   0.846   2.852  10.587 -0.0651 -0.1415 -0.2587
  227MPD1    C3 3499   0.946   2.946  10.554 -0.1596  0.7593 -0.8634
  227MPD1    C4 3500   0.971   3.041  10.648  0.5963  0.1067  0.4516
  227MPD1    C5 3501   0.906   3.046  10.772 -0.1241  0.0148  0.2446
  227MPD1     H 3502   0.819   2.775  10.517  0.2759 -0.1255 -0.4039
  227MPD1    H1 3503   1.047   3.117  10.638 -0.6803  1.2597 -0.4674
  227MPD1    H2 3504   0.750   2.974  10.895 -0.2247 -1.2352 -0.5650
  227MPD1    H3 3505   0.933   3.130  10.835 -2.5461 -0.2299  1.5839
  227MPD1     N 3506   1.015   2.949  10.429 -0.4879  0.2539 -0.1869
  227MPD1    H5 3507   1.010   2.866  10.371  3.0273  0.1160 -0.3044
  227MPD1    N1 3508   0.678   2.757  10.725 -0.7120 -0.3423  0.2457
  227MPD1    H6 3509   0.694   2.674  10.668 -1.0383 -0.9373  1.0150
  227MPD1    H7 3510   0.653   2.724  10.819 -2.5953 -0.4944 -0.3065
  228MPD1     C 3511   3.980   0.648  12.951  0.4619  0.1149  0.1396
  228MPD1    C1 3512   3.887   0.735  12.905  0.1947  0.6729  0.1372
  228MPD1    C2 3513   3.758   0.702  12.927 -0.7008 -0.2023  0.2430
  228MPD1    C3 3514   3.719   0.578  12.963 -0.0203  0.4992 -0.4303
  228MPD1    C4 3515   3.812   0.480  12.995  0.3137 -0.8461  0.2126
  228MPD1    C5 3516   3.942   0.516  12.989 -0.5976 -0.5288 -0.3132
  228MPD1     H 3517   3.683   0.777  12.909  0.0478  0.1026 -1.6668
  228MPD1    H1 3518   3.789   0.375  13.003  0.3871 -0.8129  0.9243
  228MPD1    H2 3519   4.084   0.679  12.960  0.6693 -0.1193 -1.4514
  228MPD1    H3 3520   4.021   0.447  13.017  1.9624  0.6339 -4.5792
  228MPD1     N 3521   3.585   0.569  12.994  0.3505 -0.1530 -0.2256
  228MPD1    H5 3522   3.534   0.657  12.994 -1.0504 -0.9706  0.0905
  228MPD1    N1 3523   3.922   0.876  12.881 -0.1834  0.7717 -0.0659
  228MPD1    H6 3524   3.877   0.909  12.796 -1.7519 -0.4503  0.2987
  228MPD1    H7 3525   4.024   0.885  12.876 -0.1666  1.3350  1.2039
  229MPD1     C 3526   3.449   3.620  14.262 -0.3607 -0.2938  0.0461
  229MPD1    C1 3527   3.422   3.500  14.321 -0.2193 -0.5865 -0.9979
  229MPD1    C2 3528   3.476   3.472  14.442 -0.4370 -0.0663 -0.4881
  229MPD1    C3 3529   3.551   3.560  14.516 -0.7099 -0.1559  0.2284
  229MPD1    C4 3530   3.576   3.678  14.453  0.3024  0.0624  0.3459
  229MPD1    C5 3531   3.530   3.701  14.322 -0.2072  0.7427  0.6098
  229MPD1     H 3532   3.432   3.387  14.493  1.6144 -1.7196 -1.5002
  229MPD1    H1 3533   3.639   3.758  14.491  0.7880 -0.4574  0.6573
  229MPD1    H2 3534   3.408   3.644  14.164  0.8581 -0.6142 -0.5446
  229MPD1    H3 3535   3.545   3.802  14.284 -0.0215  0.7550  0.7156
  229MPD1     N 3536   3.608   3.539  14.649 -0.2955 -0.1896 -0.2275
  229MPD1    H5 3537   3.656   3.618  14.691  0.8822 -0.4243 -1.1361
  229MPD1    N1 3538   3.367   3.401  14.244  0.1603 -0.3455 -0.0701
  229MPD1    H6 3539   3.313   3.445  14.170  0.3572  0.1912  0.1059
  229MPD1    H7 3540   3.310   3.327  14.286  1.3104 -1.2245 -0.0687
  230MPD1     C 3541   3.541   4.084  15.491  0.5109 -0.1852 -0.7839
  230MPD1    C1 3542   3.537   3.960  15.548  0.3493 -0.0416 -0.0570
  230MPD1    C2 3543   3.564   3.855  15.465 -0.3226  0.5117  0.7982
  230MPD1    C3 3544   3.581   3.871  15.329  0.3467 -0.3162 -0.3645
  230MPD1    C4 3545   3.576   3.996  15.274 -0.7668  0.1693 -0.5993
  230MPD1    C5 3546   3.545   4.104  15.355 -0.4851 -0.3370  0.1839
  230MPD1     H 3547   3.559   3.760  15.517 -0.4375  0.8017  1.3239
  230MPD1    H1 3548   3.582   4.014  15.168  0.4287 -0.6016 -0.6584
  230MPD1    H2 3549   3.547   4.173  15.553 -2.0526  1.3619 -2.7065
  230MPD1    H3 3550   3.521   4.196  15.303 -0.9023 -0.3027  0.4367
  230MPD1     N 3551   3.609   3.756  15.248 -0.0215 -0.2992  0.5032
  230MPD1    H5 3552   3.640   3.677  15.305  3.0818  0.9755  0.5770
  230MPD1    N1 3553   3.536   3.943  15.689  0.5212 -0.3031 -0.1330
  230MPD1    H6 3554   3.471   4.015  15.720  0.1695 -1.7863  2.5457
  230MPD1    H7 3555   3.510   3.848  15.716  2.7323 -0.4641  1.3753
  231MPD1     C 3556   2.020   0.517  15.543 -0.6461 -0.4845  0.1818
  231MPD1    C1 3557   1.999   0.473  15.415 -0.1873 -0.3909  0.1134
  231MPD1    C2 3558   2.046   0.557  15.312 -0.0091  1.2625  0.2429
  231MPD1    C3 3559   2.131   0.669  15.337  0.8031  0.3870  0.5159
  231MPD1    C4 3560   2.162   0.697  15.465  0.1879 -0.0877  0.3800
  231MPD1    C5 3561   2.104   0.625  15.564  0.0072 -0.1232 -0.1233
  231MPD1     H 3562   2.031   0.529  15.209 -2.8383  3.3188  0.0967
  231MPD1    H1 3563   2.232   0.774  15.497 -0.5885  1.6210 -2.0928
  231MPD1    H2 3564   1.978   0.464  15.628  3.2368  1.2904  3.1845
  231MPD1    H3 3565   2.137   0.647  15.665  2.1845 -1.5702 -0.5260
  231MPD1     N 3566   2.189   0.735  15.223 -0.0486  0.4984  0.2546
  231MPD1    H5 3567   2.176   0.691  15.132  1.1583  0.4963  0.0782
  231MPD1    N1 3568   1.898   0.374  15.393  0.2994 -0.0852 -0.4936
  231MPD1    H6 3569   1.892   0.314  15.475 -0.2595  2.1496  1.1057
  231MPD1    H7 3570   1.918   0.314  15.313 -1.8701 -1.7297  0.1882
  232MPD1     C 3571   3.349   1.000   0.187  0.1340  0.1373  0.1607
  232MPD1    C1 3572   3.368   1.070   0.308 -0.1093 -0.2989 -0.1439
  232MPD1    C2 3573   3.365   1.203   0.307 -0.0098 -0.1124  0.1283
  232MPD1    C3 3574   3.343   1.281   0.194 -0.0072  1.1291 -0.4623
  232MPD1    C4 3575   3.317   1.214   0.073  0.1094 -0.2561  0.3536
  232MPD1    C5 3576   3.320   1.071   0.074  0.1966  0.2332  0.4191
  232MPD1     H 3577   3.384   1.256   0.399  1.8742  0.6395 -0.7066
  232MPD1    H1 3578   3.306   1.268  17.723  0.5744  2.1948  1.7318
  232MPD1    H2 3579   3.326   0.895   0.185 -1.1988  0.4445 -0.6246
  232MPD1    H3 3580   3.302   1.028  17.719 -2.0801 -1.9928  1.8256
  232MPD1     N 3581   3.341   1.422   0.208 -0.6506 -0.3698 -0.4769
  232MPD1    H5 3582   3.340   1.449   0.306  1.3929  0.7443 -0.7714
  232MPD1    N1 3583   3.365   0.998   0.431 -0.4724  0.0715  0.1122
  232MPD1    H6 3584   3.406   0.906   0.417 -1.1137 -0.1934 -0.0237
  232MPD1    H7 3585   3.421   1.051   0.499 -0.2869 -0.3458  0.2844
  233MPD1     C 3586   0.293   2.181   2.175  0.6180  0.7157  0.5983
  233MPD1    C1 3587   0.240   2.141   2.050 -0.6795  0.9310 -0.3173
  233MPD1    C2 3588   0.323   2.078   1.956 -0.2304 -0.2690 -0.3212
  233MPD1    C3 3589   0.456   2.066   1.977 -0.3099  0.6122  0.4645
  233MPD1    C4 3590   0.502   2.101   2.102 -0.1479  0.4325  0.0305
  233MPD1    C5 3591   0.418   2.154   2.199 -0.2237  0.1543 -0.7858
  233MPD1     H 3592   0.272   2.047   1.866 -0.0078 -1.1118 -0.1643
  233MPD1    H1 3593   0.609   2.108   2.119 -0.1814  1.1799 -0.0338
  233MPD1    H2 3594   0.234   2.223   2.255  1.9910  0.4682  1.7274
  233MPD1    H3 3595   0.458   2.184   2.295  2.0598 -1.2226 -1.3063
  233MPD1     N 3596   0.547   2.019   1.883  0.2177  0.0612  0.3680
  233MPD1    H5 3597   0.639   1.983   1.907  0.9313  0.3038 -2.0390
  233MPD1    N1 3598   0.105   2.129   2.038 -0.3166 -0.6467 -0.1820
  233MPD1    H6 3599   0.046   2.194   2.092 -0.6534 -1.8216  0.8690
  233MPD1    H7 3600   0.082   2.147   1.941 -2.4746 -3.0495 -0.1223
  234MPD1     C 3601   2.249   0.061   9.604 -0.5560  0.1179 -0.7426
  234MPD1    C1 3602   2.259   0.177   9.677  0.3352  0.3714 -0.5649
  234MPD1    C2 3603   2.246   0.300   9.618 -0.4713 -0.2627 -0.0090
  234MPD1    C3 3604   2.196   0.312   9.497 -0.7083 -0.2242 -0.2192
  234MPD1    C4 3605   2.179   0.193   9.420  0.0276 -0.1885  0.0985
  234MPD1    C5 3606   2.214   0.070   9.471 -0.2375  0.1929 -0.0598
  234MPD1     H 3607   2.263   0.394   9.669  0.9003 -0.1922 -0.5676
  234MPD1    H1 3608   2.140   0.201   9.319 -1.1406 -0.6940  0.5156
  234MPD1    H2 3609   2.270   4.699   9.643  0.0458  0.1712 -0.9340
  234MPD1    H3 3610   2.204   4.726   9.398 -1.3638  0.2854 -0.0035
  234MPD1     N 3611   2.159   0.439   9.446 -0.6879  0.3432 -0.4009
  234MPD1    H5 3612   2.185   0.516   9.507 -1.4518 -0.4288  0.8947
  234MPD1    N1 3613   2.331   0.174   9.793 -0.0135 -0.1678  0.0982
  234MPD1    H6 3614   2.302   0.255   9.848 -0.3348  0.3368 -0.8131
  234MPD1    H7 3615   2.295   0.087   9.830  0.0210 -0.6934 -1.1229
  235MPD1     C 3616   3.511   2.711  10.925  0.6414 -0.0255  0.5903
  235MPD1    C1 3617   3.603   2.800  10.977 -0.6102  0.3497 -0.6270
  235MPD1    C2 3618   3.594   2.936  10.939  0.1495  0.6377 -0.1352
  235MPD1    C3 3619   3.496   2.979  10.858  0.7007 -0.0810 -0.3096
  235MPD1    C4 3620   3.401   2.891  10.811 -0.1185 -0.7363 -0.8277
  235MPD1    C5 3621   3.410   2.757  10.834  0.7921  0.4197 -0.0297
  235MPD1     H 3622   3.669   3.004  10.979  0.0643  0.7304 -0.1340
  235MPD1    H1 3623   3.310   2.916  10.756 -0.3439  2.3737  0.9508
  235MPD1    H2 3624   3.532   2.605  10.935  0.6225 -0.1099 -0.3192
  235MPD1    H3 3625   3.345   2.691  10.778  0.9508  0.4687 -0.2757
  235MPD1     N 3626   3.494   3.117  10.831  0.3661  0.2108  0.2673
  235MPD1    H5 3627   3.568   3.175  10.869  0.0470  0.2148  0.8739
  235MPD1    N1 3628   3.719   2.742  11.038  0.6109  0.1472 -0.5640
  235MPD1    H6 3629   3.767   2.808  11.100 -1.1701 -0.3984  1.4109
  235MPD1    H7 3630   3.698   2.655  11.087  3.1440  0.8057  1.7111
  236MPD1     C 3631   2.638   4.210   9.871  0.7274  0.0552 -0.7412
  236MPD1    C1 3632   2.603   4.102   9.940  0.4991 -0.5012 -0.6329
  236MPD1    C2 3633   2.659   4.098  10.072 -0.3624  0.5297 -0.3307
  236MPD1    C3 3634   2.747   4.191  10.126  0.4146 -0.3005 -0.3810
  236MPD1    C4 3635   2.785   4.295  10.051 -0.4746  0.1749  0.4358
  236MPD1    C5 3636   2.735   4.296   9.925  1.1293 -0.0917  0.4411
  236MPD1     H 3637   2.627   4.013  10.131 -1.3983  0.4197 -1.0519
  236MPD1    H1 3638   2.843   4.381  10.083 -0.8368  0.3379  0.6491
  236MPD1    H2 3639   2.597   4.226   9.772  1.0278 -0.0844 -0.8891
  236MPD1    H3 3640   2.774   4.372   9.858  2.3427 -1.8512 -0.8217
  236MPD1     N 3641   2.805   4.175  10.255 -0.3691 -0.0678 -0.1178
  236MPD1    H5 3642   2.854   4.258  10.286  0.2161  0.3756 -2.2454
  236MPD1    N1 3643   2.495   4.023   9.910 -0.4709  0.0288 -0.3547
  236MPD1    H6 3644   2.501   3.936   9.962 -0.1072  0.8158  0.9224
  236MPD1    H7 3645   2.491   4.008   9.809 -1.1542 -0.3404 -0.2727
  237MPD1     C 3646   2.551   1.784  15.532  0.3492  0.0579 -0.2366
  237MPD1    C1 3647   2.478   1.722  15.431 -0.2809 -0.3285 -0.8342
  237MPD1    C2 3648   2.344   1.737  15.426 -0.2181 -0.5043  1.0474
  237MPD1    C3 3649   2.283   1.806  15.528 -0.5226 -0.1492  0.0204
  237MPD1    C4 3650   2.354   1.879  15.623  0.1582 -0.3609  0.3049
  237MPD1    C5 3651   2.493   1.861  15.628  0.9327  0.0950 -0.8089
  237MPD1     H 3652   2.288   1.684  15.349  1.3632 -0.2676 -0.2589
  237MPD1    H1 3653   2.311   1.940  15.701 -2.0303 -2.3692  0.6643
  237MPD1    H2 3654   2.658   1.767  15.525  0.4069  0.2345  0.1637
  237MPD1    H3 3655   2.545   1.907  15.711 -0.0303  1.3955 -0.9197
  237MPD1     N 3656   2.143   1.815  15.537  0.4805 -0.2276 -0.3582
  237MPD1    H5 3657   2.108   1.857  15.623 -2.7698 -1.2554 -1.1506
  237MPD1    N1 3658   2.544   1.654  15.335  0.2386 -0.3765  0.6316
  237MPD1    H6 3659   2.480   1.595  15.282  0.7771  0.2135 -0.6955
  237MPD1    H7 3660   2.631   1.608  15.362  0.3670  0.2378  1.2542
  238MPD1     C 3661   4.404   0.012  15.149 -0.2494 -0.5780  0.9644
  238MPD1    C1 3662   4.312   0.037  15.252  0.5698 -0.0020 -0.4920
  238MPD1    C2 3663   4.205   0.127  15.232 -0.2341 -0.0801  0.5034
  238MPD1    C3 3664   4.172   0.181  15.106  0.1099 -0.1398 -1.1708
  238MPD1    C4 3665   4.257   0.141  15.002  0.5489  0.5142  0.0319
  238MPD1    C5 3666   4.368   0.062  15.024  0.2510 -0.1093 -0.6424
  238MPD1     H 3667   4.133   0.135  15.313  0.7998  0.8287  1.3393
  238MPD1    H1 3668   4.237   0.162  14.898  1.5585  3.0870  0.3631
  238MPD1    H2 3669   4.501   4.704  15.166  0.3170  1.3690  2.8823
  238MPD1    H3 3670   4.429   0.049  14.936 -0.3314 -2.6086 -0.6625
  238MPD1     N 3671   4.058   0.260  15.087  0.1406  0.3242 -0.1081
  238MPD1    H5 3672   4.057   0.318  15.004 -0.0875  0.3814 -0.0655
  238MPD1    N1 3673   4.344   4.725  15.375  0.1195 -0.4609 -0.4351
  238MPD1    H6 3674   4.376   4.629  15.370  1.1746 -0.0459 -1.5495
  238MPD1    H7 3675   4.259   4.732  15.431  1.2065  1.0193  1.0413
  239MPD1     C 3676   3.851   1.319  14.859 -0.2742  0.0271 -0.2093
  239MPD1    C1 3677   3.926   1.390  14.781  0.2645 -0.0754 -0.0470
  239MPD1    C2 3678   3.886   1.513  14.725  0.5484 -0.0417 -0.4589
  239MPD1    C3 3679   3.759   1.562  14.759 -0.0721  0.5303  0.0727
  239MPD1    C4 3680   3.682   1.488  14.847 -0.2116 -0.2454  0.2758
  239MPD1    C5 3681   3.734   1.372  14.903  0.7463 -0.4816 -0.2389
  239MPD1     H 3682   3.943   1.554  14.643  0.3596  2.9181  0.9181
  239MPD1    H1 3683   3.585   1.518  14.886  0.1005 -2.1913  2.5736
  239MPD1    H2 3684   3.879   1.218  14.886 -0.2764  0.0523 -0.1133
  239MPD1    H3 3685   3.667   1.311  14.962  2.0078  0.4915  2.1818
  239MPD1     N 3686   3.708   1.686  14.716 -0.0248  0.1783 -0.2002
  239MPD1    H5 3687   3.609   1.703  14.726 -0.0673 -0.3454  0.3037
  239MPD1    N1 3688   4.032   1.313  14.729 -0.3142  0.2462 -0.7674
  239MPD1    H6 3689   4.107   1.372  14.692  1.5384 -1.6602 -0.1044
  239MPD1    H7 3690   4.071   1.260  14.807 -0.6782  2.3235  0.8081
  240MPD1     C 3691   3.647   1.280  14.396  0.4350 -0.2360  0.7269
  240MPD1    C1 3692   3.541   1.214  14.341 -0.7950  0.3640  0.2144
  240MPD1    C2 3693   3.449   1.156  14.415 -0.0409 -0.0324 -0.1348
  240MPD1    C3 3694   3.457   1.154  14.553 -0.6381  0.0683 -0.2901
  240MPD1    C4 3695   3.569   1.210  14.606 -0.5846  0.2868 -0.2061
  240MPD1    C5 3696   3.660   1.270  14.527 -0.1926 -0.2652 -0.9234
  240MPD1     H 3697   3.361   1.106  14.374 -1.0798  1.4297  0.3008
  240MPD1    H1 3698   3.594   1.204  14.711  1.8761 -1.1155 -0.8787
  240MPD1    H2 3699   3.730   1.310  14.332 -0.2478  2.4658  1.0849
  240MPD1    H3 3700   3.755   1.297  14.571 -0.7692  0.8936 -0.3725
  240MPD1     N 3701   3.357   1.090  14.630  0.1908 -0.0071  0.1250
  240MPD1    H5 3702   3.276   1.056  14.580  0.5135  0.2619 -0.5842
  240MPD1    N1 3703   3.518   1.216  14.205 -0.0419 -0.4019  0.7347
  240MPD1    H6 3704   3.601   1.221  14.147  0.4464  1.6864  1.6364
  240MPD1    H7 3705   3.449   1.148  14.173  0.4229 -1.4681  2.0122
  241MPD1     C 3706   2.967   1.105  15.551 -0.1650 -0.1322  0.3637
  241MPD1    C1 3707   2.959   0.975  15.521 -0.1811 -0.1493  0.3472
  241MPD1    C2 3708   3.008   0.931  15.401  0.6275 -0.1002  0.1326
  241MPD1    C3 3709   3.075   1.022  15.318 -0.7274 -0.1411 -0.4888
  241MPD1    C4 3710   3.098   1.150  15.360  0.1683  0.4589  0.0366
  241MPD1    C5 3711   3.032   1.192  15.471 -0.6894  0.1903  0.2395
  241MPD1     H 3712   3.001   0.827  15.369  1.3493  0.0132 -0.3889
  241MPD1    H1 3713   3.141   1.229  15.300  0.8184 -1.5153 -2.0946
  241MPD1    H2 3714   2.912   1.149  15.634  0.8240  1.6061  0.0988
  241MPD1    H3 3715   3.021   1.295  15.501  1.1440  0.7239 -0.9758
  241MPD1     N 3716   3.132   0.989  15.195 -0.2638  0.2539 -0.3185
  241MPD1    H5 3717   3.177   1.067  15.147  0.1309 -0.3519 -0.9303
  241MPD1    N1 3718   2.881   0.898  15.601  0.1369  1.0617  0.4802
  241MPD1    H6 3719   2.908   0.801  15.587  1.4262  1.1316  2.4331
  241MPD1    H7 3720   2.876   0.918  15.701 -0.8759 -0.8461  0.8219
  242MPD1     C 3721   3.417   4.621  15.758 -0.2602  0.2214  0.0577
  242MPD1    C1 3722   3.504   4.520  15.792 -0.2206  0.3084  0.0265
  242MPD1    C2 3723   3.592   4.476  15.703 -0.9440 -0.5349  0.5499
  242MPD1    C3 3724   3.596   4.524  15.573 -0.0890 -0.5961 -0.1572
  242MPD1    C4 3725   3.505   4.619  15.537 -0.6633  0.0270 -0.2331
  242MPD1    C5 3726   3.415   4.661  15.630 -0.2722  0.8228  0.4995
  242MPD1     H 3727   3.671   4.411  15.736  1.8692  3.5282  1.8813
  242MPD1    H1 3728   3.496   4.666  15.440 -1.7305  0.3453  0.0120
  242MPD1    H2 3729   3.343   4.667  15.823 -0.4677 -1.2949  0.8777
  242MPD1    H3 3730   3.342   4.735  15.599  0.6951  1.5254 -0.1198
  242MPD1     N 3731   3.688   4.484  15.477 -0.1832  0.5724  0.2069
  242MPD1    H5 3732   3.675   4.536  15.391  1.7990  1.9406  0.7281
  242MPD1    N1 3733   3.508   4.479  15.923  0.0354 -0.3340 -0.4591
  242MPD1    H6 3734   3.413   4.463  15.957 -0.5082 -0.0384 -1.8494
  242MPD1    H7 3735   3.575   4.402  15.933 -2.0970 -2.0631  0.6963
  243MPD1     C 3736   4.028   2.692   0.094  0.6388 -0.0477  0.6590
  243MPD1    C1 3737   4.126   2.665   0.185  0.5092 -0.6015  0.1145
  243MPD1    C2 3738   4.248   2.633   0.136  0.8189  0.4764  0.5966
  243MPD1    C3 3739   4.269   2.623  17.740  0.0232  0.5886 -0.1888
  243MPD1    C4 3740   4.165   2.635  17.656  0.6124 -0.3382  0.2584
  243MPD1    C5 3741   4.042   2.665  17.707  0.0735  0.6129 -0.3243
  243MPD1     H 3742   4.334   2.618   0.200  2.1278  1.6144 -0.8929
  243MPD1    H1 3743   4.169   2.589  17.558 -3.5204 -0.5766  0.1954
  243MPD1    H2 3744   3.929   2.718   0.128  0.9956  0.4852  1.2720
  243MPD1    H3 3745   3.960   2.657  17.637 -0.9171 -0.7540  0.9903
  243MPD1     N 3746   4.396   2.580  17.700  0.7150  0.0189  1.0962
  243MPD1    H5 3747   4.466   2.567   0.029  1.4546 -3.3835 -0.2482
  243MPD1    N1 3748   4.102   2.694   0.319 -0.0971  0.2160 -0.5050
  243MPD1    H6 3749   4.160   2.651   0.390 -0.1065  1.8432  0.4688
  243MPD1    H7 3750   4.005   2.681   0.348 -0.1144  1.4816 -0.0231
  244MPD1     C 3751   0.301   1.823   0.120  0.1532  0.3271 -0.9677
  244MPD1    C1 3752   0.287   1.823  17.726  0.4658  1.4568  0.1786
  244MPD1    C2 3753   0.222   1.924  17.669 -0.2407 -0.3227  0.0526
  244MPD1    C3 3754   0.164   2.031  17.739 -0.5803 -0.4981 -0.3833
  244MPD1    C4 3755   0.186   2.040   0.130 -0.5032 -0.1931 -1.0684
  244MPD1    C5 3756   0.252   1.932   0.186  0.3795 -0.2855 -0.1696
  244MPD1     H 3757   0.210   1.914  17.562  1.6902 -1.3907 -0.0799
  244MPD1    H1 3758   0.163   2.125   0.193 -2.6599 -0.7953 -1.0599
  244MPD1    H2 3759   0.349   1.744   0.177 -1.5350 -1.0268 -1.4098
  244MPD1    H3 3760   0.280   1.945   0.290 -0.2401 -1.2551  0.1274
  244MPD1     N 3761   0.099   2.137  17.663  0.2928  0.0441  0.9683
  244MPD1    H5 3762   0.090   2.131  17.562 -0.8791  2.1399  0.9552
  244MPD1    N1 3763   0.332   1.711  17.654 -0.2130  0.2920  0.3430
  244MPD1    H6 3764   0.351   1.732  17.556  1.1630 -2.1471  0.0606
  244MPD1    H7 3765   0.408   1.658  17.698  0.0330  0.5807  0.2681
  245MPD1     C 3766   1.550   3.254  12.870  0.4953  0.3243 -0.2856
  245MPD1    C1 3767   1.595   3.223  13.000  0.6730  0.0835  0.2356
  245MPD1    C2 3768   1.718   3.269  13.040  0.2321 -0.2025 -0.0257
  245MPD1    C3 3769   1.809   3.325  12.953  0.3565  0.6702  0.4305
  245MPD1    C4 3770   1.770   3.346  12.827  0.0492  0.0170 -0.0410
  245MPD1    C5 3771   1.641   3.312  12.788 -0.2147 -0.2620  0.2023
  245MPD1     H 3772   1.742   3.253  13.145 -2.0001  0.9280  0.6619
  245MPD1    H1 3773   1.832   3.401  12.757  0.9251 -1.1161 -0.1506
  245MPD1    H2 3774   1.457   3.220  12.826  0.5628 -1.5678  1.0290
  245MPD1    H3 3775   1.608   3.335  12.687 -0.1150 -0.1069  0.2046
  245MPD1     N 3776   1.929   3.377  13.008  0.3608  0.0824 -0.1014
  245MPD1    H5 3777   1.945   3.353  13.106  1.7852  0.7070 -0.1887
  245MPD1    N1 3778   1.492   3.182  13.092 -0.5450 -0.1860  0.0935
  245MPD1    H6 3779   1.535   3.129  13.167  2.5331  1.7148 -0.2951
  245MPD1    H7 3780   1.428   3.113  13.054  0.0089  0.0194 -1.2425
  246MPD1     C 3781   2.589   1.293   9.108 -0.3900  0.3249  0.1343
  246MPD1    C1 3782   2.662   1.178   9.124  0.1299 -0.3110  0.0497
  246MPD1    C2 3783   2.743   1.162   9.232 -0.0540  0.4538  0.2703
  246MPD1    C3 3784   2.743   1.247   9.338 -0.2619 -0.1840  0.8230
  246MPD1    C4 3785   2.666   1.362   9.320 -0.1274  0.1757 -0.4596
  246MPD1    C5 3786   2.590   1.382   9.210 -0.3300 -0.4615  1.1236
  246MPD1     H 3787   2.797   1.068   9.234  2.0446  1.6688  0.2480
  246MPD1    H1 3788   2.639   1.429   9.401  0.5878  1.4487 -1.2654
  246MPD1    H2 3789   2.534   1.318   9.017 -0.0913  0.9817  0.1354
  246MPD1    H3 3790   2.517   1.463   9.212 -0.5003 -0.5308 -1.3757
  246MPD1     N 3791   2.822   1.217   9.449 -0.1497 -0.0208  0.4414
  246MPD1    H5 3792   2.891   1.144   9.433 -0.0349 -0.5082  3.1573
  246MPD1    N1 3793   2.654   1.094   9.013 -0.1788  0.4486 -0.2012
  246MPD1    H6 3794   2.663   1.000   9.051  0.8613  0.2805 -0.8598
  246MPD1    H7 3795   2.560   1.111   8.977 -0.0844 -0.2880 -0.7873
  247MPD1     C 3796   1.165   2.518  16.393  0.0763 -0.1330  0.5719
  247MPD1    C1 3797   1.299   2.498  16.391 -0.4037  0.5141 -0.9100
  247MPD1    C2 3798   1.364   2.558  16.284  0.1674 -0.3045 -0.1054
  247MPD1    C3 3799   1.298   2.619  16.177 -0.3230 -0.6507 -0.0131
  247MPD1    C4 3800   1.165   2.625  16.182  0.2949 -0.1523  0.0334
  247MPD1    C5 3801   1.098   2.571  16.288 -0.8650 -0.6641 -0.4886
  247MPD1     H 3802   1.472   2.565  16.280  0.2906 -0.8420  2.3519
  247MPD1    H1 3803   1.111   2.679  16.106 -0.0933  1.4110  1.4367
  247MPD1    H2 3804   1.100   2.489  16.475 -0.2930  1.4822  0.8422
  247MPD1    H3 3805   0.991   2.589  16.296 -0.8584 -0.5646 -0.6286
  247MPD1     N 3806   1.367   2.697  16.081 -0.3472 -0.6274 -1.2383
  247MPD1    H5 3807   1.302   2.734  16.013  0.5740  0.1228 -1.7074
  247MPD1    N1 3808   1.362   2.452  16.504 -0.2528  0.6184  0.4356
  247MPD1    H6 3809   1.453   2.411  16.483 -1.1189 -0.7612 -0.6416
  247MPD1    H7 3810   1.314   2.365  16.528 -0.8884  0.8834  0.1196
  248MPD1     C 3811   2.478   2.693   0.246 -0.6035  0.4856  0.2971
  248MPD1    C1 3812   2.381   2.769   0.191  0.6103 -0.1112 -0.5495
  248MPD1    C2 3813   2.268   2.785   0.268  0.1789 -0.7664  0.0305
  248MPD1    C3 3814   2.269   2.745   0.403  0.5212 -0.1199  0.4149
  248MPD1    C4 3815   2.375   2.681   0.460 -0.2493 -0.5943  0.1052
  248MPD1    C5 3816   2.476   2.655   0.379 -0.0920  0.0823 -1.0321
  248MPD1     H 3817   2.182   2.840   0.233  0.2624 -0.3423  0.5008
  248MPD1    H1 3818   2.382   2.632   0.557 -1.5627 -0.7844  0.1063
  248MPD1    H2 3819   2.573   2.676   0.197 -0.8645  0.1604 -0.0933
  248MPD1    H3 3820   2.564   2.601   0.414  0.1651 -0.1845 -2.0907
  248MPD1     N 3821   2.153   2.775   0.479 -0.1098 -0.3998 -0.3628
  248MPD1    H5 3822   2.073   2.818   0.435 -0.1800  0.5933  0.7445
  248MPD1    N1 3823   2.387   2.805   0.051  0.2176  0.4757  0.3610
  248MPD1    H6 3824   2.480   2.806   0.009 -1.2067 -0.3311 -2.7590
  248MPD1    H7 3825   2.346   2.896   0.036 -0.8838 -0.1680 -0.4770
  249MPD1     C 3826   4.175   1.567   9.729 -0.8007 -0.3879 -0.1741
  249MPD1    C1 3827   4.311   1.567   9.709 -0.4301  0.1205  0.5427
  249MPD1    C2 3828   4.372   1.687   9.687 -0.2314 -1.0151  0.0549
  249MPD1    C3 3829   4.310   1.808   9.695 -0.0789  0.0716  0.7381
  249MPD1    C4 3830   4.171   1.811   9.711 -0.0792 -0.0718  0.1311
  249MPD1    C5 3831   4.106   1.689   9.731 -0.3002 -0.1079  0.6147
  249MPD1     H 3832   4.480   1.684   9.673  0.0990  0.6294  2.3793
  249MPD1    H1 3833   4.112   1.901   9.717  0.9851  0.6655 -0.4429
  249MPD1    H2 3834   4.108   1.485   9.749 -0.3747 -0.3583  1.3670
  249MPD1    H3 3835   4.000   1.678   9.749 -0.5208 -0.0163 -0.6261
  249MPD1     N 3836   4.391   1.927   9.691  0.5157 -0.5405  0.3071
  249MPD1    H5 3837   4.490   1.907   9.703  0.6537 -0.1002 -0.0481
  249MPD1    N1 3838   4.384   1.441   9.714  0.0236 -0.0917  0.5050
  249MPD1    H6 3839   4.320   1.369   9.747  2.5590 -1.4741  2.3691
  249MPD1    H7 3840   4.465   1.455   9.773  0.6960 -0.0675 -0.4275
  250MPD2     C 3841   0.649   2.066  13.551  0.0659  0.6940  0.0769
  250MPD2    C1 3842   0.558   2.148  13.483  0.4142 -0.3167 -0.3596
  250MPD2    C2 3843   0.445   2.080  13.423  0.1632 -0.7206 -0.1437
  250MPD2    C3 3844   0.429   1.948  13.440  0.1955  0.6794  0.9197
  250MPD2    C4 3845   0.532   1.868  13.499  0.0432  0.8302  0.5284
  250MPD2    C5 3846   0.642   1.930  13.553 -0.3134  0.4976  0.9078
  250MPD2     H 3847   0.365   2.145  13.391  0.3130 -0.8928 -0.8639
  250MPD2    H1 3848   0.520   1.761  13.504 -0.6273  0.8032 -1.7091
  250MPD2    H2 3849   0.726   2.109  13.615 -0.3400 -0.4027  1.3112
  250MPD2    H3 3850   0.728   1.887  13.603 -0.4301 -0.0813  0.6192
  250MPD2     N 3851   0.320   1.879  13.383 -0.3531 -0.4411 -0.2329
  250MPD2    H5 3852   0.335   1.781  13.363  1.9700 -0.0131 -0.5771
  250MPD2    N1 3853   0.580   2.287  13.494 -0.5798 -1.0041  0.7089
  250MPD2    H7 3854   0.653   2.325  13.554  0.5581  0.0445 -1.3312
  251TMC3    C1 3855   0.558   2.511  13.424 -0.7152 -0.1975  0.5661
  251TMC3    C2 3856   0.477   2.607  13.374  0.0027  0.2005 -0.1788
  251TMC3    C3 3857   0.512   2.740  13.396  0.6695 -0.1236  0.0823
  251TMC3    C4 3858   0.681   2.539  13.482 -0.5074  0.6365  0.4833
  251TMC3    C5 3859   0.702   2.673  13.501 -0.3422 -0.4012 -0.2699
  251TMC3    C6 3860   0.624   2.775  13.463 -0.1222 -0.6128  0.1247
  251TMC3     C 3861   0.506   2.374  13.413  0.0026  0.4161  0.0612
  251TMC3     O 3862   0.430   2.346  13.326  0.4467  0.1119  0.1560
  251TMC3     H 3863   0.393   2.582  13.310 -0.5698  1.9110 -0.1057
  251TMC3    H1 3864   0.756   2.464  13.505 -1.4905 -0.5937 -0.3404
  251TMC3    H2 3865   0.653   2.873  13.501  1.1513 -1.3586  1.0906
  251TMC3    C7 3866   0.836   2.692  13.532  0.0782  0.1660  0.1095
  251TMC3    C8 3867   0.437   2.841  13.328 -0.5789  0.6939 -0.6881
  251TMC3    O1 3868   0.893   2.617  13.611 -0.2025 -0.2189  0.2490
  251TMC3    O2 3869   0.335   2.812  13.265 -0.5457  0.2353  0.5695
  252TMC3    C1 3870   1.369   3.197   9.637  0.1258  0.4619  0.1344
  252TMC3    C2 3871   1.462   3.283   9.681 -0.0986 -0.6566  0.1981
  252TMC3    C3 3872   1.416   3.387   9.763 -0.1182  0.3228  0.7494
  252TMC3    C4 3873   1.240   3.188   9.682 -0.7296  0.7267 -0.1028
  252TMC3    C5 3874   1.204   3.293   9.765 -0.2808 -0.6582  0.0213
  252TMC3    C6 3875   1.286   3.402   9.789  0.8088 -0.0491  0.4894
  252TMC3     C 3876   1.424   3.074   9.583 -0.3182  0.2772  0.7624
  252TMC3     O 3877   1.350   2.976   9.606 -0.3709  0.1818  0.3951
  252TMC3     H 3878   1.565   3.279   9.646  0.8395 -0.7327  2.9484
  252TMC3    H1 3879   1.178   3.101   9.667  0.9578 -0.8444  2.0147
  252TMC3    H2 3880   1.245   3.485   9.845 -1.3777 -2.7767  2.9192
  252TMC3    C7 3881   1.086   3.297   9.851  0.5415  0.0393 -0.1356
  252TMC3    C8 3882   1.491   3.512   9.758  0.6216  0.6917  0.5358
  252TMC3    O1 3883   1.080   3.376   9.944  0.3889  0.5433  0.2678
  252TMC3    O2 3884   1.574   3.526   9.669 -0.1327  0.1869 -0.3947
  253MPD2     C 3885   1.702   2.006  15.909 -0.6413 -0.4482 -0.7360
  253MPD2    C1 3886   1.590   1.988  15.828 -0.9917 -0.2058 -0.7169
  253MPD2    C2 3887   1.482   1.922  15.883  0.3915 -0.4291  0.5007
  253MPD2    C3 3888   1.491   1.868  16.010 -0.5465 -0.5749  0.6634
  253MPD2    C4 3889   1.594   1.906  16.091  0.4074  0.1068  0.0461
  253MPD2    C5 3890   1.702   1.981  16.044 -0.4050 -0.1611 -1.0036
  253MPD2     H 3891   1.395   1.903  15.822 -0.1168  0.4219  0.9683
  253MPD2    H1 3892   1.598   1.869  16.193  0.4961 -2.4194 -0.8716
  253MPD2    H2 3893   1.788   2.068  15.886 -0.4525  0.3023  1.9807
  253MPD2    H3 3894   1.774   2.014  16.117 -0.1206 -1.0246 -0.8928
  253MPD2     N 3895   1.392   1.794  16.072 -0.5054  0.1514  0.0067
  253MPD2    H5 3896   1.422   1.752  16.159  3.7325 -1.0762 -2.0919
  253MPD2    N1 3897   1.574   2.039  15.700  0.2127  0.2642  0.0896
  253MPD2    H7 3898   1.489   2.027  15.647  0.5039  0.9456 -0.5367
  254TMC3    C1 3899   1.194   1.653  16.112  0.0796 -0.9476 -0.2788
  254TMC3    C2 3900   1.088   1.591  16.065 -0.1563  1.1673  0.2714
  254TMC3    C3 3901   1.023   1.495  16.134 -0.0882  0.1316  0.5171
  254TMC3    C4 3902   1.251   1.618  16.234 -0.4952 -0.7110  0.0984
  254TMC3    C5 3903   1.187   1.516  16.297 -0.0149  0.1921 -0.0492
  254TMC3    C6 3904   1.079   1.441  16.251 -0.2219 -0.7936 -0.0055
  254TMC3     C 3905   1.270   1.749  16.025 -0.0581 -0.3085  0.7891
  254TMC3     O 3906   1.221   1.791  15.922  0.0168  0.3846 -0.4681
  254TMC3     H 3907   1.050   1.629  15.971 -0.9368  1.2417  0.6119
  254TMC3    H1 3908   1.333   1.669  16.282  1.3529 -2.4901 -1.2022
  254TMC3    H2 3909   1.034   1.370  16.319  2.4096 -1.5738  0.9296
  254TMC3    C7 3910   1.213   1.497  16.443  0.6521  0.4742  0.2054
  254TMC3    C8 3911   0.913   1.427  16.077  0.5961  0.0442  0.5681
  254TMC3    O1 3912   1.178   1.395  16.504 -0.7713  0.5722  0.2473
  254TMC3    O2 3913   0.945   1.317  16.040 -0.5919 -0.3144  0.1795
  255MPD2     C 3914   0.527   4.103   9.498 -0.3212 -0.4853  0.2667
  255MPD2    C1 3915   0.627   4.192   9.523  0.2500  0.5595  0.0949
  255MPD2    C2 3916   0.739   4.191   9.445 -0.1048  0.0716 -0.1736
  255MPD2    C3 3917   0.742   4.119   9.328  0.1812 -0.3774 -0.2780
  255MPD2    C4 3918   0.639   4.031   9.299  0.1962 -0.3443 -0.4507
  255MPD2    C5 3919   0.535   4.021   9.385  0.6108 -0.1329  0.7806
  255MPD2     H 3920   0.830   4.242   9.475 -1.3904  1.8062  0.8040
  255MPD2    H1 3921   0.639   3.976   9.206  1.0163 -2.5193  0.8407
  255MPD2    H2 3922   0.447   4.084   9.569  1.0907 -1.2134  1.6372
  255MPD2    H3 3923   0.453   3.952   9.365  0.8837 -0.1106 -0.3852
  255MPD2     N 3924   0.853   4.113   9.239  0.2631  0.6735 -0.3504
  255MPD2    H5 3925   0.860   4.028   9.183 -0.4992 -0.5981  1.4815
  255MPD2    N1 3926   0.623   4.279   9.636 -0.4496  0.1599  0.1650
  255MPD2    H7 3927   0.706   4.337   9.639 -1.7287  2.0507 -1.0019
  256TMC3    C1 3928   0.517   4.443   9.768 -0.2332 -0.3087 -0.4685
  256TMC3    C2 3929   0.617   4.528   9.714 -0.7755  0.1642 -0.0443
  256TMC3    C3 3930   0.628   4.649   9.778  0.1757 -0.0139  0.6446
  256TMC3    C4 3931   0.429   4.487   9.862  0.3367 -0.7750  0.2406
  256TMC3    C5 3932   0.436   4.613   9.912  0.3822 -0.8298 -0.2945
  256TMC3    C6 3933   0.533   4.695   9.867  0.5481 -0.1529  0.0207
  256TMC3     C 3934   0.509   4.310   9.705 -0.3066 -0.6995  0.4731
  256TMC3     O 3935   0.416   4.239   9.739  0.1305  0.3569  0.5303
  256TMC3     H 3936   0.677   4.511   9.625 -0.8025 -2.1619  0.3795
  256TMC3    H1 3937   0.345   4.423   9.887 -0.2774 -0.3370 -0.6822
  256TMC3    H2 3938   0.551   0.045   9.930 -2.3220  0.7561 -0.4031
  256TMC3    C7 3939   0.345   4.667  10.014 -0.0462  0.0323 -0.0787
  256TMC3    C8 3940   0.729   0.005   9.730 -0.2739  0.1600  0.1383
  256TMC3    O1 3941   0.342   0.052  10.026 -0.3871  0.1289 -0.3001
  256TMC3    O2 3942   0.811   4.689   9.659  0.3086  0.7058 -0.8268
  257MPD2     C 3943   3.311   2.057  13.411  0.1328 -0.3844 -0.3586
  257MPD2    C1 3944   3.436   2.089  13.359 -0.0091  0.3409  0.2236
  257MPD2    C2 3945   3.551   2.034  13.414  0.7248 -0.0305  0.2233
  257MPD2    C3 3946   3.538   1.960  13.528 -0.4350 -0.4646 -0.1843
  257MPD2    C4 3947   3.414   1.929  13.580  0.0810 -0.0804  0.2387
  257MPD2    C5 3948   3.300   1.975  13.519  0.4234 -0.3363  0.1142
  257MPD2     H 3949   3.651   2.050  13.374  0.2352 -0.3950 -1.1442
  257MPD2    H1 3950   3.396   1.873  13.671 -0.5087 -1.6758 -0.8544
  257MPD2    H2 3951   3.221   2.104  13.373  0.4576  0.1363 -0.4836
  257MPD2    H3 3952   3.200   1.946  13.549  0.8349 -0.0049  1.8188
  257MPD2     N 3953   3.660   1.904  13.579 -0.0232 -0.3130  0.1768
  257MPD2    H5 3954   3.747   1.911  13.526 -0.0346  1.8664  0.4322
  257MPD2    N1 3955   3.439   2.177  13.251  0.2072 -0.6846 -0.6421
  257MPD2    H7 3956   3.354   2.190  13.197 -1.1690  0.6489  1.8249
  258TMC3    C1 3957   3.817   1.807  13.727 -1.0615  0.4824 -0.4314
  258TMC3    C2 3958   3.901   1.791  13.612 -0.2936 -0.4813 -0.0622
  258TMC3    C3 3959   4.035   1.758  13.630 -1.2652 -1.0673 -0.2779
  258TMC3    C4 3960   3.869   1.794  13.852  0.2741 -0.1448  0.2896
  258TMC3    C5 3961   4.002   1.774  13.859  0.3013 -0.2536 -0.7779
  258TMC3    C6 3962   4.083   1.753  13.760 -0.5055 -0.9175  0.4200
  258TMC3     C 3963   3.678   1.846  13.704  0.0853 -0.0314  0.0216
  258TMC3     O 3964   3.601   1.833  13.796 -0.5146  0.5869  0.2307
  258TMC3     H 3965   3.871   1.801  13.508 -0.9164  0.6912  0.2333
  258TMC3    H1 3966   3.796   1.795  13.933  0.8943  0.2433  0.8413
  258TMC3    H2 3967   4.190   1.765  13.776 -0.6483  1.5908 -0.5779
  258TMC3    C7 3968   4.050   1.781  13.992  0.3603  0.2836  0.1577
  258TMC3    C8 3969   4.111   1.705  13.517 -0.4872 -0.9492  0.6815
  258TMC3    O1 3970   3.987   1.853  14.069 -0.4066 -0.3455  0.6612
  258TMC3    O2 3971   4.068   1.724  13.407 -0.2661  0.0976  0.0415
  259MPD2     C 3972   2.755   3.347   0.612 -0.2847 -0.7415 -0.2583
  259MPD2    C1 3973   2.806   3.250   0.697 -0.4173 -0.4281  0.0088
  259MPD2    C2 3974   2.906   3.162   0.658 -0.7571 -0.3119 -0.1591
  259MPD2    C3 3975   2.947   3.155   0.528  0.0136 -0.5407  0.1841
  259MPD2    C4 3976   2.884   3.244   0.436 -0.1102 -0.5187 -0.6040
  259MPD2    C5 3977   2.796   3.346   0.483  0.6427 -0.1586 -0.6300
  259MPD2     H 3978   2.944   3.093   0.732 -2.2277  2.9182  3.6159
  259MPD2    H1 3979   2.915   3.253   0.333  2.7388  0.6017  0.3420
  259MPD2    H2 3980   2.676   3.406   0.656  1.2640 -0.6875  2.4531
  259MPD2    H3 3981   2.764   3.416   0.408  0.7807 -0.8445 -1.3281
  259MPD2     N 3982   3.050   3.059   0.502 -0.0086  0.0891  0.3917
  259MPD2    H5 3983   3.076   3.007   0.586  0.4152  1.1554  0.9182
  259MPD2    N1 3984   2.754   3.247   0.831  0.5659 -0.4651 -0.1071
  259MPD2    H7 3985   2.709   3.330   0.868  0.2926 -0.0025 -1.4669
  260TMC3    C1 3986   3.190   2.909   0.397  0.3595 -0.3176  0.2280
  260TMC3    C2 3987   3.269   2.879   0.290 -0.7177 -0.8819 -0.1353
  260TMC3    C3 3988   3.355   2.775   0.305 -0.5343  0.9832 -0.0596
  260TMC3    C4 3989   3.195   2.838   0.512 -0.2665 -0.1823  0.7906
  260TMC3    C5 3990   3.284   2.737   0.523 -0.1123  0.5895  0.4209
  260TMC3    C6 3991   3.377   2.710   0.422 -0.1705 -0.5897  0.4719
  260TMC3     C 3992   3.108   3.035   0.384 -0.0561  0.1718  0.1191
  260TMC3     O 3993   3.105   3.098   0.277 -0.0165 -0.1255 -0.0631
  260TMC3     H 3994   3.254   2.925   0.193  0.3015 -0.0148  0.1312
  260TMC3    H1 3995   3.127   2.860   0.594 -0.4606  0.0957  0.5579
  260TMC3    H2 3996   3.450   2.631   0.435  2.4609  2.1950  2.8918
  260TMC3    C7 3997   3.215   2.612   0.528 -0.3340  0.2142  0.1908
  260TMC3    C8 3998   3.371   2.701   0.184 -0.5282 -0.0619 -0.6892
  260TMC3    O1 3999   3.259   2.518   0.463  0.7892 -0.2437  0.0013
  260TMC3    O2 4000   3.393   2.767   0.082  0.4912 -0.4368 -0.7520
  261MPD2     C 4001   4.267   1.891  12.999 -0.1187 -0.0384 -0.0793
  261MPD2    C1 4002   4.381   1.929  12.933  0.4264 -0.0379 -0.1928
  261MPD2    C2 4003   4.373   2.002  12.817  0.6896 -0.2588 -0.3556
  261MPD2    C3 4004   4.253   2.056  12.777 -0.1997  0.3608  0.3606
  261MPD2    C4 4005   4.138   2.011  12.842 -0.3464 -0.3987 -0.1531
  261MPD2    C5 4006   4.145   1.926  12.943  0.2912  0.2240 -0.6641
  261MPD2     H 4007   4.468   2.029  12.772  0.3138 -1.2465 -1.7238
  261MPD2    H1 4008   4.039   2.041  12.808 -0.0013  0.7691 -0.1371
  261MPD2    H2 4009   4.266   1.826  13.086 -1.2159 -0.0013 -0.0710
  261MPD2    H3 4010   4.059   1.884  12.994  1.6945 -0.8721  0.8075
  261MPD2     N 4011   4.253   2.151  12.672  0.0676 -0.5522  0.8097
  261MPD2    H5 4012   4.342   2.165  12.624  0.0709  0.1725  1.0287
  261MPD2    N1 4013   4.514   1.879  12.964  0.1894 -0.0327  0.2129
  261MPD2    H7 4014   4.579   1.888  12.887 -0.5182 -1.1415 -0.5148
  262TMC3    C1 4015   4.178   2.259  12.490 -0.2430 -0.4995  0.4725
  262TMC3    C2 4016   4.181   2.393  12.475  0.0354 -0.2788  0.9185
  262TMC3    C3 4017   4.254   2.438  12.368 -0.0562 -0.3287  0.3673
  262TMC3    C4 4018   4.254   2.168  12.423 -0.0179  0.5927 -0.2871
  262TMC3    C5 4019   4.332   2.214  12.326 -0.2342  0.1543 -0.6165
  262TMC3    C6 4020   4.338   2.352  12.306 -0.2366 -0.2901 -0.1288
  262TMC3     C 4021   4.144   2.216  12.627  0.3136 -0.1354 -0.0993
  262TMC3     O 4022   4.038   2.250  12.676  0.4356  0.8641 -0.3624
  262TMC3     H 4023   4.118   2.459  12.532 -1.3137  0.1347 -1.0578
  262TMC3    H1 4024   4.233   2.063  12.439 -2.0846  0.4716 -3.7622
  262TMC3    H2 4025   4.388   2.396  12.221  0.1045 -0.3724  0.0292
  262TMC3    C7 4026   4.387   2.116  12.237  0.0844  0.7030 -0.4988
  262TMC3    C8 4027   4.282   2.571  12.358  0.2886  0.4924 -0.3274
  262TMC3    O1 4028   4.356   2.000  12.260 -0.4372  0.4938  0.7477
  262TMC3    O2 4029   4.393   2.598  12.309  0.6988  0.1753  0.8368
  263MPD2     C 4030   0.729   1.315  11.150  0.5224  0.1839 -0.1549
  263MPD2    C1 4031   0.778   1.392  11.252  0.1866  0.1086  0.7214
  263MPD2    C2 4032   0.843   1.502  11.208  0.2981  0.3982  0.2818
  263MPD2    C3 4033   0.852   1.531  11.071  0.4173  0.1572 -0.1254
  263MPD2    C4 4034   0.810   1.443  10.975 -0.1755  0.4673 -0.5025
  263MPD2    C5 4035   0.747   1.338  11.017  0.6400 -0.2463 -0.1517
  263MPD2     H 4036   0.882   1.577  11.276  0.9921  1.0317 -0.8013
  263MPD2    H1 4037   0.814   1.457  10.867  0.8911 -0.9612 -0.6502
  263MPD2    H2 4038   0.668   1.227  11.168 -0.9960  1.6174  1.7577
  263MPD2    H3 4039   0.704   1.271  10.943  1.0101 -0.0554 -0.5384
  263MPD2     N 4040   0.917   1.655  11.028 -1.1031 -0.6838  0.3386
  263MPD2    H5 4041   0.928   1.722  11.103 -0.9326  0.0722 -0.3696
  263MPD2    N1 4042   0.780   1.356  11.391 -0.9313  0.1819  0.3323
  263MPD2    H7 4043   0.742   1.265  11.415  0.1751 -0.4508 -0.3594
  264TMC3    C1 4044   1.013   1.809  10.885  0.1939  0.0180  0.4125
  264TMC3    C2 4045   0.939   1.912  10.946 -0.2837 -0.4825 -0.2645
  264TMC3    C3 4046   0.933   2.032  10.878 -0.5538 -0.4624 -0.0532
  264TMC3    C4 4047   1.070   1.825  10.757  0.1744 -0.1782  0.0577
  264TMC3    C5 4048   1.061   1.943  10.691 -0.4107 -0.2932  0.1124
  264TMC3    C6 4049   1.000   2.048  10.758  0.0204 -0.0079  0.0523
  264TMC3     C 4050   0.972   1.674  10.906  0.6236 -0.3045 -0.6607
  264TMC3     O 4051   0.994   1.598  10.813  0.2079 -0.9144 -0.3078
  264TMC3     H 4052   0.901   1.898  11.046  1.6005  2.3288  0.8429
  264TMC3    H1 4053   1.125   1.743  10.712  0.1316  0.6312 -1.4718
  264TMC3    H2 4054   1.002   2.145  10.710  1.3486  0.9876  2.1320
  264TMC3    C7 4055   1.174   1.970  10.605  0.7779 -0.0978  0.7269
  264TMC3    C8 4056   0.908   2.147  10.967 -1.6272 -0.0833  0.7194
  264TMC3    O1 4057   1.205   1.887  10.522 -0.4147 -0.2521 -0.1994
  264TMC3    O2 4058   0.951   2.257  10.931 -0.5869 -0.0570  0.1239
  265MPD2     C 4059   2.425   1.293  15.737  0.2974 -0.9556  0.0600
  265MPD2    C1 4060   2.494   1.413  15.719  0.1043 -0.8609  0.4294
  265MPD2    C2 4061   2.589   1.422  15.613  0.8687 -0.1388 -0.3121
  265MPD2    C3 4062   2.611   1.317  15.521 -0.5453  0.0086 -0.3476
  265MPD2    C4 4063   2.546   1.201  15.548  0.3026 -0.2382 -0.6586
  265MPD2    C5 4064   2.453   1.190  15.644  0.8053  0.5536  0.4083
  265MPD2     H 4065   2.640   1.516  15.594  0.3225  0.4075  0.9435
  265MPD2    H1 4066   2.557   1.111  15.490  0.8707  0.1598 -1.1731
  265MPD2    H2 4067   2.347   1.283  15.812  0.3359  1.9710  0.4878
  265MPD2    H3 4068   2.393   1.100  15.650  2.8120 -0.8617 -1.2084
  265MPD2     N 4069   2.697   1.313  15.408  0.3998 -0.4589  0.4197
  265MPD2    H5 4070   2.696   1.226  15.355 -0.7455 -0.8804  1.1384
  265MPD2    N1 4071   2.460   1.536  15.786 -0.1203  0.8267  0.2953
  265MPD2    H7 4072   2.526   1.612  15.771 -0.8591  1.0530 -1.8206
  266TMC3    C1 4073   2.350   1.697  15.912  0.2255 -0.0299 -0.9426
  266TMC3    C2 4074   2.467   1.724  15.977 -0.0074 -0.3278 -0.0630
  266TMC3    C3 4075   2.460   1.834  16.051  0.1477 -0.2399 -0.8106
  266TMC3    C4 4076   2.232   1.764  15.928  0.5832 -0.6106 -0.1484
  266TMC3    C5 4077   2.226   1.873  16.004  0.0558 -0.0954  0.4367
  266TMC3    C6 4078   2.343   1.915  16.062  0.2440 -0.5360  0.5369
  266TMC3     C 4079   2.347   1.559  15.852  0.0138  0.5578 -0.0966
  266TMC3     O 4080   2.247   1.492  15.880  0.2555 -0.0641  0.0191
  266TMC3     H 4081   2.562   1.674  15.962 -0.2746 -1.0665  0.6752
  266TMC3    H1 4082   2.146   1.727  15.874  1.3164  1.0005 -2.3968
  266TMC3    H2 4083   2.337   2.004  16.123  0.0330 -0.0060 -0.2578
  266TMC3    C7 4084   2.121   1.973  15.975 -0.7143 -0.0874  0.4545
  266TMC3    C8 4085   2.582   1.857  16.130  0.7235  1.1063  0.1096
  266TMC3    O1 4086   2.092   1.986  15.857  0.0152  0.6051 -0.7564
  266TMC3    O2 4087   2.674   1.776  16.137 -0.0473 -0.0584  0.1448
  267MPD2     C 4088   4.632   3.501   0.534 -0.0948  0.3857 -0.0869
  267MPD2    C1 4089   4.716   3.436   0.449  0.2082  0.3339  0.1094
  267MPD2    C2 4090   4.730   3.474   0.325 -0.2267  0.1334 -0.1169
  267MPD2    C3 4091   4.663   3.584   0.274 -0.6496 -0.0895  0.0356
  267MPD2    C4 4092   4.580   3.655   0.357  0.0338  0.0112  0.0895
  267MPD2    C5 4093   4.570   3.616   0.484  0.4112  1.3272 -0.3112
  267MPD2     H 4094   0.065   3.423   0.261 -0.9567 -1.5339  0.4025
  267MPD2    H1 4095   4.520   3.737   0.319  1.4274 -0.1315 -2.4500
  267MPD2    H2 4096   4.632   3.462   0.635  0.2983  0.7057  0.0371
  267MPD2    H3 4097   4.510   3.675   0.553  0.2660  1.1814 -0.3129
  267MPD2     N 4098   4.670   3.623   0.135 -0.3200  0.1678 -0.6317
  267MPD2    H5 4099   4.617   3.705   0.108  0.0292  0.2992 -0.9271
  267MPD2    N1 4100   0.048   3.317   0.491  0.3767 -0.2932  0.4164
  267MPD2    H7 4101   0.121   3.285   0.429 -0.6475 -1.3765 -0.2116
  268TMC3    C1 4102   0.122   3.151   0.635  0.1799  0.5189  0.1301
  268TMC3    C2 4103   0.233   3.154   0.554  0.1430  0.5142  0.7124
  268TMC3    C3 4104   0.308   3.040   0.557  0.7800 -0.0075 -0.0413
  268TMC3    C4 4105   0.082   3.041   0.711 -0.9432  0.2217 -0.3597
  268TMC3    C5 4106   0.161   2.928   0.701  1.2778 -0.3446 -0.1134
  268TMC3    C6 4107   0.278   2.926   0.625  0.0052 -0.8942  0.4288
  268TMC3     C 4108   0.028   3.252   0.614  0.0249  0.3523 -0.3508
  268TMC3     O 4109   4.682   3.263   0.707  0.0518  0.3891  0.1533
  268TMC3     H 4110   0.269   3.250   0.517 -1.8205  1.6391  1.6962
  268TMC3    H1 4111   4.718   3.046   0.752 -0.9361  0.5554 -0.3863
  268TMC3    H2 4112   0.335   2.836   0.608 -0.3599 -1.2011  0.8659
  268TMC3    C7 4113   0.178   2.830   0.802  0.1866 -0.4433 -0.6863
  268TMC3    C8 4114   0.450   3.044   0.506 -0.0407 -0.3461 -0.8876
  268TMC3    O1 4115   0.247   2.731   0.780 -0.2176 -0.1098  0.0393
  268TMC3    O2 4116   0.531   2.961   0.547  0.0475 -0.1598  0.1455
  269MPD2     C 4117   0.832   2.212  15.654  0.7450 -0.4727  0.1162
  269MPD2    C1 4118   0.696   2.213  15.672  0.3529  0.7325 -0.7398
  269MPD2    C2 4119   0.619   2.331  15.648  0.5732  0.7472 -0.4446
  269MPD2    C3 4120   0.692   2.437  15.600  0.3680  0.3120  0.1045
  269MPD2    C4 4121   0.831   2.433  15.590  0.6188 -0.2935 -0.3914
  269MPD2    C5 4122   0.903   2.323  15.611 -0.1392  0.1390  0.4301
  269MPD2     H 4123   0.514   2.341  15.670  0.0356 -3.0182 -1.2723
  269MPD2    H1 4124   0.884   2.513  15.540  2.8844 -0.8055  1.2254
  269MPD2    H2 4125   0.898   2.128  15.674  0.0110 -1.2804 -0.8476
  269MPD2    H3 4126   1.011   2.325  15.615 -0.1079 -0.7168  0.0552
  269MPD2     N 4127   0.625   2.564  15.596  0.1813  0.3054 -0.2036
  269MPD2    H5 4128   0.526   2.565  15.620  0.1806  0.2468 -0.2034
  269MPD2    N1 4129   0.636   2.087  15.711 -0.5167 -0.9577  0.5806
  269MPD2    H7 4130   0.699   2.008  15.717  1.4394  0.6452  1.1270
  270TMC3    C1 4131   0.471   1.931  15.735  0.1661 -1.0999  0.2884
  270TMC3    C2 4132   0.350   1.889  15.688 -0.7637 -0.4860  0.3005
  270TMC3    C3 4133   0.338   1.759  15.635  0.2000 -0.1291 -0.5421
  270TMC3    C4 4134   0.574   1.840  15.755 -0.0433  0.2287 -0.2682
  270TMC3    C5 4135   0.549   1.712  15.718  0.6276 -0.6389 -0.2044
  270TMC3    C6 4136   0.435   1.669  15.658 -0.9495  0.0198  0.3963
  270TMC3     C 4137   0.509   2.069  15.733  0.2076 -0.1079  0.4238
  270TMC3     O 4138   0.417   2.149  15.733  0.1432  0.1256  0.0422
  270TMC3     H 4139   0.273   1.957  15.653 -0.1164 -0.6721 -1.4591
  270TMC3    H1 4140   0.659   1.861  15.820  1.1630  2.2551 -2.5096
  270TMC3    H2 4141   0.424   1.563  15.635 -2.9833  0.4070 -0.4596
  270TMC3    C7 4142   0.669   1.629  15.702  0.4848  0.1094  0.3566
  270TMC3    C8 4143   0.246   1.727  15.527 -0.1201 -0.3558  1.0245
  270TMC3    O1 4144   0.756   1.639  15.786  0.3720  0.2366  0.5570
  270TMC3    O2 4145   0.132   1.772  15.523  0.0982 -0.2607 -0.5220
  271MPD2     C 4146   0.045   1.762  13.936  0.5173 -0.0537  1.0592
  271MPD2    C1 4147   0.036   1.817  14.059  0.5640 -0.3281  0.0264
  271MPD2    C2 4148   4.706   1.940  14.079  0.4093  0.2950 -0.9313
  271MPD2    C3 4149   4.663   2.017  13.966  0.4170 -0.5735 -0.0268
  271MPD2    C4 4150   4.692   1.967  13.839 -0.6119  0.3656  0.0364
  271MPD2    C5 4151   0.003   1.836  13.830  0.3846 -0.1044 -0.9969
  271MPD2     H 4152   4.685   1.975  14.179  1.6167  0.3604 -0.7084
  271MPD2    H1 4153   4.665   2.019  13.747  0.0602 -1.1022 -0.9836
  271MPD2    H2 4154   0.073   1.660  13.913 -0.6912  0.5466 -3.1617
  271MPD2    H3 4155   0.022   1.792  13.733  1.4433 -2.3764  0.2417
  271MPD2     N 4156   4.610   2.146  13.978  0.3489 -0.2027 -0.9862
  271MPD2    H5 4157   4.588   2.196  13.892  1.9948 -2.9669 -3.0123
  271MPD2    N1 4158   0.088   1.752  14.177  0.2673 -0.4438  0.0682
  271MPD2    H7 4159   0.090   1.808  14.262  1.0478  0.2719 -0.4096
  272TMC3    C1 4160   0.242   1.635  14.303  0.3472 -0.5586  0.0622
  272TMC3    C2 4161   0.369   1.581  14.288 -0.0443  0.0861  0.1412
  272TMC3    C3 4162   0.423   1.515  14.395  0.3300 -0.3056 -0.6699
  272TMC3    C4 4163   0.163   1.625  14.416 -0.0411  0.8202 -0.3370
  272TMC3    C5 4164   0.238   1.576  14.527 -0.1309 -0.7950  0.5745
  272TMC3    C6 4165   0.363   1.517  14.518  0.6941  0.1369 -1.1067
  272TMC3     C 4166   0.177   1.648  14.177  0.1625 -0.4068  0.2726
  272TMC3     O 4167   0.203   1.570  14.081 -0.1761 -0.5505 -0.2876
  272TMC3     H 4168   0.425   1.578  14.195  0.6228  0.4721  0.5279
  272TMC3    H1 4169   0.064   1.668  14.423 -0.3788  0.0375 -0.2633
  272TMC3    H2 4170   0.397   1.469  14.609  0.9220  1.1842 -0.6374
  272TMC3    C7 4171   0.195   1.628  14.660 -0.0741 -0.5574 -0.5042
  272TMC3    C8 4172   0.540   1.439  14.373  0.0567 -0.2507  0.1569
  272TMC3    O1 4173   0.269   1.606  14.754  0.5207  0.3508  0.2835
  272TMC3    O2 4174   0.611   1.464  14.276 -0.3323  0.0302 -0.3690
  273MPD2     C 4175   1.364   0.045  11.651  0.2555  0.0084  0.5048
  273MPD2    C1 4176   1.479   0.124  11.669 -0.1208  0.2354  0.2047
  273MPD2    C2 4177   1.490   0.235  11.590 -0.2080  0.9532 -0.0653
  273MPD2    C3 4178   1.399   0.262  11.493 -0.4439  0.5978  0.3923
  273MPD2    C4 4179   1.292   0.179  11.480  0.5800  0.0909 -0.2199
  273MPD2    C5 4180   1.280   0.073  11.555 -0.6081  0.5362  0.5674
  273MPD2     H 4181   1.576   0.297  11.611  1.0924  0.6437 -4.3943
  273MPD2    H1 4182   1.213   0.185  11.406  1.0830 -1.1884 -0.8665
  273MPD2    H2 4183   1.346   4.694  11.712  0.4807  0.5529  1.3640
  273MPD2    H3 4184   1.196   0.007  11.536  0.8372 -0.8414 -1.0880
  273MPD2     N 4185   1.409   0.370  11.409 -0.3073 -0.3358 -0.0119
  273MPD2    H5 4186   1.350   0.368  11.326 -0.0445  0.3326 -0.2194
  273MPD2    N1 4187   1.564   0.085  11.780 -0.3104  0.1303 -0.0766
  273MPD2    H7 4188   1.544   4.731  11.822 -0.8277  0.5176  0.5065
  274TMC3    C1 4189   1.463   0.585  11.330 -0.0182  0.8601  0.1797
  274TMC3    C2 4190   1.403   0.558  11.208  0.1096 -0.1406  0.2582
  274TMC3    C3 4191   1.371   0.667  11.131  0.2431  0.6732 -0.0095
  274TMC3    C4 4192   1.507   0.712  11.365 -0.4209  0.6068  0.1317
  274TMC3    C5 4193   1.465   0.817  11.286 -0.5372 -0.7123 -0.1114
  274TMC3    C6 4194   1.403   0.798  11.164  0.3825 -0.7178 -0.1134
  274TMC3     C 4195   1.488   0.483  11.430 -0.3213 -0.2316  0.1505
  274TMC3     O 4196   1.563   0.505  11.524  0.7924 -0.0986  0.2549
  274TMC3     H 4197   1.360   0.462  11.182  2.4265 -1.0434 -0.2590
  274TMC3    H1 4198   1.554   0.726  11.461 -1.0544  1.7120  0.2763
  274TMC3    H2 4199   1.334   0.875  11.132  1.4311 -0.8137 -2.5503
  274TMC3    C7 4200   1.428   0.938  11.356  0.4494 -0.1911  0.5229
  274TMC3    C8 4201   1.320   0.642  10.994 -0.3886 -0.1661 -0.0438
  274TMC3    O1 4202   1.345   1.014  11.312 -0.8370  0.0797  0.1240
  274TMC3    O2 4203   1.280   0.529  10.978 -0.6383  0.3475  0.0709
  275MPD2     C 4204   1.339   3.270  14.809 -0.1844 -0.3737 -0.1744
  275MPD2    C1 4205   1.368   3.135  14.797  0.0231 -0.2891  0.2768
  275MPD2    C2 4206   1.263   3.051  14.789  0.4147 -0.7914 -0.1767
  275MPD2    C3 4207   1.134   3.094  14.795 -0.2045 -0.7788  0.6506
  275MPD2    C4 4208   1.109   3.227  14.801  0.5131  0.2055  0.0639
  275MPD2    C5 4209   1.211   3.316  14.794  0.1515  0.1847  0.4833
  275MPD2     H 4210   1.282   2.945  14.792  0.7072 -0.6803  1.5966
  275MPD2    H1 4211   1.009   3.269  14.799 -0.1569 -1.5301 -2.4308
  275MPD2    H2 4212   1.414   3.348  14.818 -2.5638  1.4715  3.7341
  275MPD2    H3 4213   1.195   3.423  14.804  0.5800  0.4485 -1.6514
  275MPD2     N 4214   1.020   3.013  14.798 -0.3278  0.2328 -0.0116
  275MPD2    H5 4215   0.925   3.049  14.807 -0.9803 -0.9432 -2.1572
  275MPD2    N1 4216   1.496   3.082  14.809  0.4807  0.0557 -0.7725
  275MPD2    H7 4217   1.506   2.981  14.818  0.7086  0.2192  0.8309
  276TMC3    C1 4218   1.748   3.084  14.813 -0.7654  0.2024  0.2105
  276TMC3    C2 4219   1.759   2.949  14.836 -0.6906 -0.1135 -0.5427
  276TMC3    C3 4220   1.881   2.892  14.841  0.1055 -1.0024 -0.3056
  276TMC3    C4 4221   1.853   3.163  14.773  0.4150  0.5715 -0.4854
  276TMC3    C5 4222   1.973   3.093  14.765  0.2330  0.1453 -0.1341
  276TMC3    C6 4223   1.990   2.961  14.806 -0.2618  0.4364 -0.0139
  276TMC3     C 4224   1.618   3.155  14.805  0.2481  0.2946 -0.3498
  276TMC3     O 4225   1.626   3.280  14.817 -0.3669  0.5130 -0.1516
  276TMC3     H 4226   1.673   2.883  14.842 -0.0144 -0.7953  1.6981
  276TMC3    H1 4227   1.846   3.269  14.750 -0.7488  0.3992 -0.9573
  276TMC3    H2 4228   2.087   2.913  14.816 -0.2132  0.1786 -1.6708
  276TMC3    C7 4229   2.092   3.184  14.773 -0.0560 -0.3061  0.2440
  276TMC3    C8 4230   1.895   2.750  14.842 -0.6383  0.3914  0.6415
  276TMC3    O1 4231   2.075   3.304  14.790  0.0696  0.6812 -0.5505
  276TMC3    O2 4232   1.992   2.723  14.775 -0.3744  0.0841  0.7039
  277MPD2     C 4233   3.231   2.440  13.657 -0.2229 -0.1340  0.5748
  277MPD2    C1 4234   3.122   2.469  13.736  0.2947 -0.2788 -0.1893
  277MPD2    C2 4235   3.075   2.376  13.829 -0.0632 -0.1563 -0.3843
  277MPD2    C3 4236   3.134   2.252  13.827 -0.1803  0.5716  0.3126
  277MPD2    C4 4237   3.241   2.225  13.745 -0.1640  0.1100 -0.1474
  277MPD2    C5 4238   3.282   2.315  13.654  0.3391 -0.3798 -0.1204
  277MPD2     H 4239   2.992   2.384  13.899 -0.3348  0.4168 -0.7759
  277MPD2    H1 4240   3.305   2.138  13.740  2.3994  2.0047 -0.5682
  277MPD2    H2 4241   3.273   2.514  13.590 -1.2527  0.1335  0.2237
  277MPD2    H3 4242   3.365   2.297  13.587  0.0097  0.3921 -0.7283
  277MPD2     N 4243   3.064   2.149  13.902 -0.1730 -0.2914  0.7845
  277MPD2    H5 4244   2.975   2.166  13.947  0.2276 -0.0382  1.4786
  277MPD2    N1 4245   3.070   2.601  13.728 -0.3676  0.1006  0.7869
  277MPD2    H7 4246   3.113   2.659  13.657 -0.1464  1.4089  1.9855
  278TMC3    C1 4247   3.002   1.933  13.965 -0.6604 -0.2782  0.1507
  278TMC3    C2 4248   3.011   1.810  13.913 -0.3755  0.5173 -0.1215
  278TMC3    C3 4249   2.896   1.743  13.880 -0.6420  0.0123  0.3677
  278TMC3    C4 4250   2.880   1.988  13.995 -0.3509 -0.6080 -1.1546
  278TMC3    C5 4251   2.764   1.933  13.948  0.1086  0.1702 -0.0166
  278TMC3    C6 4252   2.773   1.814  13.884  0.0982 -0.7912 -0.0449
  278TMC3     C 4253   3.100   2.018  13.903 -0.2191  1.0281 -0.0145
  278TMC3     O 4254   3.197   1.967  13.855 -0.3090  0.2184 -0.2022
  278TMC3     H 4255   3.105   1.757  13.905 -0.5909  0.6813 -3.4906
  278TMC3    H1 4256   2.869   2.072  14.063 -1.2280 -1.1169 -0.6692
  278TMC3    H2 4257   2.684   1.777  13.835  0.5591 -0.5473 -1.0800
  278TMC3    C7 4258   2.645   1.936  14.033  0.2376  0.6019 -0.0086
  278TMC3    C8 4259   2.896   1.600  13.922 -0.2894  0.2364  0.1714
  278TMC3    O1 4260   2.601   1.822  14.062 -0.0169  0.4911  0.4199
  278TMC3    O2 4261   2.994   1.532  13.891 -0.2104  0.6012 -0.3102
  279MPD2     C 4262   2.457   1.386   0.398  0.0300 -0.1511 -0.5824
  279MPD2    C1 4263   2.405   1.514   0.380  0.1920 -1.2380  0.3213
  279MPD2    C2 4264   2.405   1.573   0.252  0.7336  0.1080  0.4882
  279MPD2    C3 4265   2.441   1.497   0.142 -0.0449  0.3315 -0.0859
  279MPD2    C4 4266   2.477   1.366   0.152 -0.1742 -0.0272 -0.0862
  279MPD2    C5 4267   2.492   1.316   0.285 -0.2375  0.3579 -0.0078
  279MPD2     H 4268   2.396   1.681   0.246  1.7271  0.2190  0.9736
  279MPD2    H1 4269   2.500   1.314   0.060 -0.5061 -1.4549  0.6436
  279MPD2    H2 4270   2.478   1.341   0.494  1.0187 -0.2544 -0.8467
  279MPD2    H3 4271   2.540   1.219   0.293 -2.6832 -0.8180  0.2880
  279MPD2     N 4272   2.428   1.544   0.008 -0.1799 -0.1284 -0.1490
  279MPD2    H5 4273   2.448   1.487  17.669 -0.9923  0.3214 -0.6664
  279MPD2    N1 4274   2.375   1.594   0.493  0.8742  0.0785  0.3188
  279MPD2    H7 4275   2.406   1.552   0.580  1.0144 -0.9376 -0.2276
  280TMC3    C1 4276   2.225   1.772   0.397 -0.4104 -0.6520 -0.0570
  280TMC3    C2 4277   2.147   1.698   0.316 -0.2116  0.3689  0.9594
  280TMC3    C3 4278   2.053   1.752   0.238 -0.4652  0.3731  0.1970
  280TMC3    C4 4279   2.204   1.908   0.413 -0.2354  0.3199  0.0603
  280TMC3    C5 4280   2.091   1.964   0.348 -0.6282 -0.2330  0.2162
  280TMC3    C6 4281   2.023   1.893   0.257  0.1252  0.0329  0.3197
  280TMC3     C 4282   2.300   1.707   0.508 -0.1200 -0.9623  0.0619
  280TMC3     O 4283   2.304   1.778   0.608 -0.1266 -0.3671  0.1938
  280TMC3     H 4284   2.173   1.593   0.310  2.2880  1.0030  0.6636
  280TMC3    H1 4285   2.272   1.964   0.476 -0.0598  0.6197 -0.3953
  280TMC3    H2 4286   1.948   1.934   0.190  1.6165  0.9795 -0.7793
  280TMC3    C7 4287   2.065   2.114   0.360  0.1443  0.2346 -0.6019
  280TMC3    C8 4288   2.023   1.697   0.106  0.0592  0.8016 -0.9030
  280TMC3    O1 4289   2.127   2.173   0.447 -0.0968 -0.1321  0.7418
  280TMC3    O2 4290   1.955   1.762   0.024  0.0364 -0.0778 -0.1495
  281TMC3    C1 4291   1.075   2.571  13.909  0.2866  0.5431  0.7722
  281TMC3    C2 4292   1.149   2.670  13.846 -0.5015 -0.0736 -0.1469
  281TMC3    C3 4293   1.256   2.623  13.769  0.2562 -0.4889  0.4067
  281TMC3    C4 4294   1.107   2.439  13.913  0.2118 -0.5030  0.0824
  281TMC3    C5 4295   1.229   2.406  13.859 -0.1540  0.3442  0.7126
  281TMC3    C6 4296   1.305   2.498  13.788  0.0698  0.1168 -0.6849
  281TMC3     C 4297   0.951   2.606  13.973  0.1073  0.2955 -0.3229
  281TMC3     O 4298   0.888   2.506  14.009  0.2986  0.2823  1.1076
  281TMC3     H 4299   1.119   2.774  13.839  1.5307  0.3127 -3.1913
  281TMC3    H1 4300   1.039   2.373  13.965 -2.1415  1.0219 -1.0933
  281TMC3    H2 4301   1.396   2.458  13.743  0.3343  1.9326 -1.7488
  281TMC3    C7 4302   1.296   2.286  13.890 -0.2845  1.0051 -0.0496
  281TMC3    C8 4303   1.361   2.711  13.710  0.4250  0.0111  0.5509
  281TMC3    O1 4304   1.417   2.289  13.898  0.4841 -0.1199  0.1093
  281TMC3    O2 4305   1.474   2.664  13.707 -0.1008  0.0723 -0.4642
  282MPD2     C 4306   3.002   3.083  14.964 -0.1511  0.6362  0.2509
  282MPD2    C1 4307   2.950   3.213  14.976  1.2353 -0.4366 -0.2105
  282MPD2    C2 4308   2.907   3.266  14.856  0.2321 -0.0504 -0.6067
  282MPD2    C3 4309   2.898   3.186  14.739 -0.7653 -0.1014  0.3188
  282MPD2    C4 4310   2.951   3.060  14.730  1.0201  0.8830 -1.0138
  282MPD2    C5 4311   3.021   3.022  14.841 -0.2992  0.1076 -0.4363
  282MPD2     H 4312   2.883   3.371  14.846 -0.3320 -0.1215  0.0499
  282MPD2    H1 4313   2.953   3.004  14.637 -0.9863  0.9609 -1.1019
  282MPD2    H2 4314   3.060   3.044  15.047 -1.1384  1.1403  1.1734
  282MPD2    H3 4315   3.077   2.929  14.834 -0.9622 -0.4066  1.0848
  282MPD2     N 4316   2.822   3.234  14.627 -0.2092 -0.4577 -0.2107
  282MPD2    H5 4317   2.789   3.330  14.631 -0.1238 -0.4731  0.8183
  282MPD2    N1 4318   2.936   3.285  15.093 -0.1144 -0.3452  0.3526
  282MPD2    H7 4319   2.909   3.383  15.091 -1.8735 -0.7773  3.1912
  283TMC3    C1 4320   2.908   3.313  15.328  0.4795 -0.0694 -0.0266
  283TMC3    C2 4321   2.933   3.452  15.321  0.4485 -0.0835  0.1462
  283TMC3    C3 4322   2.907   3.525  15.433  0.4056  0.0356  0.2984
  283TMC3    C4 4323   2.843   3.259  15.433  0.1037  0.2659 -0.0888
  283TMC3    C5 4324   2.826   3.343  15.541  1.0522  0.4567 -0.9283
  283TMC3    C6 4325   2.843   3.478  15.539  0.2293  0.1207 -0.4253
  283TMC3     C 4326   2.924   3.222  15.216  0.4880  0.2338 -0.3658
  283TMC3     O 4327   2.905   3.104  15.241  0.6879  0.2531  0.0282
  283TMC3     H 4328   3.001   3.491  15.247  1.3073 -1.2545  0.3199
  283TMC3    H1 4329   2.792   3.163  15.429  0.8832 -0.2828  2.3584
  283TMC3    H2 4330   2.827   3.533  15.631  2.6849 -1.0736  0.6952
  283TMC3    C7 4331   2.725   3.303  15.640 -0.0897 -0.1108 -0.0152
  283TMC3    C8 4332   2.968   3.656  15.455 -0.1424  0.0355  0.2115
  283TMC3    O1 4333   2.647   3.389  15.673  0.2498  0.0003  0.6665
  283TMC3    O2 4334   2.976   3.701  15.571  0.2502 -0.1644  0.1595
  284MPD2     C 4335   1.124   2.652  12.798 -0.0367  0.4639  0.1041
  284MPD2    C1 4336   1.195   2.632  12.677  0.5383  0.2154 -0.0836
  284MPD2    C2 4337   1.306   2.547  12.684 -0.3041  0.4112  0.0209
  284MPD2    C3 4338   1.347   2.486  12.805 -0.1605 -0.4412  0.3270
  284MPD2    C4 4339   1.271   2.507  12.919 -0.0937  0.4145  0.3349
  284MPD2    C5 4340   1.163   2.590  12.908 -0.2142  0.2987 -0.1913
  284MPD2     H 4341   1.353   2.521  12.590 -0.8822  0.1301 -0.1943
  284MPD2    H1 4342   1.300   2.457  13.011  3.2406  3.0814  0.7176
  284MPD2    H2 4343   1.037   2.718  12.798  0.0552  0.5717  1.4427
  284MPD2    H3 4344   1.096   2.609  12.991 -2.4967 -0.8384 -1.7684
  284MPD2     N 4345   1.459   2.402  12.815  0.5786 -0.1438 -0.0815
  284MPD2    H5 4346   1.494   2.378  12.907  0.6819 -2.5971 -0.7647
  284MPD2    N1 4347   1.174   2.697  12.556  0.4633 -0.0840  0.6459
  284MPD2    H7 4348   1.248   2.683  12.489 -0.1210  0.7618 -0.1847
  285TMC3    C1 4349   1.084   2.856  12.406  0.6119 -0.0527 -0.4108
  285TMC3    C2 4350   1.191   2.838  12.329 -0.0703 -0.6045 -0.0184
  285TMC3    C3 4351   1.195   2.930  12.221  0.4197 -0.0697 -0.4537
  285TMC3    C4 4352   0.979   2.937  12.370  0.3539  0.0103  0.3371
  285TMC3    C5 4353   0.982   3.016  12.258 -0.2225  0.3880 -0.0220
  285TMC3    C6 4354   1.100   3.025  12.190  0.7230  0.1123 -0.1982
  285TMC3     C 4355   1.072   2.783  12.530  0.6708  0.6111 -0.4986
  285TMC3     O 4356   0.970   2.776  12.595 -0.1160  0.1811  0.5275
  285TMC3     H 4357   1.275   2.772  12.349  1.2178  0.3720 -2.1461
  285TMC3    H1 4358   0.890   2.939  12.432  0.0384  1.3152 -0.1503
  285TMC3    H2 4359   1.102   3.092  12.105  2.8909 -1.9828 -1.7923
  285TMC3    C7 4360   0.886   3.118  12.232  0.6313 -0.5542  0.7887
  285TMC3    C8 4361   1.300   2.907  12.120  0.5362  0.4177 -0.6101
  285TMC3    O1 4362   0.931   3.222  12.182  0.0827 -0.3802  0.4684
  285TMC3    O2 4363   1.342   2.792  12.117  0.2153  0.2658 -0.3620
  286MPD2     C 4364   1.676   1.766   1.871 -0.1673  0.8496 -0.3614
  286MPD2    C1 4365   1.599   1.740   1.754 -0.3559 -0.2277  0.1173
  286MPD2    C2 4366   1.657   1.651   1.662 -0.0111  0.3015  0.1649
  286MPD2    C3 4367   1.762   1.564   1.695 -0.3564 -0.2836 -0.1362
  286MPD2    C4 4368   1.834   1.597   1.807 -0.3089  0.1167 -0.3105
  286MPD2    C5 4369   1.791   1.693   1.894  0.5886 -0.1143  0.0778
  286MPD2     H 4370   1.605   1.640   1.567 -0.4521 -1.0952  0.5685
  286MPD2    H1 4371   1.926   1.542   1.821  0.5507  1.7137  0.3468
  286MPD2    H2 4372   1.652   1.838   1.948 -0.4632 -0.1518  0.4794
  286MPD2    H3 4373   1.842   1.700   1.990 -0.3821 -5.2075  0.9751
  286MPD2     N 4374   1.820   1.460   1.620  0.0183  0.5871 -0.8977
  286MPD2    H5 4375   1.895   1.406   1.663 -1.5136 -0.6224  0.2686
  286MPD2    N1 4376   1.489   1.816   1.718  0.0124  0.3716 -0.0031
  286MPD2    H7 4377   1.442   1.795   1.631  1.5222  1.4000 -1.0711
  287TMC3    C1 4378   1.838   1.296   1.462  0.3262  0.0105  0.2371
  287TMC3    C2 4379   1.790   1.208   1.375  0.7671 -0.3241 -0.5341
  287TMC3    C3 4380   1.860   1.095   1.329 -0.2643 -0.3612 -0.3187
  287TMC3    C4 4381   1.970   1.296   1.491  0.0752  0.1980 -0.8196
  287TMC3    C5 4382   2.046   1.192   1.432 -0.7774 -0.5092  0.6183
  287TMC3    C6 4383   1.996   1.089   1.354  0.4844  0.4144 -0.0820
  287TMC3     C 4384   1.764   1.404   1.510  0.0602  0.5366 -0.0671
  287TMC3     O 4385   1.666   1.438   1.451  0.0403 -0.2334  0.0543
  287TMC3     H 4386   1.684   1.224   1.359  0.5906 -1.1186 -0.1289
  287TMC3    H1 4387   2.017   1.364   1.562 -1.3476 -1.6017  1.8827
  287TMC3    H2 4388   2.061   1.038   1.283  0.6430 -1.0799  1.1370
  287TMC3    C7 4389   2.189   1.190   1.461  0.0101  0.8344  0.1996
  287TMC3    C8 4390   1.803   0.991   1.241  0.4043 -0.0521  0.0247
  287TMC3    O1 4391   2.242   1.288   1.515  0.3123 -0.1460  0.3972
  287TMC3    O2 4392   1.872   0.893   1.233  0.2857  0.6512 -0.6789
  288TMC3    C1 4393   3.291   1.553  14.391  0.2119 -0.7740 -0.1047
  288TMC3    C2 4394   3.204   1.603  14.492  0.2788  0.2468  0.6046
  288TMC3    C3 4395   3.076   1.544  14.481  0.0919  0.5290 -0.1879
  288TMC3    C4 4396   3.259   1.452  14.307  0.6638  0.2869  0.6880
  288TMC3    C5 4397   3.133   1.401  14.301 -0.5840  0.2924 -0.0142
  288TMC3    C6 4398   3.040   1.448  14.389 -0.1442 -0.2432 -0.6669
  288TMC3     C 4399   3.429   1.598  14.387 -0.2251 -0.1725  0.5745
  288TMC3     O 4400   3.471   1.673  14.482  0.4183 -0.1592 -0.3704
  288TMC3     H 4401   3.229   1.679  14.566  0.4896  1.0788 -0.3161
  288TMC3    H1 4402   3.340   1.408  14.250 -2.4244 -2.1283 -1.8900
  288TMC3    H2 4403   2.943   1.399  14.391 -0.7303  0.9572  0.4558
  288TMC3    C7 4404   3.123   1.269  14.244  0.2849 -0.6473 -0.0618
  288TMC3    C8 4405   2.981   1.568  14.585  0.2241 -0.0886 -1.2841
  288TMC3    O1 4406   3.034   1.197  14.287 -0.3810 -0.0720 -0.2294
  288TMC3    O2 4407   2.992   1.679  14.635 -0.6364 -0.6418  0.1765
  289MPD2     C 4408   3.009   0.336  14.652 -0.4100  0.2534  0.1200
  289MPD2    C1 4409   2.988   0.473  14.632 -0.5332 -0.1407 -0.2825
  289MPD2    C2 4410   2.887   0.509  14.543  0.0911  0.7148 -0.0143
  289MPD2    C3 4411   2.802   0.418  14.497 -0.5113 -0.0558  0.1234
  289MPD2    C4 4412   2.819   0.287  14.530 -0.5578  0.7069 -0.8826
  289MPD2    C5 4413   2.921   0.236  14.607  0.1183  0.1494 -0.9232
  289MPD2     H 4414   2.870   0.614  14.521  1.4703  0.2806 -3.2102
  289MPD2    H1 4415   2.743   0.215  14.501 -0.0209 -0.1734 -0.1275
  289MPD2    H2 4416   3.092   0.300  14.713 -0.6063 -2.0839 -1.0147
  289MPD2    H3 4417   2.920   0.130  14.629 -2.8278  0.9438  2.7258
  289MPD2     N 4418   2.683   0.456  14.425  0.7622  0.7877  0.0171
  289MPD2    H5 4419   2.625   0.376  14.401  1.2176  1.2688 -2.6024
  289MPD2    N1 4420   3.075   0.561  14.704 -0.1172 -1.2180  0.5769
  289MPD2    H7 4421   3.139   0.521  14.772 -0.5145 -3.2360 -0.2344
  290TMC3    C1 4422   2.520   0.581  14.308 -0.0003 -0.6239  0.2288
  290TMC3    C2 4423   2.476   0.710  14.289 -0.0515 -0.8423  0.5101
  290TMC3    C3 4424   2.385   0.734  14.186 -0.1104  0.2664  0.6179
  290TMC3    C4 4425   2.472   0.474  14.237 -0.4052 -0.4645 -0.1128
  290TMC3    C5 4426   2.382   0.501  14.135  0.2019 -1.9633  0.5547
  290TMC3    C6 4427   2.336   0.627  14.111  0.2280  0.1715 -1.2038
  290TMC3     C 4428   2.622   0.579  14.415  0.0731 -0.2377  0.8752
  290TMC3     O 4429   2.666   0.683  14.462 -0.2467 -0.0787  0.6168
  290TMC3     H 4430   2.512   0.794  14.347 -2.0976  0.1703  0.3052
  290TMC3    H1 4431   2.493   0.371  14.267 -2.8723 -0.5994  1.1486
  290TMC3    H2 4432   2.274   0.648  14.024 -3.4193 -3.2534  0.5637
  290TMC3    C7 4433   2.321   0.406  14.048 -0.2608 -0.6729  0.2530
  290TMC3    C8 4434   2.298   0.851  14.194 -0.0779  0.0394  0.6797
  290TMC3    O1 4435   2.207   0.430  14.015  0.0677 -0.2410 -0.0763
  290TMC3    O2 4436   2.185   0.833  14.155  0.5902 -0.8091  0.0458
  291MPD2     C 4437   1.946   0.401   0.309  0.3563 -0.0464  0.8250
  291MPD2    C1 4438   2.016   0.304   0.376  0.4854 -0.1321  0.1091
  291MPD2    C2 4439   2.128   0.351   0.449 -0.5534  0.4187 -0.5271
  291MPD2    C3 4440   2.147   0.483   0.476 -0.4238 -0.8686  0.0261
  291MPD2    C4 4441   2.080   0.577   0.398 -0.3895  0.1990 -0.5743
  291MPD2    C5 4442   1.983   0.532   0.309  0.4323  0.0836 -0.5626
  291MPD2     H 4443   2.189   0.273   0.493  1.1692  1.6935 -0.6520
  291MPD2    H1 4444   2.099   0.683   0.408 -2.9227  0.2320  3.4647
  291MPD2    H2 4445   1.858   0.388   0.247  0.4137  0.9858  0.5222
  291MPD2    H3 4446   1.926   0.602   0.250  0.0922  1.5848  1.5588
  291MPD2     N 4447   2.224   0.527   0.582  0.4976  0.0542 -0.0076
  291MPD2    H5 4448   2.226   0.626   0.605  1.1894 -0.4164  2.0147
  291MPD2    N1 4449   1.986   0.166   0.376  0.2493  0.0780 -0.2260
  291MPD2    H7 4450   2.037   0.114   0.447 -0.7705 -0.9641 -0.2548
  292TMC3    C1 4451   1.870   4.710   0.311 -0.2404 -0.7306 -0.6851
  292TMC3    C2 4452   1.870   4.658   0.437 -0.0709 -0.4701 -0.7596
  292TMC3    C3 4453   1.844   4.525   0.459  0.1758  0.2694 -0.3580
  292TMC3    C4 4454   1.823   4.632   0.201 -0.5581 -0.5064 -0.3400
  292TMC3    C5 4455   1.801   4.496   0.228  0.8334  0.2916 -0.0249
  292TMC3    C6 4456   1.807   4.449   0.359  0.4039 -0.2650 -0.1514
  292TMC3     C 4457   1.899   0.112   0.287 -0.0898 -0.6334  0.3776
  292TMC3     O 4458   1.849   0.151   0.181 -0.0901 -0.2655  0.4913
  292TMC3     H 4459   1.892   4.723   0.521 -1.8229 -0.6465 -0.1672
  292TMC3    H1 4460   1.813   4.669   0.100  0.0108  0.7616  0.0667
  292TMC3    H2 4461   1.807   4.341   0.362 -3.8083 -0.2652  0.7951
  292TMC3    C7 4462   1.710   4.429   0.135  0.8046  0.4775  0.2627
  292TMC3    C8 4463   1.896   4.462   0.576  0.1510 -0.1437 -0.1736
  292TMC3    O1 4464   1.735   4.436   0.013 -0.0647  0.3321  0.3157
  292TMC3    O2 4465   1.991   4.514   0.636 -0.1573 -0.3360 -1.0822
  293MPD2     C 4466   3.696   1.994  12.925 -0.3086  0.2829 -0.2771
  293MPD2    C1 4467   3.768   2.107  12.902 -0.9352 -0.0600  0.3229
  293MPD2    C2 4468   3.849   2.153  13.002 -0.3829 -0.1570 -0.3866
  293MPD2    C3 4469   3.849   2.088  13.130 -0.1488 -0.0479  1.1707
  293MPD2    C4 4470   3.770   1.984  13.152 -1.3523 -0.5225 -0.2188
  293MPD2    C5 4471   3.701   1.927  13.045 -0.6264 -0.6287 -0.7691
  293MPD2     H 4472   3.921   2.232  12.981 -0.6279  0.9777  3.1080
  293MPD2    H1 4473   3.759   1.924  13.242 -2.2685  1.5914  1.1121
  293MPD2    H2 4474   3.631   1.956  12.847 -0.4844 -0.2896  0.1589
  293MPD2    H3 4475   3.657   1.829  13.058 -2.0292 -0.2907 -2.8848
  293MPD2     N 4476   3.924   2.148  13.233 -0.1671  0.7381  0.1732
  293MPD2    H5 4477   3.979   2.229  13.207  0.9697  0.5660  2.0955
  293MPD2    N1 4478   3.762   2.180  12.776  0.5185 -0.0527 -0.4049
  293MPD2    H7 4479   3.834   2.250  12.759  1.1019 -1.2127 -2.6970
  294TMC3    C1 4480   3.668   2.209  12.546 -0.1247  0.3582  0.3176
  294TMC3    C2 4481   3.556   2.180  12.470  0.4616 -0.0752  0.6361
  294TMC3    C3 4482   3.553   2.230  12.345  0.1901  0.5699 -0.2533
  294TMC3    C4 4483   3.773   2.286  12.495  0.1889 -0.2142  0.3090
  294TMC3    C5 4484   3.760   2.327  12.370 -1.2138 -0.3944 -0.0807
  294TMC3    C6 4485   3.650   2.306  12.299  0.4316  0.3638 -0.0190
  294TMC3     C 4486   3.661   2.157  12.686  0.5661  0.0347 -0.3281
  294TMC3     O 4487   3.555   2.093  12.711  0.2243 -0.0042 -0.0517
  294TMC3     H 4488   3.463   2.136  12.502 -0.2789  0.5516 -0.6233
  294TMC3    H1 4489   3.857   2.310  12.560  1.5710 -2.0168 -0.7990
  294TMC3    H2 4490   3.643   2.336  12.195  1.3366 -0.6364 -0.3707
  294TMC3    C7 4491   3.853   2.409  12.308 -0.6470 -0.4953 -0.5957
  294TMC3    C8 4492   3.430   2.213  12.265  0.9416 -0.0759  0.0610
  294TMC3    O1 4493   3.907   2.491  12.386  1.1542  0.2210  0.0231
  294TMC3    O2 4494   3.398   2.299  12.186 -0.4073  0.1838 -0.0343
  295MPD2     C 4495   4.133   0.353   0.945  0.2516  0.5869 -0.4743
  295MPD2    C1 4496   4.143   0.484   0.901  0.1921 -0.3356  0.4326
  295MPD2    C2 4497   4.135   0.586   0.993 -0.2303  0.2388  0.5450
  295MPD2    C3 4498   4.105   0.563   1.126 -0.4385 -0.4504  0.1367
  295MPD2    C4 4499   4.090   0.433   1.168  0.4755 -0.5421 -0.0577
  295MPD2    C5 4500   4.097   0.334   1.074  1.0687  0.3055 -0.2722
  295MPD2     H 4501   4.150   0.686   0.953 -0.8188  1.0771  2.4039
  295MPD2    H1 4502   4.055   0.406   1.267  4.2582 -2.9892  0.6575
  295MPD2    H2 4503   4.142   0.266   0.880  3.5018  0.4356  0.1553
  295MPD2    H3 4504   4.079   0.235   1.112 -0.8191  0.4144 -0.8886
  295MPD2     N 4505   4.093   0.650   1.233 -0.3959  0.1351 -0.1548
  295MPD2    H5 4506   4.063   0.612   1.321 -0.8086  0.6866 -0.0609
  295MPD2    N1 4507   4.168   0.515   0.760 -0.8187  0.3268  0.0676
  295MPD2    H7 4508   4.196   0.611   0.744  0.9536 -0.2918 -0.5903
  296TMC3    C1 4509   4.092   0.847   1.352 -0.4582  0.6879 -0.0263
  296TMC3    C2 4510   4.191   0.938   1.384 -0.5636  0.7815 -0.0116
  296TMC3    C3 4511   4.172   0.995   1.503  0.4172 -0.3313 -0.5019
  296TMC3    C4 4512   3.996   0.800   1.433 -0.8257  0.0116 -0.3563
  296TMC3    C5 4513   3.995   0.850   1.558  0.4645  0.3065  0.7376
  296TMC3    C6 4514   4.079   0.948   1.593  0.0172 -0.7492  0.3406
  296TMC3     C 4515   4.112   0.787   1.222  0.2570  0.3953  0.5242
  296TMC3     O 4516   4.154   0.850   1.124  0.1894 -0.1631 -0.4068
  296TMC3     H 4517   4.248   0.993   1.309  2.1863 -1.8336  0.1288
  296TMC3    H1 4518   3.925   0.728   1.394 -1.2464 -0.1174  0.6502
  296TMC3    H2 4519   4.076   0.990   1.693  2.4438 -1.5137  0.7279
  296TMC3    C7 4520   3.891   0.803   1.653 -0.0138  0.9089  0.2567
  296TMC3    C8 4521   4.289   1.077   1.544 -1.4789 -0.8343 -0.8527
  296TMC3    O1 4522   3.889   0.864   1.757 -0.1644  0.1140 -0.6725
  296TMC3    O2 4523   4.394   1.050   1.488 -0.4334 -0.2811  0.1338
  297MPD2     C 4524   1.665   2.369  16.544 -0.3937 -1.0150  0.1262
  297MPD2    C1 4525   1.678   2.421  16.415 -0.0920  0.2396 -0.1196
  297MPD2    C2 4526   1.744   2.538  16.388 -0.4115 -0.3200 -0.6145
  297MPD2    C3 4527   1.809   2.607  16.492  0.5571  0.0411  0.0683
  297MPD2    C4 4528   1.804   2.552  16.620 -0.2327  0.1983 -0.4287
  297MPD2    C5 4529   1.738   2.430  16.643  0.5798  0.2488 -0.5390
  297MPD2     H 4530   1.762   2.567  16.285  1.0848 -0.6520 -0.4478
  297MPD2    H1 4531   1.854   2.599  16.704  0.1933 -2.6764  0.9142
  297MPD2    H2 4532   1.622   2.279  16.586 -1.1349 -0.5754  0.3336
  297MPD2    H3 4533   1.752   2.388  16.742 -1.1264  1.7744  0.3330
  297MPD2     N 4534   1.897   2.706  16.453  0.4310 -0.3646 -0.0898
  297MPD2    H5 4535   1.925   2.725  16.357  1.2271 -2.7295 -0.3296
  297MPD2    N1 4536   1.611   2.357  16.308  0.5771 -0.4396  0.6565
  297MPD2    H7 4537   1.615   2.407  16.220 -0.5734 -0.2383  0.7232
  298TMC3    C1 4538   1.479   2.210  16.186 -0.3258  0.0032  0.2653
  298TMC3    C2 4539   1.501   2.305  16.088 -0.0937  0.2422  0.3453
  298TMC3    C3 4540   1.401   2.322  15.997 -0.5484  0.6065 -0.3971
  298TMC3    C4 4541   1.359   2.145  16.196 -0.7460  0.6543  0.1347
  298TMC3    C5 4542   1.254   2.177  16.119 -0.1248 -0.3546 -0.5348
  298TMC3    C6 4543   1.275   2.264  16.012 -0.4644 -0.1461  0.3298
  298TMC3     C 4544   1.545   2.235  16.309  0.8257 -0.3843 -0.2358
  298TMC3     O 4545   1.535   2.160  16.402 -0.3870  0.8286  0.2154
  298TMC3     H 4546   1.598   2.347  16.065 -0.6336  0.3304 -1.7167
  298TMC3    H1 4547   1.350   2.088  16.287 -0.2502 -3.1040 -2.1611
  298TMC3    H2 4548   1.192   2.280  15.944 -0.3303  0.3743  0.2875
  298TMC3    C7 4549   1.129   2.165  16.194  0.8797  1.1222 -0.4678
  298TMC3    C8 4550   1.426   2.407  15.874  0.1668  0.7344 -0.3047
  298TMC3    O1 4551   1.134   2.165  16.317  0.4012 -0.3384 -0.2920
  298TMC3    O2 4552   1.542   2.439  15.844  0.0284  0.3102 -0.0933
  299MPD2     C 4553   2.608   3.274  10.752 -1.0541  0.0380 -0.2463
  299MPD2    C1 4554   2.667   3.152  10.789 -0.1491  0.4061  0.1082
  299MPD2    C2 4555   2.593   3.036  10.753  0.0476  0.0779 -0.7926
  299MPD2    C3 4556   2.468   3.046  10.690  0.2919 -0.6962 -0.0394
  299MPD2    C4 4557   2.407   3.168  10.666 -0.7792 -0.2966  0.2359
  299MPD2    C5 4558   2.480   3.277  10.700 -0.0415  0.1266 -0.4964
  299MPD2     H 4559   2.635   2.937  10.763 -0.7033 -0.2060 -0.5041
  299MPD2    H1 4560   2.315   3.184  10.611 -0.4421  0.2117 -0.1790
  299MPD2    H2 4561   2.647   3.373  10.775 -1.1013 -0.7919  3.5023
  299MPD2    H3 4562   2.437   3.373  10.672 -0.8657 -0.2465 -0.4900
  299MPD2     N 4563   2.405   2.934  10.637 -0.2827  0.3445  0.0114
  299MPD2    H5 4564   2.318   2.948  10.586 -0.3051  1.0411  0.2480
  299MPD2    N1 4565   2.792   3.151  10.854  0.5308  0.3952 -0.5163
  299MPD2    H7 4566   2.843   3.238  10.845  1.5129 -0.2760 -1.4351
  300TMC3    C1 4567   2.336   2.710  10.620 -0.3000  0.6870  0.5542
  300TMC3    C2 4568   2.243   2.769  10.542 -0.0699 -0.1698  0.2231
  300TMC3    C3 4569   2.111   2.750  10.568 -0.2901 -0.2645 -0.3332
  300TMC3    C4 4570   2.304   2.617  10.716  0.0105 -0.0620 -0.0269
  300TMC3    C5 4571   2.169   2.615  10.743 -0.3552 -0.1838  0.4836
  300TMC3    C6 4572   2.071   2.684  10.679  0.4209  0.1842  0.6474
  300TMC3     C 4573   2.429   2.804  10.675  0.0479  1.1322 -0.0545
  300TMC3     O 4574   2.501   2.763  10.766  0.6263 -0.0181  0.2246
  300TMC3     H 4575   2.276   2.825  10.455  1.6238  0.1618  1.0785
  300TMC3    H1 4576   2.375   2.576  10.788  1.4776  1.1183 -0.8012
  300TMC3    H2 4577   1.968   2.690  10.714  0.3772  0.3726  0.4866
  300TMC3    C7 4578   2.148   2.516  10.849 -0.5803 -0.3883  0.2880
  300TMC3    C8 4579   2.046   2.862  10.522  0.6607 -0.2957 -0.0199
  300TMC3    O1 4580   2.227   2.428  10.853 -0.1764  0.6465  0.1615
  300TMC3    O2 4581   2.119   2.962  10.518  0.4065  0.8092  0.0121
  301MPD2     C 4582   3.666   2.984   1.598 -0.5356 -0.3697 -0.4909
  301MPD2    C1 4583   3.651   3.009   1.463 -0.6435 -0.0905 -0.3295
  301MPD2    C2 4584   3.720   2.926   1.375 -0.0604 -0.2988 -0.4815
  301MPD2    C3 4585   3.808   2.829   1.421 -0.0541 -0.8591 -0.0446
  301MPD2    C4 4586   3.825   2.810   1.554  0.1627  0.2461 -0.1063
  301MPD2    C5 4587   3.752   2.887   1.643 -0.3629 -0.1120  0.0855
  301MPD2     H 4588   3.702   2.936   1.269  1.0430 -1.2093 -0.7566
  301MPD2    H1 4589   3.896   2.736   1.588 -1.1667  0.2037  2.5721
  301MPD2    H2 4590   3.622   3.045   1.676  0.3041  1.1301 -1.1841
  301MPD2    H3 4591   3.767   2.857   1.746 -0.7663  0.4279  0.3030
  301MPD2     N 4592   3.881   2.740   1.338  0.1264  0.0719  0.1559
  301MPD2    H5 4593   3.931   2.667   1.387  0.8376 -0.0268 -0.7077
  301MPD2    N1 4594   3.567   3.114   1.416 -0.6674  0.6747 -0.1174
  301MPD2    H7 4595   3.552   3.114   1.316  1.0798 -1.8892 -0.3787
  302TMC3    C1 4596   3.994   2.678   1.135 -0.4505 -0.1147  0.5656
  302TMC3    C2 4597   4.108   2.614   1.186 -0.4154  0.4309  0.5614
  302TMC3    C3 4598   4.189   2.532   1.108  0.0212  0.7449  0.2404
  302TMC3    C4 4599   3.966   2.666   1.003  0.3380  0.0441 -0.4004
  302TMC3    C5 4600   4.050   2.586   0.929  0.0157 -0.2507  0.4312
  302TMC3    C6 4601   4.163   2.522   0.976 -0.1661 -0.2482  0.2250
  302TMC3     C 4602   3.893   2.762   1.204  0.1651  0.6899 -0.1042
  302TMC3     O 4603   3.839   2.841   1.128  0.2767 -0.3123 -0.0298
  302TMC3     H 4604   4.123   2.624   1.293 -1.2647  2.8502  0.4645
  302TMC3    H1 4605   3.875   2.707   0.962  0.3432 -0.7799 -1.2412
  302TMC3    H2 4606   4.214   2.450   0.912  0.3170  0.2442  0.0556
  302TMC3    C7 4607   4.021   2.562   0.790  0.0165  0.0852  0.1921
  302TMC3    C8 4608   4.278   2.438   1.168  0.1709  0.5969  0.3064
  302TMC3    O1 4609   4.064   2.459   0.740 -0.0036 -0.1170  0.1401
  302TMC3    O2 4610   4.368   2.386   1.101  0.0273  0.1227 -0.1162
  303MPD2     C 4611   4.446   1.718  11.176 -0.0708 -0.3653 -0.7082
  303MPD2    C1 4612   4.403   1.648  11.063  0.0166 -0.2201  1.0644
  303MPD2    C2 4613   4.436   1.695  10.934  0.1764  0.0062 -0.3648
  303MPD2    C3 4614   4.514   1.810  10.927 -0.1179  0.2312  0.3564
  303MPD2    C4 4615   4.527   1.891  11.039 -0.1562 -0.2696 -0.7281
  303MPD2    C5 4616   4.493   1.842  11.161  0.0986 -0.7476  0.5105
  303MPD2     H 4617   4.422   1.640  10.842  0.1528 -0.0789 -0.3113
  303MPD2    H1 4618   4.577   1.987  11.043  1.6889 -1.1856 -1.4262
  303MPD2    H2 4619   4.419   1.686  11.276 -1.7179  2.1086 -0.3618
  303MPD2    H3 4620   4.521   1.898  11.250  1.2422  0.1233 -0.4051
  303MPD2     N 4621   4.583   1.851  10.812 -0.4527 -0.3570 -0.3422
  303MPD2    H5 4622   4.624   1.943  10.814 -1.2053 -0.0377  0.1949
  303MPD2    N1 4623   4.329   1.524  11.086 -0.9949 -1.0418  0.2283
  303MPD2    H7 4624   4.316   1.499  11.184  0.1381 -0.7564  0.4510
  304TMC3    C1 4625   4.212   1.331  11.058  0.5833 -0.3396  0.2536
  304TMC3    C2 4626   4.107   1.279  11.000  0.5501  0.5480 -0.4290
  304TMC3    C3 4627   4.071   1.148  11.022  0.6493  0.1361 -0.2747
  304TMC3    C4 4628   4.305   1.251  11.112  0.0279  0.0912 -0.1029
  304TMC3    C5 4629   4.286   1.112  11.116 -0.3465  0.8687  0.1469
  304TMC3    C6 4630   4.158   1.068  11.087  0.4029 -0.0422  0.6082
  304TMC3     C 4631   4.272   1.447  10.998 -0.3540 -0.0583  0.5816
  304TMC3     O 4632   4.256   1.462  10.877  0.2546 -0.1858 -0.0449
  304TMC3     H 4633   4.047   1.346  10.940  3.3184  2.7742 -0.6926
  304TMC3    H1 4634   4.407   1.285  11.120  0.9549 -2.5263 -0.7294
  304TMC3    H2 4635   4.148   0.960  11.084 -1.1183  0.1003  0.5413
  304TMC3    C7 4636   4.384   1.054  11.022 -0.1710 -0.5449  0.0415
  304TMC3    C8 4637   4.038   1.095  10.892 -0.6284  0.3033 -1.0684
  304TMC3    O1 4638   4.387   1.115  10.915  0.1969 -0.6039  0.3636
  304TMC3    O2 4639   4.041   1.167  10.792  0.5771 -0.2238 -0.5290
  305MPD2     C 4640   3.013   4.230  14.000 -0.3502 -0.1233 -0.7503
  305MPD2    C1 4641   3.016   4.099  14.017  0.3506 -0.5654  0.0244
  305MPD2    C2 4642   2.991   4.012  13.913  0.2545 -0.2973  0.5097
  305MPD2    C3 4643   2.947   4.066  13.797  0.3614 -0.3095  0.4372
  305MPD2    C4 4644   2.945   4.207  13.778 -0.2446  0.3979  0.5547
  305MPD2    C5 4645   2.981   4.287  13.881  0.3527 -0.2454 -0.2821
  305MPD2     H 4646   2.998   3.906  13.932 -0.1762 -0.8423 -2.4208
  305MPD2    H1 4647   2.909   4.252  13.686 -0.5910 -2.3427 -0.6368
  305MPD2    H2 4648   3.033   4.297  14.082 -0.5926 -1.4848  0.4138
  305MPD2    H3 4649   2.977   4.395  13.867 -2.9344 -0.2056  1.0019
  305MPD2     N 4650   2.907   3.998  13.679 -0.3609  0.5223 -0.3015
  305MPD2    H5 4651   2.881   4.056  13.600 -1.9105 -0.3904 -0.4695
  305MPD2    N1 4652   3.058   4.063  14.143 -0.5998  0.2623 -0.4504
  305MPD2    H7 4653   3.080   4.134  14.212  1.4930  0.2492 -1.1222
  306TMC3    C1 4654   3.148   3.912  14.296 -0.4472 -0.1761 -0.0447
  306TMC3    C2 4655   3.128   3.796  14.365 -0.1062 -0.6019 -0.5600
  306TMC3    C3 4656   3.195   3.793  14.484  0.0024 -0.2721  0.2943
  306TMC3    C4 4657   3.232   4.014  14.322 -0.3038 -0.4902 -0.0923
  306TMC3    C5 4658   3.297   4.003  14.443 -0.4566 -0.3362 -0.0576
  306TMC3    C6 4659   3.286   3.890  14.515  0.0948  0.1723  0.1322
  306TMC3     C 4660   3.070   3.930  14.178 -0.1102  0.6469  0.8815
  306TMC3     O 4661   3.021   3.829  14.123  0.2490 -0.1234 -0.2551
  306TMC3     H 4662   3.039   3.737  14.346  0.6418 -2.3514  1.4195
  306TMC3    H1 4663   3.257   4.096  14.256 -0.3443 -2.2964 -2.3268
  306TMC3    H2 4664   3.327   3.891  14.615 -3.3973 -1.2780  1.5541
  306TMC3    C7 4665   3.302   4.139  14.512  0.3533 -0.6309  0.0660
  306TMC3    C8 4666   3.187   3.666  14.558  0.0976  0.2642  0.0895
  306TMC3    O1 4667   3.252   4.236  14.460  0.0123 -0.3553  0.0492
  306TMC3    O2 4668   3.131   3.569  14.507 -0.2572  0.0222  0.0725
  307MPD2     C 4669   0.973   1.620   0.287 -0.0564 -0.5842  0.1861
  307MPD2    C1 4670   0.950   1.755   0.282 -0.2309  0.4717 -0.4142
  307MPD2    C2 4671   0.912   1.832   0.393 -0.7866 -0.0977 -0.3180
  307MPD2    C3 4672   0.882   1.763   0.508 -0.3599  0.2075  1.3796
  307MPD2    C4 4673   0.913   1.630   0.514  0.2880 -0.7585  0.2255
  307MPD2    C5 4674   0.958   1.558   0.408 -0.0614  0.0584  0.5176
  307MPD2     H 4675   0.893   1.938   0.389  0.6180  0.1208 -1.1620
  307MPD2    H1 4676   0.904   1.573   0.606  0.9043  0.5479  1.0886
  307MPD2    H2 4677   1.010   1.561   0.204  0.7659  1.7760 -1.1085
  307MPD2    H3 4678   0.986   1.455   0.427 -2.9211 -1.0478 -1.1705
  307MPD2     N 4679   0.813   1.831   0.612 -0.3083  0.2617  0.3539
  307MPD2    H5 4680   0.781   1.924   0.587 -1.2742  0.9011  4.1105
  307MPD2    N1 4681   0.959   1.821   0.157 -0.1234 -0.2827  0.2228
  307MPD2    H7 4682   0.954   1.922   0.160  0.9617 -0.2025 -0.6270
  308TMC3    C1 4683   0.468   1.854   0.878 -0.7133  0.4377  0.0022
  308TMC3    C2 4684   0.452   1.984   0.855  0.6473  0.6188  0.2663
  308TMC3    C3 4685   0.567   2.049   0.815 -0.3032  0.2121 -0.0949
  308TMC3    C4 4686   0.585   1.779   0.862  0.0479 -0.5203  0.8274
  308TMC3    C5 4687   0.690   1.854   0.812 -0.0095  0.5096 -0.1864
  308TMC3    C6 4688   0.689   1.987   0.799 -0.4461 -0.2355 -0.0504
  308TMC3     C 4689   0.362   1.791   0.963 -0.9137 -0.7322 -0.4655
  308TMC3     O 4690   0.402   1.699   1.026  0.3683 -0.4765 -0.5531
  308TMC3     H 4691   0.354   2.031   0.849  0.7304  0.5265 -1.7272
  308TMC3    H1 4692   0.588   1.672   0.878  0.7223 -0.5240  0.6958
  308TMC3    H2 4693   0.778   2.038   0.764  0.3488 -0.6862  1.3260
  308TMC3    C7 4694   0.780   1.778   0.735 -0.3213  0.5769 -0.4229
  308TMC3    C8 4695   0.563   2.193   0.835  0.1976 -0.7143 -0.1513
  308TMC3    O1 4696   0.831   1.679   0.787  0.3273  0.1111  0.6660
  308TMC3    O2 4697   0.477   2.239   0.911  0.9027 -0.2220  0.5610
  309MPD2     C 4698   4.586   2.025  17.488  0.6108  0.2285 -0.5094
  309MPD2    C1 4699   4.525   2.121  17.406  0.4320  0.0029 -0.3603
  309MPD2    C2 4700   4.402   2.166  17.442  0.2743 -0.0691  0.3316
  309MPD2    C3 4701   4.338   2.124  17.557 -0.4930 -0.4943  1.0812
  309MPD2    C4 4702   4.407   2.042  17.640 -0.1386 -0.2800 -0.7942
  309MPD2    C5 4703   4.527   1.984  17.605  0.5038 -0.3346  0.4675
  309MPD2     H 4704   4.358   2.243  17.379  1.6367 -1.2775 -2.0881
  309MPD2    H1 4705   4.369   2.020  17.739 -0.4946  2.7575 -0.2489
  309MPD2    H2 4706   4.679   1.974  17.467 -0.0362  0.0632 -3.0223
  309MPD2    H3 4707   4.575   1.909  17.666  0.7150 -1.3027 -0.8929
  309MPD2     N 4708   4.216   2.182  17.609  0.3385 -0.0120 -0.4170
  309MPD2    H5 4709   4.179   2.129  17.688  1.4952  0.1599  0.2313
  309MPD2    N1 4710   4.574   2.166  17.279  0.5297  0.3820 -0.4288
  309MPD2    H7 4711   4.508   2.214  17.218 -2.0505 -1.6447  0.7620
  310TMC3    C1 4712   4.712   2.152  17.087 -0.2978 -0.6032  0.0313
  310TMC3    C2 4713   4.613   2.203  17.007 -1.0054 -0.0352 -0.0435
  310TMC3    C3 4714   4.638   2.208  16.875  0.4796 -0.6985 -0.3041
  310TMC3    C4 4715   0.105   2.126  17.038  0.0033  0.0978 -0.4079
  310TMC3    C5 4716   0.120   2.128  16.897 -0.2768  0.8319 -0.2219
  310TMC3    C6 4717   0.013   2.170  16.820  0.5833  0.8776  0.1985
  310TMC3     C 4718   4.692   2.124  17.223  0.6298  0.0356  0.3235
  310TMC3     O 4719   0.034   2.047  17.274 -0.6313  0.1867  0.0269
  310TMC3     H 4720   4.515   2.232  17.042 -0.3648  1.9183  0.1595
  310TMC3    H1 4721   0.177   2.071  17.097  0.2046  0.7283 -0.0634
  310TMC3    H2 4722   0.031   2.142  16.717 -0.4182  0.7065  0.0681
  310TMC3    C7 4723   0.229   2.050  16.849  0.0547  0.1504  0.3945
  310TMC3    C8 4724   4.534   2.252  16.786  0.0890  0.3587 -0.8136
  310TMC3    O1 4725   0.214   1.979  16.753  0.0307  0.3168  0.5558
  310TMC3    O2 4726   4.415   2.256  16.814  0.1265 -0.1075  0.1170
  311MPD2     C 4727   1.853   4.137  12.242  0.0622 -0.0672 -0.3215
  311MPD2    C1 4728   1.925   4.113  12.354 -0.7220  0.4087  0.1935
  311MPD2    C2 4729   1.884   4.010  12.442 -0.0685  0.8339  0.7578
  311MPD2    C3 4730   1.770   3.934  12.415 -0.3017  1.1050  0.1681
  311MPD2    C4 4731   1.695   3.966  12.301 -0.3151 -0.2950  0.8257
  311MPD2    C5 4732   1.737   4.066  12.218 -0.2459  0.2588  0.1611
  311MPD2     H 4733   1.934   4.007  12.538 -0.9238 -0.6253  1.1697
  311MPD2    H1 4734   1.607   3.910  12.270 -1.2551  1.6326  0.0223
  311MPD2    H2 4735   1.874   4.217  12.172  1.6195  0.0247  0.2519
  311MPD2    H3 4736   1.666   4.096  12.143 -1.5748 -0.0635  1.2916
  311MPD2     N 4737   1.737   3.828  12.503 -0.3912  0.4434 -0.7689
  311MPD2    H5 4738   1.804   3.827  12.580  0.8134  0.9358 -1.8184
  311MPD2    N1 4739   2.034   4.191  12.403  0.4678 -0.0079 -0.0116
  311MPD2    H7 4740   2.071   4.166  12.495  0.0052  0.7530  0.3750
  312TMC3    C1 4741   1.605   3.647  12.589 -0.4946  0.8238 -0.0614
  312TMC3    C2 4742   1.474   3.605  12.601 -1.0291  0.1244 -0.0588
  312TMC3    C3 4743   1.430   3.578  12.724 -0.6645  0.5302 -0.2924
  312TMC3    C4 4744   1.687   3.661  12.695  0.5261  0.4311 -0.6157
  312TMC3    C5 4745   1.638   3.625  12.817 -0.0141  0.5277  0.0629
  312TMC3    C6 4746   1.509   3.591  12.834  0.2783 -1.2460 -0.2443
  312TMC3     C 4747   1.631   3.738  12.483 -0.6769 -0.0938  1.0571
  312TMC3     O 4748   1.555   3.740  12.389 -0.2672 -0.0125 -0.0952
  312TMC3     H 4749   1.409   3.574  12.520 -1.6505 -3.7606  1.8909
  312TMC3    H1 4750   1.787   3.700  12.684  0.3879  0.4925 -1.6264
  312TMC3    H2 4751   1.466   3.559  12.928  0.1765  0.3285  0.2465
  312TMC3    C7 4752   1.718   3.674  12.929 -0.0980  0.3908 -0.4131
  312TMC3    C8 4753   1.295   3.543  12.746 -0.2155  0.8546  0.1115
  312TMC3    O1 4754   1.808   3.755  12.901  0.4325 -0.2844  0.2325
  312TMC3    O2 4755   1.267   3.461  12.832  0.0544  0.2016  0.2866
  313MPD2     C 4756   1.141   3.169  11.733  0.0213  0.6971  0.1999
  313MPD2    C1 4757   1.139   3.230  11.606 -0.6691 -0.5022 -0.5138
  313MPD2    C2 4758   1.112   3.147  11.495  0.4978 -0.0405  0.0932
  313MPD2    C3 4759   1.080   3.017  11.507 -0.6375 -0.1203  0.4110
  313MPD2    C4 4760   1.057   2.961  11.632 -0.7412  0.3478  0.2234
  313MPD2    C5 4761   1.094   3.042  11.740  0.1184 -0.6406  0.5118
  313MPD2     H 4762   1.116   3.190  11.396  2.4873  2.2536  1.1790
  313MPD2    H1 4763   1.028   2.858  11.650 -1.5835  0.7015  0.8993
  313MPD2    H2 4764   1.160   3.222  11.825  0.3705 -0.5101  0.8130
  313MPD2    H3 4765   1.084   3.004  11.841  2.3506 -1.5137  0.3945
  313MPD2     N 4766   1.051   2.948  11.384 -0.3102  0.3697 -0.0593
  313MPD2    H5 4767   1.070   2.985  11.292 -0.8696 -1.5038 -0.9157
  313MPD2    N1 4768   1.171   3.366  11.579 -0.0924 -0.5888  0.8476
  313MPD2    H7 4769   1.180   3.398  11.484  0.6244  0.6113  1.3215
  314TMC3    C1 4770   1.216   3.585  11.602  0.8278 -0.1658 -0.0433
  314TMC3    C2 4771   1.344   3.639  11.612 -1.0281 -1.1104  0.4216
  314TMC3    C3 4772   1.382   3.734  11.520 -0.1187 -0.2574  0.4500
  314TMC3    C4 4773   1.137   3.615  11.502  0.2606 -0.2253  0.2612
  314TMC3    C5 4774   1.181   3.703  11.400  0.0925 -0.0550 -0.0346
  314TMC3    C6 4775   1.299   3.771  11.418 -0.7261  0.1598  0.2364
  314TMC3     C 4776   1.192   3.458  11.670 -0.8695 -0.0767  0.4744
  314TMC3     O 4777   1.224   3.445  11.784 -0.1387  0.5364 -0.6240
  314TMC3     H 4778   1.410   3.579  11.673  0.2973 -0.1386 -0.0571
  314TMC3    H1 4779   1.045   3.557  11.497 -0.6330  1.0803  1.4059
  314TMC3    H2 4780   1.335   3.845  11.348  1.4479 -2.0620 -0.9885
  314TMC3    C7 4781   1.100   3.732  11.280 -0.8754  0.3560 -0.3941
  314TMC3    C8 4782   1.522   3.782  11.533  0.2469  0.7664  0.3738
  314TMC3    O1 4783   0.978   3.713  11.280 -1.0173  0.0729  0.0315
  314TMC3    O2 4784   1.542   3.901  11.502  0.0826 -0.2048 -0.0650
  315MPD2     C 4785   1.188   1.761  17.511 -0.3839  0.0095  0.3303
  315MPD2    C1 4786   1.269   1.798  17.613 -0.3396 -0.3129  0.2537
  315MPD2    C2 4787   1.328   1.925  17.606 -0.3275  0.8589 -0.1614
  315MPD2    C3 4788   1.312   2.011  17.499  0.4505 -0.3734  0.6328
  315MPD2    C4 4789   1.241   1.968  17.392 -0.1253 -0.3185  0.1460
  315MPD2    C5 4790   1.176   1.842  17.398 -0.6416  0.2020  0.1747
  315MPD2     H 4791   1.384   1.969  17.687  0.1398 -0.8220  0.4471
  315MPD2    H1 4792   1.220   2.029  17.304 -1.8071  0.1923  0.9078
  315MPD2    H2 4793   1.142   1.663  17.509  1.7310 -0.9804 -0.6382
  315MPD2    H3 4794   1.118   1.815  17.310  2.0627 -2.1578 -0.8683
  315MPD2     N 4795   1.371   2.137  17.509  0.0119  0.2750 -0.1438
  315MPD2    H5 4796   1.433   2.155  17.588  0.9036 -0.1667 -0.7436
  315MPD2    N1 4797   1.294   1.731  17.735  0.2749 -0.4013  0.3318
  315MPD2    H7 4798   1.357   1.780   0.055  0.4343 -1.8305  1.2802
  316TMC3    C1 4799   1.390   2.376  17.462  0.2713  0.3303  0.4590
  316TMC3    C2 4800   1.497   2.396  17.555  0.8209 -0.3133  0.2755
  316TMC3    C3 4801   1.520   2.523  17.603  0.0483  0.7185 -0.4309
  316TMC3    C4 4802   1.323   2.486  17.405  0.2547  0.4334 -0.7399
  316TMC3    C5 4803   1.358   2.611  17.448 -0.1807 -0.6880 -0.3034
  316TMC3    C6 4804   1.450   2.630  17.551 -0.4558  0.4935  0.4717
  316TMC3     C 4805   1.341   2.238  17.429 -0.3407 -0.3640  0.0868
  316TMC3     O 4806   1.274   2.241  17.328 -0.1556 -0.6673 -0.3763
  316TMC3     H 4807   1.557   2.313  17.590  1.4813 -0.2570 -0.7191
  316TMC3    H1 4808   1.232   2.470  17.348 -0.7063 -1.6531  1.4024
  316TMC3    H2 4809   1.477   2.727  17.591  0.7861  0.0229  0.7747
  316TMC3    C7 4810   1.274   2.713  17.411 -0.1470 -0.2490  0.0747
  316TMC3    C8 4811   1.634   2.551  17.689 -0.4647 -0.6328 -0.1407
  316TMC3    O1 4812   1.241   2.782  17.501  0.0361 -0.4781  0.4397
  316TMC3    O2 4813   1.652   2.667  17.724 -0.4133  0.0378 -0.4681
  317MPD2     C 4814   2.583   1.281  13.523  0.4702  0.3168 -0.8927
  317MPD2    C1 4815   2.671   1.238  13.429  0.7872 -0.0811  0.5541
  317MPD2    C2 4816   2.744   1.124  13.451  0.3054 -0.4096  0.8589
  317MPD2    C3 4817   2.726   1.046  13.563  1.2966  0.5120  0.7432
  317MPD2    C4 4818   2.635   1.090  13.659 -0.0781 -0.0923  0.9501
  317MPD2    C5 4819   2.570   1.208  13.642  0.3922  0.1300  0.7499
  317MPD2     H 4820   2.820   1.092  13.380  1.6129  0.3758  1.9214
  317MPD2    H1 4821   2.622   1.034  13.751 -2.4346  2.1922  2.0140
  317MPD2    H2 4822   2.546   1.382  13.510 -0.4024  0.4163  2.3741
  317MPD2    H3 4823   2.516   1.250  13.727  0.8398  0.7922  0.7080
  317MPD2     N 4824   2.802   0.935  13.571 -0.4901 -0.1944 -0.0125
  317MPD2    H5 4825   2.848   0.898  13.489 -0.2639  1.6204 -0.6900
  317MPD2    N1 4826   2.683   1.303  13.303  0.5690 -0.1112 -0.3210
  317MPD2    H7 4827   2.755   1.271  13.239  2.1582  1.1692  0.8316
  318TMC3    C1 4828   2.909   0.748  13.663 -0.4814 -1.0130 -0.2490
  318TMC3    C2 4829   2.890   0.632  13.742  0.7768  0.4075 -0.0405
  318TMC3    C3 4830   2.985   0.536  13.737 -0.0432  0.0612  0.2162
  318TMC3    C4 4831   3.020   0.758  13.584  0.6482 -0.6112 -0.6198
  318TMC3    C5 4832   3.114   0.660  13.595 -0.6019  0.0749  0.1857
  318TMC3    C6 4833   3.100   0.545  13.666 -0.4052 -0.2723  0.0652
  318TMC3     C 4834   2.822   0.864  13.686  0.1519  0.0731 -0.2519
  318TMC3     O 4835   2.795   0.882  13.803  0.9328 -0.2906 -0.1578
  318TMC3     H 4836   2.808   0.621  13.811  1.1411 -2.8970 -0.1110
  318TMC3    H1 4837   3.028   0.834  13.508  0.5095  0.7764  0.7409
  318TMC3    H2 4838   3.161   0.456  13.656 -0.6844 -0.3388 -0.9871
  318TMC3    C7 4839   3.228   0.681  13.509  0.1615  0.2558 -0.4129
  318TMC3    C8 4840   2.949   0.394  13.752  0.2777  0.5838 -0.5461
  318TMC3    O1 4841   3.229   0.772  13.425 -0.6181  0.4693 -0.2985
  318TMC3    O2 4842   3.024   0.298  13.766  0.5984 -0.3619  0.0948
  319MPD2     C 4843   3.541   1.535  17.020 -0.1849 -0.5987  0.2269
  319MPD2    C1 4844   3.494   1.409  17.006 -0.3877  0.1852 -0.8058
  319MPD2    C2 4845   3.468   1.355  16.879  0.1588 -0.2660  0.4038
  319MPD2    C3 4846   3.479   1.434  16.767  0.1493 -0.1607  0.3258
  319MPD2    C4 4847   3.515   1.566  16.784 -0.5692 -0.2421  0.8261
  319MPD2    C5 4848   3.542   1.618  16.903  0.0223 -0.0723  0.2742
  319MPD2     H 4849   3.440   1.251  16.872 -0.2792 -0.1490  0.4533
  319MPD2    H1 4850   3.530   1.621  16.692 -0.0329  1.0708  1.7126
  319MPD2    H2 4851   3.583   1.576  17.111  0.0658 -0.2147 -0.0606
  319MPD2    H3 4852   3.586   1.716  16.905  0.7392 -0.3508 -1.5846
  319MPD2     N 4853   3.450   1.397  16.637 -0.2455  0.2145 -0.5699
  319MPD2    H5 4854   3.456   1.465  16.563  0.0564 -0.3798 -1.0981
  319MPD2    N1 4855   3.482   1.325  17.119  0.1083 -0.5404 -0.7134
  319MPD2    H7 4856   3.473   1.225  17.103  2.5738 -0.8520 -0.2453
  320TMC3    C1 4857   3.381   1.267  16.453  0.7209 -0.7563  0.2848
  320TMC3    C2 4858   3.327   1.370  16.385 -0.0527  0.8032  0.5543
  320TMC3    C3 4859   3.285   1.348  16.254 -0.2079  0.2145  0.2658
  320TMC3    C4 4860   3.390   1.145  16.401 -0.0172 -0.5475 -0.9216
  320TMC3    C5 4861   3.370   1.125  16.264  0.4682 -0.7638 -0.1990
  320TMC3    C6 4862   3.312   1.228  16.190  0.2315  0.3139  0.0046
  320TMC3     C 4863   3.416   1.276  16.591 -0.0699  0.6304 -0.0197
  320TMC3     O 4864   3.396   1.171  16.654 -0.1855 -0.7337  0.5016
  320TMC3     H 4865   3.326   1.470  16.427 -0.1944  0.4745  1.3460
  320TMC3    H1 4866   3.442   1.064  16.451  1.4678  2.1812  1.9415
  320TMC3    H2 4867   3.291   1.217  16.084  0.4730  0.0490 -0.0163
  320TMC3    C7 4868   3.419   0.994  16.220  0.6760  0.3793  0.3478
  320TMC3    C8 4869   3.219   1.454  16.179  0.0043  0.4228  0.1883
  320TMC3    O1 4870   3.490   0.995  16.124 -0.0484  0.2382  0.0525
  320TMC3    O2 4871   3.249   1.566  16.214 -0.2741 -0.2506 -0.0465
  321TMC3    C1 4872   3.497   1.280  17.357 -0.5880 -0.4713 -0.1833
  321TMC3    C2 4873   3.555   1.159  17.334  0.4875 -0.3932  0.1381
  321TMC3    C3 4874   3.617   1.104  17.440 -0.8573 -0.1816  0.0328
  321TMC3    C4 4875   3.504   1.344  17.483  0.2280  0.1871  0.6449
  321TMC3    C5 4876   3.567   1.285  17.585  0.5433  0.6898 -0.1901
  321TMC3    C6 4877   3.622   1.165  17.560 -0.1364  1.3979 -0.0782
  321TMC3     C 4878   3.475   1.374  17.250  0.2186  0.1017 -0.6194
  321TMC3     O 4879   3.457   1.492  17.277  0.0043 -0.1341 -0.3819
  321TMC3     H 4880   3.540   1.113  17.236  1.7049  1.1454 -0.7673
  321TMC3    H1 4881   3.443   1.432  17.499  0.2474 -0.2245  3.0899
  321TMC3    H2 4882   3.666   1.106  17.640  2.2058 -0.8698 -3.0785
  321TMC3    C7 4883   3.676   1.364  17.642 -0.4108  0.4537 -0.0337
  321TMC3    C8 4884   3.738   1.042  17.395 -0.0767 -0.4210  0.1613
  321TMC3    O1 4885   3.782   1.296  17.651 -0.4162  0.6245 -0.1718
  321TMC3    O2 4886   3.735   0.972  17.293  0.5305  0.3568 -0.7627
  322MPD2     C 4887   3.281   3.267  13.188  1.3611 -0.5189 -0.1310
  322MPD2    C1 4888   3.266   3.198  13.302  0.2418 -0.2059 -0.4951
  322MPD2    C2 4889   3.337   3.081  13.328  0.2452 -0.4626 -0.6326
  322MPD2    C3 4890   3.436   3.039  13.233 -0.6557  0.8034 -0.2312
  322MPD2    C4 4891   3.448   3.109  13.117 -0.3061  0.7631  0.5422
  322MPD2    C5 4892   3.373   3.223  13.094  0.3305  0.5619  0.4502
  322MPD2     H 4893   3.318   3.015  13.412 -0.9957  0.0177 -0.5290
  322MPD2    H1 4894   3.522   3.083  13.042 -2.3615  2.5863 -2.1186
  322MPD2    H2 4895   3.224   3.356  13.162  1.3677 -0.4854 -0.0335
  322MPD2    H3 4896   3.375   3.270  12.997  1.4858  2.8300  1.5944
  322MPD2     N 4897   3.512   2.921  13.256  0.1221  0.2982  0.2781
  322MPD2    H5 4898   3.500   2.875  13.345 -1.9589 -0.0840 -0.2197
  322MPD2    N1 4899   3.169   3.249  13.390  0.4516 -0.0829  0.0733
  322MPD2    H7 4900   3.146   3.345  13.368  1.8451  0.3596  0.5715
  323TMC3    C1 4901   3.080   3.274  13.602  0.1183  0.3862  0.2830
  323TMC3    C2 4902   3.130   3.399  13.602  0.6636 -0.0735  0.1815
  323TMC3    C3 4903   3.156   3.452  13.723 -0.2117 -0.0150  0.5099
  323TMC3    C4 4904   3.058   3.207  13.717 -0.0142  0.4223  0.4682
  323TMC3    C5 4905   3.071   3.273  13.839 -0.3361  0.1897  0.0727
  323TMC3    C6 4906   3.119   3.401  13.841 -0.5408 -0.8960  0.2186
  323TMC3     C 4907   3.124   3.183  13.498  0.5326  0.4035  0.1223
  323TMC3     O 4908   3.120   3.059  13.523  0.6533  0.8399 -0.3643
  323TMC3     H 4909   3.146   3.454  13.510 -3.7378 -2.4214 -1.9726
  323TMC3    H1 4910   3.015   3.108  13.714 -0.5074  0.6394  0.2239
  323TMC3    H2 4911   3.131   3.461  13.931 -1.8438  1.0608 -0.9103
  323TMC3    C7 4912   3.050   3.194  13.964  0.2857 -0.5464 -0.3476
  323TMC3    C8 4913   3.247   3.560  13.729 -0.1857  0.9613  0.5773
  323TMC3    O1 4914   3.016   3.073  13.956  0.2077  0.1944 -0.6438
  323TMC3    O2 4915   3.251   3.648  13.647  0.1866 -0.7494  0.0477
  324MPD2     C 4916   4.090   4.133  14.079 -0.2717  0.3115 -0.4185
  324MPD2    C1 4917   4.055   4.251  14.142 -0.2374 -1.2483 -0.3753
  324MPD2    C2 4918   3.944   4.322  14.103  0.4815  0.1562  0.0697
  324MPD2    C3 4919   3.874   4.294  13.984  0.0841 -0.1282 -0.4672
  324MPD2    C4 4920   3.924   4.188  13.911 -0.0733 -0.6914  0.4751
  324MPD2    C5 4921   4.026   4.113  13.958  0.0033  0.0208 -0.0917
  324MPD2     H 4922   3.918   4.404  14.169 -1.4929  1.0095 -1.7823
  324MPD2    H1 4923   3.873   4.166  13.818 -0.2986 -3.5737  1.2633
  324MPD2    H2 4924   4.178   4.075  14.105 -0.8640  0.8304  2.7136
  324MPD2    H3 4925   4.055   4.027  13.898 -0.9824 -0.3058 -0.1072
  324MPD2     N 4926   3.762   4.368  13.940 -0.1090  0.1449  1.3463
  324MPD2    H5 4927   3.719   4.347  13.850  0.5735  3.3587  0.2624
  324MPD2    N1 4928   4.121   4.297  14.259 -0.2745 -0.0322 -0.4764
  324MPD2    H7 4929   4.092   4.385  14.302 -1.8111 -0.5237 -0.5167
  325TMC3    C1 4930   3.621   4.541  13.917 -0.0546  0.6599  0.6045
  325TMC3    C2 4931   3.529   4.466  13.849  0.2883  0.0462  0.3731
  325TMC3    C3 4932   3.453   4.526  13.744  0.3748 -0.3268  0.1085
  325TMC3    C4 4933   3.631   4.677  13.902 -0.1619 -0.2336 -0.3230
  325TMC3    C5 4934   3.560   4.734  13.799 -0.1288 -0.2087  0.1259
  325TMC3    C6 4935   3.468   4.660  13.719 -0.2880 -0.1039 -0.5123
  325TMC3     C 4936   3.722   4.481  13.999 -0.4130 -0.1802  0.4477
  325TMC3     O 4937   3.786   4.555  14.076  0.5300  0.5891 -0.0086
  325TMC3     H 4938   3.537   4.358  13.860  1.4998  0.1111  0.1802
  325TMC3    H1 4939   3.708   4.729  13.957  0.0858 -0.8732 -0.0618
  325TMC3    H2 4940   3.431   4.698  13.624  0.1980 -2.2730 -1.5542
  325TMC3    C7 4941   3.570   0.136  13.769  0.8240 -0.3072 -0.0756
  325TMC3    C8 4942   3.426   4.447  13.631  0.3960 -0.9150  0.0328
  325TMC3    O1 4943   3.594   0.168  13.652 -0.4752  0.0760 -0.3335
  325TMC3    O2 4944   3.487   4.473  13.528  0.0050  0.2373  0.6276
  326MPD2     C 4945   0.925   0.758  11.002  0.3790  0.8010  0.1266
  326MPD2    C1 4946   0.877   0.789  10.874 -0.5756 -0.6544  0.1788
  326MPD2    C2 4947   0.931   0.900  10.811  0.8810 -0.5486 -0.6150
  326MPD2    C3 4948   1.023   0.977  10.869  0.3625  0.0668 -0.1117
  326MPD2    C4 4949   1.064   0.953  10.992 -0.2502 -0.3357 -0.6549
  326MPD2    C5 4950   1.022   0.838  11.056  0.2272  0.0942  0.3689
  326MPD2     H 4951   0.916   0.918  10.705 -0.6941 -0.7144 -0.4159
  326MPD2    H1 4952   1.146   1.013  11.028  0.1367 -1.2797  0.0205
  326MPD2    H2 4953   0.884   0.681  11.067  2.4173  0.9074  1.5609
  326MPD2    H3 4954   1.067   0.822  11.153  1.1611  0.9010  0.0692
  326MPD2     N 4955   1.095   1.080  10.799  0.2035 -0.2065  0.4145
  326MPD2    H5 4956   1.161   1.133  10.855  0.7204 -1.0963  0.6426
  326MPD2    N1 4957   0.781   0.716  10.803 -0.0494  0.6491  0.4685
  326MPD2    H7 4958   0.764   0.766  10.716  0.5574  0.4011  0.2129
  327TMC3    C1 4959   0.696   0.536  10.694 -0.1726 -0.3085  0.3867
  327TMC3    C2 4960   0.601   0.616  10.639  0.1817  0.0109 -0.7691
  327TMC3    C3 4961   0.615   0.652  10.505 -0.2850  0.3559 -0.3137
  327TMC3    C4 4962   0.795   0.484  10.618 -0.4719 -0.2481 -0.3247
  327TMC3    C5 4963   0.808   0.521  10.486 -0.6788  0.0138 -0.4291
  327TMC3    C6 4964   0.712   0.601  10.427  0.0896 -0.0099 -0.2809
  327TMC3     C 4965   0.753   0.581  10.815  0.1620 -0.6388  0.3607
  327TMC3     O 4966   0.808   0.498  10.886 -0.6423 -0.6071 -0.0054
  327TMC3     H 4967   0.522   0.656  10.702 -1.0873 -0.6530 -1.9282
  327TMC3    H1 4968   0.864   0.413  10.661  1.1405  2.0212  0.8074
  327TMC3    H2 4969   0.719   0.657  10.334  0.8872 -3.1835 -2.1537
  327TMC3    C7 4970   0.941   0.574  10.460  0.2270 -1.1052 -0.0267
  327TMC3    C8 4971   0.550   0.770  10.453 -0.2669 -0.1463  0.1707
  327TMC3    O1 4972   0.960   0.640  10.361  0.6076  0.8641 -0.1253
  327TMC3    O2 4973   0.581   0.824  10.347  0.1174 -0.0912 -0.0373
  328MPD2     C 4974   3.329   0.400  17.385 -0.7836 -0.3095 -0.4589
  328MPD2    C1 4975   3.235   0.300  17.380  0.2779 -0.0310 -0.9918
  328MPD2    C2 4976   3.160   0.283  17.273 -0.4864 -0.4262  0.1522
  328MPD2    C3 4977   3.167   0.366  17.170 -0.1066  0.6674 -0.7124
  328MPD2    C4 4978   3.268   0.460  17.168 -0.3340  0.0811  0.7609
  328MPD2    C5 4979   3.348   0.474  17.272  0.4002 -0.4009  0.3768
  328MPD2     H 4980   3.092   0.199  17.264 -1.3232  0.3591 -0.7576
  328MPD2    H1 4981   3.278   0.540  17.095 -0.1120  0.6457  1.4205
  328MPD2    H2 4982   3.391   0.422  17.471 -1.5565 -0.7113  0.2022
  328MPD2    H3 4983   3.408   0.564  17.262  1.0280 -0.7047  1.4031
  328MPD2     N 4984   3.087   0.355  17.050  0.2185  0.2259  0.8113
  328MPD2    H5 4985   3.086   0.439  16.992 -1.3243 -0.0644  0.4360
  328MPD2    N1 4986   3.223   0.230  17.503  0.3299  0.1939  0.4746
  328MPD2    H7 4987   3.264   0.278  17.583 -2.4878  0.4085  1.8101
  329TMC3    C1 4988   3.130   0.077  17.657  0.2325 -0.3194  0.1796
  329TMC3    C2 4989   3.166   0.155   0.017  0.0028 -0.5752 -0.0590
  329TMC3    C3 4990   3.108   0.141   0.140 -0.2849  0.0852  0.2742
  329TMC3    C4 4991   3.051   4.701  17.676  0.0138  0.1817  0.6129
  329TMC3    C5 4992   3.008   4.675   0.060 -0.4132  0.1592 -0.1281
  329TMC3    C6 4993   3.021   0.030   0.158 -0.0499  0.1517  0.1201
  329TMC3     C 4994   3.140   0.122  17.518 -0.3219 -0.3093  0.3321
  329TMC3     O 4995   3.074   0.058  17.442 -0.9474  0.4132 -0.2299
  329TMC3     H 4996   3.245   0.228   0.008 -0.0711 -0.1774  2.3040
  329TMC3    H1 4997   3.026   4.636  17.593 -1.3560  2.5656 -0.8338
  329TMC3    H2 4998   3.001   0.001   0.261  1.4387 -0.3577  0.2655
  329TMC3    C7 4999   2.983   4.538   0.095 -0.2151 -0.0199 -0.1036
  329TMC3    C8 5000   3.144   0.222   0.247  0.4982  0.0934  0.0884
  329TMC3    O1 5001   2.952   4.515   0.212 -0.6625  0.1379  0.3159
  329TMC3    O2 5002   3.240   0.293   0.224 -0.1117 -0.1147  0.3071
  330TMC3    C1 5003   1.869   0.353   9.628 -0.1543  1.0848  0.0368
  330TMC3    C2 5004   1.852   0.246   9.542  0.5500 -0.5824 -0.1547
  330TMC3    C3 5005   1.866   0.125   9.602  0.5782 -0.0212  0.2539
  330TMC3    C4 5006   1.892   0.338   9.761  0.1273  0.2209  0.2491
  330TMC3    C5 5007   1.916   0.216   9.809  0.4750  0.8710 -0.2019
  330TMC3    C6 5008   1.903   0.107   9.729 -0.3164  0.5797 -0.7081
  330TMC3     C 5009   1.877   0.492   9.579  0.0026  0.0669  0.5620
  330TMC3     O 5010   1.944   0.569   9.643 -0.2502  0.8123 -0.1240
  330TMC3     H 5011   1.849   0.257   9.434 -1.7526  0.7816  0.0392
  330TMC3    H1 5012   1.912   0.425   9.822 -1.2151  0.8845 -0.2595
  330TMC3    H2 5013   1.941   0.012   9.764  1.2283  1.3798 -0.1645
  330TMC3    C7 5014   1.949   0.204   9.948 -0.2286  0.0885 -0.1184
  330TMC3    C8 5015   1.861   0.003   9.519  0.3598 -0.4835  1.3035
  330TMC3    O1 5016   1.960   0.308  10.006 -0.0470  0.0712  0.5944
  330TMC3    O2 5017   1.892   0.013   9.402  0.4151  0.2450  0.2641
  331MPD2     C 5018   3.667   3.867  12.624 -0.2073 -0.2970  0.1052
  331MPD2    C1 5019   3.787   3.914  12.567 -0.4558  0.2657  0.1742
  331MPD2    C2 5020   3.881   3.824  12.521  0.7357 -0.6033  0.9296
  331MPD2    C3 5021   3.858   3.692  12.531 -0.3261  0.7636  0.2904
  331MPD2    C4 5022   3.742   3.645  12.582 -0.3201 -0.5454 -0.3097
  331MPD2    C5 5023   3.644   3.729  12.623  1.3777  0.2096  0.4299
  331MPD2     H 5024   3.975   3.852  12.474  0.2502 -2.1605 -0.9815
  331MPD2    H1 5025   3.709   3.543  12.596 -1.1060 -0.2192  0.2192
  331MPD2    H2 5026   3.587   3.934  12.654 -0.3198 -0.2417 -0.3168
  331MPD2    H3 5027   3.553   3.692  12.668 -1.0556  1.7335 -3.3076
  331MPD2     N 5028   3.961   3.603  12.485 -0.0197 -0.0216 -0.6239
  331MPD2    H5 5029   4.034   3.649  12.432 -0.9466 -0.4280 -2.2627
  331MPD2    N1 5030   3.816   4.053  12.558 -0.2451  0.2624 -0.9015
  331MPD2    H7 5031   3.900   4.063  12.501 -0.2135 -0.5083 -0.9841
  332TMC3    C1 5032   4.093   3.407  12.449 -0.8893 -0.0701  0.2733
  332TMC3    C2 5033   4.171   3.466  12.358  0.5254  0.2464  0.2581
  332TMC3    C3 5034   4.308   3.454  12.370 -0.3181 -0.9821  0.3581
  332TMC3    C4 5035   4.149   3.311  12.533 -0.7532 -0.3402  0.0356
  332TMC3    C5 5036   4.282   3.297  12.535 -0.2839 -0.4145 -0.5621
  332TMC3    C6 5037   4.368   3.375  12.462 -0.1849 -0.9936  0.0110
  332TMC3     C 5038   3.961   3.468  12.491 -0.2177 -0.2358  0.3571
  332TMC3     O 5039   3.877   3.390  12.534  0.4115  0.1772  0.3994
  332TMC3     H 5040   4.118   3.545  12.306  0.9392 -0.0374 -0.5865
  332TMC3    H1 5041   4.085   3.260  12.603  3.6234 -0.6561  3.7870
  332TMC3    H2 5042   4.475   3.359  12.464  0.0369  0.5114  0.2370
  332TMC3    C7 5043   4.347   3.195  12.624  0.3964 -0.3511 -0.3571
  332TMC3    C8 5044   4.380   3.546  12.289 -0.2987  1.2755 -0.1221
  332TMC3    O1 5045   4.279   3.098  12.649  0.6769 -0.0452  0.0160
  332TMC3    O2 5046   4.489   3.569  12.334 -0.2282  0.1211 -1.0440
  333MPD2     C 5047   4.595   4.240  11.050 -0.2166  0.3139  0.0610
  333MPD2    C1 5048   4.646   4.133  10.974  1.1883 -0.2269 -0.8662
  333MPD2    C2 5049   4.604   4.003  10.999  0.2681  0.1963  0.8708
  333MPD2    C3 5050   4.514   3.976  11.100  0.0987 -0.8215 -0.4896
  333MPD2    C4 5051   4.457   4.084  11.172 -0.3359 -1.3514  0.2570
  333MPD2    C5 5052   4.499   4.209  11.144  0.1853 -0.1043  0.2003
  333MPD2     H 5053   4.631   3.922  10.932 -0.5509  0.7995 -0.1994
  333MPD2    H1 5054   4.387   4.075  11.254 -0.0108 -2.8069  0.3784
  333MPD2    H2 5055   4.621   4.342  11.024  1.9848 -1.1411 -3.5701
  333MPD2    H3 5056   4.454   4.279  11.214  1.0944  1.4731 -0.7821
  333MPD2     N 5057   4.471   3.841  11.112 -0.7402 -0.1311 -0.0300
  333MPD2    H5 5058   4.503   3.778  11.040  0.5392  1.0187 -0.4618
  333MPD2    N1 5059   0.005   4.163  10.872  0.2327  0.3327 -0.4762
  333MPD2    H7 5060   0.023   4.262  10.861  1.2497  0.1204 -0.6859
  334TMC3    C1 5061   0.148   4.155  10.692  0.7363  0.1548 -0.1394
  334TMC3    C2 5062   0.283   4.164  10.728 -0.2295 -0.0083  0.0625
  334TMC3    C3 5063   0.355   4.275  10.689  0.4719 -0.4041  0.8511
  334TMC3    C4 5064   0.087   4.260  10.634 -0.1298  0.5095  0.3989
  334TMC3    C5 5065   0.163   4.364  10.593 -0.0043  0.4209 -0.2936
  334TMC3    C6 5066   0.302   4.371  10.610 -0.8674  0.1241 -0.7544
  334TMC3     C 5067   0.071   4.076  10.788  0.4864 -0.5640 -0.0808
  334TMC3     O 5068   0.090   3.957  10.788  0.6871 -0.3893  0.1483
  334TMC3     H 5069   0.320   4.092  10.800 -0.2290 -0.5879 -0.5213
  334TMC3    H1 5070   4.716   4.264  10.617  0.2687 -1.6694 -2.5202
  334TMC3    H2 5071   0.372   4.450  10.583 -1.4515  1.0481  0.4387
  334TMC3    C7 5072   0.089   4.487  10.606 -0.5469 -0.3920  0.0093
  334TMC3    C8 5073   0.494   4.287  10.728 -0.1843  0.0657  0.1001
  334TMC3    O1 5074   4.726   4.491  10.675 -0.4289 -0.1943 -0.4398
  334TMC3    O2 5075   0.576   4.353  10.658  0.1089 -0.1529 -0.0433
  335TMC3    C1 5076   4.221   0.580  17.567 -0.2955 -0.6874 -0.5037
  335TMC3    C2 5077   4.188   0.536  17.439  0.0575 -0.2290  0.4763
  335TMC3    C3 5078   4.282   0.542  17.341  0.3031  0.2614  0.9139
  335TMC3    C4 5079   4.352   0.623  17.599  0.0194 -0.4365  0.4300
  335TMC3    C5 5080   4.446   0.616  17.500 -0.8309  0.1571  0.3256
  335TMC3    C6 5081   4.410   0.583  17.375  0.8830 -0.5745  0.5652
  335TMC3     C 5082   4.116   0.569  17.670 -0.3462  0.3470  0.0459
  335TMC3     O 5083   4.036   0.477  17.657 -0.2587  0.2709  0.1476
  335TMC3     H 5084   4.085   0.517  17.410 -0.7485 -0.9587  3.7597
  335TMC3    H1 5085   4.380   0.638  17.703  1.5923 -1.9590  0.2237
  335TMC3    H2 5086   4.476   0.549  17.296 -0.4733  0.3142 -0.9318
  335TMC3    C7 5087   4.582   0.669  17.516 -0.2580  0.1909  1.2872
  335TMC3    C8 5088   4.267   0.464  17.224  0.0708  0.4103 -0.0978
  335TMC3    O1 5089   4.648   0.670  17.414  0.1390 -0.6934  0.1340
  335TMC3    O2 5090   4.334   0.508  17.130  0.5497  0.0858 -0.8363
  336MPD2     C 5091   3.501   2.556  16.364  0.5674 -0.0221  0.5364
  336MPD2    C1 5092   3.460   2.514  16.239  0.4619  0.5750  0.4064
  336MPD2    C2 5093   3.491   2.382  16.197 -0.4350 -0.9159  0.1670
  336MPD2    C3 5094   3.557   2.299  16.282  0.4783 -0.2872  0.0934
  336MPD2    C4 5095   3.584   2.339  16.413  0.0722 -0.0555 -0.4659
  336MPD2    C5 5096   3.568   2.472  16.444  0.2338 -0.0623 -0.4967
  336MPD2     H 5097   3.455   2.334  16.107  1.2102 -0.9506 -0.4717
  336MPD2    H1 5098   3.632   2.272  16.484  0.8184  1.8097  0.8095
  336MPD2    H2 5099   3.462   2.646  16.410  0.9002  0.5921 -0.3875
  336MPD2    H3 5100   3.596   2.505  16.543  0.4453 -1.9306  0.0689
  336MPD2     N 5101   3.570   2.164  16.251 -0.8864 -0.0432 -0.1182
  336MPD2    H5 5102   3.585   2.105  16.332  0.9774  0.0281 -0.4068
  336MPD2    N1 5103   3.391   2.590  16.140 -1.2823  0.3770 -0.7214
  336MPD2    H7 5104   3.369   2.550  16.050  3.7174 -2.4260 -0.6746
  337TMC3    C1 5105   3.268   2.787  16.071 -0.6143 -0.3719 -0.1202
  337TMC3    C2 5106   3.212   2.714  15.969  1.0819  0.6781  0.1310
  337TMC3    C3 5107   3.121   2.779  15.888  0.3792  0.6319 -0.1445
  337TMC3    C4 5108   3.242   2.925  16.093  0.3792 -0.2140 -1.1881
  337TMC3    C5 5109   3.145   2.977  16.010 -1.0583 -1.0477  0.5683
  337TMC3    C6 5110   3.078   2.907  15.912  0.0221 -0.7654  1.2153
  337TMC3     C 5111   3.361   2.720  16.163 -0.3817 -0.7426 -1.0854
  337TMC3     O 5112   3.403   2.792  16.256  0.0339 -0.0513 -0.0896
  337TMC3     H 5113   3.224   2.608  15.955  1.2834  0.4247  2.2819
  337TMC3    H1 5114   3.289   2.981  16.173 -2.8620 -0.8925  1.1768
  337TMC3    H2 5115   2.998   2.949  15.853 -0.4986  0.2208  2.6290
  337TMC3    C7 5116   3.118   3.121  16.013 -0.4310 -0.3559 -0.3685
  337TMC3    C8 5117   3.028   2.696  15.811  0.2684 -0.1440 -0.3665
  337TMC3    O1 5118   3.016   3.164  15.965  0.1161  0.8071  0.2448
  337TMC3    O2 5119   2.993   2.591  15.861 -0.1121  0.1940  0.2310
  338MPD2     C 5120   3.814   2.371   1.270 -0.6403 -0.0306  0.4355
  338MPD2    C1 5121   3.822   2.347   1.133  0.0365  0.2924  0.6897
  338MPD2    C2 5122   3.724   2.406   1.053 -0.1379 -0.4856 -0.2978
  338MPD2    C3 5123   3.623   2.480   1.105  0.0616 -0.0370  0.6813
  338MPD2    C4 5124   3.610   2.500   1.241 -0.2902  0.2891  0.3813
  338MPD2    C5 5125   3.703   2.438   1.322 -0.7291  0.3411 -0.9439
  338MPD2     H 5126   3.729   2.377   0.948 -0.7258 -0.3827 -0.3530
  338MPD2    H1 5127   3.533   2.558   1.291 -0.9809 -0.1943 -0.1120
  338MPD2    H2 5128   3.897   2.343   1.334 -0.8536  0.0647  0.7566
  338MPD2    H3 5129   3.690   2.455   1.428 -2.6209  0.8550 -1.2674
  338MPD2     N 5130   3.529   2.537   1.016 -0.6447 -0.0654 -1.1922
  338MPD2    H5 5131   3.522   2.507   0.919  2.1483 -0.8092 -1.1536
  338MPD2    N1 5132   3.913   2.267   1.065 -0.0173  0.0036  0.4696
  338MPD2    H7 5133   3.896   2.251   0.966  0.3382 -4.3550  1.0792
  339TMC3    C1 5134   3.305   2.593   0.987  0.0780  0.3127 -0.4294
  339TMC3    C2 5135   3.201   2.628   1.070 -0.3751  0.6331  0.0725
  339TMC3    C3 5136   3.127   2.529   1.115  0.0513 -0.0552  0.8219
  339TMC3    C4 5137   3.299   2.475   0.912 -0.1472 -0.4836 -0.3498
  339TMC3    C5 5138   3.195   2.387   0.942 -0.1721 -0.5139  0.5361
  339TMC3    C6 5139   3.109   2.411   1.041  0.1711 -0.6124  0.4482
  339TMC3     C 5140   3.435   2.634   1.045 -0.3335 -1.0054  0.4348
  339TMC3     O 5141   3.435   2.718   1.131 -0.5651  0.1118  0.0715
  339TMC3     H 5142   3.214   2.724   1.119 -2.2646  0.7717  0.3070
  339TMC3    H1 5143   3.375   2.453   0.837  0.1843  1.7406 -0.6712
  339TMC3    H2 5144   3.030   2.341   1.068 -1.0983  0.9200  0.6558
  339TMC3    C7 5145   3.181   2.270   0.859  0.2430  0.1647 -0.5483
  339TMC3    C8 5146   3.138   2.485   1.251 -0.4683  0.7904  0.5463
  339TMC3    O1 5147   3.269   2.250   0.776 -0.3688 -0.0789  0.3159
  339TMC3    O2 5148   3.155   2.364   1.273 -0.0810 -0.7275  0.3407
  340MPD2     C 5149   4.653   4.624  10.300 -0.3979  0.2197  0.2314
  340MPD2    C1 5150   4.726   0.002  10.269  0.4380 -0.5859 -0.0695
  340MPD2    C2 5151   0.100   4.732  10.183 -0.3748  0.2511  0.8650
  340MPD2    C3 5152   0.148   4.603  10.149 -0.4711 -0.6882  0.1969
  340MPD2    C4 5153   0.076   4.489  10.181 -0.2369  0.0580  0.6255
  340MPD2    C5 5154   4.690   4.502  10.240  0.1069 -0.1720 -0.0184
  340MPD2     H 5155   0.155   0.080  10.145  0.7237 -0.8556  0.0092
  340MPD2    H1 5156   0.105   4.390  10.148 -0.4276 -0.5090  2.1550
  340MPD2    H2 5157   4.565   4.636  10.362 -1.0750  1.6591 -1.0258
  340MPD2    H3 5158   4.625   4.416  10.249  0.1625 -0.1860  0.2350
  340MPD2     N 5159   0.261   4.575  10.069 -0.1769  0.3242  0.4811
  340MPD2    H5 5160   0.283   4.477  10.056 -1.6231  0.2001 -1.0254
  340MPD2    N1 5161   4.673   0.123  10.316 -0.0304 -0.3633 -0.1074
  340MPD2    H7 5162   4.593   0.122  10.379  2.0812  0.4258  2.6059
  341TMC3    C1 5163   4.646   0.359  10.311  0.4354 -0.4656 -0.1007
  341TMC3    C2 5164   4.511   0.325  10.317 -0.0803  0.4523 -0.5052
  341TMC3    C3 5165   4.427   0.393  10.232 -0.2434  0.1497 -0.2563
  341TMC3    C4 5166   4.693   0.458  10.228  0.3796  0.1428  0.2382
  341TMC3    C5 5167   4.602   0.509  10.138  0.3009 -0.6744 -0.5511
  341TMC3    C6 5168   4.472   0.476  10.140 -0.6883  0.3680  0.5698
  341TMC3     C 5169   4.732   0.239  10.307 -0.8366 -0.1330 -0.0419
  341TMC3     O 5170   0.107   0.265  10.272  0.5859  0.1071 -0.1481
  341TMC3     H 5171   4.475   0.250  10.386  2.4003  0.5318  0.8794
  341TMC3    H1 5172   0.060   0.489  10.212  0.3614  0.6371  1.0754
  341TMC3    H2 5173   4.398   0.516  10.071 -0.0575 -0.5205 -0.6212
  341TMC3    C7 5174   4.656   0.581  10.022  0.3460  0.0166  0.3890
  341TMC3    C8 5175   4.330   0.295  10.193 -0.8745 -0.4019  0.8403
  341TMC3    O1 5176   0.038   0.616  10.016  0.5036 -0.2914 -0.2797
  341TMC3    O2 5177   4.222   0.296  10.250  0.4760  0.5330 -0.0892
  342MPD2     C 5178   1.443   3.047  17.253  0.7352 -0.2082  0.1918
  342MPD2    C1 5179   1.571   3.096  17.278 -0.4376 -0.1855 -0.7644
  342MPD2    C2 5180   1.593   3.227  17.308 -0.0563  0.1042 -0.0506
  342MPD2    C3 5181   1.489   3.320  17.317 -1.1478 -0.0934 -0.2916
  342MPD2    C4 5182   1.363   3.269  17.303 -1.1678 -1.0414 -0.4068
  342MPD2    C5 5183   1.334   3.140  17.266 -0.6254 -0.5578  0.0010
  342MPD2     H 5184   1.693   3.265  17.324 -0.2047 -0.1114  1.3775
  342MPD2    H1 5185   1.284   3.343  17.304  1.3012  1.6039 -0.2326
  342MPD2    H2 5186   1.414   2.944  17.233  0.9420 -0.3110  0.4336
  342MPD2    H3 5187   1.233   3.112  17.240 -0.2580 -1.6466 -0.2456
  342MPD2     N 5188   1.512   3.459  17.320 -0.0609  0.1364 -0.1151
  342MPD2    H5 5189   1.436   3.522  17.343  0.1396  0.3441 -0.0257
  342MPD2    N1 5190   1.688   3.012  17.289  0.1299  0.0677  0.0496
  342MPD2    H7 5191   1.776   3.059  17.306  0.7590 -1.1695  0.2273
  343TMC3    C1 5192   1.812   2.815  17.295 -0.0819  0.0244 -0.1763
  343TMC3    C2 5193   1.933   2.865  17.262 -0.3857  0.0004 -0.0092
  343TMC3    C3 5194   2.039   2.788  17.297  0.6819 -0.3569 -0.6770
  343TMC3    C4 5195   1.807   2.695  17.365  0.1041  0.1572  0.1119
  343TMC3    C5 5196   1.920   2.635  17.411 -0.5524 -0.4585  0.6990
  343TMC3    C6 5197   2.049   2.679  17.376  0.0689 -1.1188  0.2368
  343TMC3     C 5198   1.687   2.877  17.273  0.0279  0.1184  0.0731
  343TMC3     O 5199   1.595   2.807  17.242  0.1531 -0.0109 -0.0939
  343TMC3     H 5200   1.945   2.943  17.188 -1.3064  0.6525  0.5348
  343TMC3    H1 5201   1.708   2.656  17.385 -0.3517  0.6396 -1.1763
  343TMC3    H2 5202   2.139   2.625  17.403  0.5949 -0.7259 -0.7314
  343TMC3    C7 5203   1.900   2.497  17.457  1.0729 -0.7746 -0.0905
  343TMC3    C8 5204   2.172   2.843  17.261 -0.2998 -0.5755  0.2568
  343TMC3    O1 5205   1.794   2.447  17.433 -0.6630 -0.7621 -0.1827
  343TMC3    O2 5206   2.196   2.963  17.273  0.2838  0.3199 -0.7749
  344MPD2     C 5207   3.238   3.592  11.136 -0.1580 -0.6817  0.1830
  344MPD2    C1 5208   3.207   3.543  11.009  0.4858  0.4030  0.3311
  344MPD2    C2 5209   3.216   3.637  10.912 -0.2611  0.1819  0.6936
  344MPD2    C3 5210   3.244   3.772  10.935  0.3393  0.4734 -0.3683
  344MPD2    C4 5211   3.268   3.819  11.062  0.1427  0.2119  0.6823
  344MPD2    C5 5212   3.264   3.731  11.163 -0.6051 -0.1286  0.3481
  344MPD2     H 5213   3.176   3.607  10.816 -1.2008  1.2683  0.7490
  344MPD2    H1 5214   3.306   3.919  11.079 -0.2215  0.1652  1.8041
  344MPD2    H2 5215   3.229   3.538  11.230 -0.5777  2.1142  1.7406
  344MPD2    H3 5216   3.287   3.766  11.263 -1.0614 -0.8407  0.7016
  344MPD2     N 5217   3.258   3.855  10.828  0.0259  0.4765  0.2969
  344MPD2    H5 5218   3.281   3.950  10.856 -0.5405  0.4454  0.8719
  344MPD2    N1 5219   3.169   3.411  10.990  0.2718 -0.0078 -0.1057
  344MPD2    H7 5220   3.119   3.379  10.908 -0.6941  0.5806  0.2612
  345TMC3    C1 5221   3.356   3.896  10.629  0.3903 -0.1457  0.1021
  345TMC3    C2 5222   3.469   3.918  10.712  0.0578  0.0678 -0.6482
  345TMC3    C3 5223   3.548   4.027  10.679 -0.3464 -0.0133 -1.1848
  345TMC3    C4 5224   3.316   3.971  10.525 -0.4332  0.1637  0.1246
  345TMC3    C5 5225   3.396   4.075  10.500 -0.6435  0.1694  0.5275
  345TMC3    C6 5226   3.508   4.108  10.574 -0.6186 -0.0922  0.2505
  345TMC3     C 5227   3.255   3.819  10.692  0.4267 -0.0788 -0.4198
  345TMC3     O 5228   3.205   3.724  10.634  0.4893 -0.9718  0.0167
  345TMC3     H 5229   3.502   3.845  10.784 -1.6667  1.1352  1.2237
  345TMC3    H1 5230   3.217   3.970  10.482 -0.8842 -1.9475  1.1883
  345TMC3    H2 5231   3.550   4.205  10.551 -0.2167 -0.3497 -0.1047
  345TMC3    C7 5232   3.356   4.186  10.417  0.6007 -0.7515  0.3991
  345TMC3    C8 5233   3.583   4.113  10.795 -0.4242  0.0785 -0.5446
  345TMC3    O1 5234   3.372   4.300  10.459  0.3102  0.2694 -0.8590
  345TMC3    O2 5235   3.580   4.233  10.775 -0.0706  0.1637  0.3716
  346MPD2     C 5236   3.170   4.728  14.590 -0.5469 -0.3447  0.0602
  346MPD2    C1 5237   3.211   0.045  14.465 -0.0182  1.1154 -0.0978
  346MPD2    C2 5238   3.323   0.124  14.446  0.6060 -0.8628  0.3268
  346MPD2    C3 5239   3.394   0.159  14.561  0.1948  0.4777 -0.2806
  346MPD2    C4 5240   3.341   0.122  14.682 -0.2674 -0.0562 -0.3725
  346MPD2    C5 5241   3.237   0.034  14.698  0.6077  0.0194 -0.4333
  346MPD2     H 5242   3.363   0.166  14.355 -0.9401  0.8287  0.4262
  346MPD2    H1 5243   3.390   0.156  14.772 -0.8920 -1.3247  0.4412
  346MPD2    H2 5244   3.087   4.660  14.601  0.0843 -1.2362 -0.6694
  346MPD2    H3 5245   3.210   0.007  14.800  0.2173  0.0630 -0.5237
  346MPD2     N 5246   3.499   0.252  14.542  0.0087 -0.0424  0.4821
  346MPD2    H5 5247   3.515   0.280  14.446 -1.7253 -2.0490 -0.3803
  346MPD2    N1 5248   3.127   0.030  14.352 -0.3890  0.5890 -0.2138
  346MPD2    H7 5249   3.162   0.071  14.265  2.0976 -0.9457  0.0459
  347TMC3    C1 5250   3.689   0.373  14.593 -0.2599  0.0471  0.4229
  347TMC3    C2 5251   3.678   0.441  14.469  0.1516 -0.8058  0.5923
  347TMC3    C3 5252   3.791   0.512  14.431  0.3969 -0.3444  0.8158
  347TMC3    C4 5253   3.802   0.361  14.662 -0.4833 -0.1977 -0.3065
  347TMC3    C5 5254   3.910   0.433  14.621 -0.5300  0.1674 -0.1250
  347TMC3    C6 5255   3.905   0.524  14.512  0.2366 -0.0159 -0.0202
  347TMC3     C 5256   3.568   0.310  14.641  0.4455 -0.3438 -0.1262
  347TMC3     O 5257   3.554   0.297  14.763  0.3185 -0.2150  0.0783
  347TMC3     H 5258   3.583   0.483  14.439  0.9548  1.9131  1.9429
  347TMC3    H1 5259   3.796   0.311  14.758  1.1442 -1.0926 -0.6650
  347TMC3    H2 5260   3.995   0.575  14.480 -0.4282  0.2309 -1.5135
  347TMC3    C7 5261   4.026   0.418  14.700  0.3274  0.1917  0.5911
  347TMC3    C8 5262   3.799   0.566  14.296 -0.3430  0.4018 -0.2702
  347TMC3    O1 5263   4.011   0.328  14.781 -0.0674 -1.1456  0.4690
  347TMC3    O2 5264   3.904   0.623  14.266 -0.2964  0.4919  0.4768
  348MPD2     C 5265   2.043   4.331  11.755 -0.7162 -0.2053 -0.5616
  348MPD2    C1 5266   1.906   4.326  11.733  0.3520  0.3844  0.7452
  348MPD2    C2 5267   1.849   4.427  11.659 -0.0457 -0.3329  0.1718
  348MPD2    C3 5268   1.923   4.539  11.620  0.4768 -0.9814 -0.8952
  348MPD2    C4 5269   2.059   4.551  11.657  0.0045 -0.6478  0.5378
  348MPD2    C5 5270   2.115   4.444  11.712  0.1514 -0.2464  0.4918
  348MPD2     H 5271   1.749   4.421  11.619 -0.5499  1.1846  1.2152
  348MPD2    H1 5272   2.116   4.640  11.634 -0.7135 -0.5529 -0.8880
  348MPD2    H2 5273   2.103   4.253  11.801  1.0940  2.0198  0.8134
  348MPD2    H3 5274   2.220   4.445  11.740 -0.4912  0.5821  2.8852
  348MPD2     N 5275   1.857   4.639  11.541  0.4091 -0.4526  0.8055
  348MPD2    H5 5276   1.763   4.625  11.505  0.9423 -1.3200 -0.2642
  348MPD2    N1 5277   1.816   4.218  11.770 -0.3815  0.0456 -0.0468
  348MPD2    H7 5278   1.718   4.218  11.743 -0.1537  0.8160 -0.9127
  349TMC3    C1 5279   1.758   3.993  11.848  0.0490 -0.6094 -0.1621
  349TMC3    C2 5280   1.804   3.884  11.911 -0.3241 -0.3143  0.1247
  349TMC3    C3 5281   1.707   3.799  11.960 -0.4275 -0.3187  0.3262
  349TMC3    C4 5282   1.628   4.016  11.820 -0.3260 -0.0713  0.4101
  349TMC3    C5 5283   1.534   3.938  11.882  0.3836 -0.0578  0.1799
  349TMC3    C6 5284   1.573   3.824  11.945  0.1311  0.4410 -0.3917
  349TMC3     C 5285   1.865   4.102  11.828  0.1165  0.2033  0.2480
  349TMC3     O 5286   1.965   4.090  11.891  0.1945 -0.3442 -0.1110
  349TMC3     H 5287   1.909   3.857  11.921 -0.4580 -1.5273 -1.8567
  349TMC3    H1 5288   1.588   4.104  11.770  1.5073  0.3112 -0.3776
  349TMC3    H2 5289   1.497   3.757  11.985  1.3882 -0.1684  1.0022
  349TMC3    C7 5290   1.395   3.936  11.858 -0.3584  0.8669  0.1108
  349TMC3    C8 5291   1.756   3.699  12.052  0.0261 -0.2357  0.4422
  349TMC3    O1 5292   1.326   3.882  11.941 -0.0307 -0.2226  0.0832
  349TMC3    O2 5293   1.878   3.717  12.070  0.3415 -0.1827 -0.3282
  350MPD2     C 5294   1.368   2.808  10.456  0.3174  0.7249  0.6969
  350MPD2    C1 5295   1.298   2.693  10.471 -0.1933 -0.1848  0.2507
  350MPD2    C2 5296   1.233   2.666  10.589  0.2291  0.3011  0.0421
  350MPD2    C3 5297   1.243   2.763  10.693  0.6891 -0.1879  0.1201
  350MPD2    C4 5298   1.329   2.871  10.680 -1.1004  0.1444 -0.2209
  350MPD2    C5 5299   1.377   2.894  10.556  0.1763 -1.2278  0.3030
  350MPD2     H 5300   1.165   2.583  10.588 -2.2329  2.3175  0.5077
  350MPD2    H1 5301   1.345   2.949  10.754  0.9763  0.3410 -0.9020
  350MPD2    H2 5302   1.411   2.843  10.362  2.3460 -0.2414  1.2491
  350MPD2    H3 5303   1.429   2.985  10.528 -0.3748 -0.4179  1.9074
  350MPD2     N 5304   1.172   2.731  10.810  0.1485  0.7823  0.2340
  350MPD2    H5 5305   1.127   2.641  10.808 -0.2097  0.9903 -1.0775
  350MPD2    N1 5306   1.276   2.605  10.360  0.3043 -0.2774  1.0318
  350MPD2    H7 5307   1.208   2.531  10.374 -0.6820  0.7545  1.7147
  351TMC3    C1 5308   1.290   2.527  10.140 -0.3164  0.4784  0.1242
  351TMC3    C2 5309   1.374   2.445  10.075  0.0204  0.2791  0.1204
  351TMC3    C3 5310   1.326   2.363   9.979  0.7095 -0.4155 -0.0154
  351TMC3    C4 5311   1.150   2.525  10.113  0.2977 -0.1005 -0.7855
  351TMC3    C5 5312   1.108   2.432  10.019 -0.6272 -0.2771  0.6238
  351TMC3    C6 5313   1.192   2.346   9.958  0.0585 -0.2403  0.4079
  351TMC3     C 5314   1.346   2.602  10.247 -0.0909  0.1377 -0.2410
  351TMC3     O 5315   1.456   2.651  10.223 -0.2104  0.2629 -0.4483
  351TMC3     H 5316   1.475   2.447  10.114  0.1313  0.2498 -0.1725
  351TMC3    H1 5317   1.088   2.590  10.174  1.0538 -0.2466  0.1459
  351TMC3    H2 5318   1.147   2.271   9.895 -0.5395 -0.7977  1.4852
  351TMC3    C7 5319   0.964   2.386  10.027  0.1909 -0.1703 -0.1385
  351TMC3    C8 5320   1.407   2.265   9.917 -0.5281  0.6034  0.1974
  351TMC3    O1 5321   0.940   2.264  10.029  0.4883  0.0159  0.7679
  351TMC3    O2 5322   1.351   2.175   9.857 -0.6896  0.4437 -0.0946
  352MPD2     C 5323   3.559   4.080   1.445 -0.5060  0.3795  0.2471
  352MPD2    C1 5324   3.430   4.057   1.411 -0.0089 -0.5759  0.1314
  352MPD2    C2 5325   3.384   3.929   1.417 -0.0094 -0.0329 -0.1744
  352MPD2    C3 5326   3.469   3.824   1.444 -0.3830  0.2707 -0.3333
  352MPD2    C4 5327   3.591   3.847   1.480  0.0992  0.2774  0.4725
  352MPD2    C5 5328   3.640   3.977   1.483 -0.1427  0.2232  0.1381
  352MPD2     H 5329   3.281   3.913   1.387 -0.8003  2.4309  1.2667
  352MPD2    H1 5330   3.644   3.759   1.516  1.3865  0.5422 -0.7703
  352MPD2    H2 5331   3.595   4.181   1.429 -0.0961  0.0348 -0.9884
  352MPD2    H3 5332   3.747   3.989   1.490  0.0423 -0.8850 -0.7995
  352MPD2     N 5333   3.428   3.693   1.449 -0.5954  0.1587  0.1505
  352MPD2    H5 5334   3.484   3.622   1.494 -0.2710  0.9516  0.9974
  352MPD2    N1 5335   3.358   4.171   1.350 -0.2526 -0.2744  0.2706
  352MPD2    H7 5336   3.411   4.255   1.331  1.7044 -1.1115  2.1010
  353TMC3    C1 5337   3.309   3.499   1.378  0.4977  0.7907  0.4245
  353TMC3    C2 5338   3.387   3.422   1.457  0.1440  0.3895 -0.6681
  353TMC3    C3 5339   3.403   3.295   1.413  0.7648  0.1530 -0.2814
  353TMC3    C4 5340   3.234   3.444   1.274 -0.4847  1.0776  0.2632
  353TMC3    C5 5341   3.240   3.309   1.250 -0.4174 -0.2651 -0.2378
  353TMC3    C6 5342   3.338   3.239   1.307  0.0328  0.0131 -0.0336
  353TMC3     C 5343   3.330   3.642   1.370  0.1628  0.1485  0.3233
  353TMC3     O 5344   3.252   3.695   1.294  0.3906 -0.2072  0.7498
  353TMC3     H 5345   3.440   3.462   1.544 -0.7748 -0.9543  0.5012
  353TMC3    H1 5346   3.150   3.501   1.237 -1.1994 -1.7632 -2.4437
  353TMC3    H2 5347   3.364   3.137   1.280  2.3987  0.0333  2.1434
  353TMC3    C7 5348   3.209   3.271   1.117 -0.2536  0.1414  0.3370
  353TMC3    C8 5349   3.498   3.213   1.485  0.1282 -0.9060  0.5360
  353TMC3    O1 5350   3.265   3.174   1.072 -0.1950 -0.0019  0.2727
  353TMC3    O2 5351   3.528   3.247   1.600 -0.2635 -0.3318 -0.4181
  354TMC3    C1 5352   0.698   0.450  13.253  0.5531  0.2124  0.0733
  354TMC3    C2 5353   0.677   0.586  13.267  0.2795 -0.4885  0.1515
  354TMC3    C3 5354   0.767   0.667  13.206  0.1278  0.1710 -0.1453
  354TMC3    C4 5355   0.773   0.393  13.149  0.4090  0.3838  0.3997
  354TMC3    C5 5356   0.859   0.480  13.091  0.1223 -0.1325  0.5018
  354TMC3    C6 5357   0.867   0.617  13.122 -0.0980  0.0644 -0.0484
  354TMC3     C 5358   0.662   0.362  13.371 -0.8150 -0.1077  1.0463
  354TMC3     O 5359   0.635   0.246  13.349 -0.2197  0.3502  0.2470
  354TMC3     H 5360   0.615   0.629  13.344  1.7099  1.9311 -0.0582
  354TMC3    H1 5361   0.796   0.287  13.145  1.7719  0.6968  0.0505
  354TMC3    H2 5362   0.937   0.687  13.079  1.1319 -0.0850  1.6981
  354TMC3    C7 5363   0.987   0.424  13.044  0.4712  0.0444  0.6268
  354TMC3    C8 5364   0.756   0.810  13.242 -0.8053 -0.4075 -1.0291
  354TMC3    O1 5365   0.989   0.334  12.959  0.2244 -0.1004  0.0601
  354TMC3    O2 5366   0.704   0.835  13.349 -0.2421 -0.5530  0.1898
  355MPD2     C 5367   0.949   1.812  11.794  0.1105  0.1199  0.3028
  355MPD2    C1 5368   1.042   1.806  11.691  0.5005  0.1981 -0.3049
  355MPD2    C2 5369   1.172   1.829  11.711  0.5029 -0.2664  0.5803
  355MPD2    C3 5370   1.213   1.879  11.836  0.2152  0.1363 -0.6229
  355MPD2    C4 5371   1.120   1.878  11.946  0.2468  0.8208  0.4430
  355MPD2    C5 5372   0.994   1.841  11.915  0.8202 -0.4863  0.5614
  355MPD2     H 5373   1.248   1.812  11.635 -0.7215 -0.6265 -0.5530
  355MPD2    H1 5374   1.159   1.893  12.046  1.0994  2.7606 -0.1769
  355MPD2    H2 5375   0.845   1.786  11.778  0.3642 -0.2846 -0.7223
  355MPD2    H3 5376   0.929   1.844  12.002  0.0824 -2.1788  0.0689
  355MPD2     N 5377   1.342   1.933  11.873  0.7163  0.5849 -0.4443
  355MPD2    H5 5378   1.345   1.961  11.971 -0.0379  1.2662 -0.6145
  355MPD2    N1 5379   0.987   1.772  11.567  0.7833  0.0002  0.0868
  355MPD2    H7 5380   0.898   1.722  11.568  1.4140 -1.2372 -4.0663
  356TMC3    C1 5381   1.543   2.046  11.842 -0.6448 -0.2620 -0.3742
  356TMC3    C2 5382   1.627   2.121  11.766  0.0236  0.6888  0.1364
  356TMC3    C3 5383   1.717   2.210  11.826 -0.1415 -0.9272 -0.7279
  356TMC3    C4 5384   1.554   2.054  11.978 -0.2401 -0.1229  0.7025
  356TMC3    C5 5385   1.637   2.149  12.037  0.5255 -0.0423  0.0438
  356TMC3    C6 5386   1.722   2.229  11.961  0.5841 -0.1953  0.0438
  356TMC3     C 5387   1.444   1.955  11.783 -0.2366  0.7526  0.1086
  356TMC3     O 5388   1.455   1.928  11.664 -0.2389  0.4027 -0.1276
  356TMC3     H 5389   1.620   2.111  11.658  0.8272 -0.2198  0.1700
  356TMC3    H1 5390   1.501   1.984  12.043 -0.0956  0.7058  1.7161
  356TMC3    H2 5391   1.767   2.318  12.003 -1.6913  1.3039 -0.7251
  356TMC3    C7 5392   1.661   2.124  12.181  0.0886 -0.2668  0.2832
  356TMC3    C8 5393   1.812   2.266  11.729 -0.0277  0.2410  0.6486
  356TMC3    O1 5394   1.565   2.095  12.249  0.3461 -0.4970 -0.1840
  356TMC3    O2 5395   1.800   2.235  11.610  0.2791 -0.2517  0.0741
  357MPD2     C 5396   1.257   1.695   2.084 -0.2234  0.7034 -0.0624
  357MPD2    C1 5397   1.259   1.656   1.952  0.1060  0.0119  0.5866
  357MPD2    C2 5398   1.163   1.706   1.863  0.2856 -0.2377  0.4579
  357MPD2    C3 5399   1.079   1.810   1.895 -0.4922 -0.7427 -0.0199
  357MPD2    C4 5400   1.085   1.853   2.029  0.0326  0.3020 -0.1236
  357MPD2    C5 5401   1.164   1.793   2.122  0.1232  0.3540 -0.1213
  357MPD2     H 5402   1.171   1.667   1.762  1.3493  0.0736  0.4249
  357MPD2    H1 5403   1.018   1.929   2.068 -0.3243  0.0778 -0.3082
  357MPD2    H2 5404   1.316   1.657   2.167  0.0455  1.3111  0.0304
  357MPD2    H3 5405   1.154   1.823   2.225  1.6506 -3.8712  1.2274
  357MPD2     N 5406   0.971   1.864   1.817 -0.1318  0.2356 -0.7597
  357MPD2    H5 5407   0.898   1.911   1.869 -1.8255 -3.0768 -0.2136
  357MPD2    N1 5408   1.350   1.548   1.910 -0.1891 -0.8715  0.2872
  357MPD2    H7 5409   1.408   1.497   1.976  1.1602 -0.2495 -0.3999
  358TMC3    C1 5410   1.447   1.380   1.784  0.6915  0.0618 -0.0816
  358TMC3    C2 5411   1.428   1.281   1.697  0.2064 -0.3233  0.5492
  358TMC3    C3 5412   1.515   1.179   1.684  0.3169  0.0520 -0.3736
  358TMC3    C4 5413   1.551   1.376   1.866 -0.4276 -0.7443 -0.6462
  358TMC3    C5 5414   1.630   1.264   1.865  0.2382  1.5158  0.5078
  358TMC3    C6 5415   1.618   1.165   1.776  0.1098 -0.4034 -0.0367
  358TMC3     C 5416   1.347   1.486   1.785  0.0521 -0.5650  0.2332
  358TMC3     O 5417   1.281   1.503   1.686  0.1364  0.2898 -0.0414
  358TMC3     H 5418   1.340   1.279   1.634  0.4443 -2.6433  0.2951
  358TMC3    H1 5419   1.587   1.464   1.917  0.4860 -0.9052 -1.0133
  358TMC3    H2 5420   1.678   1.075   1.784 -0.6399 -1.0043 -1.0566
  358TMC3    C7 5421   1.761   1.271   1.927  0.0970 -0.4321 -0.1312
  358TMC3    C8 5422   1.478   1.082   1.586 -0.2164 -0.2965  0.3166
  358TMC3    O1 5423   1.847   1.191   1.886 -0.1892 -0.1375  0.1563
  358TMC3    O2 5424   1.379   1.100   1.523 -0.1231 -0.0153  0.1316
  359MPD2     C 5425   1.400   4.643  12.437 -0.3407  0.1427 -1.2757
  359MPD2    C1 5426   1.373   4.698  12.319  0.3361 -0.0398  0.1293
  359MPD2    C2 5427   1.244   4.682  12.269  0.1878  0.5445  0.0881
  359MPD2    C3 5428   1.156   4.603  12.338 -0.8377 -0.1761 -0.4747
  359MPD2    C4 5429   1.187   4.553  12.461 -0.0001  0.1414 -0.0751
  359MPD2    C5 5430   1.312   4.581  12.509  0.7442 -0.5144  0.2405
  359MPD2     H 5431   1.216   4.715  12.170 -3.5248  0.3177  1.0498
  359MPD2    H1 5432   1.120   4.508  12.533  1.7421 -1.1959  0.7063
  359MPD2    H2 5433   1.502   4.637  12.471 -1.3198 -2.1471  1.2019
  359MPD2    H3 5434   1.332   4.545  12.609  0.4179 -2.5200 -0.4146
  359MPD2     N 5435   1.025   4.568  12.293 -0.3631 -0.3272 -0.1843
  359MPD2    H5 5436   0.968   4.510  12.353 -1.2059  0.8111  0.1178
  359MPD2    N1 5437   1.474   0.020  12.237  0.4036 -0.2477  0.3461
  359MPD2    H7 5438   1.442   0.052  12.146 -1.2453 -2.0758  0.2738
  360TMC3    C1 5439   1.690   0.089  12.171  0.3380 -0.3403 -0.4062
  360TMC3    C2 5440   1.817   0.135  12.201 -0.7221  0.3118  0.2863
  360TMC3    C3 5441   1.893   0.191  12.104  0.7031 -0.3250  0.1986
  360TMC3    C4 5442   1.642   0.079  12.043  0.3504 -0.2683 -0.3084
  360TMC3    C5 5443   1.724   0.128  11.944 -0.0980 -0.0918 -0.5924
  360TMC3    C6 5444   1.846   0.181  11.972  0.9273 -0.2695 -0.0283
  360TMC3     C 5445   1.607   0.054  12.278 -0.2290  0.0950  0.4071
  360TMC3     O 5446   1.666   0.042  12.385 -0.2492  0.3828 -0.3327
  360TMC3     H 5447   1.845   0.158  12.304 -0.3048  1.0033  0.0180
  360TMC3    H1 5448   1.549   0.027  12.022  0.5364  0.1168 -2.0844
  360TMC3    H2 5449   1.911   0.227  11.898 -0.3923 -0.1556 -1.1054
  360TMC3    C7 5450   1.678   0.151  11.812  0.1384 -0.3299  0.4415
  360TMC3    C8 5451   2.029   0.228  12.130 -0.3136  0.3263  0.0681
  360TMC3    O1 5452   1.744   0.225  11.744 -0.5578 -0.1318 -0.2097
  360TMC3    O2 5453   2.065   0.235  12.248  0.2419  0.1531 -0.0719
  361MPD2     C 5454   3.207   3.593  16.683  0.5607  0.2194 -0.2154
  361MPD2    C1 5455   3.189   3.665  16.797 -0.3717 -0.2647 -0.0182
  361MPD2    C2 5456   3.263   3.627  16.909  0.3297 -0.1667 -0.6979
  361MPD2    C3 5457   3.343   3.517  16.908 -0.1131  0.0520  0.2403
  361MPD2    C4 5458   3.372   3.458  16.786 -0.4887  0.8456 -0.1009
  361MPD2    C5 5459   3.296   3.489  16.675  0.1148 -0.0263  0.3309
  361MPD2     H 5460   3.240   3.676  17.003  0.8949 -0.8120 -0.2197
  361MPD2    H1 5461   3.440   3.373  16.782  0.5424  1.6404  0.8180
  361MPD2    H2 5462   3.158   3.626  16.592  0.2202 -1.0955 -0.5032
  361MPD2    H3 5463   3.303   3.422  16.590 -2.5292  0.3836 -0.1753
  361MPD2     N 5464   3.393   3.445  17.022  1.1437 -0.8677 -0.4337
  361MPD2    H5 5465   3.431   3.352  17.012  0.0361 -1.2595 -1.0007
  361MPD2    N1 5466   3.099   3.771  16.808 -0.1557  0.6481 -0.7235
  361MPD2    H7 5467   3.077   3.806  16.901 -2.3589  0.4322 -1.1695
  362TMC3    C1 5468   2.921   3.923  16.761  0.0485 -0.4294  0.1191
  362TMC3    C2 5469   2.912   3.966  16.889 -0.3953  0.5419 -0.4239
  362TMC3    C3 5470   2.824   4.070  16.920  0.2959  0.1748 -0.0454
  362TMC3    C4 5471   2.848   3.986  16.663  0.0165 -0.0851  0.3732
  362TMC3    C5 5472   2.771   4.096  16.697  0.1798  0.4652 -0.1451
  362TMC3    C6 5473   2.751   4.135  16.830  0.1003  1.0039 -0.4558
  362TMC3     C 5474   3.023   3.831  16.710 -0.3879 -0.5429  0.3447
  362TMC3     O 5475   3.035   3.817  16.589 -0.4670 -0.0189 -0.3280
  362TMC3     H 5476   2.970   3.916  16.966 -0.3413  2.4441  0.7626
  362TMC3    H1 5477   2.857   3.962  16.558 -0.1984  0.2539  0.2801
  362TMC3    H2 5478   2.684   4.219  16.847 -1.2075 -0.0333 -0.5144
  362TMC3    C7 5479   2.723   4.173  16.583  0.1003  0.0946 -0.4031
  362TMC3    C8 5480   2.816   4.101  17.064 -0.3391  0.8878  0.1790
  362TMC3    O1 5481   2.610   4.219  16.584 -0.2112  0.1031 -0.1684
  362TMC3    O2 5482   2.910   4.070  17.137 -0.5161 -0.4345  0.4275
  363TMC3    C1 5483   1.519   2.085   9.474 -0.7340 -0.7270  0.1654
  363TMC3    C2 5484   1.659   2.091   9.482  0.3900  0.1697 -0.2489
  363TMC3    C3 5485   1.710   2.215   9.472  0.3286 -0.0542 -0.4201
  363TMC3    C4 5486   1.437   2.198   9.495  0.2167 -0.2196  0.5994
  363TMC3    C5 5487   1.502   2.319   9.497 -0.4727 -0.0529  0.3192
  363TMC3    C6 5488   1.635   2.331   9.490  0.0693  0.0917  0.5833
  363TMC3     C 5489   1.455   1.957   9.478 -0.0254  0.0253  0.0647
  363TMC3     O 5490   1.345   1.942   9.527 -0.0356 -0.2070  0.1925
  363TMC3     H 5491   1.715   1.998   9.485 -0.3003 -0.2895 -1.3480
  363TMC3    H1 5492   1.329   2.196   9.508  0.0731 -1.1259 -0.6821
  363TMC3    H2 5493   1.683   2.428   9.491 -0.9123  0.6068 -1.2430
  363TMC3    C7 5494   1.426   2.437   9.537  0.2594 -0.3763 -0.5290
  363TMC3    C8 5495   1.856   2.227   9.484 -0.2065 -0.2264  0.1481
  363TMC3    O1 5496   1.487   2.543   9.563  0.3258  0.3290 -0.1986
  363TMC3    O2 5497   1.906   2.334   9.517 -0.2474  1.0199 -0.4156
  364MPD2     C 5498   0.213   1.151  10.456  0.8270  0.0358  0.6341
  364MPD2    C1 5499   0.338   1.145  10.406 -0.0731  0.6653  0.6716
  364MPD2    C2 5500   0.410   1.026  10.434  0.1509 -0.3889  0.3560
  364MPD2    C3 5501   0.366   0.915  10.504 -0.3932  0.1090 -0.3906
  364MPD2    C4 5502   0.239   0.931  10.560 -0.9503 -0.4063 -0.3512
  364MPD2    C5 5503   0.167   1.048  10.536  0.5861  0.2793 -0.6065
  364MPD2     H 5504   0.513   1.026  10.398  0.7743  0.8304  2.1668
  364MPD2    H1 5505   0.208   0.849  10.623  1.1937 -1.6213 -0.8653
  364MPD2    H2 5506   0.150   1.238  10.445  0.3336 -0.0999  2.4110
  364MPD2    H3 5507   0.066   1.066  10.571  1.2467 -0.1093  1.4920
  364MPD2     N 5508   0.446   0.802  10.532 -0.1052  0.7477 -0.6547
  364MPD2    H5 5509   0.417   0.731  10.599 -0.6885  1.1318 -0.4986
  364MPD2    N1 5510   0.387   1.264  10.347  0.3365 -0.1325  1.1159
  364MPD2    H7 5511   0.328   1.345  10.356  0.3352 -0.0184  0.0541
  365TMC3    C1 5512   0.513   1.399  10.205  0.7283  0.0319  0.4185
  365TMC3    C2 5513   0.611   1.404  10.109  0.1831 -0.0067  0.0575
  365TMC3    C3 5514   0.630   1.523  10.044 -0.5165  0.7585 -0.6244
  365TMC3    C4 5515   0.442   1.507  10.237 -0.7872 -0.6334  0.7438
  365TMC3    C5 5516   0.460   1.622  10.162  0.2570 -1.0336 -0.4293
  365TMC3    C6 5517   0.553   1.632  10.067 -0.3299 -0.1932 -0.3056
  365TMC3     C 5518   0.508   1.276  10.291  0.0074 -0.3360  0.3850
  365TMC3     O 5519   0.598   1.195  10.275 -0.8314 -0.2829 -0.2014
  365TMC3     H 5520   0.665   1.317  10.073 -1.0309 -0.6381 -0.2375
  365TMC3    H1 5521   0.382   1.507  10.327  0.3371  0.5920  1.4892
  365TMC3    H2 5522   0.560   1.730  10.022  1.6116 -1.0552 -1.8922
  365TMC3    C7 5523   0.406   1.746  10.206  0.4015  1.6670 -0.0481
  365TMC3    C8 5524   0.726   1.538   9.935  0.9636 -0.6579 -0.4317
  365TMC3    O1 5525   0.391   1.836  10.123  0.3173 -0.1689 -0.2817
  365TMC3    O2 5526   0.713   1.638   9.864 -0.5626  0.3899  0.4190
  366MPD2     C 5527   3.038   1.823  15.504 -0.5089  0.4807 -0.1108
  366MPD2    C1 5528   3.099   1.914  15.415 -0.1354 -0.1613  0.1938
  366MPD2    C2 5529   3.185   1.863  15.321  0.8480  0.5949  0.3664
  366MPD2    C3 5530   3.205   1.728  15.310  0.2524 -0.1414  0.8511
  366MPD2    C4 5531   3.126   1.645  15.380  0.5144 -0.5800  0.3603
  366MPD2    C5 5532   3.050   1.689  15.483  0.1379  0.6309  0.3381
  366MPD2     H 5533   3.252   1.930  15.269  0.1821 -0.2675 -1.6160
  366MPD2    H1 5534   3.132   1.537  15.371 -1.2749 -0.6439 -0.1138
  366MPD2    H2 5535   2.974   1.855  15.585  2.4985 -1.8642  3.1870
  366MPD2    H3 5536   3.002   1.629  15.560  1.1272 -0.0631  0.4104
  366MPD2     N 5537   3.307   1.695  15.219 -0.4803  0.6275 -0.0816
  366MPD2    H5 5538   3.339   1.774  15.164  0.8850 -1.0124 -1.6368
  366MPD2    N1 5539   3.105   2.050  15.438  0.3867 -0.5897 -0.0619
  366MPD2    H7 5540   3.157   2.102  15.368  0.9925 -1.2414 -0.0993
  367TMC3    C1 5541   3.081   2.254  15.546 -0.4164  0.2709 -0.3183
  367TMC3    C2 5542   3.141   2.313  15.650  0.3747 -0.1067 -0.1588
  367TMC3    C3 5543   3.211   2.425  15.634  0.7752  0.2289 -0.2313
  367TMC3    C4 5544   3.107   2.303  15.423  0.6288  0.1460 -0.0260
  367TMC3    C5 5545   3.180   2.415  15.406 -0.0097 -0.2948 -0.0654
  367TMC3    C6 5546   3.231   2.481  15.512  0.5435  0.2416  0.0957
  367TMC3     C 5547   3.061   2.115  15.552  0.5922 -0.1303 -1.1561
  367TMC3     O 5548   3.015   2.072  15.660 -0.0324  0.7393 -0.0302
  367TMC3     H 5549   3.123   2.288  15.754 -1.1752  2.3719  0.1737
  367TMC3    H1 5550   3.050   2.262  15.340 -0.3929 -0.6063  1.0494
  367TMC3    H2 5551   3.277   2.578  15.498 -2.9633  2.0060  0.7872
  367TMC3    C7 5552   3.159   2.502  15.290 -0.0239 -0.2401  0.1343
  367TMC3    C8 5553   3.303   2.459  15.740  0.0869 -0.4577 -0.0332
  367TMC3    O1 5554   3.141   2.623  15.307 -0.4602  0.5626  0.1323
  367TMC3    O2 5555   3.299   2.391  15.842 -0.5880  0.5895  0.4894
  368MPD2     C 5556   4.367   4.340  13.383  0.1887  0.3986  0.6124
  368MPD2    C1 5557   4.410   4.456  13.324  0.0042 -0.2300 -0.5884
  368MPD2    C2 5558   4.471   4.451  13.201  0.6182  0.1232 -0.0938
  368MPD2    C3 5559   4.483   4.334  13.128 -0.2087 -0.1859  0.0298
  368MPD2    C4 5560   4.433   4.225  13.186 -0.4098  0.0480  0.3852
  368MPD2    C5 5561   4.378   4.225  13.311 -0.9931  0.0522  0.0988
  368MPD2     H 5562   4.508   4.542  13.157 -2.0365  0.1745 -2.1850
  368MPD2    H1 5563   4.445   4.130  13.135 -0.3568 -0.3562  1.1459
  368MPD2    H2 5564   4.322   4.332  13.481  1.5882 -0.9716  1.1462
  368MPD2    H3 5565   4.355   4.129  13.356 -2.2033 -0.7989 -2.3674
  368MPD2     N 5566   4.539   4.330  13.002 -0.6106  0.3303  0.7376
  368MPD2    H5 5567   4.561   4.238  12.966 -1.1400  0.5290 -0.0951
  368MPD2    N1 5568   4.368   4.578  13.381 -0.4087  0.4007 -0.6552
  368MPD2    H7 5569   4.307   4.559  13.461 -2.3425  1.7570 -1.8032
  369TMC3    C1 5570   4.320   0.072  13.349  1.1148  0.4780 -0.6393
  369TMC3    C2 5571   4.377   0.189  13.304 -0.6786  0.2399 -0.5788
  369TMC3    C3 5572   4.307   0.251  13.208 -0.7097  0.5843  0.4112
  369TMC3    C4 5573   4.194   0.030  13.334 -0.6351 -0.9261  0.1478
  369TMC3    C5 5574   4.137   0.087  13.227  0.2564 -0.5073  0.2290
  369TMC3    C6 5575   4.183   0.198  13.168  0.0936 -0.4560 -0.0525
  369TMC3     C 5576   4.416   4.699  13.343 -0.2938  0.5530 -0.2412
  369TMC3     O 5577   4.512   4.728  13.276 -0.8718 -0.2406 -0.4159
  369TMC3     H 5578   4.469   0.234  13.340 -0.1922 -3.6441  3.0993
  369TMC3    H1 5579   4.153   4.677  13.381 -0.2792 -1.1139  0.1116
  369TMC3    H2 5580   4.121   0.228  13.085  1.8365  0.2509 -1.1015
  369TMC3    C7 5581   4.037   0.004  13.162  0.9068  0.4586  0.0560
  369TMC3    C8 5582   4.363   0.366  13.136 -0.3265  0.3320 -0.7052
  369TMC3    O1 5583   4.064   4.624  13.145  0.3078  0.5978  0.2012
  369TMC3    O2 5584   4.301   0.409  13.044 -0.3629  0.2260 -0.0390
  370TMC3    C1 5585   4.066   4.567  16.204  0.2378  0.3491  1.4943
  370TMC3    C2 5586   3.997   4.516  16.317 -0.2122 -0.1725  0.5176
  370TMC3    C3 5587   3.921   4.409  16.300  0.1079 -0.4932  0.0013
  370TMC3    C4 5588   4.060   4.502  16.080  0.3942 -0.4357 -0.2148
  370TMC3    C5 5589   3.971   4.399  16.068 -0.4309 -0.5315  0.7038
  370TMC3    C6 5590   3.901   4.348  16.176 -0.2072 -0.5183 -0.4130
  370TMC3     C 5591   4.195   4.627  16.250  0.0876  0.4793 -0.1748
  370TMC3     O 5592   4.240   4.582  16.355 -0.0347  0.4202 -0.3560
  370TMC3     H 5593   4.020   4.544  16.419  2.2360 -1.5277  0.3430
  370TMC3    H1 5594   4.129   4.541  16.005 -0.2000  0.4731 -0.2899
  370TMC3    H2 5595   3.843   4.257  16.164  0.7111 -0.9900 -1.3129
  370TMC3    C7 5596   3.995   4.320  15.946  0.0745  0.5651 -0.0937
  370TMC3    C8 5597   3.861   4.333  16.413 -0.0293  0.1890 -0.1119
  370TMC3    O1 5598   4.021   4.384  15.848  0.2543 -0.1548 -0.1375
  370TMC3    O2 5599   3.821   4.219  16.387 -0.0465 -0.2592  0.5228
  371TMC3    C1 5600   0.595   2.803  15.587 -0.4841  0.0060  0.5655
  371TMC3    C2 5601   0.482   2.790  15.659 -0.0644  0.2182  0.0384
  371TMC3    C3 5602   0.404   2.898  15.687  0.3917  0.2714 -0.3698
  371TMC3    C4 5603   0.625   2.918  15.509 -0.0701  0.1624 -0.5036
  371TMC3    C5 5604   0.533   3.019  15.519 -0.3318 -0.8431 -0.4517
  371TMC3    C6 5605   0.421   3.004  15.603 -0.2818  0.7659 -0.4378
  371TMC3     C 5606   0.679   2.683  15.568  0.2543 -0.0628 -0.1266
  371TMC3     O 5607   0.779   2.706  15.506 -0.5906  0.1241 -0.1182
  371TMC3     H 5608   0.462   2.703  15.720  0.1566  1.2210  1.5295
  371TMC3    H1 5609   0.697   2.919  15.428  1.0252  1.5282  0.4878
  371TMC3    H2 5610   0.347   3.083  15.604  0.1599  1.1814 -0.4326
  371TMC3    C7 5611   0.557   3.133  15.431 -0.0273  0.2253 -0.8562
  371TMC3    C8 5612   0.274   2.878  15.738  0.5408 -0.3806 -0.5710
  371TMC3    O1 5613   0.462   3.189  15.378  0.7367 -0.2346  0.0500
  371TMC3    O2 5614   0.251   2.764  15.771 -0.2562  0.0689  0.1621
  372MPD2     C 5615   0.116   4.483  13.435 -0.2941 -0.0225  0.2138
  372MPD2    C1 5616   0.164   4.357  13.456 -0.2072 -0.9042 -0.2840
  372MPD2    C2 5617   0.095   4.267  13.533 -0.0919 -0.5760 -0.1234
  372MPD2    C3 5618   4.702   4.303  13.567 -0.2641  1.2314 -0.0817
  372MPD2    C4 5619   4.650   4.428  13.544  0.3013  0.1138  0.9492
  372MPD2    C5 5620   4.732   4.518  13.482 -0.1546 -1.0061  0.5390
  372MPD2     H 5621   0.140   4.173  13.563  0.5542  0.1374  1.1302
  372MPD2    H1 5622   4.553   4.465  13.575 -0.1577  0.6232 -1.0944
  372MPD2    H2 5623   0.180   4.553  13.382  0.0157  0.8610  1.7306
  372MPD2    H3 5624   4.704   4.623  13.470 -1.0406 -1.0859  1.9113
  372MPD2     N 5625   4.628   4.194  13.626  0.0109 -0.5027  0.0104
  372MPD2    H5 5626   4.676   4.105  13.638  0.7181 -0.2186 -0.7041
  372MPD2    N1 5627   0.289   4.317  13.422 -0.2226  0.1444  0.1362
  372MPD2    H7 5628   0.312   4.219  13.434  0.9358  0.2519 -1.1815
  373TMC3    C1 5629   4.453   4.077  13.720 -0.5779  0.5709 -0.9213
  373TMC3    C2 5630   4.377   4.078  13.834  0.5334 -0.7917  0.6936
  373TMC3    C3 5631   4.373   3.965  13.909  0.1251 -0.1193  0.4863
  373TMC3    C4 5632   4.515   3.964  13.669 -0.2494  0.0280  0.0374
  373TMC3    C5 5633   4.499   3.850  13.745  0.5007  0.4334  0.1888
  373TMC3    C6 5634   4.424   3.850  13.861 -0.0649  0.4378 -0.6641
  373TMC3     C 5635   4.501   4.204  13.683 -0.5472  0.2083  0.1638
  373TMC3     O 5636   4.426   4.300  13.702  0.3521 -0.0290 -0.4698
  373TMC3     H 5637   4.346   4.175  13.872 -1.9186 -0.7333 -1.4972
  373TMC3    H1 5638   4.561   3.963  13.570  0.2744  0.4702  0.2743
  373TMC3    H2 5639   4.408   3.766  13.928 -1.4975  0.0973 -1.4204
  373TMC3    C7 5640   4.607   3.754  13.735 -0.3486 -0.9014 -0.1997
  373TMC3    C8 5641   4.445   3.987  14.034 -0.3959  0.0554  0.1569
  373TMC3    O1 5642   4.685   3.766  13.639 -0.0281  0.2804  0.0323
  373TMC3    O2 5643   4.534   4.071  14.029  0.5286  0.0129 -0.2544
  374TMC3    C1 5644   1.447   4.320   9.405  0.0555  0.1034 -0.3753
  374TMC3    C2 5645   1.456   4.451   9.447  0.2864 -0.1754  0.5336
  374TMC3    C3 5646   1.500   4.541   9.348  0.0853  0.8230  0.3888
  374TMC3    C4 5647   1.509   4.269   9.299  0.3538  0.0661  0.4096
  374TMC3    C5 5648   1.573   4.358   9.221 -0.2247 -0.0100  0.7262
  374TMC3    C6 5649   1.557   4.494   9.235  0.0029  0.5832  0.4915
  374TMC3     C 5650   1.361   4.226   9.472  0.4094 -0.1510 -0.3708
  374TMC3     O 5651   1.331   4.124   9.414 -0.2446  0.2888 -0.0535
  374TMC3     H 5652   1.390   4.483   9.526 -1.7983 -1.4650 -0.6581
  374TMC3    H1 5653   1.508   4.165   9.267 -1.6448  0.2377 -0.1039
  374TMC3    H2 5654   1.611   4.558   9.167  1.6130 -1.2672  0.0144
  374TMC3    C7 5655   1.677   4.318   9.118  0.2230 -0.2944 -0.1452
  374TMC3    C8 5656   1.514   4.677   9.382 -0.6056 -0.7052  0.4522
  374TMC3    O1 5657   1.740   4.414   9.072 -0.4758  0.1274  0.0549
  374TMC3    O2 5658   1.532   0.027   9.297 -0.0790  0.1476 -0.2029
  375MPD2     C 5659   0.987   0.304  17.436 -0.3548  0.3068  0.7409
  375MPD2    C1 5660   0.893   0.334  17.343 -0.8414 -0.1720 -0.1604
  375MPD2    C2 5661   0.864   0.241  17.247  0.5470  0.5093  0.3325
  375MPD2    C3 5662   0.946   0.130  17.231  0.0428 -0.1627  0.3723
  375MPD2    C4 5663   1.062   0.119  17.306  0.5669  0.0741 -0.6173
  375MPD2    C5 5664   1.077   0.202  17.411  0.0876  0.4776 -1.1084
  375MPD2     H 5665   0.778   0.254  17.183  1.3401  0.9346 -0.6483
  375MPD2    H1 5666   1.136   0.049  17.269  0.4469 -0.6044  0.4343
  375MPD2    H2 5667   1.009   0.365  17.523 -1.1200  0.3243  0.9187
  375MPD2    H3 5668   1.174   0.219  17.457 -1.4983  4.7678  0.5984
  375MPD2     N 5669   0.924   0.027  17.142 -0.2816  0.2363 -0.1392
  375MPD2    H5 5670   0.999   4.695  17.135  0.6229  1.2732 -0.5677
  375MPD2    N1 5671   0.805   0.441  17.353  0.0767  1.0937  0.8512
  375MPD2    H7 5672   0.722   0.438  17.294  0.4313 -2.5736  0.5848
  376TMC3    C1 5673   0.829   4.631  16.974 -0.3460  0.5569  0.0131
  376TMC3    C2 5674   0.949   4.577  16.943  0.1075  0.4636 -0.1111
  376TMC3    C3 5675   0.950   4.484  16.838 -0.2353 -0.3070  0.1866
  376TMC3    C4 5676   0.711   4.598  16.902  0.1087 -0.0245 -0.1223
  376TMC3    C5 5677   0.723   4.503  16.807  0.4297  0.4449  1.0077
  376TMC3    C6 5678   0.839   4.446  16.766  0.0713 -0.4563  0.2341
  376TMC3     C 5679   0.814   0.002  17.067  0.1227 -0.0874 -0.0753
  376TMC3     O 5680   0.703   0.051  17.081 -0.1913  0.3925 -0.1346
  376TMC3     H 5681   1.037   4.621  16.989  1.7793 -1.2285 -1.6811
  376TMC3    H1 5682   0.613   4.622  16.942 -0.1895 -0.4361 -0.6168
  376TMC3    H2 5683   0.846   4.394  16.671  0.8450 -0.8868  0.5221
  376TMC3    C7 5684   0.620   4.525  16.702 -0.3125  0.1501 -0.0878
  376TMC3    C8 5685   1.074   4.470  16.783 -0.1549  0.9545 -0.1136
  376TMC3    O1 5686   0.569   4.632  16.689 -0.3508  0.7349  0.3739
  376TMC3    O2 5687   1.138   4.574  16.781 -0.7381 -0.1950 -0.2148
  377MPD2     C 5688   3.038   0.481  12.569 -1.2427 -0.6289 -0.2660
  377MPD2    C1 5689   3.108   0.406  12.655 -0.2322  0.2062  0.1516
  377MPD2    C2 5690   3.050   0.371  12.782 -0.0430 -0.1828  0.4565
  377MPD2    C3 5691   2.922   0.415  12.807 -0.2806 -0.1042  0.4353
  377MPD2    C4 5692   2.857   0.494  12.718 -0.2109 -0.1179 -0.1396
  377MPD2    C5 5693   2.916   0.532  12.601  0.4207  0.7483  0.7448
  377MPD2     H 5694   3.099   0.318  12.862  2.4177  3.2062  1.1540
  377MPD2    H1 5695   2.756   0.516  12.751  1.0315  1.4322  2.6142
  377MPD2    H2 5696   3.068   0.510  12.469 -0.1458  1.8105  0.7777
  377MPD2    H3 5697   2.854   0.584  12.529  0.2824 -0.0848  0.2499
  377MPD2     N 5698   2.851   0.371  12.921  0.8048  0.2198  0.0606
  377MPD2    H5 5699   2.753   0.399  12.920  1.2146  1.6390  1.2116
  377MPD2    N1 5700   3.240   0.362  12.614  0.1531  0.4723 -0.1765
  377MPD2    H7 5701   3.280   0.409  12.533 -0.5130 -2.4051 -2.1466
  378TMC3    C1 5702   3.648   0.367  12.554  0.1558  0.6399  0.1875
  378TMC3    C2 5703   3.513   0.374  12.574 -0.7426  1.2376 -0.0073
  378TMC3    C3 5704   3.460   0.261  12.636  0.6628 -0.4185 -0.3268
  378TMC3    C4 5705   3.728   0.263  12.593 -0.6644 -0.1054  0.0534
  378TMC3    C5 5706   3.676   0.170  12.670  0.0302  0.2968 -0.1717
  378TMC3    C6 5707   3.539   0.170  12.690 -0.3088 -0.0260 -0.4931
  378TMC3     C 5708   3.705   0.495  12.511 -0.0685  0.1529  0.4964
  378TMC3     O 5709   3.631   0.572  12.450 -0.1556  0.4469 -0.6280
  378TMC3     H 5710   3.450   0.456  12.543 -1.8495  0.4015  0.0232
  378TMC3    H1 5711   3.833   0.269  12.565 -0.4109 -0.2737  0.9867
  378TMC3    H2 5712   3.504   0.096  12.761  1.3557  0.4143  0.7928
  378TMC3    C7 5713   3.756   0.051  12.699 -0.2192 -0.8372 -0.2584
  378TMC3    C8 5714   3.319   0.272  12.687 -0.5904 -0.0475  0.6214
  378TMC3    O1 5715   3.694   4.681  12.707 -0.2650 -0.5051 -0.3443
  378TMC3    O2 5716   3.293   0.194  12.774  0.0271 -0.0139  0.1799
  379MPD2     C 5717   4.393   2.457  16.328  0.3794  0.3087  0.8428
  379MPD2    C1 5718   4.334   2.363  16.403 -0.1230  0.4512 -0.7580
  379MPD2    C2 5719   4.397   2.319  16.524  0.0769  0.4472 -0.2285
  379MPD2    C3 5720   4.528   2.353  16.555  0.1468  0.1053 -0.1458
  379MPD2    C4 5721   4.592   2.442  16.472 -0.9081 -0.3031  0.0358
  379MPD2    C5 5722   4.520   2.493  16.360  0.1624  0.2350  0.2420
  379MPD2     H 5723   4.340   2.252  16.587  0.3606 -0.7754 -1.2655
  379MPD2    H1 5724   4.691   2.479  16.496 -1.0369  0.9980 -1.4308
  379MPD2    H2 5725   4.349   2.487  16.233  0.6255 -0.4429  0.4923
  379MPD2    H3 5726   4.572   2.563  16.295  2.3196 -1.5524  0.0502
  379MPD2     N 5727   4.598   2.308  16.672  0.4977  0.1213 -0.4290
  379MPD2    H5 5728   4.698   2.319  16.678  0.3519  0.9047  0.8557
  379MPD2    N1 5729   4.210   2.324  16.353 -0.0175  0.4112 -0.4445
  379MPD2    H7 5730   4.170   2.369  16.271 -0.1515 -0.9992 -1.1558
  380TMC3    C1 5731   4.002   2.236  16.341 -0.2254  0.1718  0.3870
  380TMC3    C2 5732   3.981   2.119  16.268 -0.6391  0.5110 -0.9617
  380TMC3    C3 5733   3.946   2.143  16.137 -0.4601 -0.2210  1.1746
  380TMC3    C4 5734   3.950   2.360  16.302 -0.3239 -0.4851 -0.4142
  380TMC3    C5 5735   3.893   2.372  16.174  0.0278 -0.6795  1.1366
  380TMC3    C6 5736   3.887   2.257  16.092  0.0287 -0.2335  0.2844
  380TMC3     C 5737   4.127   2.230  16.413  0.0035 -0.3926  0.0669
  380TMC3     O 5738   4.155   2.126  16.474  0.1039 -0.3180  0.2342
  380TMC3     H 5739   4.037   2.031  16.298  0.1665  2.3736  3.0237
  380TMC3    H1 5740   3.989   2.448  16.352 -0.6253 -0.0967 -0.8592
  380TMC3    H2 5741   3.855   2.276  15.990  0.8128 -1.0287 -0.0980
  380TMC3    C7 5742   3.837   2.493  16.123  0.1372 -0.0047 -0.3457
  380TMC3    C8 5743   3.972   2.036  16.033 -0.2250 -0.0588  0.0809
  380TMC3    O1 5744   3.890   2.598  16.158  0.2564 -0.3303 -0.2005
  380TMC3    O2 5745   4.007   1.928  16.080 -0.5140  0.2060  0.2340
  381TMC3    C1 5746   3.703   3.762  16.094  0.5011  0.1221  0.9534
  381TMC3    C2 5747   3.829   3.756  16.150 -0.6477 -0.1758  0.0097
  381TMC3    C3 5748   3.857   3.833  16.260  0.3379 -0.0924 -0.4088
  381TMC3    C4 5749   3.607   3.845  16.143 -0.4842 -0.0493  0.0445
  381TMC3    C5 5750   3.644   3.930  16.248  0.6197  0.2359 -0.3951
  381TMC3    C6 5751   3.765   3.921  16.314 -0.6766  0.0565  0.1361
  381TMC3     C 5752   3.693   3.695  15.962  0.4458  0.1728  0.2901
  381TMC3     O 5753   3.790   3.628  15.925 -0.4142  0.5833 -0.0814
  381TMC3     H 5754   3.903   3.694  16.100 -1.7605 -0.9087 -0.7535
  381TMC3    H1 5755   3.504   3.848  16.110 -0.5981 -0.1211  0.4039
  381TMC3    H2 5756   3.789   3.981  16.401 -3.4408  1.6221 -0.1725
  381TMC3    C7 5757   3.538   3.958  16.335 -0.4574  0.5690 -0.6314
  381TMC3    C8 5758   4.000   3.855  16.286  0.0006  0.3252 -0.5227
  381TMC3    O1 5759   3.443   3.884  16.342  0.3147 -0.8809 -0.0169
  381TMC3    O2 5760   4.080   3.786  16.222 -0.4766  0.0740  0.1110
  382MPD2     C 5761   3.067   1.284  16.735  0.3757  0.5628 -0.6072
  382MPD2    C1 5762   3.113   1.321  16.860 -1.2630  0.3357  0.5032
  382MPD2    C2 5763   3.156   1.227  16.944  0.6916 -1.0053  0.2387
  382MPD2    C3 5764   3.142   1.091  16.913 -0.0460 -0.3054  0.9556
  382MPD2    C4 5765   3.105   1.055  16.789  0.5293 -0.6907  0.0638
  382MPD2    C5 5766   3.056   1.150  16.700  0.0338 -1.1022 -1.0982
  382MPD2     H 5767   3.200   1.262  17.037 -0.0285  3.4308 -1.1324
  382MPD2    H1 5768   3.104   0.950  16.761  0.0772 -0.3772 -1.0566
  382MPD2    H2 5769   3.041   1.351  16.654 -0.5896  0.5726 -0.3004
  382MPD2    H3 5770   3.030   1.113  16.602  1.3066 -0.7100 -1.5894
  382MPD2     N 5771   3.176   0.984  16.999 -0.7476 -0.2723 -0.5056
  382MPD2    H5 5772   3.139   0.892  16.976 -1.2258 -0.8680  2.6768
  382MPD2    N1 5773   3.135   1.457  16.896 -0.4626 -0.4275 -0.5922
  382MPD2    H7 5774   3.160   1.456  16.995 -0.9648 -0.1030 -0.4573
  383TMC3    C1 5775   3.220   0.875  17.201  0.6941  0.5447 -0.5237
  383TMC3    C2 5776   3.106   0.803  17.190 -0.5166 -0.0142 -0.7231
  383TMC3    C3 5777   3.066   0.716  17.291 -0.6781  0.3699  0.3271
  383TMC3    C4 5778   3.297   0.862  17.314 -0.5245 -0.2552  0.4461
  383TMC3    C5 5779   3.253   0.779  17.409 -0.3599 -0.4365  0.5608
  383TMC3    C6 5780   3.135   0.711  17.407  0.5162 -0.7474  0.0139
  383TMC3     C 5781   3.232   0.999  17.123  0.0252 -0.0470 -0.4358
  383TMC3     O 5782   3.279   1.098  17.173  0.2940  0.2774 -0.0544
  383TMC3     H 5783   3.038   0.818  17.108 -0.4084 -3.2302 -1.3984
  383TMC3    H1 5784   3.388   0.921  17.306  0.4189 -2.1183 -2.4847
  383TMC3    H2 5785   3.103   0.642  17.485  0.6513 -0.7881  0.0344
  383TMC3    C7 5786   3.335   0.774  17.531 -0.4455 -0.8688  0.0349
  383TMC3    C8 5787   2.955   0.629  17.259 -1.7062 -0.6477 -0.3362
  383TMC3    O1 5788   3.278   0.751  17.641  0.2487 -0.6347 -1.0358
  383TMC3    O2 5789   2.904   0.645  17.145  0.0089 -0.0955  0.5646
  384MPD2     C 5790   0.051   2.978  12.135 -0.8821  0.1455 -0.7118
  384MPD2    C1 5791   0.083   2.882  12.228 -0.2461 -0.2804  0.2763
  384MPD2    C2 5792   0.198   2.805  12.204 -0.7987  0.0585  0.5928
  384MPD2    C3 5793   0.283   2.829  12.099 -0.0814 -0.2008  0.3285
  384MPD2    C4 5794   0.253   2.934  12.024 -1.0722 -0.0053  0.0884
  384MPD2    C5 5795   0.135   3.001  12.034 -0.2684 -0.0765 -0.4492
  384MPD2     H 5796   0.220   2.718  12.264 -0.1333 -0.2292 -0.0723
  384MPD2    H1 5797   0.320   2.974  11.948 -1.1066 -0.7366 -0.3207
  384MPD2    H2 5798   4.697   3.038  12.142 -0.8991  0.5110 -4.3660
  384MPD2    H3 5799   0.103   3.074  11.961  0.9390  0.9175  0.0253
  384MPD2     N 5800   0.392   2.740  12.066 -0.3291 -0.4572 -0.8434
  384MPD2    H5 5801   0.450   2.759  11.985 -0.8347 -0.4954 -1.2187
  384MPD2    N1 5802   0.006   2.840  12.340 -0.2604 -0.2326 -0.1224
  384MPD2    H7 5803   0.053   2.772  12.398  0.9385  0.8087  0.1177
  385TMC3    C1 5804   0.505   2.527  12.055  0.0930 -0.6970 -0.2609
  385TMC3    C2 5805   0.496   2.552  11.918  0.4979  0.0413 -0.5836
  385TMC3    C3 5806   0.493   2.439  11.842 -0.2957  0.4796  0.2992
  385TMC3    C4 5807   0.496   2.407  12.117 -0.5663  0.1314 -0.5828
  385TMC3    C5 5808   0.478   2.301  12.031  0.2881  0.7503 -0.6088
  385TMC3    C6 5809   0.475   2.313  11.889  0.3853  0.3157  0.0089
  385TMC3     C 5810   0.422   2.616  12.128  0.4203  0.8107  0.2712
  385TMC3     O 5811   0.366   2.561  12.222 -0.4281 -0.2620 -0.2290
  385TMC3     H 5812   0.512   2.650  11.875  0.3558 -0.2318 -1.2470
  385TMC3    H1 5813   0.514   2.392  12.223 -1.4170 -0.9743 -0.5904
  385TMC3    H2 5814   0.445   2.225  11.833  0.3289 -0.0753  0.6467
  385TMC3    C7 5815   0.364   2.219  12.074 -0.4410  0.3906  0.2255
  385TMC3    C8 5816   0.473   2.460  11.698 -0.1779  0.5156 -0.0088
  385TMC3    O1 5817   0.322   2.124  12.011  0.0948 -0.7325  0.2831
  385TMC3    O2 5818   0.498   2.570  11.648  0.8289  0.3277  0.2411
  386TMC3    C1 5819   0.415   0.564  11.894  0.4980 -0.2489 -0.0226
  386TMC3    C2 5820   0.330   0.507  11.801 -0.5278 -0.1671 -0.2548
  386TMC3    C3 5821   0.211   0.564  11.779 -0.1421 -0.6185  0.8391
  386TMC3    C4 5822   0.373   0.678  11.958  0.1068 -0.4056  0.2000
  386TMC3    C5 5823   0.247   0.731  11.931  0.3459 -0.0606  0.0321
  386TMC3    C6 5824   0.165   0.675  11.839  0.3216  0.5582 -0.4469
  386TMC3     C 5825   0.557   0.528  11.913  0.2242  0.0333 -0.2626
  386TMC3     O 5826   0.620   0.607  11.979 -0.0127  0.2458  0.7114
  386TMC3     H 5827   0.355   0.420  11.742 -0.6682 -0.1861 -0.2867
  386TMC3    H1 5828   0.433   0.721  12.037  1.3453  1.9573 -2.0329
  386TMC3    H2 5829   0.065   0.715  11.827  1.5148  3.2889 -1.5085
  386TMC3    C7 5830   0.188   0.826  12.018 -0.2613  0.5618 -0.0838
  386TMC3    C8 5831   0.127   0.501  11.680 -0.0117 -0.4058  0.2327
  386TMC3    O1 5832   0.069   0.836  12.019 -0.1003 -0.6252  0.5966
  386TMC3    O2 5833   0.070   0.573  11.599 -0.2282  0.4388 -0.4935
  387MPD2     C 5834   3.059   0.904  10.040 -0.0700 -0.3439 -0.1368
  387MPD2    C1 5835   3.173   0.869  10.102 -0.1295 -0.2789 -0.9278
  387MPD2    C2 5836   3.192   0.734  10.125 -0.0059  0.5093 -0.3618
  387MPD2    C3 5837   3.095   0.645  10.089  0.4486 -0.2924 -0.1832
  387MPD2    C4 5838   2.973   0.680  10.036 -0.6966  0.3876  0.3464
  387MPD2    C5 5839   2.961   0.813  10.011 -0.3777 -0.6711  1.2949
  387MPD2     H 5840   3.288   0.694  10.156  0.5206  0.8745 -1.5062
  387MPD2    H1 5841   2.889   0.620  10.003 -0.5272 -0.1859  0.9693
  387MPD2    H2 5842   3.037   1.002  10.000  0.4059 -0.8699 -1.6830
  387MPD2    H3 5843   2.866   0.839   9.967  0.6724  2.0889  0.6523
  387MPD2     N 5844   3.125   0.509  10.112  0.3711  0.5103  0.2662
  387MPD2    H5 5845   3.215   0.490  10.154 -0.2981 -0.6908  1.1583
  387MPD2    N1 5846   3.283   0.952  10.128 -0.5647 -0.8768 -0.5226
  387MPD2    H7 5847   3.365   0.902  10.162 -1.2869 -0.6336  1.6045
  388TMC3    C1 5848   3.435   1.129  10.084 -0.4941  0.4681  1.0705
  388TMC3    C2 5849   3.487   1.248  10.119 -0.1471 -0.4337  0.2996
  388TMC3    C3 5850   3.622   1.265  10.114  0.4773  0.0181 -0.6020
  388TMC3    C4 5851   3.516   1.022  10.043  0.4431 -0.0585 -0.9116
  388TMC3    C5 5852   3.650   1.039  10.048  0.2808 -0.8635  0.2823
  388TMC3    C6 5853   3.704   1.161  10.079  0.3543 -0.3346 -0.8232
  388TMC3     C 5854   3.294   1.089  10.107 -0.1642  0.5379 -0.1446
  388TMC3     O 5855   3.205   1.173  10.090 -0.2741 -0.4488  0.2195
  388TMC3     H 5856   3.427   1.321  10.172 -0.6114 -0.6660  0.0927
  388TMC3    H1 5857   3.475   0.932   9.998 -0.5361 -0.1749  0.2047
  388TMC3    H2 5858   3.812   1.166  10.086  0.1479 -0.4080  2.3001
  388TMC3    C7 5859   3.738   0.924  10.018 -0.0364  0.4292 -0.4524
  388TMC3    C8 5860   3.669   1.404  10.136 -0.0856  0.2954 -0.5071
  388TMC3    O1 5861   3.838   0.942   9.948  0.4654 -0.5029 -0.2391
  388TMC3    O2 5862   3.595   1.490  10.180 -0.2271 -0.4366  0.5852
  389MPD2     C 5863   2.221   3.444  11.543  0.2096  0.1848  0.9369
  389MPD2    C1 5864   2.110   3.387  11.468  0.1969  0.5371  1.3357
  389MPD2    C2 5865   2.037   3.278  11.529 -0.4128 -0.1053  0.2260
  389MPD2    C3 5866   2.058   3.245  11.656  0.4304  0.3076 -0.1224
  389MPD2    C4 5867   2.167   3.299  11.728 -0.3461 -0.0936  0.8387
  389MPD2    C5 5868   2.237   3.401  11.672 -0.8485  0.5093 -0.1111
  389MPD2     H 5869   1.956   3.233  11.473 -0.9590 -1.3971  2.0632
  389MPD2    H1 5870   2.201   3.254  11.820  0.3014  1.9818  1.6193
  389MPD2    H2 5871   2.277   3.528  11.502 -0.6663 -0.5856 -1.8778
  389MPD2    H3 5872   2.321   3.440  11.727  0.4189  0.1263 -1.7917
  389MPD2     N 5873   2.000   3.135  11.720  0.2517 -0.4591  0.0622
  389MPD2    H5 5874   2.041   3.113  11.810 -1.2681  0.7433  1.0581
  389MPD2    N1 5875   2.093   3.449  11.342  0.1697 -0.3316 -0.4057
  389MPD2    H7 5876   2.148   3.533  11.324 -0.6737  0.1009 -0.9712
  390TMC3    C1 5877   1.885   2.937  11.757  0.8287 -0.1440 -0.0809
  390TMC3    C2 5878   1.808   2.836  11.715 -0.1474  0.0199 -0.8779
  390TMC3    C3 5879   1.803   2.719  11.779  0.0411 -0.2139  0.2874
  390TMC3    C4 5880   1.971   2.919  11.862  0.5669 -0.0829 -0.0986
  390TMC3    C5 5881   1.965   2.799  11.929  0.1165 -0.6055  0.3431
  390TMC3    C6 5882   1.886   2.697  11.889  0.0142  0.4955 -0.1263
  390TMC3     C 5883   1.903   3.054  11.669 -0.1750  0.7385  0.2266
  390TMC3     O 5884   1.834   3.059  11.565 -0.9673  0.8508  0.6539
  390TMC3     H 5885   1.760   2.845  11.618  0.3233  3.4541 -0.7959
  390TMC3    H1 5886   2.049   2.990  11.887 -0.6588  1.7165 -1.3860
  390TMC3    H2 5887   1.890   2.599  11.936  0.6310  0.0389 -1.1322
  390TMC3    C7 5888   2.041   2.790  12.057  0.0126  0.1746  0.0550
  390TMC3    C8 5889   1.699   2.623  11.742  0.0085  0.4404 -0.2563
  390TMC3    O1 5890   2.106   2.894  12.083  0.0176  0.4389  0.4780
  390TMC3    O2 5891   1.688   2.589  11.625  0.2319 -1.1328 -0.0897
  391MPD2     C 5892   1.864   4.580  10.913 -0.0063  1.0352 -0.3806
  391MPD2    C1 5893   1.770   4.678  10.939  0.6371 -0.2432  0.3065
  391MPD2    C2 5894   1.705   0.009  10.830  0.0302 -0.0624 -0.0595
  391MPD2    C3 5895   1.728   4.701  10.705  0.3840 -0.6827 -0.7938
  391MPD2    C4 5896   1.820   4.607  10.677  0.0410  0.6861  0.8816
  391MPD2    C5 5897   1.898   4.558  10.781 -0.1342  0.0375 -0.2064
  391MPD2     H 5898   1.637   0.092  10.847  0.1171 -0.7681  3.8229
  391MPD2    H1 5899   1.837   4.592  10.571 -2.0972 -0.9361  0.7604
  391MPD2    H2 5900   1.916   4.534  10.997 -3.1131 -0.7133  0.5536
  391MPD2    H3 5901   1.979   4.492  10.753 -0.2112 -0.1222 -0.0495
  391MPD2     N 5902   1.679   0.043  10.596 -0.4818  0.6638 -0.3713
  391MPD2    H5 5903   1.664   0.140  10.621 -1.3882  0.7189 -1.1592
  391MPD2    N1 5904   1.751   4.717  11.072 -0.0703  0.7205 -0.1202
  391MPD2    H7 5905   1.808   4.670  11.141 -0.3034  0.0694 -0.3721
  392TMC3    C1 5906   1.635   0.106  10.379 -0.3054 -0.3030 -0.2362
  392TMC3    C2 5907   1.603   0.076  10.250  0.5866 -0.7940 -0.1679
  392TMC3    C3 5908   1.621   0.171  10.149 -0.3418  0.4098 -1.1585
  392TMC3    C4 5909   1.702   0.226  10.400  0.1136  0.3680 -0.1354
  392TMC3    C5 5910   1.716   0.311  10.294 -0.7737  0.7189  0.0307
  392TMC3    C6 5911   1.687   0.284  10.170 -0.0992 -0.2745  0.3429
  392TMC3     C 5912   1.652   4.730  10.468  0.3907 -0.4470  0.6091
  392TMC3     O 5913   1.662   4.612  10.427  0.2173  0.1432  0.6090
  392TMC3     H 5914   1.537   4.727  10.241  2.0909 -1.9678 -0.1604
  392TMC3    H1 5915   1.733   0.266  10.496 -0.5873 -2.4692  1.2842
  392TMC3    H2 5916   1.702   0.353  10.087 -0.7341  0.1828  0.6083
  392TMC3    C7 5917   1.797   0.434  10.314  0.2344 -0.3867  0.4869
  392TMC3    C8 5918   1.590   0.129  10.015 -0.2930 -0.0264 -0.2515
  392TMC3    O1 5919   1.779   0.492  10.419 -0.3326 -0.1044 -0.1699
  392TMC3    O2 5920   1.572   0.008  10.004 -0.2750  0.3977 -0.0374
  393TMC3    C1 5921   0.190   2.931  10.512 -0.5261 -0.3923  0.0189
  393TMC3    C2 5922   0.121   2.975  10.620  0.3671 -0.3169 -0.7055
  393TMC3    C3 5923   0.104   2.896  10.727  0.4000 -0.0240  0.2733
  393TMC3    C4 5924   0.241   2.804  10.506 -0.8042  0.8618 -0.3991
  393TMC3    C5 5925   0.220   2.729  10.614 -0.1293 -0.5389 -0.0790
  393TMC3    C6 5926   0.152   2.768  10.729 -0.1246 -0.0320  0.0361
  393TMC3     C 5927   0.245   3.023  10.415  0.1050 -0.1849  0.6500
  393TMC3     O 5928   0.264   2.979  10.307 -0.4245 -0.2054 -0.0438
  393TMC3     H 5929   0.079   3.075  10.615  0.6454 -0.3081 -2.6882
  393TMC3    H1 5930   0.312   2.769  10.432  0.2023  3.0581 -0.4802
  393TMC3    H2 5931   0.132   2.700  10.811  1.2561 -3.2584 -2.3017
  393TMC3    C7 5932   0.286   2.602  10.611 -0.2077  0.1043  0.4581
  393TMC3    C8 5933   0.041   2.935  10.851  0.0017  0.8081 -0.0769
  393TMC3    O1 5934   0.325   2.551  10.508  0.0868  0.1332  0.2789
  393TMC3    O2 5935   4.714   2.849  10.911 -0.1478  0.0784 -0.1403
  394TMC3    C1 5936   2.032   3.485  11.122 -0.5426 -0.5533  0.4018
  394TMC3    C2 5937   1.929   3.468  11.031  0.7349  0.9127  0.1343
  394TMC3    C3 5938   1.956   3.464  10.894  0.1921  0.3206  0.4633
  394TMC3    C4 5939   2.167   3.488  11.077  0.6221  0.4104 -0.6361
  394TMC3    C5 5940   2.187   3.476  10.945 -0.0580 -0.7712  0.9306
  394TMC3    C6 5941   2.084   3.470  10.853  0.1351  0.2201 -1.3556
  394TMC3     C 5942   2.006   3.419  11.246  0.4932 -0.5897 -0.2845
  394TMC3     O 5943   1.900   3.361  11.251  0.4545 -0.5924  0.4231
  394TMC3     H 5944   1.823   3.457  11.050  0.5061 -2.0787 -2.8698
  394TMC3    H1 5945   2.249   3.488  11.148 -0.3023  3.0576  0.4400
  394TMC3    H2 5946   2.102   3.479  10.747  0.2641  2.0627 -1.1759
  394TMC3    C7 5947   2.316   3.536  10.900 -0.1053 -0.2191  0.0975
  394TMC3    C8 5948   1.852   3.402  10.821 -0.1864 -0.0199  0.0970
  394TMC3    O1 5949   2.307   3.610  10.800  0.0503 -0.1321  0.6639
  394TMC3    O2 5950   1.737   3.441  10.813  0.1583 -0.1845  0.6347
  395TMC3    C1 5951   2.002   4.541  14.910 -0.3815 -0.3829 -0.1079
  395TMC3    C2 5952   1.971   4.475  14.795  0.4038 -0.4651  0.0616
  395TMC3    C3 5953   1.977   4.541  14.673 -0.3284  0.1214 -0.3629
  395TMC3    C4 5954   2.024   4.672  14.921 -0.2037 -0.0772  0.1593
  395TMC3    C5 5955   2.038   4.735  14.800 -0.1588  0.1286  0.6650
  395TMC3    C6 5956   2.015   4.674  14.678 -0.1481 -0.2101 -0.0000
  395TMC3     C 5957   1.992   4.475  15.041  0.2824 -0.2326 -0.0157
  395TMC3     O 5958   1.952   4.543  15.137 -0.3915 -0.6232  0.3154
  395TMC3     H 5959   1.948   4.369  14.804 -4.2035  0.8234  3.4168
  395TMC3    H1 5960   2.036   4.721  15.017 -0.4636 -0.3406  0.3266
  395TMC3    H2 5961   2.038   4.717  14.581  1.1529  0.5004  0.6244
  395TMC3    C7 5962   2.086   0.133  14.799 -0.0603  0.3175  0.4216
  395TMC3    C8 5963   1.988   4.471  14.550 -0.2120 -0.1129 -0.3277
  395TMC3    O1 5964   2.144   0.169  14.904 -0.0622  0.0357  0.2557
  395TMC3    O2 5965   1.967   4.544  14.456  0.2242 -0.2836 -0.0568
  396MPD2     C 5966   1.361   0.493  17.444 -0.0844  0.0168 -0.5091
  396MPD2    C1 5967   1.478   0.540  17.490 -0.5308  0.3474  0.3749
  396MPD2    C2 5968   1.537   0.653  17.427  0.5511  0.0729 -0.0021
  396MPD2    C3 5969   1.473   0.714  17.323  0.9516  0.3593 -0.1528
  396MPD2    C4 5970   1.354   0.663  17.281 -0.0418  0.2449 -0.2110
  396MPD2    C5 5971   1.307   0.549  17.334 -0.6977  0.2416 -0.2299
  396MPD2     H 5972   1.621   0.707  17.469 -0.3577  1.1949  0.3801
  396MPD2    H1 5973   1.295   0.706  17.200  0.0468  2.1222  0.7142
  396MPD2    H2 5974   1.325   0.397  17.479  1.0459 -0.2255 -0.0032
  396MPD2    H3 5975   1.220   0.505  17.286 -0.3010 -0.4373 -0.3181
  396MPD2     N 5976   1.535   0.822  17.252  0.2177 -0.1414 -0.5157
  396MPD2    H5 5977   1.601   0.881  17.302  0.2070  1.6129 -2.5233
  396MPD2    N1 5978   1.541   0.462  17.593  0.6002 -0.0205  0.2119
  396MPD2    H7 5979   1.490   0.375  17.607 -1.0002  1.0308  0.8019
  397TMC3    C1 5980   1.707   0.354  17.719  0.6166  0.6060 -0.1486
  397TMC3    C2 5981   1.833   0.327  17.664 -0.2363 -0.2458  0.8222
  397TMC3    C3 5982   1.855   0.203  17.605 -0.3593 -0.5809  0.7769
  397TMC3    C4 5983   1.612   0.260  17.734  0.3308 -0.1189  0.1524
  397TMC3    C5 5984   1.640   0.135  17.688 -0.7729 -0.8028 -0.4822
  397TMC3    C6 5985   1.755   0.107  17.619  0.0373 -0.7791  0.1442
  397TMC3     C 5986   1.664   0.475  17.652 -0.2052  0.5621 -0.0181
  397TMC3     O 5987   1.746   0.564  17.650  0.2434  0.1537 -0.0443
  397TMC3     H 5988   1.895   0.414  17.645 -0.4956 -0.3828 -0.6597
  397TMC3    H1 5989   1.515   0.279   0.037 -0.0211  0.3649 -0.7757
  397TMC3    H2 5990   1.773   0.005  17.586  1.1559 -1.3987  2.6871
  397TMC3    C7 5991   1.570   0.037   0.023  0.4534  0.2215 -0.0509
  397TMC3    C8 5992   1.926   0.202  17.486 -0.5410 -0.1888 -0.2435
  397TMC3    O1 5993   1.523   4.676  17.703  0.1467 -0.2023  0.2162
  397TMC3    O2 5994   1.871   0.149  17.389 -0.2779 -0.6657  0.2214
  398MPD2     C 5995   4.602   3.085   0.264  0.4233 -0.2208  0.0433
  398MPD2    C1 5996   4.633   2.968   0.332  0.2750 -0.0858  0.0527
  398MPD2    C2 5997   0.016   2.903   0.304  0.1836 -0.6278 -0.1525
  398MPD2    C3 5998   0.113   2.965   0.224  0.3153  0.2162  0.7757
  398MPD2    C4 5999   0.073   3.082   0.164 -0.2230  0.4194  0.5751
  398MPD2    C5 6000   4.690   3.146   0.187  0.4725 -0.6964 -0.0350
  398MPD2     H 6001   0.038   2.806   0.348  0.7776  0.2667  1.5160
  398MPD2    H1 6002   0.146   3.141   0.109 -0.6521 -0.2372 -0.7079
  398MPD2    H2 6003   4.500   3.124   0.264  1.3983  2.3467 -1.2288
  398MPD2    H3 6004   4.671   3.242   0.139  1.4581 -0.3321  0.3221
  398MPD2     N 6005   0.246   2.913   0.219 -0.4471 -0.4906 -0.6068
  398MPD2    H5 6006   0.264   2.823   0.263 -0.3714 -0.7515 -1.1648
  398MPD2    N1 6007   4.546   2.913   0.430 -0.1983 -0.0289  0.1079
  398MPD2    H7 6008   4.591   2.828   0.463  2.3248  0.2135 -2.6478
  399TMC3    C1 6009   4.399   2.899   0.610  0.4970  0.2423  0.2575
  399TMC3    C2 6010   4.370   2.959   0.731 -0.2034  0.0501 -0.1685
  399TMC3    C3 6011   4.355   2.880   0.842  0.0815  0.5876 -0.2323
  399TMC3    C4 6012   4.396   2.762   0.600  0.2572  0.1526  0.3593
  399TMC3    C5 6013   4.396   2.685   0.713  0.5784 -0.4512  0.0177
  399TMC3    C6 6014   4.387   2.740   0.842  0.0088  0.2870  0.1844
  399TMC3     C 6015   4.447   2.975   0.501  0.3757 -0.4706 -0.7086
  399TMC3     O 6016   4.418   3.096   0.495 -1.0616  0.1394  0.6218
  399TMC3     H 6017   4.363   3.067   0.739 -2.4303 -0.2030  1.3871
  399TMC3    H1 6018   4.415   2.713   0.505  0.6230  0.6373  0.1811
  399TMC3    H2 6019   4.372   2.678   0.929  1.3477 -0.0210  0.2030
  399TMC3    C7 6020   4.463   2.556   0.706  0.8183 -0.3449  0.2329
  399TMC3    C8 6021   4.310   2.937   0.976 -0.3004  1.1103  0.3652
  399TMC3    O1 6022   4.450   2.502   0.596 -0.6672 -0.9146 -0.1813
  399TMC3    O2 6023   4.228   3.029   0.970  0.7958  0.1865  0.2166
  400TMC3    C1 6024   2.880   0.319  16.925 -0.1666  0.5419  0.4852
  400TMC3    C2 6025   2.777   0.231  16.894  0.3475  0.4294  0.6685
  400TMC3    C3 6026   2.692   0.264  16.789 -0.1548  0.4243  0.6444
  400TMC3    C4 6027   2.883   0.445  16.883 -0.4617  0.6925  0.0539
  400TMC3    C5 6028   2.798   0.473  16.777  0.0120 -0.0980  0.6468
  400TMC3    C6 6029   2.705   0.383  16.723 -0.8868 -0.7293 -0.0602
  400TMC3     C 6030   2.981   0.275  17.025  0.3036  1.1542 -0.1494
  400TMC3     O 6031   2.970   0.157  17.051 -0.0947  0.2580 -0.2070
  400TMC3     H 6032   2.774   0.131  16.937  0.2755 -0.7334 -1.9982
  400TMC3    H1 6033   2.955   0.518  16.918  0.3595 -0.7242  1.2829
  400TMC3    H2 6034   2.639   0.410  16.642 -2.0139  1.5865  1.6146
  400TMC3    C7 6035   2.774   0.612  16.740  0.0592 -0.6985 -0.4631
  400TMC3    C8 6036   2.574   0.179  16.781 -0.5315 -0.6414 -0.1096
  400TMC3    O1 6037   2.730   0.641  16.628 -0.6150  0.0987 -0.1020
  400TMC3    O2 6038   2.534   0.117  16.880 -0.6443  0.2110 -0.0190
  401MPD2     C 6039   1.059   3.450   0.531  0.5303 -0.0016 -0.4197
  401MPD2    C1 6040   1.159   3.368   0.563 -0.1934 -0.9229 -0.0942
  401MPD2    C2 6041   1.134   3.231   0.578 -0.3305  0.2777 -0.0530
  401MPD2    C3 6042   1.005   3.188   0.592  0.1004 -0.3292 -0.0343
  401MPD2    C4 6043   0.899   3.276   0.589 -0.2588 -0.3868  0.3068
  401MPD2    C5 6044   0.927   3.404   0.553  1.0635  0.1919 -0.1811
  401MPD2     H 6045   1.218   3.163   0.580  0.8419  1.6397 -1.9741
  401MPD2    H1 6046   0.794   3.249   0.596 -0.0262 -1.2079  0.5743
  401MPD2    H2 6047   1.077   3.550   0.491  1.8084  0.1337  0.4525
  401MPD2    H3 6048   0.848   3.470   0.517  1.1559  0.9649  1.0655
  401MPD2     N 6049   0.987   3.051   0.614 -0.5845 -0.3365 -0.7147
  401MPD2    H5 6050   1.063   2.997   0.574 -0.6682 -2.2069  1.6579
  401MPD2    N1 6051   1.295   3.414   0.577  0.1274  0.2959 -0.3443
  401MPD2    H7 6052   1.360   3.336   0.582  0.9182  0.8628 -1.7756
  402TMC3    C1 6053   0.893   2.843   0.692  0.7440 -0.3659  0.5008
  402TMC3    C2 6054   0.873   2.801   0.824  0.0448  0.2621 -0.5576
  402TMC3    C3 6055   0.909   2.673   0.856  0.3416 -0.4155  0.0526
  402TMC3    C4 6056   0.937   2.767   0.593  0.1117 -0.0576 -0.0467
  402TMC3    C5 6057   0.977   2.641   0.631  0.2381  0.3769  0.8973
  402TMC3    C6 6058   0.951   2.589   0.756 -0.2815 -0.6900 -0.1295
  402TMC3     C 6059   0.886   2.988   0.683 -0.2376 -0.3289  0.2392
  402TMC3     O 6060   0.799   3.048   0.748 -0.0617 -0.4214  0.6272
  402TMC3     H 6061   0.844   2.872   0.900  1.4662  0.3066 -0.0664
  402TMC3    H1 6062   0.943   2.814   0.495 -0.4956  0.8016  0.3343
  402TMC3    H2 6063   0.984   2.488   0.779  2.0000  0.0135 -0.3219
  402TMC3    C7 6064   1.080   2.569   0.549 -0.0193  0.3201  1.4893
  402TMC3    C8 6065   0.992   2.661   0.981  0.4110 -0.6902 -0.7208
  402TMC3    O1 6066   1.060   2.456   0.511 -0.1039 -0.0316 -0.0878
  402TMC3    O2 6067   1.082   2.576   0.965  0.2522  0.9280  0.2838
  403MPD2     C 6068   4.373   2.575  13.116 -0.7953 -0.2556  0.2380
  403MPD2    C1 6069   4.427   2.498  13.217 -0.2510 -0.4295 -0.5113
  403MPD2    C2 6070   4.548   2.527  13.267 -0.1866  0.8926  0.1852
  403MPD2    C3 6071   4.612   2.641  13.230  0.1574  0.2552 -0.1534
  403MPD2    C4 6072   4.570   2.713  13.126 -0.1293  0.0540 -0.5051
  403MPD2    C5 6073   4.451   2.675  13.069 -0.2384  0.8601 -0.2813
  403MPD2     H 6074   4.583   2.474  13.354 -2.4641 -2.0119 -0.6592
  403MPD2    H1 6075   4.619   2.803  13.089 -1.6820  1.1672  0.1253
  403MPD2    H2 6076   4.280   2.545  13.070 -0.2454 -1.2779 -0.2066
  403MPD2    H3 6077   4.403   2.733  12.992  1.1826  0.1973 -1.6628
  403MPD2     N 6078   4.716   2.679  13.316  0.3253  0.0118 -0.5821
  403MPD2    H5 6079   0.010   2.624  13.396  0.4530  0.7533 -0.1159
  403MPD2    N1 6080   4.342   2.401  13.272 -0.5326  0.2899  0.0525
  403MPD2    H7 6081   4.255   2.384  13.223 -0.0902  0.1479 -0.6886
  404TMC3    C1 6082   4.251   2.270  13.446 -0.0642  0.4302 -0.9416
  404TMC3    C2 6083   4.238   2.290  13.582  0.0314 -0.0621  0.3270
  404TMC3    C3 6084   4.125   2.254  13.646  0.5434 -0.1095 -0.4464
  404TMC3    C4 6085   4.148   2.234  13.375  0.0051 -0.1810  0.0869
  404TMC3    C5 6086   4.035   2.195  13.442  0.1401 -0.3941 -0.4192
  404TMC3    C6 6087   4.023   2.197  13.580 -0.1448  0.5843  0.0927
  404TMC3     C 6088   4.368   2.336  13.393 -0.2580  0.5574  0.0875
  404TMC3     O 6089   4.457   2.343  13.478  0.1677 -0.3028 -0.0927
  404TMC3     H 6090   4.316   2.335  13.643  0.9657 -1.0141 -0.1754
  404TMC3    H1 6091   4.165   2.216  13.270 -1.1016  1.0528 -0.3129
  404TMC3    H2 6092   3.932   2.173  13.634 -1.0166  2.0250 -0.7329
  404TMC3    C7 6093   3.940   2.108  13.367  0.0033  0.3211  0.7878
  404TMC3    C8 6094   4.105   2.310  13.775 -0.2626  0.6141 -0.4522
  404TMC3    O1 6095   3.884   2.025  13.437 -0.1507  0.1084  0.4120
  404TMC3    O2 6096   4.180   2.403  13.812 -0.0487 -0.0330  0.1675
  405MPD2     C 6097   0.037   2.873  15.129 -0.4050  0.4865  0.1602
  405MPD2    C1 6098   0.089   2.807  15.017  0.3033 -0.3913  0.7763
  405MPD2    C2 6099   0.062   2.870  14.892  0.7042 -0.7356 -0.2633
  405MPD2    C3 6100   4.699   2.962  14.876 -0.4435  0.3267 -0.3425
  405MPD2    C4 6101   4.645   3.016  14.989 -0.0329  0.1813 -0.3534
  405MPD2    C5 6102   4.686   2.979  15.115 -0.8648  0.0943 -0.2073
  405MPD2     H 6103   0.087   2.806  14.808  0.2230 -2.1158  0.6329
  405MPD2    H1 6104   4.576   3.100  14.986 -0.0593  0.2138  0.9454
  405MPD2    H2 6105   0.055   2.845  15.232  3.8174 -0.5465 -0.8650
  405MPD2    H3 6106   4.655   3.021  15.210 -0.4640 -0.5389  0.2080
  405MPD2     N 6107   4.665   2.996  14.745 -0.4797 -0.0374 -0.1199
  405MPD2    H5 6108   4.721   2.954  14.671 -1.5166  0.9076 -1.4335
  405MPD2    N1 6109   0.159   2.683  15.034  0.2125 -0.2468  0.1883
  405MPD2    H7 6110   0.159   2.637  15.125  0.2035 -2.2971 -0.8374
  406TMC3    C1 6111   4.348   2.962  14.433 -0.3750 -0.1219  0.3104
  406TMC3    C2 6112   4.440   2.907  14.346  0.0580 -0.0308  0.4656
  406TMC3    C3 6113   4.573   2.924  14.369  0.0779  0.0990  0.0362
  406TMC3    C4 6114   4.390   3.035  14.539 -0.2642  0.1056  0.0420
  406TMC3    C5 6115   4.518   3.046  14.569  0.2759 -0.0898  0.5314
  406TMC3    C6 6116   4.617   2.987  14.487  1.0639 -0.3732  0.3764
  406TMC3     C 6117   4.225   3.019  14.373 -0.2176  0.5596 -0.8383
  406TMC3     O 6118   4.222   3.045  14.256 -0.5829 -0.4328 -0.3037
  406TMC3     H 6119   4.402   2.863  14.254  0.0840  3.1499 -1.0868
  406TMC3    H1 6120   4.315   3.068  14.610  0.4054  0.6898  0.4797
  406TMC3    H2 6121   4.722   2.993  14.514  1.0229  0.2555  0.3835
  406TMC3    C7 6122   4.542   3.050  14.711 -0.5129 -0.3100 -0.5892
  406TMC3    C8 6123   4.649   2.823  14.306 -0.3387 -0.1539 -0.4804
  406TMC3    O1 6124   4.442   3.057  14.781 -0.2189  0.8624 -0.2708
  406TMC3    O2 6125   4.614   2.784  14.196 -0.0557 -0.3590  0.0905
  407MPD2     C 6126   2.492   0.165  10.102  0.4455  0.0098 -0.4830
  407MPD2    C1 6127   2.594   0.247  10.064  0.7211 -0.1138  0.1978
  407MPD2    C2 6128   2.586   0.376  10.105 -0.2685  0.0986 -0.1330
  407MPD2    C3 6129   2.490   0.420  10.193  0.2433 -0.3549  0.1596
  407MPD2    C4 6130   2.411   0.328  10.251 -0.1729 -0.7115 -0.3354
  407MPD2    C5 6131   2.406   0.199  10.202  0.0481 -0.1080 -0.0469
  407MPD2     H 6132   2.661   0.447  10.072  0.8515 -1.4214 -0.8842
  407MPD2    H1 6133   2.339   0.352  10.329  0.7823  2.8951 -0.5444
  407MPD2    H2 6134   2.501   0.059  10.080  3.1265  0.1951 -0.1916
  407MPD2    H3 6135   2.334   0.126  10.236 -2.9527  2.7470 -0.2245
  407MPD2     N 6136   2.484   0.559  10.228  0.4466 -0.0439 -0.6451
  407MPD2    H5 6137   2.526   0.625  10.164 -1.5814  1.3631 -0.5420
  407MPD2    N1 6138   2.691   0.208   9.972 -0.1689  0.2415 -0.5299
  407MPD2    H7 6139   2.769   0.271   9.961 -0.5819  0.5282 -1.7366
  408TMC3    C1 6140   2.813   0.097   9.808  0.2036  0.2996  0.2437
  408TMC3    C2 6141   2.871   4.720   9.764  0.5912 -0.1950  0.3741
  408TMC3    C3 6142   2.985   4.729   9.687  0.3851 -0.5021 -0.3030
  408TMC3    C4 6143   2.861   0.218   9.766  0.5378 -0.0933 -0.0724
  408TMC3    C5 6144   2.974   0.226   9.687 -0.0850 -0.5734 -0.0214
  408TMC3    C6 6145   3.045   0.111   9.656  0.1049  0.6794 -0.3723
  408TMC3     C 6146   2.714   0.084   9.919  0.2148  0.0537  0.5161
  408TMC3     O 6147   2.646   4.719   9.921 -0.2896 -0.1005 -0.1913
  408TMC3     H 6148   2.832   4.623   9.793 -1.5450  0.9586  1.3514
  408TMC3    H1 6149   2.804   0.307   9.789 -1.9026 -1.6758  0.0455
  408TMC3    H2 6150   3.124   0.115   9.582  0.3857  0.8835 -0.0640
  408TMC3    C7 6151   3.025   0.363   9.683 -0.1528  0.2884  0.4631
  408TMC3    C8 6152   3.051   4.600   9.665  0.4985 -0.0163 -0.1728
  408TMC3    O1 6153   2.947   0.456   9.679  0.1885  0.6695  0.6579
  408TMC3    O2 6154   2.989   4.493   9.672 -0.4633 -0.1976 -0.1128
  409MPD2     C 6155   1.648   0.042  17.058 -0.6382  0.8282  0.0950
  409MPD2    C1 6156   1.768   4.710  17.066  0.5315  0.1851  0.1817
  409MPD2    C2 6157   1.875   0.021  16.993  0.1204  0.4905  0.6090
  409MPD2    C3 6158   1.871   0.141  16.924  0.5269  0.1850 -0.3124
  409MPD2    C4 6159   1.750   0.200  16.900  0.3899  0.1452 -0.3083
  409MPD2    C5 6160   1.640   0.150  16.964  0.1638 -0.1948  0.6232
  409MPD2     H 6161   1.964   4.695  16.999 -0.6741 -0.5069  2.0888
  409MPD2    H1 6162   1.749   0.289  16.838 -1.1811  0.3565  0.0288
  409MPD2    H2 6163   1.562   0.028  17.122  0.3106  0.8711  1.3693
  409MPD2    H3 6164   1.544   0.194  16.941 -0.3750 -1.0087  1.3335
  409MPD2     N 6165   1.991   0.204  16.877 -0.3699  0.4207  0.0869
  409MPD2    H5 6166   1.980   0.288  16.821  2.9922  0.8496  0.0522
  409MPD2    N1 6167   1.777   4.601  17.159 -0.4697  0.3049  0.2754
  409MPD2    H7 6168   1.702   4.593  17.227  1.5633  1.8259  2.6984
  410TMC3    C1 6169   2.217   0.287  16.899 -0.3625 -0.2912  0.2610
  410TMC3    C2 6170   2.307   0.323  16.998 -0.0687 -0.0639  0.6026
  410TMC3    C3 6171   2.394   0.426  16.972  0.5031 -0.2312  0.5668
  410TMC3    C4 6172   2.217   0.337  16.771 -0.1625  0.2687  0.3775
  410TMC3    C5 6173   2.304   0.444  16.759 -0.6353  0.3722 -0.5404
  410TMC3    C6 6174   2.390   0.492  16.851  0.6333 -0.4450 -0.7605
  410TMC3     C 6175   2.115   0.186  16.934 -0.9962  0.3787  0.0024
  410TMC3     O 6176   2.150   0.097  17.010  0.6072  0.4121 -0.4244
  410TMC3     H 6177   2.291   0.297  17.102  0.6385 -1.1593  0.4331
  410TMC3    H1 6178   2.148   0.308  16.693  0.0193 -1.3019  0.8057
  410TMC3    H2 6179   2.472   0.553  16.817  0.0518  0.6585 -0.1840
  410TMC3    C7 6180   2.294   0.517  16.630 -0.2051  0.1822  0.1751
  410TMC3    C8 6181   2.503   0.447  17.057  1.2107  0.0331 -0.2006
  410TMC3    O1 6182   2.255   0.446  16.542  0.5624  0.1807 -0.4581
  410TMC3    O2 6183   2.576   0.539  17.017 -0.3480 -0.5853  0.0345
  411MPD2     C 6184   2.266   1.372  14.804 -0.3269 -0.2894  0.1570
  411MPD2    C1 6185   2.185   1.331  14.904 -0.1694  0.5136  0.1835
  411MPD2    C2 6186   2.115   1.214  14.893  0.7871  0.0298  0.4138
  411MPD2    C3 6187   2.149   1.125  14.790  0.2281  0.1690 -0.3328
  411MPD2    C4 6188   2.254   1.153  14.701 -0.1192 -0.1429  0.3137
  411MPD2    C5 6189   2.298   1.288  14.701  0.4869 -0.6326 -0.4315
  411MPD2     H 6190   2.027   1.187  14.950 -1.1907 -0.8385 -3.0348
  411MPD2    H1 6191   2.273   1.088  14.616 -1.3363  0.6364 -0.5585
  411MPD2    H2 6192   2.318   1.466  14.789 -0.4683 -0.2922 -0.3484
  411MPD2    H3 6193   2.366   1.329  14.627  0.0269 -1.1504 -1.1503
  411MPD2     N 6194   2.079   1.009  14.768 -0.0042 -0.4323  0.3301
  411MPD2    H5 6195   2.094   0.957  14.682 -1.5809  1.4569 -1.0746
  411MPD2    N1 6196   2.156   1.421  15.006 -0.4794  0.3184  0.3961
  411MPD2    H7 6197   2.162   1.521  14.993 -0.9830  0.3031  0.0786
  412TMC3    C1 6198   1.963   0.806  14.797  0.5588  0.1470  0.4381
  412TMC3    C2 6199   1.961   0.694  14.880  0.8976  0.8113  0.0119
  412TMC3    C3 6200   1.941   0.577  14.822 -1.1130 -0.2706 -0.2516
  412TMC3    C4 6201   1.916   0.805  14.663 -0.7021 -0.4833 -0.0523
  412TMC3    C5 6202   1.890   0.687  14.608  0.2296 -0.6573  0.0825
  412TMC3    C6 6203   1.907   0.575  14.689 -0.8293  0.2830  0.5255
  412TMC3     C 6204   2.004   0.933  14.858 -0.3410  0.3031 -0.1584
  412TMC3     O 6205   1.959   0.961  14.969 -0.3869 -0.0022  0.3479
  412TMC3     H 6206   1.972   0.708  14.987  2.1472  0.7554 -0.1102
  412TMC3    H1 6207   1.907   0.891  14.598  2.1556  0.8390  1.2744
  412TMC3    H2 6208   1.876   0.482  14.644 -1.7640  0.8082  0.0674
  412TMC3    C7 6209   1.752   0.679  14.551  0.3994 -0.5670  1.0900
  412TMC3    C8 6210   1.864   0.489  14.901 -0.4484 -0.0926  0.8493
  412TMC3    O1 6211   1.682   0.605  14.619  0.5033 -0.6389 -0.3082
  412TMC3    O2 6212   1.918   0.447  14.999 -0.5192 -0.2283 -0.5592
  413MPD2     C 6213   3.893   3.832  15.517  0.3539 -0.2165 -0.2544
  413MPD2    C1 6214   3.953   3.863  15.399 -0.8585  0.2005 -0.1867
  413MPD2    C2 6215   3.993   3.760  15.314  0.1902  0.6237  0.7744
  413MPD2    C3 6216   3.958   3.626  15.349 -0.3851  0.9224 -0.0353
  413MPD2    C4 6217   3.889   3.601  15.470 -0.5090  0.0513 -0.0983
  413MPD2    C5 6218   3.865   3.704  15.556  0.3869  0.4155  0.0963
  413MPD2     H 6219   4.058   3.761  15.227 -2.2899  0.7063 -1.0442
  413MPD2    H1 6220   3.856   3.500  15.495 -1.7125  0.5982  0.5312
  413MPD2    H2 6221   3.865   3.914  15.581  0.0764 -2.6895  2.7601
  413MPD2    H3 6222   3.818   3.681  15.651  0.3346  0.6910  0.1384
  413MPD2     N 6223   3.992   3.526  15.253  0.0275  0.3101 -0.0067
  413MPD2    H5 6224   4.040   3.557  15.170 -0.4050  2.2655  0.4542
  413MPD2    N1 6225   3.965   4.001  15.374 -0.2288  0.0310 -0.1940
  413MPD2    H7 6226   3.910   4.063  15.433  1.1152  1.9911 -0.9523
  414TMC3    C1 6227   4.014   3.317  15.149  0.2015 -0.2791  0.6157
  414TMC3    C2 6228   4.078   3.202  15.170  0.0517  0.0190  0.0020
  414TMC3    C3 6229   4.140   3.136  15.066 -0.5065 -0.2110  0.4855
  414TMC3    C4 6230   4.007   3.371  15.022 -0.1844 -0.2142  0.0764
  414TMC3    C5 6231   4.075   3.307  14.923  0.4841  0.3443 -0.6072
  414TMC3    C6 6232   4.140   3.189  14.938  0.2739  0.6531 -1.0731
  414TMC3     C 6233   3.979   3.396  15.267 -0.2571  0.4207 -0.1664
  414TMC3     O 6234   3.934   3.336  15.365 -0.3696 -0.0661  0.5580
  414TMC3     H 6235   4.087   3.166  15.272 -0.4232  0.6234  0.2622
  414TMC3    H1 6236   3.938   3.450  14.995  2.5221  2.6336  1.4736
  414TMC3    H2 6237   4.199   3.143  14.859  0.3779  1.4805 -1.4885
  414TMC3    C7 6238   4.007   3.315  14.798  0.0233 -0.4435  0.7371
  414TMC3    C8 6239   4.170   2.996  15.092  0.2163 -0.0178 -0.4515
  414TMC3    O1 6240   3.889   3.305  14.813 -0.3150  0.7784 -0.4410
  414TMC3    O2 6241   4.114   2.944  15.194 -0.2723  0.4695 -0.0625
  415TMC3    C1 6242   4.674   1.846  10.587  0.1495 -0.4112  0.0361
  415TMC3    C2 6243   4.637   1.976  10.550 -0.2651  0.0924 -0.8762
  415TMC3    C3 6244   4.666   2.014  10.419 -0.1567 -0.1523  0.2960
  415TMC3    C4 6245   4.726   1.753  10.499  0.1582  0.1050  0.6592
  415TMC3    C5 6246   0.005   1.795  10.368 -0.1645 -0.0235 -0.1634
  415TMC3    C6 6247   4.710   1.919  10.328 -0.3784  0.2854 -0.7321
  415TMC3     C 6248   4.606   1.777  10.696  0.7282  0.6084  1.0655
  415TMC3     O 6249   4.602   1.657  10.687  0.3728  0.9015  0.3677
  415TMC3     H 6250   4.584   2.047  10.612 -0.6069  1.0687 -2.2785
  415TMC3    H1 6251   0.021   1.654  10.529 -1.2977 -0.6444 -0.3273
  415TMC3    H2 6252   0.016   1.946  10.232  0.3342 -0.7377 -0.6954
  415TMC3    C7 6253   0.044   1.695  10.269  0.3483  0.4615 -0.0203
  415TMC3    C8 6254   4.658   2.155  10.383 -0.0217 -0.0539  0.3673
  415TMC3    O1 6255   0.081   1.733  10.158  0.1422 -0.5726  0.7655
  415TMC3    O2 6256   4.628   2.222  10.478 -0.0144 -0.2607  0.3996
  416MPD2     C 6257   1.414   1.189  11.807  1.1281  0.4037 -0.2376
  416MPD2    C1 6258   1.314   1.144  11.721  0.4453 -0.6668 -0.4808
  416MPD2    C2 6259   1.340   1.076  11.603 -0.0660 -0.3457 -0.3768
  416MPD2    C3 6260   1.471   1.051  11.570 -0.1571  0.4024  0.3437
  416MPD2    C4 6261   1.573   1.082  11.660  0.1041 -0.6851 -0.2139
  416MPD2    C5 6262   1.541   1.156  11.774  0.4623  0.5470 -0.8132
  416MPD2     H 6263   1.260   1.054  11.534  1.4640 -1.5195 -1.7635
  416MPD2    H1 6264   1.677   1.051  11.652  0.5523  0.1921  1.9997
  416MPD2    H2 6265   1.401   1.263  11.885  0.6892  0.4694 -0.3748
  416MPD2    H3 6266   1.617   1.178  11.848 -0.0126 -2.0310  0.4607
  416MPD2     N 6267   1.506   0.967  11.460  0.1780  0.3156  0.0264
  416MPD2    H5 6268   1.602   0.934  11.453  0.1125  0.1679 -0.2162
  416MPD2    N1 6269   1.182   1.174  11.757 -0.0868 -0.5159  0.2698
  416MPD2    H7 6270   1.168   1.253  11.819 -2.6157 -0.5013 -0.3180
  417TMC3    C1 6271   0.953   1.207  11.721  0.4628  0.3148  0.2058
  417TMC3    C2 6272   0.942   1.272  11.840  0.4020  0.6162 -0.2549
  417TMC3    C3 6273   0.868   1.388  11.843 -0.3095 -1.1008 -1.1806
  417TMC3    C4 6274   0.897   1.252  11.605  0.2613 -0.1745 -0.1529
  417TMC3    C5 6275   0.818   1.364  11.611 -0.5546 -0.5567 -0.5927
  417TMC3    C6 6276   0.814   1.439  11.725 -0.0802 -0.4622  0.1389
  417TMC3     C 6277   1.065   1.122  11.703  0.1544 -0.5798 -0.3835
  417TMC3     O 6278   1.051   1.035  11.617  0.0055  0.0359 -0.4334
  417TMC3     H 6279   0.984   1.244  11.936 -1.3871 -0.8491  0.0889
  417TMC3    H1 6280   0.920   1.197  11.514 -0.0362  1.2048 -1.0531
  417TMC3    H2 6281   0.763   1.535  11.726 -1.3957 -1.1511 -0.3305
  417TMC3    C7 6282   0.796   1.440  11.492  0.7957 -0.3212 -0.2877
  417TMC3    C8 6283   0.848   1.458  11.973  0.7412 -0.8609 -0.7842
  417TMC3    O1 6284   0.786   1.561  11.507  0.3670  0.4165  0.0747
  417TMC3    O2 6285   0.927   1.430  12.064 -0.0815 -0.3538  0.0772
  418TMC3    C1 6286   0.666   2.811   0.033  0.4211  0.9751 -0.0672
  418TMC3    C2 6287   0.551   2.890   0.041 -0.1361 -0.6330  0.4372
  418TMC3    C3 6288   0.476   2.883   0.149 -0.4748  0.0174  0.2231
  418TMC3    C4 6289   0.708   2.734   0.138  0.6008 -0.4149 -0.1482
  418TMC3    C5 6290   0.632   2.743   0.252  0.3444  0.0264 -0.1927
  418TMC3    C6 6291   0.517   2.824   0.262  0.5596  0.9663  0.2059
  418TMC3     C 6292   0.701   2.785  17.640  0.0763 -0.0524 -0.7692
  418TMC3     O 6293   0.626   2.825  17.553  0.2334  0.0801 -0.1140
  418TMC3     H 6294   0.521   2.943  17.694  0.1205 -0.3507  0.5162
  418TMC3    H1 6295   0.789   2.662   0.133 -0.2422 -1.3044 -0.9813
  418TMC3    H2 6296   0.445   2.816   0.343  2.3274  1.3274  1.8133
  418TMC3    C7 6297   0.633   2.641   0.351 -0.5405  0.4425  0.1613
  418TMC3    C8 6298   0.354   2.961   0.145 -0.3552 -0.3823 -0.1614
  418TMC3    O1 6299   0.684   2.537   0.320  0.0238 -0.1551  0.2430
  418TMC3    O2 6300   0.356   3.057   0.073  0.2591 -0.4451  0.5893
  419MPD2     C 6301   3.348   0.897  12.462  0.7870  0.4548 -0.1105
  419MPD2    C1 6302   3.298   1.021  12.498 -0.1318  0.5066 -0.2579
  419MPD2    C2 6303   3.317   1.053  12.627 -0.2353 -0.1853 -0.2148
  419MPD2    C3 6304   3.371   0.971  12.728  0.0045  0.1010  0.1303
  419MPD2    C4 6305   3.411   0.843  12.692 -0.3069  0.3542 -0.4899
  419MPD2    C5 6306   3.399   0.811  12.561  0.8379  0.5018 -1.0511
  419MPD2     H 6307   3.285   1.150  12.661 -0.2077  0.1629 -1.1764
  419MPD2    H1 6308   3.467   0.779  12.759 -1.4743 -1.2094 -1.0086
  419MPD2    H2 6309   3.344   0.863  12.359 -0.1490 -1.5856  0.5976
  419MPD2    H3 6310   3.452   0.724  12.525 -0.9025 -1.7652  1.8449
  419MPD2     N 6311   3.387   1.027  12.861 -0.2235  0.1614 -0.2174
  419MPD2    H5 6312   3.364   1.126  12.871  0.3624  0.1176  1.6192
  419MPD2    N1 6313   3.239   1.117  12.411  0.8303  0.5170 -0.6291
  419MPD2    H7 6314   3.226   1.204  12.462 -1.3869  0.5967 -1.3311
  420TMC3    C1 6315   3.429   1.056  13.084  0.2452  0.0020  0.4696
  420TMC3    C2 6316   3.344   1.164  13.088  0.2023 -0.6618  0.0352
  420TMC3    C3 6317   3.372   1.259  13.188 -0.5433 -0.2587  0.0880
  420TMC3    C4 6318   3.522   1.027  13.177  0.7961  0.4081  0.2694
  420TMC3    C5 6319   3.546   1.120  13.271  0.8575  0.5275 -0.3925
  420TMC3    C6 6320   3.474   1.237  13.282 -0.2089 -0.4347 -1.1372
  420TMC3     C 6321   3.422   0.964  12.974  0.4059  0.0623 -0.5242
  420TMC3     O 6322   3.473   0.852  12.980  0.0156 -0.5277  0.2099
  420TMC3     H 6323   3.268   1.179  13.012 -0.5452 -1.1216  0.6871
  420TMC3    H1 6324   3.577   0.934  13.163 -1.6878 -0.8314 -1.2544
  420TMC3    H2 6325   3.503   1.314  13.352 -1.3887 -1.1065  0.0997
  420TMC3    C7 6326   3.607   1.079  13.398 -0.6056 -0.0387  0.0124
  420TMC3    C8 6327   3.269   1.356  13.218  0.2170  0.2613 -0.2452
  420TMC3    O1 6328   3.548   1.118  13.495 -0.1797  0.2389 -0.2446
  420TMC3    O2 6329   3.172   1.351  13.146  0.2109 -0.2045  0.3325
  421TMC3    C1 6330   0.099   2.808  13.451 -1.0142  0.1328  0.3321
  421TMC3    C2 6331   0.086   2.919  13.530  0.2083 -0.0861 -0.0503
  421TMC3    C3 6332   0.132   2.907  13.664  0.0475  0.4090  0.0144
  421TMC3    C4 6333   0.160   2.694  13.499 -0.1213  0.4063 -0.4856
  421TMC3    C5 6334   0.218   2.696  13.618  0.6151 -0.6698  0.9211
  421TMC3    C6 6335   0.204   2.798  13.702 -0.2381  0.2640  0.3448
  421TMC3     C 6336   0.030   2.805  13.330 -0.3151  0.1495 -0.1697
  421TMC3     O 6337   0.008   2.909  13.271  0.0300 -0.1807 -0.3487
  421TMC3     H 6338   0.053   3.015  13.493  0.9859 -0.2893 -1.2604
  421TMC3    H1 6339   0.189   2.619  13.426 -0.2590 -1.5661  1.5014
  421TMC3    H2 6340   0.244   2.802  13.803 -2.2484  2.5193  1.0521
  421TMC3    C7 6341   0.294   2.577  13.658 -0.2866  0.1074 -0.3422
  421TMC3    C8 6342   0.143   3.024  13.744  0.1695 -0.5664  0.7484
  421TMC3    O1 6343   0.355   2.600  13.759 -0.2761 -0.3426 -0.1394
  421TMC3    O2 6344   0.254   3.066  13.780 -0.3904 -0.5103  0.6960
  422TMC3    C1 6345   2.332   4.556  12.388 -0.2735 -0.2416 -0.0017
  422TMC3    C2 6346   2.299   4.591  12.514 -0.6589 -0.1953  1.0256
  422TMC3    C3 6347   2.206   4.526  12.586  0.6180  0.1747 -0.2857
  422TMC3    C4 6348   2.290   4.438  12.335 -0.1079 -0.6496 -0.5994
  422TMC3    C5 6349   2.195   4.373  12.408 -0.3870  0.6178  0.0426
  422TMC3    C6 6350   2.152   4.409  12.536  0.5445  0.3531  0.6897
  422TMC3     C 6351   2.405   4.644  12.304 -0.2057 -0.0000  0.7269
  422TMC3     O 6352   2.490   4.711  12.365  0.1762  0.0506 -0.0319
  422TMC3     H 6353   2.318   4.694  12.541 -0.6866  0.2719 -0.7502
  422TMC3    H1 6354   2.328   4.399  12.240  1.2086  0.0680 -0.3631
  422TMC3    H2 6355   2.063   4.364  12.579  0.9205 -1.7333 -0.7120
  422TMC3    C7 6356   2.101   4.290  12.330 -0.8802 -0.1160 -0.3935
  422TMC3    C8 6357   2.150   4.588  12.707  0.1681  0.3185 -0.1912
  422TMC3    O1 6358   2.091   4.307  12.210  0.3375  0.9963  0.0061
  422TMC3    O2 6359   2.231   4.625  12.790  0.6236 -0.4264 -0.1777
  423MPD2     C 6360   3.517   4.661   0.830  0.2799 -0.4465 -0.0786
  423MPD2    C1 6361   3.472   4.535   0.844 -0.0748  0.1167  0.2164
  423MPD2    C2 6362   3.509   4.435   0.754  0.1172  0.0468 -0.0238
  423MPD2    C3 6363   3.591   4.458   0.649 -1.0645  0.4902  0.8871
  423MPD2    C4 6364   3.635   4.588   0.638  0.4500 -0.0125 -0.2705
  423MPD2    C5 6365   3.597   4.688   0.726  0.4334 -0.2068 -0.1099
  423MPD2     H 6366   3.475   4.335   0.777  0.0788 -0.2032 -1.2166
  423MPD2    H1 6367   3.704   4.609   0.557 -0.1814  2.4998 -0.1455
  423MPD2    H2 6368   3.494   0.002   0.902 -0.2650 -0.6726 -0.0094
  423MPD2    H3 6369   3.612   0.056   0.701 -0.1185 -0.7755 -2.8126
  423MPD2     N 6370   3.631   4.369   0.547 -0.5904  1.3746 -0.4924
  423MPD2    H5 6371   3.702   4.401   0.481  0.6043  1.0486  0.6171
  423MPD2    N1 6372   3.395   4.492   0.956  0.2745  0.0707  0.4387
  423MPD2    H7 6373   3.394   4.393   0.978  1.8983  0.3254  1.6070
  424TMC3    C1 6374   3.254   4.506   1.153 -0.1627  0.4980  0.0464
  424TMC3    C2 6375   3.295   4.385   1.200  0.5497 -0.6791 -0.1284
  424TMC3    C3 6376   3.199   4.294   1.241 -0.4831  0.0671 -0.4230
  424TMC3    C4 6377   3.115   4.531   1.142  0.3264  0.0532  0.2421
  424TMC3    C5 6378   3.024   4.442   1.183  0.4152 -0.4939  0.1791
  424TMC3    C6 6379   3.059   4.317   1.229 -0.5764 -0.2620  0.7802
  424TMC3     C 6380   3.334   4.573   1.049 -0.0544 -0.2629 -0.2930
  424TMC3     O 6381   3.320   4.696   1.044 -0.3126  0.1107 -0.0138
  424TMC3     H 6382   3.402   4.367   1.201  1.0634  2.4406  1.0892
  424TMC3    H1 6383   3.087   4.619   1.084  1.4692  0.0701 -0.2667
  424TMC3    H2 6384   2.979   4.254   1.266  0.3508 -2.4139 -0.8165
  424TMC3    C7 6385   2.886   4.481   1.173  1.0010  0.1957  0.5979
  424TMC3    C8 6386   3.231   4.173   1.293  0.2403  0.4876  0.1375
  424TMC3    O1 6387   2.805   4.397   1.141 -0.1606 -0.3130 -0.1175
  424TMC3    O2 6388   3.144   4.083   1.293 -0.4695  0.6493  0.1768
  425MPD2     C 6389   2.112   4.088  16.842 -0.4545  0.3019  0.6504
  425MPD2    C1 6390   2.130   3.954  16.869  0.1838 -0.5053  0.0530
  425MPD2    C2 6391   2.047   3.898  16.955 -0.1039 -0.5433 -0.2990
  425MPD2    C3 6392   1.947   3.971  17.017  0.3838  0.2681 -0.2073
  425MPD2    C4 6393   1.912   4.104  16.967  1.2165  0.0967  0.0239
  425MPD2    C5 6394   1.999   4.154  16.880  0.2776  0.0775  0.3958
  425MPD2     H 6395   2.057   3.793  16.981 -0.8099 -1.2058 -2.7473
  425MPD2    H1 6396   1.834   4.172  17.000  1.0604  0.3857 -0.9450
  425MPD2    H2 6397   2.174   4.134  16.766  0.3889  1.0942  1.8178
  425MPD2    H3 6398   1.986   4.250  16.831  1.1141 -1.0384 -2.0182
  425MPD2     N 6399   1.869   3.903  17.113  0.9404  0.0011 -0.0904
  425MPD2    H5 6400   1.897   3.806  17.124 -0.0550 -0.2267  0.3806
  425MPD2    N1 6401   2.234   3.883  16.798  0.0100 -0.1931  0.5749
  425MPD2    H7 6402   2.303   3.938  16.747  0.2222 -1.5228 -0.5696
  426TMC3    C1 6403   2.360   3.692  16.712  0.2501  0.6810  0.0262
  426TMC3    C2 6404   2.356   3.559  16.679  0.2270 -0.2950 -0.3858
  426TMC3    C3 6405   2.473   3.491  16.688  0.2586 -0.7424 -0.4084
  426TMC3    C4 6406   2.477   3.748  16.759  0.2286 -0.3758 -0.2975
  426TMC3    C5 6407   2.592   3.674  16.783 -0.1146  0.8405 -0.1583
  426TMC3    C6 6408   2.583   3.541  16.755 -0.6799  0.3486 -0.1004
  426TMC3     C 6409   2.245   3.742  16.787 -0.7166  0.1420 -0.3067
  426TMC3     O 6410   2.166   3.653  16.811 -0.2961 -0.1297  0.0248
  426TMC3     H 6411   2.264   3.520  16.637 -0.9891  0.1411  1.8634
  426TMC3    H1 6412   2.472   3.845  16.808 -0.4835 -0.8606  0.6197
  426TMC3    H2 6413   2.668   3.475  16.769  0.7413  1.8778 -1.4012
  426TMC3    C7 6414   2.681   3.706  16.893  0.1958  0.0107 -0.5481
  426TMC3    C8 6415   2.478   3.352  16.659  0.2820  0.2602 -0.0560
  426TMC3    O1 6416   2.633   3.781  16.977  0.1374  0.0026 -0.2373
  426TMC3    O2 6417   2.584   3.308  16.626  0.0589  0.3349 -0.1564
  427MPD2     C 6418   1.513   0.950  15.229  0.3335 -0.3280 -0.0355
  427MPD2    C1 6419   1.437   0.853  15.287  0.4100  0.5809 -0.8085
  427MPD2    C2 6420   1.303   0.846  15.255 -0.0110  0.2242  0.3563
  427MPD2    C3 6421   1.239   0.941  15.178 -0.6834  0.4082 -0.4103
  427MPD2    C4 6422   1.317   1.040  15.126  0.3021  0.2610 -0.1561
  427MPD2    C5 6423   1.449   1.040  15.145 -0.1028  0.2538  0.4841
  427MPD2     H 6424   1.246   0.762  15.293  1.0621 -1.0887 -0.9119
  427MPD2    H1 6425   1.272   1.117  15.065 -0.0167  0.4578  0.3225
  427MPD2    H2 6426   1.618   0.959  15.252  0.1272 -2.5837  1.7569
  427MPD2    H3 6427   1.506   1.119  15.099 -1.9763  0.4716 -1.4469
  427MPD2     N 6428   1.100   0.939  15.157  0.2162  0.4102 -0.1395
  427MPD2    H5 6429   1.083   1.005  15.082 -1.7339 -0.1659 -0.2079
  427MPD2    N1 6430   1.509   0.769  15.384 -0.1645  0.1546 -0.6012
  427MPD2    H7 6431   1.604   0.799  15.405 -0.8508  1.2881  0.9607
  428TMC3    C1 6432   1.568   0.610  15.542 -1.1457 -0.5678  0.3127
  428TMC3    C2 6433   1.553   0.479  15.593  0.4033  0.0358  0.7809
  428TMC3    C3 6434   1.632   0.446  15.694 -0.3485  0.9148  0.5369
  428TMC3    C4 6435   1.656   0.696  15.597 -0.0614 -0.2826  0.5530
  428TMC3    C5 6436   1.731   0.653  15.700 -0.5136 -0.5729  0.7489
  428TMC3    C6 6437   1.713   0.541  15.756 -0.6877  0.3048  0.0460
  428TMC3     C 6438   1.464   0.661  15.452  0.5000  0.7072 -0.0755
  428TMC3     O 6439   1.351   0.618  15.463  0.6007  0.0567  0.8007
  428TMC3     H 6440   1.472   0.416  15.558  0.3228  0.6490 -0.1579
  428TMC3    H1 6441   1.663   0.804  15.585 -0.0007 -0.5667 -2.0056
  428TMC3    H2 6442   1.782   0.492  15.824 -0.6511  0.7575  0.3391
  428TMC3    C7 6443   1.822   0.743  15.766  0.0722  0.7370 -0.6016
  428TMC3    C8 6444   1.623   0.309  15.740 -0.2067 -0.4923  0.4485
  428TMC3    O1 6445   1.854   0.710  15.880  0.0813 -0.2180  0.7983
  428TMC3    O2 6446   1.615   0.215  15.662 -0.1843 -0.6011 -0.5807
  429MPD2     C 6447   2.231   0.930  17.698  0.1241 -0.5610  0.1041
  429MPD2    C1 6448   2.356   0.884  17.718  0.2063  1.2950 -0.4075
  429MPD2    C2 6449   2.468   0.963  17.695 -0.4242  0.0927 -0.2661
  429MPD2    C3 6450   2.453   1.090  17.632 -0.5688 -0.0461 -0.5854
  429MPD2    C4 6451   2.324   1.136  17.623 -1.3262  0.5687  0.4097
  429MPD2    C5 6452   2.214   1.058  17.654 -0.0227 -0.3073 -0.2956
  429MPD2     H 6453   2.567   0.922  17.710 -0.3776  0.4719  0.4348
  429MPD2    H1 6454   2.292   1.227  17.574 -1.2787  0.9300  1.0445
  429MPD2    H2 6455   2.144   0.864  17.704 -1.3525  1.3102 -0.7579
  429MPD2    H3 6456   2.117   1.084  17.612  0.6742  0.8408 -1.1768
  429MPD2     N 6457   2.570   1.157  17.599 -0.0324 -0.3933 -0.0589
  429MPD2    H5 6458   2.657   1.110  17.622 -0.1094 -1.0841 -1.1534
  429MPD2    N1 6459   2.379   0.754   0.030 -0.1150  0.0742  0.3457
  429MPD2    H7 6460   2.477   0.730   0.043 -0.1525 -0.7838 -0.8868
  430TMC3    C1 6461   2.714   1.296  17.477  0.7552  0.0455 -0.1386
  430TMC3    C2 6462   2.724   1.416  17.410  0.8565 -0.5951  0.2511
  430TMC3    C3 6463   2.791   1.417  17.293  0.2014  0.1748 -0.3883
  430TMC3    C4 6464   2.774   1.179  17.432  0.4963 -0.7824  0.5911
  430TMC3    C5 6465   2.830   1.186  17.309 -0.0140  0.8570 -0.2675
  430TMC3    C6 6466   2.846   1.305  17.241  0.3021 -0.0601 -0.2570
  430TMC3     C 6467   2.581   1.286  17.544 -0.5992  0.0521 -0.1407
  430TMC3     O 6468   2.508   1.381  17.531 -0.1953 -0.1113  0.4648
  430TMC3     H 6469   2.665   1.506  17.427  0.9045 -0.6261  0.5844
  430TMC3    H1 6470   2.753   1.083  17.477 -1.3534 -0.5996  0.1165
  430TMC3    H2 6471   2.906   1.315  17.151  1.0594 -3.8817 -0.1650
  430TMC3    C7 6472   2.820   1.067  17.222 -0.8434 -0.4471 -0.5968
  430TMC3    C8 6473   2.713   1.484  17.187  0.5182  0.2524  0.1177
  430TMC3    O1 6474   2.822   0.959  17.274 -0.0020  0.4052  0.3971
  430TMC3    O2 6475   2.707   1.426  17.079 -0.4463  0.0669 -0.1211
  431MPD2     C 6476   3.231   2.078  12.095 -0.1287 -0.3651 -0.0844
  431MPD2    C1 6477   3.302   2.021  12.201 -0.5005  0.1500  0.1780
  431MPD2    C2 6478   3.277   1.890  12.227 -0.5497 -0.5921 -0.3918
  431MPD2    C3 6479   3.206   1.812  12.141  0.4175  0.3117 -0.1075
  431MPD2    C4 6480   3.133   1.875  12.040 -0.2968 -0.2062 -0.3816
  431MPD2    C5 6481   3.138   2.007  12.022 -0.4456  0.5668 -0.1443
  431MPD2     H 6482   3.331   1.839  12.306 -1.7118 -3.5234 -1.4720
  431MPD2    H1 6483   3.074   1.818  11.969 -1.7316 -1.4651  1.7989
  431MPD2    H2 6484   3.220   2.184  12.079  0.1983 -0.3009  0.1311
  431MPD2    H3 6485   3.075   2.048  11.944  1.5777  2.5579 -0.7512
  431MPD2     N 6486   3.184   1.670  12.160 -0.2200  0.3000 -0.2441
  431MPD2    H5 6487   3.129   1.625  12.087 -1.5228 -0.4064  1.1792
  431MPD2    N1 6488   3.398   2.085  12.276 -0.2237  0.0064  0.0955
  431MPD2    H7 6489   3.444   2.039  12.353 -1.2877 -1.3103 -0.0448
  432TMC3    C1 6490   3.230   1.452  12.206 -0.0119  0.1044  0.3239
  432TMC3    C2 6491   3.242   1.439  12.073 -0.8769 -0.0660  0.4015
  432TMC3    C3 6492   3.204   1.327  12.004  1.0827 -0.1737  0.9063
  432TMC3    C4 6493   3.201   1.344  12.282 -0.3136  0.1619 -0.4771
  432TMC3    C5 6494   3.166   1.230  12.214  0.2635 -0.4925 -0.3477
  432TMC3    C6 6495   3.159   1.218  12.076  0.4387  0.3322 -0.2056
  432TMC3     C 6496   3.222   1.588  12.261  0.3253 -0.0618  0.6191
  432TMC3     O 6497   3.250   1.606  12.382 -0.3132 -0.6229  0.1093
  432TMC3     H 6498   3.302   1.512  12.019 -3.6636  2.3411  0.5265
  432TMC3    H1 6499   3.211   1.346  12.390  0.7886  0.9714 -0.6037
  432TMC3    H2 6500   3.125   1.127  12.029 -1.9645  1.0513  0.1663
  432TMC3    C7 6501   3.210   1.102  12.278 -0.5091 -0.0728  0.2344
  432TMC3    C8 6502   3.266   1.304  11.875  0.1096  0.9097 -0.1272
  432TMC3    O1 6503   3.191   1.004  12.205  0.1779 -0.2003  0.6368
  432TMC3    O2 6504   3.202   1.254  11.785 -0.3005  0.2996 -0.2871
  433MPD2     C 6505   2.450   0.411  10.753  0.0748  0.2084  0.4436
  433MPD2    C1 6506   2.579   0.398  10.806  0.3611 -0.6537  0.3904
  433MPD2    C2 6507   2.613   0.477  10.912 -0.1712  0.7117  0.4981
  433MPD2    C3 6508   2.511   0.542  10.973  0.0488  0.3510  0.6931
  433MPD2    C4 6509   2.392   0.579  10.915 -0.2548 -0.4574 -0.4750
  433MPD2    C5 6510   2.354   0.511  10.798  0.1023  0.1055 -0.4181
  433MPD2     H 6511   2.699   0.460  10.976  1.3883 -0.5011 -1.9376
  433MPD2    H1 6512   2.319   0.651  10.952  0.5962  0.2273 -0.1370
  433MPD2    H2 6513   2.423   0.357  10.664  0.6649  1.4617 -0.4909
  433MPD2    H3 6514   2.256   0.520  10.753 -0.9671  1.8969  2.2922
  433MPD2     N 6515   2.548   0.587  11.100  0.0461  0.6029 -0.0936
  433MPD2    H5 6516   2.646   0.599  11.126  0.3278  0.7400 -1.2263
  433MPD2    N1 6517   2.657   0.299  10.753 -0.2960  0.0827  0.7347
  433MPD2    H7 6518   2.640   0.271  10.656 -0.1335  0.9597  0.4480
  434TMC3    C1 6519   2.838   0.145  10.751  0.7996 -0.0987  0.5985
  434TMC3    C2 6520   2.941   0.113  10.843  0.0883  0.5798  0.3645
  434TMC3    C3 6521   2.974   4.716  10.859  0.0374  0.3723 -0.3187
  434TMC3    C4 6522   2.779   0.050  10.673 -0.5454 -0.0445  0.7664
  434TMC3    C5 6523   2.814   4.661  10.697  0.3906  0.1712  0.4373
  434TMC3    C6 6524   2.917   4.625  10.777 -0.2069  0.1739 -0.5208
  434TMC3     C 6525   2.758   0.244  10.822  0.2210  0.0267 -0.6301
  434TMC3     O 6526   2.776   0.247  10.943 -0.7987 -0.4535  0.1742
  434TMC3     H 6527   2.985   0.192  10.902  0.7163 -0.1080  0.8151
  434TMC3    H1 6528   2.689   0.072  10.616  0.2226  1.0342 -0.0122
  434TMC3    H2 6529   2.941   4.521  10.794  0.1188  0.6009  1.6738
  434TMC3    C7 6530   2.723   4.555  10.648  0.1660  1.6826 -0.7155
  434TMC3    C8 6531   3.032   4.679  10.991 -1.2366  0.5057 -0.5135
  434TMC3    O1 6532   2.689   4.560  10.531 -0.2108 -0.1000 -0.5053
  434TMC3    O2 6533   3.066   0.037  11.065  0.5429  0.4302  0.0862
  435MPD2     C 6534   4.223   4.438  15.399 -0.2519 -0.5276  0.2153
  435MPD2    C1 6535   4.203   4.441  15.533  0.1773 -0.5150 -0.3885
  435MPD2    C2 6536   4.279   4.373  15.624  0.0747  0.0267  0.5604
  435MPD2    C3 6537   4.373   4.277  15.583 -0.8668  0.0533 -0.0795
  435MPD2    C4 6538   4.393   4.265  15.446  0.1756  0.2501  0.4886
  435MPD2    C5 6539   4.327   4.353  15.363 -0.0157 -0.5441  0.8742
  435MPD2     H 6540   4.273   4.383  15.732  3.8501  1.8770  0.5936
  435MPD2    H1 6541   4.474   4.206  15.403  0.1504  1.2588 -0.9255
  435MPD2    H2 6542   4.184   4.515  15.333  2.5266  0.7720  0.1023
  435MPD2    H3 6543   4.364   4.366  15.262 -1.2177 -0.2248  0.4751
  435MPD2     N 6544   4.430   4.195  15.684  0.0706 -1.0220 -0.0263
  435MPD2    H5 6545   4.408   4.216  15.781 -0.0214  0.6450 -0.4053
  435MPD2    N1 6546   4.097   4.518  15.593  0.5388 -0.5356  0.6979
  435MPD2    H7 6547   4.070   4.493  15.687  0.5444 -0.3026  0.7614
  436TMC3    C1 6548   3.842   4.727  15.832  0.6426  0.2143  1.0095
  436TMC3    C2 6549   3.932   4.665  15.754 -0.2383  0.0740 -0.0991
  436TMC3    C3 6550   3.930   4.691  15.616 -0.2763  0.7682  0.2812
  436TMC3    C4 6551   3.753   0.082  15.782  0.2055 -0.4245  1.1583
  436TMC3    C5 6552   3.756   0.101  15.646  0.1027 -0.8119  0.3391
  436TMC3    C6 6553   3.842   0.046  15.563 -0.3612  0.5108 -0.1411
  436TMC3     C 6554   3.908   0.046  15.947  0.3377  0.0550 -0.0233
  436TMC3     O 6555   4.030   0.043  15.949 -1.1109 -0.1032 -0.3294
  436TMC3     H 6556   4.021   4.616  15.792 -0.2392  1.5801  1.8580
  436TMC3    H1 6557   3.680   0.140  15.837  0.0899  1.5313 -1.0333
  436TMC3    H2 6558   3.851   0.069  15.457  1.0100  1.6487  0.2260
  436TMC3    C7 6559   3.674   0.227  15.606  0.2850  0.1878 -0.3365
  436TMC3    C8 6560   4.022   4.612  15.533  0.3422 -0.5762 -0.4327
  436TMC3    O1 6561   3.570   0.252  15.668  0.3642 -0.4406 -0.9746
  436TMC3    O2 6562   4.017   4.644  15.412  0.1709  0.0816 -0.1163
  437TMC3    C1 6563   2.563   2.687  13.071 -0.0806  0.2376 -0.1370
  437TMC3    C2 6564   2.431   2.718  13.056 -0.4668 -1.2159 -0.0345
  437TMC3    C3 6565   2.400   2.763  12.924 -0.0520 -0.4982 -0.3809
  437TMC3    C4 6566   2.658   2.693  12.974  1.0219 -0.1959  0.1611
  437TMC3    C5 6567   2.617   2.734  12.848  0.6970  0.3088  0.0827
  437TMC3    C6 6568   2.487   2.762  12.819  0.0820  0.3116  0.0625
  437TMC3     C 6569   2.601   2.656  13.209 -0.4059  0.0372  0.2928
  437TMC3     O 6570   2.537   2.709  13.294  0.3645 -0.4919  0.5378
  437TMC3     H 6571   2.366   2.713  13.142 -1.0407 -0.1757 -0.4149
  437TMC3    H1 6572   2.761   2.699  13.005  0.8984  1.2960  0.2744
  437TMC3    H2 6573   2.462   2.787  12.716  1.2011  1.3186  0.0327
  437TMC3    C7 6574   2.711   2.715  12.736 -0.4526 -0.0426 -0.1085
  437TMC3    C8 6575   2.270   2.823  12.893  0.1838 -0.3262 -0.1374
  437TMC3    O1 6576   2.674   2.762  12.629 -0.4692  0.4035  0.7679
  437TMC3    O2 6577   2.257   2.882  12.788  0.1639 -0.5314 -0.1213
  438MPD2     C 6578   0.607   2.435  16.873 -0.6440  0.0843 -0.0985
  438MPD2    C1 6579   0.674   2.337  16.948  0.1021 -0.3563  0.6027
  438MPD2    C2 6580   0.668   2.342  17.089  0.7547 -0.5866  0.6272
  438MPD2    C3 6581   0.591   2.441  17.153 -0.0088  0.2363  0.0859
  438MPD2    C4 6582   0.531   2.532  17.077  0.1888  0.2603  0.1883
  438MPD2    C5 6583   0.540   2.536  16.939  0.4194  0.0113  0.4213
  438MPD2     H 6584   0.719   2.262  17.141 -2.4114 -3.1541 -0.2199
  438MPD2    H1 6585   0.478   2.608  17.132 -1.9337 -2.5211  1.9718
  438MPD2    H2 6586   0.622   2.451  16.767  0.3937  0.9066  0.1726
  438MPD2    H3 6587   0.484   2.612  16.886  0.9141  0.3097  0.3282
  438MPD2     N 6588   0.565   2.436  17.293 -0.1061 -0.3085 -0.8327
  438MPD2    H5 6589   0.522   2.522  17.327  0.6634 -0.4001  0.3971
  438MPD2    N1 6590   0.764   2.247  16.887 -0.1203  0.1972 -0.0910
  438MPD2    H7 6591   0.807   2.180  16.951 -2.4343  0.1548  1.4072
  439TMC3    C1 6592   0.868   2.120  16.714  0.3188  0.1004  0.0870
  439TMC3    C2 6593   0.845   2.061  16.590 -1.1734  0.0313  0.2891
  439TMC3    C3 6594   0.910   1.938  16.565  0.4051  0.3939  0.3226
  439TMC3    C4 6595   0.943   2.065  16.813 -0.2361 -0.1925  0.5994
  439TMC3    C5 6596   0.997   1.939  16.789 -0.2881  0.2706 -0.2290
  439TMC3    C6 6597   0.988   1.876  16.668 -0.2512  0.6338 -0.3870
  439TMC3     C 6598   0.778   2.230  16.751 -0.7048  0.1921 -0.4548
  439TMC3     O 6599   0.713   2.275  16.658  0.1154 -0.0069 -0.1081
  439TMC3     H 6600   0.790   2.097  16.503  1.1673  1.4040 -0.6193
  439TMC3    H1 6601   0.960   2.106  16.911  1.8623 -0.7136  0.4515
  439TMC3    H2 6602   1.043   1.785  16.647 -3.4503 -1.0229 -1.6296
  439TMC3    C7 6603   1.065   1.875  16.895 -0.1622 -0.3505 -0.1318
  439TMC3    C8 6604   0.896   1.856  16.444  0.2403 -0.2397 -0.5557
  439TMC3    O1 6605   1.106   1.947  16.984 -0.5361  0.4221 -0.4419
  439TMC3    O2 6606   0.987   1.774  16.420 -0.3980 -0.0534 -0.1479
  440MPD2     C 6607   3.550   3.057  15.378 -1.5383 -0.2458  0.1129
  440MPD2    C1 6608   3.621   3.047  15.264  0.4088 -0.2093 -0.1073
  440MPD2    C2 6609   3.681   2.921  15.231  0.7139  0.2154 -0.3728
  440MPD2    C3 6610   3.663   2.811  15.314 -0.3268 -0.5503  0.1339
  440MPD2    C4 6611   3.603   2.825  15.437  1.1369 -0.0418  0.7813
  440MPD2    C5 6612   3.554   2.950  15.465  0.3042  0.2748 -0.3848
  440MPD2     H 6613   3.735   2.918  15.137  1.5285 -0.2486  0.1143
  440MPD2    H1 6614   3.579   2.751  15.512 -1.2647 -0.2592 -0.2069
  440MPD2    H2 6615   3.500   3.147  15.411 -0.7819 -0.0042  0.6007
  440MPD2    H3 6616   3.499   2.966  15.558  0.7951  0.4952 -0.1295
  440MPD2     N 6617   3.711   2.682  15.274 -1.0949  0.2175 -0.4795
  440MPD2    H5 6618   3.669   2.610  15.333  0.6355 -0.6895 -0.3455
  440MPD2    N1 6619   3.643   3.156  15.173 -0.0455 -0.1892 -0.3276
  440MPD2    H7 6620   3.689   3.132  15.086  1.8816 -1.7586  1.1026
  441TMC3    C1 6621   3.799   2.495  15.170  0.5327  0.0309 -0.0336
  441TMC3    C2 6622   3.872   2.448  15.057  0.6952 -0.2981  0.4450
  441TMC3    C3 6623   3.951   2.343  15.071  0.0659  0.3241  0.7514
  441TMC3    C4 6624   3.791   2.423  15.281  0.0501  1.2860  0.1756
  441TMC3    C5 6625   3.876   2.317  15.296 -0.2468  0.1860 -0.1582
  441TMC3    C6 6626   3.957   2.277  15.191  0.2616  0.3330  0.5123
  441TMC3     C 6627   3.782   2.641  15.164  0.5664 -0.3740  0.4079
  441TMC3     O 6628   3.834   2.700  15.073  0.1745 -0.2453  0.0036
  441TMC3     H 6629   3.865   2.506  14.966 -0.7358  0.8538  1.2798
  441TMC3    H1 6630   3.738   2.452  15.372 -1.3508 -0.3918 -0.0941
  441TMC3    H2 6631   4.032   2.199  15.197  0.7369  0.9939  2.9400
  441TMC3    C7 6632   3.913   2.259  15.425  0.0125 -0.5224 -0.7488
  441TMC3    C8 6633   4.091   2.368  15.030 -0.6292 -0.0991  0.6606
  441TMC3    O1 6634   3.877   2.336  15.517  0.0495  0.1769  0.1596
  441TMC3    O2 6635   4.183   2.290  15.048  0.0960  0.1936 -0.1319
  442MPD2     C 6636   2.318   3.674  16.257 -0.1208  0.2887  0.3654
  442MPD2    C1 6637   2.223   3.639  16.348  0.0568  0.2721 -0.6333
  442MPD2    C2 6638   2.207   3.504  16.365 -0.1719  0.0319  0.2988
  442MPD2    C3 6639   2.283   3.406  16.302 -0.0969  0.2112  0.0525
  442MPD2    C4 6640   2.376   3.448  16.207  0.5378  0.9410 -0.3123
  442MPD2    C5 6641   2.395   3.582  16.194 -0.3373 -0.1239 -0.6285
  442MPD2     H 6642   2.131   3.468  16.433 -0.3685  0.8563  0.5191
  442MPD2    H1 6643   2.444   3.378  16.160 -0.2707  0.1946 -0.3672
  442MPD2    H2 6644   2.329   3.772  16.212  3.1044 -0.7754 -1.1902
  442MPD2    H3 6645   2.459   3.611  16.112 -2.0229  1.6921 -1.3201
  442MPD2     N 6646   2.268   3.265  16.327 -0.6857 -0.3967 -0.6121
  442MPD2    H5 6647   2.343   3.209  16.288 -1.1300 -1.8238  0.5921
  442MPD2    N1 6648   2.152   3.735  16.431  0.4443  0.2840 -0.2360
  442MPD2    H7 6649   2.079   3.699  16.492  0.3454  2.3174  0.8340
  443TMC3    C1 6650   2.068   3.945  16.500 -0.3923  0.4688  0.7217
  443TMC3    C2 6651   2.029   4.049  16.423 -0.1673  0.1289 -0.6807
  443TMC3    C3 6652   1.893   4.069  16.435  0.3182 -0.3636  0.4766
  443TMC3    C4 6653   1.989   3.874  16.586 -0.2215  0.0326 -0.1239
  443TMC3    C5 6654   1.870   3.917  16.615  0.4076 -0.6852 -0.2354
  443TMC3    C6 6655   1.819   4.021  16.540  1.0842 -0.3937 -1.0153
  443TMC3     C 6656   2.179   3.872  16.429 -0.1818  0.2625 -0.2287
  443TMC3     O 6657   2.280   3.931  16.388  0.6898  0.1567  0.0697
  443TMC3     H 6658   2.088   4.088  16.341 -1.6498 -0.2477 -1.9197
  443TMC3    H1 6659   2.035   3.794  16.643 -0.7865  0.2211  0.5855
  443TMC3    H2 6660   1.714   4.044  16.549  0.0162 -4.1951 -3.6829
  443TMC3    C7 6661   1.803   3.858  16.723 -0.5221  0.8157  0.3523
  443TMC3    C8 6662   1.821   4.037  16.311  0.1278  0.3933 -0.5081
  443TMC3    O1 6663   1.836   3.743  16.744 -0.1017 -0.1959  0.9068
  443TMC3    O2 6664   1.725   3.959  16.326  0.2462  0.0322  0.2572
  444MPD2     C 6665   2.450   2.869  17.146  0.2921 -0.0189  0.0138
  444MPD2    C1 6666   2.372   2.756  17.140  0.6139  0.7296 -0.6337
  444MPD2    C2 6667   2.427   2.649  17.066  0.2769  0.0373  0.1720
  444MPD2    C3 6668   2.557   2.646  17.018  0.0473  0.0580  0.5259
  444MPD2    C4 6669   2.635   2.756  17.037 -0.6235  0.9339 -0.9331
  444MPD2    C5 6670   2.579   2.868  17.098  0.2540  0.3105 -0.2373
  444MPD2     H 6671   2.366   2.563  17.041  0.6715  0.0076 -0.6835
  444MPD2    H1 6672   2.734   2.766  16.992 -0.6762 -0.0118 -1.2485
  444MPD2    H2 6673   2.414   2.957  17.198 -0.5242 -1.0393  1.2051
  444MPD2    H3 6674   2.639   2.957  17.113 -1.2456  1.0557  1.4046
  444MPD2     N 6675   2.601   2.527  16.949  0.1871  0.2357  0.3155
  444MPD2    H5 6676   2.534   2.453  16.931  0.3253 -0.0412  0.9312
  444MPD2    N1 6677   2.248   2.746  17.198 -0.2096 -0.7942  0.2937
  444MPD2    H7 6678   2.210   2.654  17.180 -0.8211  0.1700 -3.1718
  445TMC3    C1 6679   2.747   2.362  16.856 -0.2310  0.4089 -1.0040
  445TMC3    C2 6680   2.645   2.313  16.789 -0.2530 -0.2845  0.1314
  445TMC3    C3 6681   2.655   2.188  16.738 -0.5982 -0.4077  0.5843
  445TMC3    C4 6682   2.868   2.303  16.864 -0.7628 -0.3576  0.1805
  445TMC3    C5 6683   2.881   2.182  16.800 -0.3946  0.6611  0.1389
  445TMC3    C6 6684   2.774   2.117  16.747 -0.2858  0.0537 -0.0800
  445TMC3     C 6685   2.729   2.496  16.920  0.6011 -0.3856  0.6784
  445TMC3     O 6686   2.832   2.558  16.945  0.1221 -0.2249 -0.3193
  445TMC3     H 6687   2.559   2.376  16.772 -0.7462 -1.1958 -0.7854
  445TMC3    H1 6688   2.933   2.335  16.945 -0.2093 -2.1343  0.4284
  445TMC3    H2 6689   2.781   2.017  16.708 -1.2020 -0.3599  0.8110
  445TMC3    C7 6690   3.008   2.113  16.821 -0.6832  0.3980 -0.5929
  445TMC3    C8 6691   2.534   2.142  16.665 -0.2442  0.2154 -0.1834
  445TMC3    O1 6692   3.077   2.165  16.907  0.0049  0.2648  0.2168
  445TMC3    O2 6693   2.444   2.224  16.651  0.6551  0.2292  0.3729
  446MPD2     C 6694   2.491   4.538  11.581  0.1180 -0.5839 -0.0504
  446MPD2    C1 6695   2.520   4.506  11.451  0.4116 -0.3842 -0.5806
  446MPD2    C2 6696   2.607   4.584  11.381  1.1876  0.2414  1.2508
  446MPD2    C3 6697   2.647   4.704  11.429 -0.0093  0.2338 -0.2069
  446MPD2    C4 6698   2.623   4.731  11.564 -0.2776  0.7972  0.0926
  446MPD2    C5 6699   2.547   4.650  11.635 -0.1878  0.9327 -0.1874
  446MPD2     H 6700   2.626   4.565  11.276 -1.5234  1.8131  0.4792
  446MPD2    H1 6701   2.654   0.085  11.616  0.0066  0.9124 -0.2795
  446MPD2    H2 6702   2.424   4.493  11.653 -0.7623 -1.8634 -1.6960
  446MPD2    H3 6703   2.532   4.670  11.740  0.9145  2.2775 -0.2876
  446MPD2     N 6704   2.723   0.055  11.348  0.8346  0.4581  0.2192
  446MPD2    H5 6705   2.776   0.026  11.267 -2.0145  1.9011 -2.1424
  446MPD2    N1 6706   2.467   4.391  11.388 -0.2541  0.4151  0.0879
  446MPD2    H7 6707   2.460   4.397  11.287  1.7578  0.3281 -0.0407
  447TMC3    C1 6708   2.852   0.238  11.308 -0.5139 -0.5505 -0.1611
  447TMC3    C2 6709   2.851   0.366  11.253 -0.0323 -0.1949 -0.3925
  447TMC3    C3 6710   2.976   0.422  11.226 -0.2248 -0.4997  0.7593
  447TMC3    C4 6711   2.969   0.181  11.357  0.1038  0.2290 -0.1955
  447TMC3    C5 6712   3.088   0.236  11.330 -0.0339 -0.4592 -0.5054
  447TMC3    C6 6713   3.095   0.357  11.257  0.7231  0.5430 -0.1998
  447TMC3     C 6714   2.733   0.191  11.376  0.1880  0.2802 -0.1978
  447TMC3     O 6715   2.665   0.273  11.434  0.3718  0.1327  0.1958
  447TMC3     H 6716   2.756   0.398  11.213  0.8745  0.7300 -1.8258
  447TMC3    H1 6717   2.967   0.087  11.411  0.5554 -0.6225 -1.6720
  447TMC3    H2 6718   3.193   0.381  11.218  0.7393  0.0157 -0.4861
  447TMC3    C7 6719   3.210   0.165  11.359 -0.7153  0.7730 -0.1787
  447TMC3    C8 6720   2.968   0.507  11.111  0.1066 -0.0709 -0.6090
  447TMC3    O1 6721   3.195   0.054  11.402  0.4327  0.4099  0.7906
  447TMC3    O2 6722   2.870   0.578  11.099 -0.7563 -0.0495 -0.2344
  448TMC3    C1 6723   0.505   3.435  17.416 -0.3279  0.1078 -0.1390
  448TMC3    C2 6724   0.480   3.358  17.308  0.0819 -0.1420 -0.6006
  448TMC3    C3 6725   0.543   3.237  17.309  0.5372 -0.5960  0.0772
  448TMC3    C4 6726   0.594   3.406  17.519  0.3386 -0.1649 -0.4935
  448TMC3    C5 6727   0.646   3.283  17.514 -0.4986 -0.5417 -0.3488
  448TMC3    C6 6728   0.633   3.197  17.401 -0.1019 -0.1212 -0.1586
  448TMC3     C 6729   0.494   3.569  17.396 -0.2320  0.0402 -0.4471
  448TMC3     O 6730   0.583   3.630  17.447  0.0759 -0.3334  0.0734
  448TMC3     H 6731   0.430   3.391  17.217 -0.7246 -0.1500 -0.1566
  448TMC3    H1 6732   0.611   3.462  17.609  1.2474 -1.2503  0.0042
  448TMC3    H2 6733   0.685   3.103  17.391 -0.5325 -0.5552  1.6139
  448TMC3    C7 6734   0.720   3.227  17.631 -0.2523 -0.0612 -0.9691
  448TMC3    C8 6735   0.544   3.158  17.192 -0.4057  0.7786 -0.0664
  448TMC3    O1 6736   0.792   3.128  17.610  0.4177 -0.5387 -0.1172
  448TMC3    O2 6737   0.646   3.092  17.172 -0.1427 -0.1869  0.0576
  449MPD2     C 6738   1.857   2.141  14.242 -0.0607  0.4102 -0.1118
  449MPD2    C1 6739   1.775   2.252  14.225  0.3705  0.2876  0.0576
  449MPD2    C2 6740   1.641   2.238  14.250 -0.0447  0.1308 -0.3492
  449MPD2    C3 6741   1.595   2.134  14.320  0.3463 -0.5258  0.0346
  449MPD2    C4 6742   1.676   2.029  14.345  0.3671 -0.3152  0.4405
  449MPD2    C5 6743   1.799   2.029  14.296 -0.1157  0.3727  0.2994
  449MPD2     H 6744   1.565   2.311  14.228  1.2529  1.9025  1.0592
  449MPD2    H1 6745   1.654   1.935  14.393 -0.1618  0.3099  1.4239
  449MPD2    H2 6746   1.952   2.135  14.191 -0.6964 -1.2361 -1.0818
  449MPD2    H3 6747   1.859   1.940  14.286 -1.3327 -0.8357  3.8612
  449MPD2     N 6748   1.463   2.147  14.359  0.4490  1.5455  0.5143
  449MPD2    H5 6749   1.413   2.227  14.322  0.4158  1.1365 -0.3346
  449MPD2    N1 6750   1.813   2.374  14.173  0.1413 -0.2691 -0.1620
  449MPD2    H7 6751   1.739   2.444  14.168  0.0731 -0.4785 -1.8201
  450TMC3    C1 6752   1.948   2.544  14.093  0.1205 -0.2895 -0.1253
  450TMC3    C2 6753   1.954   2.568  13.958  0.2460  0.3579 -0.4653
  450TMC3    C3 6754   1.863   2.659  13.901 -0.6812  0.0842 -0.6481
  450TMC3    C4 6755   1.859   2.620  14.167 -0.6475 -0.1326 -0.1640
  450TMC3    C5 6756   1.765   2.698  14.106 -0.5331 -0.3255  0.6418
  450TMC3    C6 6757   1.776   2.726  13.971 -0.4028 -0.3397 -0.1102
  450TMC3     C 6758   1.941   2.403  14.125  0.2656  0.7891 -0.1191
  450TMC3     O 6759   2.042   2.337  14.103 -0.1546 -0.1537 -0.5608
  450TMC3     H 6760   1.994   2.493  13.890  1.9473 -0.6207  1.6262
  450TMC3    H1 6761   1.862   2.612  14.275 -0.8994  0.2229 -0.1314
  450TMC3    H2 6762   1.703   2.786  13.917 -1.1607 -2.6688 -1.6854
  450TMC3    C7 6763   1.633   2.686  14.156  0.1212  0.6296 -0.2373
  450TMC3    C8 6764   1.891   2.719  13.768  0.5532  0.0573  0.1744
  450TMC3    O1 6765   1.631   2.584  14.225 -0.4601  0.3232 -0.1751
  450TMC3    O2 6766   1.804   2.788  13.722  0.8040 -0.2967  0.4581
  451MPD2     C 6767   3.494   1.916   1.260  0.0739  0.0829 -0.5900
  451MPD2    C1 6768   3.484   1.781   1.266  0.3532  0.2390  0.4958
  451MPD2    C2 6769   3.598   1.710   1.238  0.4418  0.2676 -0.9280
  451MPD2    C3 6770   3.718   1.779   1.207  0.2961 -0.0320 -0.2958
  451MPD2    C4 6771   3.732   1.917   1.206 -0.2147  0.5386 -0.0074
  451MPD2    C5 6772   3.614   1.987   1.235  0.5125  0.9465 -0.9192
  451MPD2     H 6773   3.608   1.603   1.245 -1.4988  0.1518  0.1402
  451MPD2    H1 6774   3.827   1.965   1.189 -0.1031  1.1985  2.4934
  451MPD2    H2 6775   3.405   1.972   1.286  0.2678  0.4624 -0.7489
  451MPD2    H3 6776   3.616   2.095   1.226  0.2639  1.1570  1.5289
  451MPD2     N 6777   3.826   1.693   1.176 -0.0422 -0.6113  0.7150
  451MPD2    H5 6778   3.813   1.593   1.192 -1.7566 -0.2572  1.4738
  451MPD2    N1 6779   3.356   1.730   1.289 -0.0675  0.6012 -0.0723
  451MPD2    H7 6780   3.290   1.802   1.314 -1.6341 -0.8857  0.0757
  452TMC3    C1 6781   4.045   1.637   1.169  0.0532 -1.3396  0.5855
  452TMC3    C2 6782   4.030   1.550   1.269 -0.3125  0.0200  0.2976
  452TMC3    C3 6783   4.111   1.440   1.266 -0.2619 -0.7537  0.1344
  452TMC3    C4 6784   4.115   1.603   1.056  0.0213 -0.0736  0.1746
  452TMC3    C5 6785   4.195   1.491   1.054 -0.5387 -0.3493 -0.0732
  452TMC3    C6 6786   4.184   1.399   1.158  0.3751 -0.2754 -0.3415
  452TMC3     C 6787   3.953   1.736   1.144  0.6138 -0.8157 -0.2763
  452TMC3     O 6788   3.992   1.848   1.109  0.6074  0.3555  0.2115
  452TMC3     H 6789   3.954   1.570   1.344 -0.0570 -0.3607  0.6568
  452TMC3    H1 6790   4.119   1.669   0.971  2.8692  0.1144  0.4314
  452TMC3    H2 6791   4.235   1.305   1.180  1.2818  0.0651 -1.0099
  452TMC3    C7 6792   4.302   1.482   0.959  0.1154 -0.5740 -0.1293
  452TMC3    C8 6793   4.064   1.348   1.357  1.0179  0.0835  0.1344
  452TMC3    O1 6794   4.290   1.546   0.853 -0.4398 -0.2141 -0.4273
  452TMC3    O2 6795   4.039   1.235   1.313 -0.5577  0.7122  0.4208
  453TMC3    C1 6796   4.680   3.314  12.245  0.8534  0.2551 -0.4527
  453TMC3    C2 6797   4.571   3.233  12.254  1.0114  0.3365  0.7210
  453TMC3    C3 6798   4.488   3.227  12.147 -0.2728  0.5614  0.3742
  453TMC3    C4 6799   4.703   3.392  12.137  0.4756  0.0318 -0.6616
  453TMC3    C5 6800   4.616   3.382  12.025  0.4449 -0.4457 -0.1899
  453TMC3    C6 6801   4.509   3.298  12.036 -0.1825  1.1086  0.7935
  453TMC3     C 6802   0.060   3.297  12.336  0.3397  0.0814 -0.4048
  453TMC3     O 6803   0.153   3.373  12.301 -0.0854 -0.6754 -0.0240
  453TMC3     H 6804   4.552   3.178  12.346 -0.7355  0.2690  0.3236
  453TMC3    H1 6805   0.043   3.469  12.134 -0.0821  0.6863  1.5137
  453TMC3    H2 6806   4.424   3.304  11.969  0.3673 -0.0469 -0.0006
  453TMC3    C7 6807   4.671   3.426  11.901  0.0372  0.2764 -0.7769
  453TMC3    C8 6808   4.350   3.187  12.162  0.4817 -0.5970  0.6964
  453TMC3    O1 6809   0.025   3.505  11.899  0.2031  0.2901  0.5787
  453TMC3    O2 6810   4.258   3.256  12.123  0.2278 -0.6796 -0.9163
  454MPD2     C 6811   3.248   2.235  16.376  1.2280 -0.6699 -0.8420
  454MPD2    C1 6812   3.196   2.339  16.306 -0.2910  0.1894 -0.8209
  454MPD2    C2 6813   3.153   2.452  16.369 -0.0946 -0.7587  0.1646
  454MPD2    C3 6814   3.183   2.473  16.507 -0.8186  0.0022 -0.2599
  454MPD2    C4 6815   3.247   2.378  16.574 -0.2006 -0.4354 -1.0522
  454MPD2    C5 6816   3.269   2.261  16.508 -0.2807 -0.5387 -0.3064
  454MPD2     H 6817   3.097   2.525  16.312 -1.4947 -1.1119  1.0732
  454MPD2    H1 6818   3.277   2.385  16.678 -0.0286  1.7071 -1.2587
  454MPD2    H2 6819   3.283   2.138  16.342 -1.3420 -0.5418 -3.8207
  454MPD2    H3 6820   3.325   2.189  16.565  1.5577  0.5027 -0.8021
  454MPD2     N 6821   3.110   2.574  16.575 -0.0850 -0.2186 -0.2075
  454MPD2    H5 6822   3.101   2.564  16.675 -0.7074 -0.9642 -0.3385
  454MPD2    N1 6823   3.158   2.323  16.173  0.0507  0.0076 -0.0498
  454MPD2    H7 6824   3.098   2.398  16.140  1.5851  1.0140 -0.5222
  455TMC3    C1 6825   2.900   2.673  16.592  0.7408  0.4248  0.8286
  455TMC3    C2 6826   2.833   2.776  16.541  0.2170 -0.0882 -0.7644
  455TMC3    C3 6827   2.700   2.763  16.503 -0.5657 -0.2823 -0.1240
  455TMC3    C4 6828   2.843   2.550  16.591 -0.1367 -0.0626 -0.2301
  455TMC3    C5 6829   2.717   2.535  16.538  0.4934 -0.4353  0.0989
  455TMC3    C6 6830   2.639   2.641  16.512 -0.2724  0.2770 -0.3093
  455TMC3     C 6831   3.027   2.668  16.522 -0.0300 -0.2595  0.3565
  455TMC3     O 6832   3.036   2.731  16.420 -0.3007 -0.5799 -0.8207
  455TMC3     H 6833   2.881   2.872  16.549  0.6403 -0.3228 -0.5371
  455TMC3    H1 6834   2.899   2.465  16.627 -0.1211  0.6080  1.3450
  455TMC3    H2 6835   2.544   2.629  16.460 -0.8846 -0.0193  0.8933
  455TMC3    C7 6836   2.683   2.417  16.467  0.0078  0.2179 -0.0901
  455TMC3    C8 6837   2.620   2.876  16.539  0.9899  0.1402  0.6895
  455TMC3    O1 6838   2.567   2.397  16.434 -0.2522 -0.4441 -0.3976
  455TMC3    O2 6839   2.672   2.987  16.539  0.2286  0.1449 -0.0213
  456MPD2     C 6840   0.796   2.208  16.067 -0.5717 -0.0191 -0.4967
  456MPD2    C1 6841   0.900   2.226  16.153 -0.0512 -0.3074 -0.4058
  456MPD2    C2 6842   0.882   2.301  16.269 -0.6815  0.0166 -0.4116
  456MPD2    C3 6843   0.771   2.363  16.303  0.1843 -0.1040 -0.3756
  456MPD2    C4 6844   0.668   2.351  16.215  0.5619  0.0100  0.2746
  456MPD2    C5 6845   0.677   2.270  16.099 -0.7014 -0.0313  0.2330
  456MPD2     H 6846   0.967   2.322  16.332 -0.6978 -0.5000 -0.2211
  456MPD2    H1 6847   0.570   2.396  16.225  2.0330  2.9615  1.3266
  456MPD2    H2 6848   0.799   2.151  15.975 -1.8380 -1.8916  0.6081
  456MPD2    H3 6849   0.584   2.274  16.043  0.6963 -0.2490 -2.0705
  456MPD2     N 6850   0.776   2.439  16.423  0.2105 -0.0946 -0.2731
  456MPD2    H5 6851   0.868   2.447  16.464 -0.2656 -0.6265  0.9120
  456MPD2    N1 6852   1.024   2.168  16.112 -0.4050 -0.5391  0.0157
  456MPD2    H7 6853   1.034   2.129  16.019  1.1716  0.4106 -0.2185
  457TMC3    C1 6854   0.727   2.611  16.575 -0.7988  0.2171 -0.4237
  457TMC3    C2 6855   0.652   2.725  16.591 -0.3441  0.4603  0.3675
  457TMC3    C3 6856   0.706   2.843  16.641  0.9429 -0.5885  0.2746
  457TMC3    C4 6857   0.851   2.598  16.638  0.2291  0.6638  0.9619
  457TMC3    C5 6858   0.900   2.716  16.689  0.1881 -0.2260  0.4251
  457TMC3    C6 6859   0.838   2.838  16.682 -0.1700  0.1627  0.6471
  457TMC3     C 6860   0.673   2.518  16.472  0.3195  0.2385 -0.0026
  457TMC3     O 6861   0.562   2.536  16.427 -0.4688  0.2586 -0.4855
  457TMC3     H 6862   0.547   2.729  16.563 -0.4978  1.5366  1.0909
  457TMC3    H1 6863   0.906   2.505  16.650 -2.2944 -1.1407 -1.4400
  457TMC3    H2 6864   0.885   2.933  16.706  1.1153 -0.2400 -0.2763
  457TMC3    C7 6865   0.991   2.710  16.804 -0.1842  0.6530  0.3854
  457TMC3    C8 6866   0.627   2.897  16.752 -0.0850  0.4087  0.2286
  457TMC3    O1 6867   1.051   2.605  16.821 -0.5491  0.3413  0.5790
  457TMC3    O2 6868   0.697   2.909  16.854 -0.2625 -0.0664  0.3954
  458MPD2     C 6869   3.209   2.678  12.606 -0.1574  0.2885  0.1312
  458MPD2    C1 6870   3.184   2.586  12.701  0.1362  0.9562  0.0098
  458MPD2    C2 6871   3.056   2.586  12.765  0.0731  0.5387 -0.2334
  458MPD2    C3 6872   2.949   2.661  12.713 -0.3573 -0.2840 -0.0483
  458MPD2    C4 6873   2.977   2.748  12.612  0.0717  0.5063 -0.5765
  458MPD2    C5 6874   3.109   2.766  12.567  1.0230  0.2105  0.1878
  458MPD2     H 6875   3.033   2.520  12.847 -1.6762 -0.0438 -1.1912
  458MPD2    H1 6876   2.901   2.820  12.585  0.2440  1.5467  1.6472
  458MPD2    H2 6877   3.314   2.689  12.581 -0.8206  4.4314 -0.7822
  458MPD2    H3 6878   3.134   2.853  12.507  0.6424 -0.3825 -0.8192
  458MPD2     N 6879   2.825   2.654  12.778  0.0373 -0.0246  0.9049
  458MPD2    H5 6880   2.820   2.602  12.864  0.4629 -2.2041 -0.3892
  458MPD2    N1 6881   3.301   2.514  12.736 -0.3592 -0.5421  0.0979
  458MPD2    H7 6882   3.378   2.517  12.670 -0.5160  2.4324  0.0543
  459TMC3    C1 6883   3.445   2.401  12.892  0.7179 -0.3268  0.0879
  459TMC3    C2 6884   3.549   2.487  12.864  0.0095  0.2364 -0.4834
  459TMC3    C3 6885   3.660   2.473  12.946 -0.5120  0.1558 -0.0936
  459TMC3    C4 6886   3.446   2.316  13.000  0.0095  0.4273  0.8714
  459TMC3    C5 6887   3.553   2.322  13.090  0.2768  0.2794  0.2993
  459TMC3    C6 6888   3.658   2.394  13.065 -0.4124 -0.0446  0.1014
  459TMC3     C 6889   3.311   2.436  12.854  0.0294 -0.0962  0.3460
  459TMC3     O 6890   3.221   2.405  12.928  0.0187 -0.0299  0.1550
  459TMC3     H 6891   3.546   2.560  12.784 -0.1871 -0.0609 -0.7442
  459TMC3    H1 6892   3.368   2.242  13.015 -2.0007  2.3095 -0.2207
  459TMC3    H2 6893   3.739   2.395  13.136  0.1567 -1.5808 -0.5240
  459TMC3    C7 6894   3.550   2.252  13.223  0.5000 -0.8621 -0.0794
  459TMC3    C8 6895   3.783   2.548  12.920  0.2001 -0.0588  0.6721
  459TMC3    O1 6896   3.644   2.279  13.299 -0.2944  0.0416 -0.3341
  459TMC3    O2 6897   3.888   2.500  12.958 -0.1076 -0.0856  0.0721
  460MPD2     C 6898   3.172   0.453  10.808 -0.3774 -0.3998 -0.9020
  460MPD2    C1 6899   3.067   0.500  10.880  1.0653  0.1078 -0.8105
  460MPD2    C2 6900   2.955   0.555  10.810  0.5675 -0.1570  0.2559
  460MPD2    C3 6901   2.971   0.567  10.673  0.6134 -0.2861  0.2358
  460MPD2    C4 6902   3.074   0.512  10.598 -0.3076 -0.1839 -0.6316
  460MPD2    C5 6903   3.174   0.453  10.667 -0.2993 -0.1648  0.7159
  460MPD2     H 6904   2.875   0.605  10.864  0.8394  0.2911  0.2426
  460MPD2    H1 6905   3.084   0.523  10.491  2.0331 -0.3204 -0.4182
  460MPD2    H2 6906   3.260   0.406  10.850 -0.7997  0.2159  0.6715
  460MPD2    H3 6907   3.263   0.419  10.616  1.0885  1.1191  2.3044
  460MPD2     N 6908   2.873   0.659  10.610  0.5401  0.4534  0.3144
  460MPD2    H5 6909   2.802   0.707  10.665  1.2054  0.7702  0.8892
  460MPD2    N1 6910   3.067   0.479  11.021 -0.3786  0.1047 -0.0282
  460MPD2    H7 6911   3.154   0.438  11.056 -0.6975  0.5447  1.2783
  461TMC3    C1 6912   2.752   0.770  10.439 -0.3848  0.7007 -0.7546
  461TMC3    C2 6913   2.637   0.698  10.465  0.3377 -0.3215  0.1654
  461TMC3    C3 6914   2.534   0.728  10.378 -0.3269  0.3658  0.1611
  461TMC3    C4 6915   2.762   0.854  10.333 -0.4173  0.0049  0.1755
  461TMC3    C5 6916   2.659   0.864  10.249 -0.4943  0.0207 -0.6163
  461TMC3    C6 6917   2.537   0.810  10.268 -0.5505  0.7010 -0.0484
  461TMC3     C 6918   2.871   0.698  10.477 -0.4974 -0.2992 -0.2804
  461TMC3     O 6919   2.964   0.689  10.401  0.0369  0.4809  0.1032
  461TMC3     H 6920   2.622   0.617  10.535 -2.4294 -0.4074 -0.5129
  461TMC3    H1 6921   2.855   0.907  10.317  0.5023 -1.0417  2.0635
  461TMC3    H2 6922   2.448   0.832  10.211 -2.0925  1.7256  2.7479
  461TMC3    C7 6923   2.667   0.952  10.130  0.3550  0.0139 -0.2726
  461TMC3    C8 6924   2.446   0.613  10.347 -0.0040  0.4001 -0.2179
  461TMC3    O1 6925   2.596   0.940  10.028 -0.5748  0.5539  0.4734
  461TMC3    O2 6926   2.389   0.558  10.442 -0.0451  0.5312  0.3623
  462TMC3    C1 6927   2.442   0.726   0.837 -0.3429 -1.1044  0.0454
  462TMC3    C2 6928   2.576   0.699   0.827 -0.4727 -0.2803 -0.1784
  462TMC3    C3 6929   2.614   0.581   0.771  0.1349  0.6960  0.9212
  462TMC3    C4 6930   2.349   0.637   0.784 -0.3349  0.3165  0.2623
  462TMC3    C5 6931   2.398   0.518   0.732  0.1165  1.1132  0.9211
  462TMC3    C6 6932   2.532   0.489   0.719 -0.6642 -0.6729  0.0355
  462TMC3     C 6933   2.383   0.850   0.898  0.0776 -0.6450  0.3736
  462TMC3     O 6934   2.275   0.884   0.849  0.1863 -0.2170  0.3281
  462TMC3     H 6935   2.652   0.769   0.858 -0.0246 -0.6499 -0.4521
  462TMC3    H1 6936   2.244   0.651   0.810 -0.4444 -1.6965  0.8391
  462TMC3    H2 6937   2.568   0.388   0.705  2.5033  0.1321  2.2997
  462TMC3    C7 6938   2.316   0.449   0.648 -0.4941 -0.1125  0.3304
  462TMC3    C8 6939   2.760   0.567   0.744  0.6397 -0.6246  0.1974
  462TMC3    O1 6940   2.353   0.343   0.614  0.3673 -0.5972  0.3620
  462TMC3    O2 6941   2.832   0.628   0.821  0.6902  0.3365  0.3554
  463MPD2     C 6942   3.436   4.451   1.528  0.0271 -0.3103 -0.3564
  463MPD2    C1 6943   3.300   4.475   1.542  0.5557  0.3833 -0.6560
  463MPD2    C2 6944   3.242   4.592   1.494 -0.5265 -0.1998  0.7328
  463MPD2    C3 6945   3.323   4.687   1.432 -0.4491  0.1329 -0.0832
  463MPD2    C4 6946   3.453   4.660   1.412  0.0855 -0.2906 -0.5259
  463MPD2    C5 6947   3.508   4.546   1.461  0.2515 -0.1608 -0.1723
  463MPD2     H 6948   3.136   4.613   1.501 -0.7975 -0.8230 -1.5379
  463MPD2    H1 6949   3.512   0.004   1.368 -1.8623  0.3608 -1.9557
  463MPD2    H2 6950   3.491   4.368   1.571 -3.3082 -2.0205  0.6589
  463MPD2    H3 6951   3.610   4.516   1.439  0.2742  0.0086 -0.3001
  463MPD2     N 6952   3.280   0.063   1.374  0.3585  0.3929  0.7459
  463MPD2    H5 6953   3.349   0.136   1.358 -1.3516  2.3658  2.3967
  463MPD2    N1 6954   3.228   4.386   1.618  0.1406 -0.3403 -0.5713
  463MPD2    H7 6955   3.129   4.406   1.632  0.6980  0.0136  2.8671
  464TMC3    C1 6956   3.171   4.184   1.708 -0.2207 -0.0860  0.6618
  464TMC3    C2 6957   3.038   4.223   1.684  0.2076  0.1363 -0.0987
  464TMC3    C3 6958   2.945   4.126   1.635  0.4327 -0.9455  0.0631
  464TMC3    C4 6959   3.205   4.054   1.689 -0.0415 -0.0462  0.5198
  464TMC3    C5 6960   3.111   3.962   1.651  0.0877 -0.5195  0.6293
  464TMC3    C6 6961   2.979   3.990   1.638  0.2311 -0.1761  0.1958
  464TMC3     C 6962   3.281   4.279   1.689  0.0959 -0.8457  0.4576
  464TMC3     O 6963   3.390   4.244   1.729 -0.3603 -0.5728 -0.1687
  464TMC3     H 6964   3.001   4.322   1.705 -0.6870  0.0909 -1.4624
  464TMC3    H1 6965   3.308   4.023   1.701  0.3457 -0.0076 -2.6380
  464TMC3    H2 6966   2.910   3.918   1.597  1.3090 -1.5327  0.7594
  464TMC3    C7 6967   3.148   3.820   1.669  0.5479 -0.3288  0.3849
  464TMC3    C8 6968   2.840   4.161   1.550  0.1569 -0.5777 -0.4043
  464TMC3    O1 6969   3.245   3.803   1.748 -0.6812 -0.0326  0.1745
  464TMC3    O2 6970   2.854   4.271   1.503  0.1083  0.4680 -0.2874
  465MPD2     C 6971   0.146   2.539  17.003 -0.3259  0.6234 -0.3943
  465MPD2    C1 6972   0.017   2.536  17.056  0.5986  0.7467 -0.5235
  465MPD2    C2 6973   4.646   2.574  16.970  0.5956  0.2930  0.7013
  465MPD2    C3 6974   4.670   2.621  16.843 -0.4726  0.7881  0.3784
  465MPD2    C4 6975   0.058   2.607  16.794  0.3619 -0.2045  0.7362
  465MPD2    C5 6976   0.164   2.559  16.871  0.2346  0.4427 -1.0004
  465MPD2     H 6977   4.547   2.559  17.011  0.0879  1.9446  0.0992
  465MPD2    H1 6978   0.093   2.651  16.701 -2.7130  0.8690  0.0913
  465MPD2    H2 6979   0.233   2.520  17.064 -2.1078 -0.0118  1.9467
  465MPD2    H3 6980   0.268   2.571  16.842 -0.3824  2.6396 -2.2933
  465MPD2     N 6981   4.560   2.655  16.762 -0.5471  0.3217  1.4328
  465MPD2    H5 6982   4.468   2.647  16.804 -0.6503  0.2906  1.2008
  465MPD2    N1 6983   4.721   2.487  17.186  0.5468  0.1738  0.1618
  465MPD2    H7 6984   4.622   2.479  17.210  0.7950  2.2238  1.9333
  466TMC3    C1 6985   4.215   2.681  16.604  0.0097 -0.4571  0.3347
  466TMC3    C2 6986   4.174   2.810  16.564  0.0317 -0.6855 -0.1201
  466TMC3    C3 6987   4.272   2.899  16.527  0.1213 -0.1162  0.0220
  466TMC3    C4 6988   4.344   2.641  16.610  0.3505 -0.4702 -0.0735
  466TMC3    C5 6989   4.437   2.735  16.578 -0.2759  0.0811 -0.2625
  466TMC3    C6 6990   4.404   2.864  16.540  0.3319 -0.0489 -0.4466
  466TMC3     C 6991   4.112   2.614  16.687  0.2559 -0.5096  0.2284
  466TMC3     O 6992   4.156   2.553  16.780 -0.3757 -0.2063  0.2726
  466TMC3     H 6993   4.071   2.841  16.552  0.4847  1.1663  0.7272
  466TMC3    H1 6994   4.371   2.549  16.661  0.9693  1.3076  2.8108
  466TMC3    H2 6995   4.482   2.938  16.556  3.3111 -2.7388 -2.4903
  466TMC3    C7 6996   4.569   2.716  16.639  0.4291  0.3761  0.3646
  466TMC3    C8 6997   4.242   3.014  16.449 -0.7011 -0.7576  0.0579
  466TMC3    O1 6998   4.665   2.774  16.588 -0.1780 -0.1708 -0.7174
  466TMC3    O2 6999   4.317   3.051  16.360 -0.3556 -0.7121 -0.8537
  467TMC3    C1 7000   1.056   1.441  14.231 -0.1681  0.3460 -0.3234
  467TMC3    C2 7001   0.992   1.565  14.261 -0.5593 -0.0506  0.1697
  467TMC3    C3 7002   0.914   1.623  14.170  0.1618  0.3896 -0.3953
  467TMC3    C4 7003   1.000   1.371  14.129  0.2894  0.9993  0.3353
  467TMC3    C5 7004   0.912   1.429  14.044  0.7777 -0.6846  0.0427
  467TMC3    C6 7005   0.865   1.549  14.066  0.5513  0.4173 -0.4056
  467TMC3     C 7006   1.202   1.443  14.252 -0.1483  0.1914 -0.5792
  467TMC3     O 7007   1.240   1.549  14.300 -0.1807 -0.0013  0.0369
  467TMC3     H 7008   1.018   1.625  14.348 -0.5197 -0.2296  0.2824
  467TMC3    H1 7009   1.023   1.267  14.108 -1.0882  0.7657 -0.0189
  467TMC3    H2 7010   0.796   1.596  13.997 -0.5795 -0.0071  0.4507
  467TMC3    C7 7011   0.827   1.331  13.974  0.1063  0.1765  0.2707
  467TMC3    C8 7012   0.967   1.752  14.125  0.5660 -0.1657 -0.2822
  467TMC3    O1 7013   0.881   1.227  13.936 -0.0422 -0.2878 -0.1808
  467TMC3    O2 7014   0.898   1.832  14.063 -0.6069 -0.5403  0.3888
  468MPD2     C 7015   0.082   0.265  10.626 -0.1816  0.0134  0.3882
  468MPD2    C1 7016   4.724   0.174  10.660  0.3496 -0.1410  0.3778
  468MPD2    C2 7017   0.003   0.040  10.636  0.0521  0.4669 -0.7864
  468MPD2    C3 7018   0.124   0.002  10.576 -0.3437 -0.6161  0.1987
  468MPD2    C4 7019   0.218   0.094  10.548  0.3858 -0.4764  0.3129
  468MPD2    C5 7020   0.193   0.224  10.570  0.2422 -0.2867  0.0422
  468MPD2     H 7021   4.665   4.708  10.676  1.1125  0.7420  1.6474
  468MPD2    H1 7022   0.310   0.071  10.496 -0.1565  0.4062 -1.0346
  468MPD2    H2 7023   0.077   0.371  10.647  0.4360  0.1082  0.0552
  468MPD2    H3 7024   0.263   0.298  10.533 -0.1702  0.0648 -0.0459
  468MPD2     N 7025   0.161   4.599  10.557  0.2352 -0.0830 -0.4519
  468MPD2    H5 7026   0.250   4.586  10.509  0.6329 -3.0539  1.1319
  468MPD2    N1 7027   4.604   0.211  10.729 -0.0882  0.1955  0.0080
  468MPD2    H7 7028   4.546   0.131  10.750 -0.1382 -0.2973 -1.9939
  469TMC3    C1 7029   4.496   0.324  10.894 -0.3639  0.1296  0.5264
  469TMC3    C2 7030   4.517   0.226  10.988 -0.2927  0.1114 -0.0532
  469TMC3    C3 7031   4.513   0.263  11.118 -1.1761  0.4919  0.4533
  469TMC3    C4 7032   4.470   0.458  10.944  0.1795 -0.4825 -0.3510
  469TMC3    C5 7033   4.447   0.477  11.074 -0.3974  0.0339  0.6938
  469TMC3    C6 7034   4.469   0.382  11.166 -0.2943  0.8624 -0.1418
  469TMC3     C 7035   4.580   0.337  10.782  0.1714  0.0848  0.3696
  469TMC3     O 7036   4.637   0.442  10.776 -0.0199 -0.0416 -0.6039
  469TMC3     H 7037   4.562   0.129  10.968 -2.0989 -0.8414  0.4909
  469TMC3    H1 7038   4.438   0.531  10.870  0.8453 -1.5537 -1.6949
  469TMC3    H2 7039   4.452   0.398  11.272  1.5942 -0.0571  0.3035
  469TMC3    C7 7040   4.402   0.608  11.106 -0.5493  0.3557  0.2690
  469TMC3    C8 7041   4.562   0.172  11.225 -0.8908  0.2829  0.4730
  469TMC3    O1 7042   4.328   0.668  11.029  0.1057 -0.1804  0.5845
  469TMC3    O2 7043   4.542   0.052  11.207  0.1741 -0.5220 -0.0264
  470TMC3    C1 7044   1.829   0.844   0.712 -0.2527 -0.3961  0.4331
  470TMC3    C2 7045   1.823   0.973   0.756 -0.0154  0.0559  0.7305
  470TMC3    C3 7046   1.880   1.005   0.878  0.0604 -0.2886  0.1740
  470TMC3    C4 7047   1.892   0.740   0.783  0.9943  0.4541 -0.8556
  470TMC3    C5 7048   1.956   0.781   0.904  0.8604 -0.7981 -0.0200
  470TMC3    C6 7049   1.952   0.915   0.946  0.0459 -0.0130  0.1993
  470TMC3     C 7050   1.764   0.820   0.583  0.1831 -0.1078 -0.5973
  470TMC3     O 7051   1.738   0.919   0.518  0.8349 -0.0015 -0.2429
  470TMC3     H 7052   1.791   1.054   0.690 -1.4506 -0.7760  0.4044
  470TMC3    H1 7053   1.902   0.639   0.745 -1.9896 -0.1127 -0.1356
  470TMC3    H2 7054   2.010   0.937   1.035  0.1346  2.5056 -0.4772
  470TMC3    C7 7055   2.015   0.679   0.978  0.5790  0.4097  0.4938
  470TMC3    C8 7056   1.871   1.134   0.932 -0.4915  0.3201 -0.2648
  470TMC3    O1 7057   2.043   0.572   0.920 -0.3239 -0.0665 -1.1647
  470TMC3    O2 7058   1.942   1.156   1.030 -0.7438  0.1296 -0.5826
  471MPD2     C 7059   2.385   1.812  16.970 -0.7081 -0.2959 -0.5585
  471MPD2    C1 7060   2.397   1.675  16.956  0.1741  0.5949 -0.4047
  471MPD2    C2 7061   2.480   1.603  17.037  0.9678 -0.0420  0.5830
  471MPD2    C3 7062   2.557   1.664  17.136 -1.0419 -0.3731 -0.5627
  471MPD2    C4 7063   2.542   1.805  17.149 -0.0900  0.3506  0.8284
  471MPD2    C5 7064   2.458   1.878  17.068  0.0497  0.0531  0.0810
  471MPD2     H 7065   2.502   1.501  17.008 -3.4175 -0.7423 -0.2498
  471MPD2    H1 7066   2.602   1.867  17.215 -2.0523 -0.0995  3.0673
  471MPD2    H2 7067   2.317   1.869  16.908 -0.2139 -1.1226 -1.8701
  471MPD2    H3 7068   2.455   1.985  17.083  0.2167  0.1509 -0.5832
  471MPD2     N 7069   2.654   1.604  17.219 -0.6863  0.0359 -0.6233
  471MPD2    H5 7070   2.682   1.655  17.302  1.0091 -3.0325  0.6776
  471MPD2    N1 7071   2.354   1.604  16.844 -0.1521  0.1984 -0.4671
  471MPD2    H7 7072   2.373   1.504  16.841  0.0975  0.2343 -0.0199
  472TMC3    C1 7073   2.228   1.532  16.650 -0.0926 -0.5377 -0.1374
  472TMC3    C2 7074   2.117   1.557  16.578 -0.0033  0.0479 -0.8940
  472TMC3    C3 7075   2.068   1.454  16.499 -0.1021 -0.0357 -0.0713
  472TMC3    C4 7076   2.302   1.417  16.630  0.0311  0.4404 -0.2514
  472TMC3    C5 7077   2.261   1.329  16.541 -0.1778 -0.2277 -0.4359
  472TMC3    C6 7078   2.143   1.344  16.484 -0.6626  0.0594  0.5800
  472TMC3     C 7079   2.276   1.639  16.742  0.6666 -0.4653 -0.5194
  472TMC3     O 7080   2.233   1.751  16.728  0.1711  0.1052  0.7908
  472TMC3     H 7081   2.052   1.643  16.589 -2.7703 -2.1511  0.0050
  472TMC3    H1 7082   2.396   1.392  16.678  0.8158  0.6170 -1.6974
  472TMC3    H2 7083   2.105   1.269  16.416 -0.1723  1.1672 -0.9250
  472TMC3    C7 7084   2.299   1.188  16.559  0.0317 -0.2189  0.4166
  472TMC3    C8 7085   1.926   1.443  16.506  0.1010 -0.1337  0.7722
  472TMC3    O1 7086   2.347   1.159  16.664  0.4385 -0.0370 -0.5326
  472TMC3    O2 7087   1.861   1.543  16.484  0.2137 -0.2584 -0.5141
  473MPD2     C 7088   2.387   3.534  13.653 -0.5071 -0.0878 -0.4682
  473MPD2    C1 7089   2.385   3.646  13.573 -0.1310 -0.3646 -0.1862
  473MPD2    C2 7090   2.436   3.764  13.620  0.0671  0.2829  0.7892
  473MPD2    C3 7091   2.479   3.776  13.747  0.3289 -0.1639  0.2334
  473MPD2    C4 7092   2.468   3.673  13.832  1.1883  0.0352  0.3683
  473MPD2    C5 7093   2.428   3.549  13.778  0.1347  0.4010 -0.0852
  473MPD2     H 7094   2.427   3.851  13.557  0.3285 -0.2150  0.0629
  473MPD2    H1 7095   2.491   3.682  13.937  1.2490  0.3872  0.3245
  473MPD2    H2 7096   2.373   3.434  13.616 -1.6867  0.4584 -1.4911
  473MPD2    H3 7097   2.421   3.459  13.837 -1.5410 -1.1995 -2.7406
  473MPD2     N 7098   2.521   3.903  13.805 -0.4709 -0.0092 -0.0562
  473MPD2    H5 7099   2.538   3.907  13.905 -0.6635 -3.1876  0.0900
  473MPD2    N1 7100   2.327   3.650  13.447 -0.0486 -0.1863 -0.7760
  473MPD2    H7 7101   2.338   3.742  13.405 -0.6954  0.3570  0.2349
  474TMC3    C1 7102   2.598   4.127  13.813  0.0231 -0.7719  0.2288
  474TMC3    C2 7103   2.558   4.249  13.759  0.6408 -0.5523  0.2804
  474TMC3    C3 7104   2.570   4.352  13.845 -0.2226 -0.0336  0.4186
  474TMC3    C4 7105   2.654   4.107  13.939 -0.2423  0.2231 -0.2584
  474TMC3    C5 7106   2.653   4.215  14.019  0.1786  0.4806 -0.3556
  474TMC3    C6 7107   2.611   4.336  13.973  0.3682 -0.1360  0.2723
  474TMC3     C 7108   2.545   4.020  13.737 -0.0105  0.4249 -0.1473
  474TMC3     O 7109   2.536   4.045  13.618  0.0496  0.3460 -0.4048
  474TMC3     H 7110   2.523   4.262  13.657  1.1502 -0.6747  0.0914
  474TMC3    H1 7111   2.688   4.009  13.968  1.7502  1.3208  1.1476
  474TMC3    H2 7112   2.612   4.420  14.042  0.2549  0.5607 -0.5719
  474TMC3    C7 7113   2.710   4.205  14.154 -0.0161 -0.1472  0.1239
  474TMC3    C8 7114   2.491   4.470  13.811 -0.1613  0.3081 -0.3915
  474TMC3    O1 7115   2.731   4.311  14.216  0.1895 -0.1941  0.6627
  474TMC3    O2 7116   2.425   4.456  13.704 -0.0607  0.1580  0.0447
  475MPD2     C 7117   0.638   2.316  10.810 -0.4484  0.4518 -0.1119
  475MPD2    C1 7118   0.629   2.425  10.890 -0.6408  0.3970  0.2300
  475MPD2    C2 7119   0.524   2.509  10.868 -0.4060 -0.8675 -0.3982
  475MPD2    C3 7120   0.431   2.483  10.768  0.1692 -0.1643  0.3618
  475MPD2    C4 7121   0.442   2.372  10.684 -0.2308  0.2134  0.3267
  475MPD2    C5 7122   0.548   2.289  10.707  0.5247  0.0876 -0.1755
  475MPD2     H 7123   0.525   2.599  10.929  3.0067  0.3156 -2.2260
  475MPD2    H1 7124   0.374   2.349  10.603  0.8178  0.0549 -0.5084
  475MPD2    H2 7125   0.713   2.240  10.826 -0.6135  0.5535  1.1388
  475MPD2    H3 7126   0.561   2.200  10.647 -1.6353  0.9681 -1.9535
  475MPD2     N 7127   0.339   2.581  10.736 -0.4120  0.0473 -0.3264
  475MPD2    H5 7128   0.328   2.665  10.792  0.7813  0.1566 -0.2513
  475MPD2    N1 7129   0.748   2.465  10.963 -0.4334 -0.3326  0.6758
  475MPD2    H7 7130   0.825   2.400  10.956  0.3118  0.4228  1.8973
  476TMC3    C1 7131   0.885   2.622  11.093  0.3722 -0.9461 -0.1695
  476TMC3    C2 7132   0.979   2.646  11.000 -0.2078 -0.4100  0.0494
  476TMC3    C3 7133   1.084   2.732  11.034 -0.2792 -0.1906  0.3547
  476TMC3    C4 7134   0.893   2.681  11.217  0.1421  0.2971 -0.0231
  476TMC3    C5 7135   0.998   2.758  11.246 -1.0958 -0.3973 -0.3809
  476TMC3    C6 7136   1.097   2.783  11.159  0.2098 -0.3232 -0.0218
  476TMC3     C 7137   0.758   2.569  11.056  0.1408 -0.5082 -0.5391
  476TMC3     O 7138   0.667   2.642  11.093  0.0930 -0.0923  0.4097
  476TMC3     H 7139   0.958   2.605  10.902  1.9043  0.3671 -0.7157
  476TMC3    H1 7140   0.824   2.647  11.293  0.6208 -1.0790 -0.2152
  476TMC3    H2 7141   1.173   2.851  11.196  1.7375 -2.3371  0.5671
  476TMC3    C7 7142   0.999   2.824  11.377  0.1093 -0.4295 -0.2942
  476TMC3    C8 7143   1.153   2.807  10.923 -0.4225 -0.8403 -0.0116
  476TMC3    O1 7144   0.958   2.747  11.462  0.5918  0.6218  0.4588
  476TMC3    O2 7145   1.197   2.917  10.947  0.6634 -0.4673 -0.0902
  477MPD2     C 7146   3.842   4.496  12.041 -0.5329  0.4116 -0.2365
  477MPD2    C1 7147   3.717   4.439  12.045 -0.5782  0.6868 -0.2138
  477MPD2    C2 7148   3.705   4.304  12.080  0.2805 -0.2099 -0.2567
  477MPD2    C3 7149   3.812   4.242  12.128 -0.3318 -0.2694  0.7663
  477MPD2    C4 7150   3.940   4.298  12.130 -0.0238  0.8372 -0.4675
  477MPD2    C5 7151   3.949   4.425  12.084 -0.3137  0.5852  0.1094
  477MPD2     H 7152   3.615   4.246  12.065 -0.8921  1.2775  1.0320
  477MPD2    H1 7153   4.030   4.250  12.166 -0.3318 -0.0848 -0.9298
  477MPD2    H2 7154   3.858   4.595  12.000 -0.8071  1.5228  2.3729
  477MPD2    H3 7155   4.052   4.459  12.076  0.1260 -0.9385 -0.8082
  477MPD2     N 7156   3.799   4.105  12.159  0.0806  0.7395  0.0019
  477MPD2    H5 7157   3.705   4.069  12.146  0.1427  1.2517 -1.8378
  477MPD2    N1 7158   3.608   4.510  11.984 -0.5267  0.1404  0.5336
  477MPD2    H7 7159   3.638   4.598  11.943 -2.8716  0.3320 -0.7279
  478TMC3    C1 7160   3.402   4.530  11.864  0.0101 -0.0882  0.0817
  478TMC3    C2 7161   3.401   4.670  11.859 -0.8148 -0.2504  0.2912
  478TMC3    C3 7162   3.311   4.735  11.771  1.1156 -0.4642  0.3683
  478TMC3    C4 7163   3.310   4.457  11.790 -1.0263  0.0220  0.6982
  478TMC3    C5 7164   3.238   4.519  11.693  0.4836 -0.3833 -0.2022
  478TMC3    C6 7165   3.229   4.659  11.694 -0.5914 -0.5053  0.0969
  478TMC3     C 7166   3.481   4.460  11.964  0.3478  0.0700  0.7318
  478TMC3     O 7167   3.428   4.354  11.989 -0.4389  0.2125  0.0059
  478TMC3     H 7168   3.457   4.736  11.924  0.4495  1.0749 -2.1421
  478TMC3    H1 7169   3.320   4.349  11.790 -0.4750  0.0719  0.0446
  478TMC3    H2 7170   3.154   4.706  11.631  0.2176  0.6008 -0.0425
  478TMC3    C7 7171   3.193   4.448  11.587 -0.5330  0.4524  0.0719
  478TMC3    C8 7172   3.299   0.142  11.771  0.0895  0.0301 -0.1444
  478TMC3    O1 7173   3.167   4.330  11.611  0.3546 -0.1418 -0.0962
  478TMC3    O2 7174   3.392   0.201  11.826 -0.0606  0.2585  0.2214
  479MPD2     C 7175   2.018   1.010  15.589  0.0537 -0.4434 -0.3565
  479MPD2    C1 7176   1.976   0.928  15.695 -0.8764 -0.0401 -0.4656
  479MPD2    C2 7177   2.003   0.965  15.824  0.1717  0.1793  0.2339
  479MPD2    C3 7178   2.067   1.083  15.855 -0.1112 -0.1896  0.5553
  479MPD2    C4 7179   2.091   1.174  15.756  0.2774 -0.5066  0.1186
  479MPD2    C5 7180   2.076   1.130  15.624 -0.8273  0.0807 -0.4892
  479MPD2     H 7181   1.956   0.910  15.905 -0.0693  0.0338 -0.0036
  479MPD2    H1 7182   2.135   1.267  15.789 -0.5871 -0.5931  1.5166
  479MPD2    H2 7183   2.008   0.970  15.489  1.4846  0.0678 -0.7046
  479MPD2    H3 7184   2.116   1.202  15.552  0.5685  0.8266  1.0322
  479MPD2     N 7185   2.070   1.128  15.986 -0.2965  0.0216  0.2222
  479MPD2    H5 7186   2.063   1.227  16.005  0.7006 -0.2094  1.8069
  479MPD2    N1 7187   1.881   0.821  15.666 -0.3935 -0.3728 -0.2160
  479MPD2    H7 7188   1.858   0.810  15.568  2.6330  0.2973 -1.0012
  480TMC3    C1 7189   1.805   1.006  16.329 -0.2466  0.0193  0.7797
  480TMC3    C2 7190   1.700   1.058  16.253 -0.4418  0.3734  0.1899
  480TMC3    C3 7191   1.738   1.143  16.152 -0.2790  0.5850  0.1177
  480TMC3    C4 7192   1.937   1.032  16.289  0.9834 -0.0338 -0.0728
  480TMC3    C5 7193   1.971   1.118  16.192 -0.2461 -0.1215 -0.4389
  480TMC3    C6 7194   1.870   1.186  16.122  0.4182  0.4053 -0.6474
  480TMC3     C 7195   1.776   0.873  16.386  0.1323  0.0133  1.0009
  480TMC3     O 7196   1.879   0.808  16.412 -0.4152  0.3198  0.2564
  480TMC3     H 7197   1.596   1.032  16.260 -0.1150 -0.8911  0.3536
  480TMC3    H1 7198   2.023   0.989  16.338  1.0510 -0.6729 -0.7681
  480TMC3    H2 7199   1.892   1.262  16.048 -0.3995  1.2829  0.0220
  480TMC3    C7 7200   2.056   1.045  16.101 -0.2256  0.5945 -0.3768
  480TMC3    C8 7201   1.665   1.098  16.035 -0.7118 -0.2014 -0.0318
  480TMC3    O1 7202   2.058   0.925  16.106  0.2385  0.3020  0.4155
  480TMC3    O2 7203   1.589   1.004  16.044  0.3702 -0.1931 -0.0403
  481MPD2     C 7204   3.903   0.953  14.578 -0.0622  0.5090 -0.2324
  481MPD2    C1 7205   3.797   0.873  14.562  0.1520 -0.2816 -0.0104
  481MPD2    C2 7206   3.769   0.780  14.660 -0.6357 -0.7390 -0.3768
  481MPD2    C3 7207   3.853   0.763  14.773  0.1489 -1.0256 -0.4707
  481MPD2    C4 7208   3.964   0.847  14.772 -0.2266 -0.3296  0.2823
  481MPD2    C5 7209   3.986   0.945  14.684  0.4319  0.4127  0.1052
  481MPD2     H 7210   3.679   0.719  14.655 -1.0782 -0.4242  3.1832
  481MPD2    H1 7211   4.037   0.834  14.850 -0.0719  1.6041  0.4457
  481MPD2    H2 7212   3.910   1.022  14.495  2.2333  0.2863 -0.2215
  481MPD2    H3 7213   4.080   0.998  14.687  0.3748  0.4450  1.4494
  481MPD2     N 7214   3.843   0.672  14.878  0.5527  0.3429 -0.3115
  481MPD2    H5 7215   3.929   0.659  14.930 -0.7119  0.3862  1.7683
  481MPD2    N1 7216   3.718   0.906  14.445  0.7211  0.3209 -0.4950
  481MPD2    H7 7217   3.766   0.966  14.378  0.8928  0.4295 -0.2745
  482TMC3    C1 7218   3.557   0.887  14.282  0.1982 -0.3089  0.5260
  482TMC3    C2 7219   3.444   0.818  14.250 -0.5891 -0.0856 -0.2875
  482TMC3    C3 7220   3.433   0.769  14.123 -0.4330  0.3865 -0.1497
  482TMC3    C4 7221   3.653   0.911  14.185  0.9548  0.2305  0.4250
  482TMC3    C5 7222   3.640   0.855  14.065  0.2879  0.6107  0.3669
  482TMC3    C6 7223   3.532   0.780  14.027 -0.6673  0.5845 -0.4301
  482TMC3     C 7224   3.594   0.860  14.418  0.3969  0.4795  0.0467
  482TMC3     O 7225   3.531   0.785  14.492  0.3597  0.1057  0.0313
  482TMC3     H 7226   3.365   0.790  14.319  0.3241 -1.5839  0.1484
  482TMC3    H1 7227   3.745   0.965  14.206  1.6844 -0.6669 -0.4476
  482TMC3    H2 7228   3.529   0.720  13.937  2.5123 -0.7053  0.3285
  482TMC3    C7 7229   3.749   0.861  13.975  0.4435  0.2410 -0.4430
  482TMC3    C8 7230   3.333   0.672  14.096  0.0239  0.5360 -0.8853
  482TMC3    O1 7231   3.869   0.873  14.005 -0.7869  0.7642 -0.4906
  482TMC3    O2 7232   3.367   0.562  14.047 -0.1710 -0.2007  0.0309
  483TMC3    C1 7233   1.469   3.561   0.636  0.2125  0.0424 -0.0102
  483TMC3    C2 7234   1.502   3.684   0.682 -0.2322  0.3096 -0.3146
  483TMC3    C3 7235   1.634   3.715   0.677 -0.0001  0.5165  0.2015
  483TMC3    C4 7236   1.562   3.475   0.582  0.1445  0.0766  0.3772
  483TMC3    C5 7237   1.694   3.511   0.592  0.5945 -0.1161 -0.7632
  483TMC3    C6 7238   1.734   3.631   0.653 -0.4898 -0.5781 -0.0081
  483TMC3     C 7239   1.330   3.540   0.602 -0.6671  0.1125 -0.5906
  483TMC3     O 7240   1.261   3.638   0.614 -0.0185 -0.0703  0.5526
  483TMC3     H 7241   1.425   3.753   0.716  1.2751  2.1508 -0.6008
  483TMC3    H1 7242   1.526   3.386   0.532 -0.2963  1.5317 -1.9007
  483TMC3    H2 7243   1.840   3.647   0.667 -0.5964  0.7084 -0.6768
  483TMC3    C7 7244   1.800   3.419   0.548 -0.2919  0.3934 -0.4924
  483TMC3    C8 7245   1.662   3.856   0.705  0.4694  0.0051 -0.1941
  483TMC3    O1 7246   1.903   3.427   0.608  0.4306 -0.4290 -0.4684
  483TMC3    O2 7247   1.562   3.927   0.686 -0.2539 -0.1076 -0.2257
  484MPD2     C 7248   3.796   2.881  12.775 -0.7520  0.5511  0.3865
  484MPD2    C1 7249   3.849   2.766  12.816  0.1236  0.4726  0.4677
  484MPD2    C2 7250   3.983   2.734  12.784 -0.3411  0.5226  0.8538
  484MPD2    C3 7251   4.064   2.824  12.711  0.3479 -0.1945 -0.6189
  484MPD2    C4 7252   4.009   2.945  12.673 -0.0377 -0.2321  0.3515
  484MPD2    C5 7253   3.875   2.968  12.700  0.3468  0.6226  0.4145
  484MPD2     H 7254   4.024   2.637  12.812 -1.1420 -0.2730 -0.6740
  484MPD2    H1 7255   4.063   3.017  12.613  0.8696 -2.2021 -1.1772
  484MPD2    H2 7256   3.692   2.908  12.794 -0.8625  1.0419 -0.9105
  484MPD2    H3 7257   3.832   3.060  12.661 -1.5101 -1.2779 -1.9830
  484MPD2     N 7258   4.202   2.805  12.677  0.7247 -0.1913  0.2258
  484MPD2    H5 7259   4.253   2.884  12.639  1.7965 -0.4258  1.1872
  484MPD2    N1 7260   3.758   2.674  12.874 -0.3481 -0.2382 -0.6709
  484MPD2    H7 7261   3.663   2.711  12.872 -0.5325 -0.5969  1.0345
  485TMC3    C1 7262   4.418   2.712  12.664 -0.2556  0.1181  0.4177
  485TMC3    C2 7263   4.477   2.584  12.683  0.0880  0.1077 -0.1128
  485TMC3    C3 7264   4.570   2.556  12.589 -0.4160 -0.0265 -0.0567
  485TMC3    C4 7265   4.465   2.798  12.569  0.6509 -0.5215 -0.4924
  485TMC3    C5 7266   4.576   2.765  12.489 -0.5170 -0.3751  0.3688
  485TMC3    C6 7267   4.620   2.640  12.495  0.1264  0.4123  0.6795
  485TMC3     C 7268   4.281   2.694  12.698  0.2534 -0.0003  0.8020
  485TMC3     O 7269   4.248   2.586  12.737 -0.0047  0.0294  0.8870
  485TMC3     H 7270   4.452   2.507  12.756 -1.4280 -0.4686 -1.2366
  485TMC3    H1 7271   4.409   2.889  12.553  0.7181 -0.6942 -1.6776
  485TMC3    H2 7272   4.674   2.607  12.406 -0.8864 -1.7804  0.8734
  485TMC3    C7 7273   4.617   2.864  12.385 -0.2927  0.6087  0.0402
  485TMC3    C8 7274   4.619   2.420  12.585 -0.1853  0.6895 -0.3291
  485TMC3    O1 7275   4.541   2.953  12.350  0.5573  0.0356  0.7137
  485TMC3    O2 7276   4.556   2.326  12.639 -0.1110  0.2533  0.3464
  486MPD2     C 7277   1.300   1.141  13.870  0.8862  0.3012  0.1582
  486MPD2    C1 7278   1.426   1.147  13.823  0.1239 -0.0832 -0.3523
  486MPD2    C2 7279   1.499   1.264  13.825 -0.4701 -0.4835  0.2078
  486MPD2    C3 7280   1.438   1.383  13.866  0.2510  0.0623 -0.0697
  486MPD2    C4 7281   1.302   1.381  13.894  0.0641  0.1600  0.3133
  486MPD2    C5 7282   1.235   1.256  13.904  0.7119 -1.0172  0.6110
  486MPD2     H 7283   1.601   1.269  13.788 -0.6873 -1.7737 -0.5617
  486MPD2    H1 7284   1.254   1.474  13.924  0.1484 -0.0401  1.0775
  486MPD2    H2 7285   1.240   1.051  13.874  0.4147  0.5869 -0.5634
  486MPD2    H3 7286   1.133   1.242  13.939  0.4895 -0.1600  0.2998
  486MPD2     N 7287   1.511   1.503  13.844 -0.2209 -0.7502  0.6385
  486MPD2    H5 7288   1.610   1.488  13.829  0.0337  0.5104  1.0394
  486MPD2    N1 7289   1.482   1.026  13.780 -0.3561 -0.1192  0.9478
  486MPD2    H7 7290   1.423   0.945  13.800  0.2181 -0.2562  2.1019
  487TMC3    C1 7291   1.595   0.873  13.646 -0.1167 -0.3544 -0.3457
  487TMC3    C2 7292   1.610   0.841  13.513  0.1125  0.6651 -0.7200
  487TMC3    C3 7293   1.577   0.710  13.478  0.4404  0.1388  0.6061
  487TMC3    C4 7294   1.558   0.778  13.741  0.8091 -0.1724 -0.0776
  487TMC3    C5 7295   1.545   0.649  13.698 -0.3312  0.0781  0.3104
  487TMC3    C6 7296   1.560   0.609  13.568 -0.2110 -0.5486 -0.2317
  487TMC3     C 7297   1.584   1.012  13.692 -0.5745  0.1522 -0.7162
  487TMC3     O 7298   1.637   1.097  13.622  0.6512 -0.6432 -0.4986
  487TMC3     H 7299   1.622   0.926  13.446  1.0243  1.3620  0.3409
  487TMC3    H1 7300   1.571   0.801  13.846  0.5811 -2.4542  0.4556
  487TMC3    H2 7301   1.519   0.513  13.537 -0.4866 -1.5697  3.3121
  487TMC3    C7 7302   1.472   0.571  13.798  0.6325  0.4304  1.1302
  487TMC3    C8 7303   1.506   0.700  13.351 -0.6772  0.1000  0.0339
  487TMC3    O1 7304   1.421   0.634  13.888  0.5069  0.1992  0.7973
  487TMC3    O2 7305   1.428   0.789  13.312  0.6831  0.3528  0.3444
  488MPD2     C 7306   1.678   2.907  16.299 -0.6602  0.1195  0.0365
  488MPD2    C1 7307   1.728   3.024  16.348  0.2169  0.0892  0.3152
  488MPD2    C2 7308   1.681   3.077  16.469  0.4350  0.6154 -0.5917
  488MPD2    C3 7309   1.586   3.017  16.542 -0.0319 -0.2498  0.0353
  488MPD2    C4 7310   1.544   2.895  16.494  0.0924  0.4139 -0.3104
  488MPD2    C5 7311   1.589   2.839  16.375 -0.3693 -0.3047 -0.1167
  488MPD2     H 7312   1.718   3.173  16.502  1.1818  0.3143 -0.5593
  488MPD2    H1 7313   1.456   2.854  16.541  1.7178 -1.5996  1.0144
  488MPD2    H2 7314   1.696   2.867  16.200  0.7183  1.1272 -0.1196
  488MPD2    H3 7315   1.544   2.749  16.337  0.5958  1.1148 -4.5349
  488MPD2     N 7316   1.523   3.087  16.653  0.3436 -0.1703 -0.1259
  488MPD2    H5 7317   1.568   3.174  16.680  1.0841 -0.2131 -1.1949
  488MPD2    N1 7318   1.818   3.102  16.287 -0.1593  0.1846  0.5205
  488MPD2    H7 7319   1.849   3.183  16.339  3.1749  0.0872 -1.3551
  489TMC3    C1 7320   1.383   3.134  16.840  0.2987 -0.6031  0.2905
  489TMC3    C2 7321   1.470   3.235  16.876  0.0236  0.3537  0.3559
  489TMC3    C3 7322   1.435   3.339  16.956  0.0623 -0.1235  0.4916
  489TMC3    C4 7323   1.256   3.132  16.901  0.2900  0.3876 -0.1670
  489TMC3    C5 7324   1.220   3.245  16.973 -0.2674 -0.0893  0.2855
  489TMC3    C6 7325   1.312   3.341  17.013 -0.2975 -0.1701 -0.6779
  489TMC3     C 7326   1.410   3.049  16.730 -0.6805 -0.6655  0.1291
  489TMC3     O 7327   1.344   2.946  16.731 -0.1986  0.2570  0.9637
  489TMC3     H 7328   1.573   3.234  16.842 -0.1727  2.5879 -0.3216
  489TMC3    H1 7329   1.186   3.053  16.878  1.4040 -0.8530  0.6565
  489TMC3    H2 7330   1.283   3.430  17.067  0.8016 -0.4317  0.3576
  489TMC3    C7 7331   1.081   3.277  16.998 -0.2956  0.6407  0.2462
  489TMC3    C8 7332   1.518   3.460  16.936 -0.4744  0.0458  0.4863
  489TMC3    O1 7333   1.056   3.349  17.095 -0.0542  0.3332  0.5230
  489TMC3    O2 7334   1.624   3.460  16.874 -0.0244  0.4222 -0.2022
  490MPD2     C 7335   2.360   2.301  17.353  0.1265 -0.2380  0.2977
  490MPD2    C1 7336   2.390   2.221  17.462  0.2291  0.3662 -0.4375
  490MPD2    C2 7337   2.455   2.278  17.571 -0.4826 -0.3258 -0.5630
  490MPD2    C3 7338   2.475   2.419  17.580  0.4941  1.4553  0.0096
  490MPD2    C4 7339   2.456   2.493  17.466  0.8755  0.7733  0.6459
  490MPD2    C5 7340   2.397   2.437  17.356  0.2361 -0.1635 -0.2462
  490MPD2     H 7341   2.479   2.213  17.655 -1.8448  1.1004  0.9087
  490MPD2    H1 7342   2.461   2.600  17.479  1.1359  0.7517  0.7114
  490MPD2    H2 7343   2.327   2.256  17.260 -0.1446  2.5700 -0.9635
  490MPD2    H3 7344   2.367   2.494  17.269  0.2778 -1.7009 -1.2664
  490MPD2     N 7345   2.550   2.481  17.684 -0.5002 -0.0701  0.7864
  490MPD2    H5 7346   2.581   2.576  17.667 -0.7832 -0.0616  0.3192
  490MPD2    N1 7347   2.384   2.080  17.466  0.1556  0.1117  0.5599
  490MPD2    H7 7348   2.442   2.031  17.534 -2.1015 -1.1437  1.5889
  491TMC3    C1 7349   2.312   1.866  17.419  0.6574  0.4376 -0.6659
  491TMC3    C2 7350   2.380   1.823  17.531  0.1142 -0.4642 -0.0733
  491TMC3    C3 7351   2.372   1.691  17.576  0.7332 -0.3182  0.6172
  491TMC3    C4 7352   2.262   1.767  17.336  0.3941  0.1738  0.0969
  491TMC3    C5 7353   2.272   1.634  17.380 -0.3070 -0.4882 -0.1639
  491TMC3    C6 7354   2.328   1.598  17.500 -0.7132 -0.4016 -0.1784
  491TMC3     C 7355   2.299   2.004  17.386  0.2073 -0.2905 -0.4160
  491TMC3     O 7356   2.220   2.032  17.299 -0.4265  0.0054 -0.1361
  491TMC3     H 7357   2.423   1.890  17.606 -0.9893 -0.7429  0.8027
  491TMC3    H1 7358   2.214   1.787  17.241 -1.6971  1.2484  1.3745
  491TMC3    H2 7359   2.316   1.496  17.533  1.3370 -0.8791 -0.9136
  491TMC3    C7 7360   2.224   1.531  17.288  0.3454  0.3265 -0.1930
  491TMC3    C8 7361   2.383   1.669  17.716  0.5452 -0.1158  0.5565
  491TMC3    O1 7362   2.152   1.572  17.199 -0.0730  0.4502 -0.3128
  491TMC3    O2 7363   2.361   1.768   0.039 -0.5500  0.5381  0.0356
  492MPD2     C 7364   3.290   2.594  11.309 -0.0463 -0.3234 -0.2855
  492MPD2    C1 7365   3.166   2.636  11.270 -0.6037 -0.1455  0.0548
  492MPD2    C2 7366   3.048   2.573  11.316  0.1168  0.1698  0.0993
  492MPD2    C3 7367   3.062   2.466  11.405 -0.6893 -0.5449  0.1861
  492MPD2    C4 7368   3.188   2.429  11.453  0.0268 -0.3522 -0.2180
  492MPD2    C5 7369   3.299   2.497  11.405 -0.3855  0.4692 -0.3303
  492MPD2     H 7370   2.952   2.610  11.282  1.0463  0.4023 -2.3193
  492MPD2    H1 7371   3.190   2.352  11.530 -2.7577  1.2233  1.4243
  492MPD2    H2 7372   3.381   2.647  11.284 -0.6233 -0.1681 -2.0487
  492MPD2    H3 7373   3.391   2.475  11.458 -1.7949 -0.2434  1.8337
  492MPD2     N 7374   2.947   2.406  11.466 -0.1506  0.3442 -0.2703
  492MPD2    H5 7375   2.947   2.352  11.553  1.0979  0.2778 -0.3158
  492MPD2    N1 7376   3.145   2.750  11.186  0.3553 -0.2415  0.4689
  492MPD2    H7 7377   3.049   2.778  11.169  1.0638  0.6385 -2.0820
  493TMC3    C1 7378   3.166   2.945  11.062  0.1227  0.3383 -0.8638
  493TMC3    C2 7379   3.220   3.072  11.094  0.3453 -0.2085  0.1235
  493TMC3    C3 7380   3.150   3.184  11.062  0.1270 -0.1599  0.2442
  493TMC3    C4 7381   3.040   2.931  11.006  0.6676  0.5349  0.0263
  493TMC3    C5 7382   2.975   3.048  10.980  0.7502  0.0467  1.1667
  493TMC3    C6 7383   3.026   3.176  11.009 -0.1071 -0.1775  0.1721
  493TMC3     C 7384   3.235   2.836  11.132  0.1372 -0.0178 -0.0562
  493TMC3     O 7385   3.357   2.858  11.164 -0.4006 -0.0782 -0.8850
  493TMC3     H 7386   3.321   3.079  11.133  0.8323 -1.0787 -0.9761
  493TMC3    H1 7387   2.995   2.832  10.997 -2.2517  1.6798  2.0256
  493TMC3    H2 7388   2.967   3.263  10.982  1.2325  0.7446  0.2515
  493TMC3    C7 7389   2.847   3.039  10.914  0.3525  0.4783 -0.4954
  493TMC3    C8 7390   3.215   3.314  11.082  0.0563  0.4488  0.0936
  493TMC3    O1 7391   2.794   2.929  10.913  0.3509 -0.5941 -0.3471
  493TMC3    O2 7392   3.312   3.322  11.157 -0.3486 -0.5434  0.6782
  494TMC3    C1 7393   3.269   4.290   0.340 -0.2761  0.5315 -0.0237
  494TMC3    C2 7394   3.289   4.153   0.323 -0.3469 -0.0357 -0.6111
  494TMC3    C3 7395   3.300   4.100   0.189 -0.8924  0.4053 -0.1307
  494TMC3    C4 7396   3.289   4.376   0.240 -0.3013  0.8436  0.2807
  494TMC3    C5 7397   3.327   4.328   0.119  0.6444 -0.3825  0.2627
  494TMC3    C6 7398   3.330   4.191   0.094  0.1158 -0.2146 -0.0361
  494TMC3     C 7399   3.215   4.345   0.465  0.1197 -0.1435  0.7991
  494TMC3     O 7400   3.142   4.437   0.467 -0.1465  0.0551 -0.0545
  494TMC3     H 7401   3.257   4.086   0.401 -2.2788 -0.5407 -1.8514
  494TMC3    H1 7402   3.263   4.480   0.256 -3.6512 -0.1602  1.5024
  494TMC3    H2 7403   3.355   4.156  17.738  2.6739 -0.4690  0.7039
  494TMC3    C7 7404   3.359   4.417   0.009  0.4279  0.0075  0.1671
  494TMC3    C8 7405   3.303   3.955   0.174 -0.0783 -0.0039 -0.0767
  494TMC3    O1 7406   3.385   4.362  17.649 -0.4625  0.1197  0.0528
  494TMC3    O2 7407   3.320   3.895   0.276  0.7900 -0.0430 -0.3840
  495TMC3    C1 7408   2.019   1.480  15.183  0.0133 -0.5488 -0.5048
  495TMC3    C2 7409   1.918   1.505  15.093 -0.2874 -0.7014  0.5446
  495TMC3    C3 7410   1.795   1.453  15.118  0.2448  0.1089  0.6380
  495TMC3    C4 7411   1.986   1.458  15.313  0.1878  0.6413 -0.2013
  495TMC3    C5 7412   1.857   1.424  15.338  0.3595  0.3042 -0.5125
  495TMC3    C6 7413   1.761   1.413  15.240  0.0323 -0.3450  0.4555
  495TMC3     C 7414   2.110   1.385  15.128 -0.0027 -0.0592 -0.0624
  495TMC3     O 7415   2.122   1.282  15.192  0.2077 -0.4053 -0.0046
  495TMC3     H 7416   1.942   1.542  14.994 -0.4983 -0.7858  0.4601
  495TMC3    H1 7417   2.060   1.429  15.387 -0.0688  0.1992 -0.1215
  495TMC3    H2 7418   1.656   1.392  15.249 -0.2787  0.6891 -0.7861
  495TMC3    C7 7419   1.826   1.360  15.462  0.2108 -0.1030 -0.1158
  495TMC3    C8 7420   1.727   1.378  15.017  0.8080 -0.0068  0.3766
  495TMC3    O1 7421   1.892   1.391  15.562  0.6029 -0.2804 -0.1364
  495TMC3    O2 7422   1.617   1.324  15.042 -0.1930  0.1658 -0.0502
  496MPD2     C 7423   4.572   1.411  15.968  0.8467  0.1783  0.7893
  496MPD2    C1 7424   4.509   1.328  15.878 -0.1446  0.1982 -0.7161
  496MPD2    C2 7425   4.376   1.304  15.891 -0.0667  0.0522  0.7949
  496MPD2    C3 7426   4.306   1.349  16.002  0.5212  0.9186 -0.3389
  496MPD2    C4 7427   4.370   1.435  16.089  0.7023 -0.0605 -0.1112
  496MPD2    C5 7428   4.504   1.465  16.072  0.5864  0.2844  0.3374
  496MPD2     H 7429   4.333   1.226  15.829 -0.8309 -0.5000  2.0243
  496MPD2    H1 7430   4.318   1.488  16.168 -1.9618 -0.0481 -1.8640
  496MPD2    H2 7431   4.681   1.419  15.970  0.7826  1.3713 -0.1989
  496MPD2    H3 7432   4.555   1.529  16.144 -0.0069 -1.1218  2.0051
  496MPD2     N 7433   4.179   1.312  16.049 -0.5022  0.0065  0.0896
  496MPD2    H5 7434   4.145   1.361  16.131  3.4121 -1.0530  2.3392
  496MPD2    N1 7435   4.590   1.274  15.775 -0.4099 -0.3344  0.7776
  496MPD2    H7 7436   4.688   1.298  15.775 -0.6789  0.7769  0.5161
  497TMC3    C1 7437   3.965   1.199  16.043  0.3603 -0.0799 -0.4349
  497TMC3    C2 7438   3.861   1.167  15.958  0.0570 -0.3969  0.2539
  497TMC3    C3 7439   3.736   1.198  16.008 -0.3922 -0.3686  0.2438
  497TMC3    C4 7440   3.945   1.253  16.169 -0.3018 -0.5385  0.7890
  497TMC3    C5 7441   3.823   1.273  16.210  0.4976  0.0252  0.8543
  497TMC3    C6 7442   3.716   1.238  16.135 -0.0701 -0.1131  0.0357
  497TMC3     C 7443   4.096   1.220  15.988 -0.6305  0.5229  0.2414
  497TMC3     O 7444   4.113   1.165  15.877 -0.2672 -0.2258  0.5505
  497TMC3     H 7445   3.878   1.145  15.853 -1.8684  0.2192 -0.1807
  497TMC3    H1 7446   4.022   1.242  16.245 -1.1515 -1.4563  1.5161
  497TMC3    H2 7447   3.613   1.252  16.165 -0.4814 -0.8173 -1.0394
  497TMC3    C7 7448   3.802   1.309  16.352 -0.6626  0.2119  0.1213
  497TMC3    C8 7449   3.634   1.210  15.911 -0.1808  0.1822  0.5430
  497TMC3    O1 7450   3.694   1.274  16.391  0.8130  0.4500 -0.2928
  497TMC3    O2 7451   3.630   1.113  15.834 -0.7087 -0.0548 -0.4628
  498MPD2     C 7452   0.054   2.577  10.145  0.1800  0.3781 -0.0317
  498MPD2    C1 7453   0.110   2.478  10.069  0.2859 -0.0054  0.3326
  498MPD2    C2 7454   0.081   2.352  10.108 -1.3332 -0.1402 -0.1213
  498MPD2    C3 7455   4.735   2.323  10.214  0.3932 -0.2816 -0.1251
  498MPD2    C4 7456   4.676   2.431  10.282 -0.6673 -0.5549 -0.4458
  498MPD2    C5 7457   4.699   2.559  10.241 -0.0285  0.0722 -0.3558
  498MPD2     H 7458   0.135   2.264  10.074 -2.4929 -1.1378  0.6144
  498MPD2    H1 7459   4.610   2.416  10.367  0.5131  0.4125  0.6411
  498MPD2    H2 7460   0.077   2.681  10.128  0.4499  0.2712 -0.3464
  498MPD2    H3 7461   4.649   2.647  10.280  2.5796  0.8566  1.2619
  498MPD2     N 7462   4.716   2.192  10.263 -0.2676 -0.2129 -0.2338
  498MPD2    H5 7463   0.014   2.113  10.209  1.8822  1.6144 -1.5769
  498MPD2    N1 7464   0.186   2.498   9.957 -0.1323 -0.0065 -0.1814
  498MPD2    H7 7465   0.231   2.416   9.917 -0.0743 -0.9081  1.7186
  499TMC3    C1 7466   0.343   2.615   9.824 -0.2824 -0.1390 -0.6061
  499TMC3    C2 7467   0.384   2.494   9.761 -0.6687  0.0334  0.2778
  499TMC3    C3 7468   0.490   2.492   9.677 -0.6482 -0.2987  0.3521
  499TMC3    C4 7469   0.428   2.722   9.825  0.7204 -0.1753 -0.1364
  499TMC3    C5 7470   0.531   2.721   9.737 -0.4827  0.3069  0.2476
  499TMC3    C6 7471   0.565   2.607   9.667  0.3138 -0.1187 -0.3288
  499TMC3     C 7472   0.217   2.624   9.901  0.0717 -0.2124 -0.5848
  499TMC3     O 7473   0.177   2.735   9.926  0.5511  0.0292  0.1775
  499TMC3     H 7474   0.312   2.414   9.750 -1.2614  0.5187  0.6159
  499TMC3    H1 7475   0.399   2.814   9.874  1.1090  1.1609 -2.3900
  499TMC3    H2 7476   0.660   2.597   9.616  1.3955  0.1913  1.6065
  499TMC3    C7 7477   0.635   2.817   9.745 -0.2393 -0.4610  0.0445
  499TMC3    C8 7478   0.546   2.377   9.607 -0.0098 -0.5388  0.3553
  499TMC3    O1 7479   0.704   2.832   9.647  0.5538  0.0535  0.1746
  499TMC3    O2 7480   0.608   2.405   9.504 -0.2852  0.6042  0.0097
  500MPD2     C 7481   2.000   3.782  11.231 -0.0077 -0.8927  0.5730
  500MPD2    C1 7482   2.068   3.808  11.112 -0.4186 -1.3387 -0.3502
  500MPD2    C2 7483   2.007   3.834  10.989  0.0247  0.0711 -0.0396
  500MPD2    C3 7484   1.872   3.834  10.984 -0.5126 -0.0718 -1.0307
  500MPD2    C4 7485   1.796   3.793  11.096 -1.0418 -0.2264 -0.1619
  500MPD2    C5 7486   1.865   3.784  11.219  0.0490 -0.5073 -0.0342
  500MPD2     H 7487   2.066   3.855  10.901 -1.1369 -0.2581 -0.8831
  500MPD2    H1 7488   1.688   3.790  11.091 -1.1685 -0.7582  2.6893
  500MPD2    H2 7489   2.046   3.773  11.328 -0.7085 -0.3560  0.9530
  500MPD2    H3 7490   1.805   3.765  11.308 -0.1858 -0.3879 -0.1656
  500MPD2     N 7491   1.790   3.867  10.871 -0.1668  0.2947 -0.9057
  500MPD2    H5 7492   1.690   3.850  10.878 -0.3098  1.9207  0.8674
  500MPD2    N1 7493   2.208   3.816  11.111  0.2522  0.2544  0.4883
  500MPD2    H7 7494   2.255   3.843  11.024 -0.8620  0.3314 -0.0904
  501TMC3    C1 7495   2.426   3.788  11.168  0.0703  0.3825  0.1426
  501TMC3    C2 7496   2.458   3.902  11.100 -0.9031 -0.7201 -0.9563
  501TMC3    C3 7497   2.589   3.943  11.096  1.3680  0.4451 -1.0480
  501TMC3    C4 7498   2.517   3.714  11.229  0.0573  0.5821  0.5385
  501TMC3    C5 7499   2.647   3.767  11.233  0.1860  0.0950  0.3263
  501TMC3    C6 7500   2.688   3.875  11.163  0.3103  0.2205  0.3105
  501TMC3     C 7501   2.288   3.771  11.208  0.4037 -0.3337  0.6385
  501TMC3     O 7502   2.263   3.706  11.308  0.0097 -0.2365  0.2710
  501TMC3     H 7503   2.388   3.960  11.041  0.3053  1.8097  0.0757
  501TMC3    H1 7504   2.492   3.632  11.295  1.0351  0.5821  0.9109
  501TMC3    H2 7505   2.789   3.914  11.165  0.0299  0.9200  0.6602
  501TMC3    C7 7506   2.744   3.692  11.315  0.2420 -0.5089  0.2810
  501TMC3    C8 7507   2.629   4.038  10.999 -0.1566 -0.1515 -0.3696
  501TMC3    O1 7508   2.712   3.586  11.359 -0.2666 -0.2215 -0.0506
  501TMC3    O2 7509   2.724   4.107  11.032 -0.2905 -0.5121  0.4713
  502TMC3    C1 7510   1.581   2.216  15.562  0.1608 -0.5851 -0.6259
  502TMC3    C2 7511   1.626   2.233  15.438 -0.7320 -0.1904  0.6210
  502TMC3    C3 7512   1.525   2.248  15.342 -0.6535 -0.2650 -0.4984
  502TMC3    C4 7513   1.446   2.209  15.588  0.1364 -0.1415  0.1550
  502TMC3    C5 7514   1.348   2.223  15.498  0.1445  0.8461  0.1168
  502TMC3    C6 7515   1.385   2.260  15.372 -0.1212  0.4717  0.0274
  502TMC3     C 7516   1.659   2.131  15.642 -0.2863 -0.0137  0.5820
  502TMC3     O 7517   1.777   2.146  15.650 -0.2400  0.1023  0.1074
  502TMC3     H 7518   1.734   2.232  15.423 -0.7040  0.0654  0.8132
  502TMC3    H1 7519   1.410   2.209  15.690  0.5519 -1.0739  0.3056
  502TMC3    H2 7520   1.312   2.286  15.296  0.5448  3.1913  0.3183
  502TMC3    C7 7521   1.268   2.098  15.498  0.4653  0.5201 -0.0460
  502TMC3    C8 7522   1.579   2.324  15.227 -0.0813  0.1557 -0.2798
  502TMC3    O1 7523   1.312   2.020  15.581 -0.3829 -0.2034  0.2504
  502TMC3    O2 7524   1.504   2.419  15.191  0.6232  0.0777 -0.1595
  503MPD2     C 7525   3.438   2.712  17.150 -0.2379  0.0736 -0.0178
  503MPD2    C1 7526   3.453   2.766  17.275 -0.5088  0.1190 -0.3914
  503MPD2    C2 7527   3.520   2.699  17.375 -0.3765 -0.2917 -0.3588
  503MPD2    C3 7528   3.576   2.576  17.348  0.3139 -0.2628 -0.2079
  503MPD2    C4 7529   3.547   2.512  17.224 -0.5288 -0.1070  0.5161
  503MPD2    C5 7530   3.487   2.588  17.125  0.2726 -0.4545  0.3395
  503MPD2     H 7531   3.535   2.746  17.471  2.0101  0.5888 -1.1494
  503MPD2    H1 7532   3.589   2.417  17.194  2.3070  2.6106 -4.1349
  503MPD2    H2 7533   3.398   2.764  17.064  0.2966 -1.3339 -1.1093
  503MPD2    H3 7534   3.484   2.548  17.024  0.3581 -0.4989  0.3540
  503MPD2     N 7535   3.650   2.517  17.447 -0.0600  0.0516 -0.0607
  503MPD2    H5 7536   3.670   2.570  17.531 -0.4302 -0.6324  0.4602
  503MPD2    N1 7537   3.434   2.908  17.301  0.4986  0.1191 -0.2186
  503MPD2    H7 7538   3.436   2.943  17.396 -1.2045 -0.0411 -0.1263
  504TMC3    C1 7539   3.811   2.383  17.551  0.7604 -0.6192  0.8118
  504TMC3    C2 7540   3.777   2.396  17.683 -0.4847 -0.5278 -0.4888
  504TMC3    C3 7541   3.871   2.350   0.025  0.0381  0.1501  0.2989
  504TMC3    C4 7542   3.916   2.312  17.510 -0.1495  0.2698 -0.1968
  504TMC3    C5 7543   4.010   2.288  17.604  0.3853 -0.4317  0.1658
  504TMC3    C6 7544   3.996   2.302  17.730 -0.6098 -0.4485 -0.5765
  504TMC3     C 7545   3.713   2.395  17.447 -0.2130  0.3399 -0.2015
  504TMC3     O 7546   3.715   2.309  17.362  0.0552 -0.2847  0.3798
  504TMC3     H 7547   3.679   2.425  17.720 -1.0816 -1.0496 -1.6814
  504TMC3    H1 7548   3.934   2.298  17.404  2.3052 -0.7388  0.3560
  504TMC3    H2 7549   4.071   2.274   0.059 -1.3822 -0.9849  0.0234
  504TMC3    C7 7550   4.139   2.277  17.549 -0.1538 -0.0100 -0.5778
  504TMC3    C8 7551   3.812   2.290   0.146 -0.9412 -0.2186  0.3357
  504TMC3    O1 7552   4.168   2.344  17.446  0.1850 -0.5135 -0.6333
  504TMC3    O2 7553   3.690   2.289   0.154 -0.3160 -0.2324  0.2518
  505MPD2     C 7554   4.009   0.665  10.620 -0.0605 -0.9363 -0.5853
  505MPD2    C1 7555   4.096   0.775  10.607  0.0216  0.6607 -0.5627
  505MPD2    C2 7556   4.082   0.884  10.692 -0.2943 -0.6106 -0.0264
  505MPD2    C3 7557   4.002   0.871  10.802  0.3454  0.0611  0.6434
  505MPD2    C4 7558   3.918   0.758  10.814  0.1858  0.1816  0.1272
  505MPD2    C5 7559   3.928   0.653  10.723 -0.5111 -0.8937  0.3163
  505MPD2     H 7560   4.150   0.969  10.683 -0.7671 -0.2387 -0.0891
  505MPD2    H1 7561   3.851   0.740  10.897  0.2630 -1.3175 -0.1296
  505MPD2    H2 7562   4.026   0.575  10.561  1.1774  0.3596 -2.2202
  505MPD2    H3 7563   3.872   0.561  10.733  0.0392 -1.1344  1.1896
  505MPD2     N 7564   3.993   0.966  10.903  0.2057  0.1446 -0.1640
  505MPD2    H5 7565   3.971   0.939  10.998  0.9849 -1.4937 -0.4490
  505MPD2    N1 7566   4.201   0.766  10.507 -0.5131  0.0797  0.2527
  505MPD2    H7 7567   4.218   0.681  10.455 -1.4051 -0.4497  0.8102
  506TMC3    C1 7568   4.401   0.813  10.405  0.2653  0.7927  0.2287
  506TMC3    C2 7569   4.471   0.912  10.335  0.6101 -0.0858 -0.5676
  506TMC3    C3 7570   4.607   0.893  10.309  0.8217 -0.8595 -0.7339
  506TMC3    C4 7571   4.473   0.717  10.464  0.1560  0.1699 -0.2144
  506TMC3    C5 7572   4.609   0.701  10.444 -0.4145 -0.0515  0.2828
  506TMC3    C6 7573   4.676   0.782  10.352  0.3791 -0.5745  0.1464
  506TMC3     C 7574   4.297   0.861  10.490 -0.4419 -0.3630  0.4909
  506TMC3     O 7575   4.321   0.966  10.546  0.0250 -0.2139  0.4608
  506TMC3     H 7576   4.419   0.994  10.287  1.4994  0.6550 -0.2614
  506TMC3    H1 7577   4.418   0.648  10.527 -0.2286  0.9245  0.2682
  506TMC3    H2 7578   0.044   0.767  10.327  0.1681  0.6403 -1.4293
  506TMC3    C7 7579   4.679   0.695  10.572 -0.2930  0.4275 -0.5700
  506TMC3    C8 7580   4.694   0.980  10.236 -0.5255  0.1517  0.7388
  506TMC3    O1 7581   0.043   0.626  10.576 -0.1109  0.4836  0.0140
  506TMC3    O2 7582   0.047   0.927  10.166 -0.2143  0.1166  0.5646
  507TMC3    C1 7583   0.126   2.271  14.976  0.1202 -0.7467 -0.0197
  507TMC3    C2 7584   0.207   2.220  14.883  0.0429  0.3331 -0.5997
  507TMC3    C3 7585   0.300   2.292  14.817 -0.0896  0.0689  0.2282
  507TMC3    C4 7586   0.155   2.393  15.032  0.7779 -0.0514 -0.4333
  507TMC3    C5 7587   0.247   2.473  14.968  0.0439  0.4620  0.3075
  507TMC3    C6 7588   0.321   2.418  14.868  0.5557 -0.1768  0.0789
  507TMC3     C 7589   4.722   2.241  14.953  0.0799 -0.4265 -0.6268
  507TMC3     O 7590   4.648   2.267  15.042 -0.1327  0.4537 -0.5053
  507TMC3     H 7591   0.166   2.127  14.845  0.5027 -0.6326  1.2616
  507TMC3    H1 7592   0.077   2.428  15.098 -0.5068 -3.7391 -0.0142
  507TMC3    H2 7593   0.399   2.477  14.821 -0.6795  1.6717  0.3711
  507TMC3    C7 7594   0.220   2.610  14.931 -0.4204  0.1202  0.2362
  507TMC3    C8 7595   0.249   2.291  14.683 -0.2516  0.2452 -0.1922
  507TMC3    O1 7596   0.252   2.644  14.820  0.5936 -0.1325  0.5210
  507TMC3    O2 7597   0.195   2.186  14.644  0.8257 -0.1139 -0.7488
  508MPD2     C 7598   0.475   4.310  16.440  0.3987 -0.0621 -0.2592
  508MPD2    C1 7599   0.539   4.421  16.489 -0.2071 -0.4437 -0.2645
  508MPD2    C2 7600   0.538   4.537  16.415  0.6327  0.8535  0.3353
  508MPD2    C3 7601   0.476   4.544  16.295 -0.6642  0.4288  0.3257
  508MPD2    C4 7602   0.416   4.430  16.247  0.3542 -0.4619  0.2535
  508MPD2    C5 7603   0.417   4.318  16.317  0.3338  0.0042  0.4304
  508MPD2     H 7604   0.585   4.628  16.448  1.0559  0.6586  0.2744
  508MPD2    H1 7605   0.370   4.422  16.149 -0.9062  1.5965  0.6604
  508MPD2    H2 7606   0.458   4.217  16.493  1.5501 -0.4473 -0.5565
  508MPD2    H3 7607   0.363   4.235  16.272  0.5056  0.5587 -0.8190
  508MPD2     N 7608   0.487   4.662  16.219 -0.3141 -0.0287  0.4336
  508MPD2    H5 7609   0.526   0.006  16.268  1.4456  0.2371 -1.4079
  508MPD2    N1 7610   0.592   4.415  16.625  0.0074 -0.0076  0.2570
  508MPD2    H7 7611   0.632   4.325  16.652  0.1299  0.2109  0.7912
  509TMC3    C1 7612   0.487   0.224  15.860 -0.2300 -0.4705 -0.1436
  509TMC3    C2 7613   0.618   0.262  15.890 -0.0588  0.5961  0.3078
  509TMC3    C3 7614   0.691   0.195  15.986  0.1988 -0.3500  0.8646
  509TMC3    C4 7615   0.426   0.121  15.931  0.6336 -0.0703  0.3785
  509TMC3    C5 7616   0.502   0.062  16.025  0.4575 -0.7066  0.9548
  509TMC3    C6 7617   0.630   0.097  16.053  0.1068 -0.5169  0.6989
  509TMC3     C 7618   0.411   0.278  15.746 -0.7410  0.0467 -1.0136
  509TMC3     O 7619   0.289   0.287  15.752  0.2186 -0.7374 -0.3238
  509TMC3     H 7620   0.663   0.339  15.828 -0.1255 -1.0917 -1.8593
  509TMC3    H1 7621   0.323   0.090  15.920  1.2307 -0.9048 -2.8088
  509TMC3    H2 7622   0.689   0.032  16.116 -1.5556 -2.2891  0.4199
  509TMC3    C7 7623   0.440   4.681  16.091  0.0018  0.0728  0.2640
  509TMC3    C8 7624   0.833   0.219  16.002  0.3858  0.2076  0.6435
  509TMC3    O1 7625   0.377   4.607  16.017  0.2366 -0.4044 -0.8118
  509TMC3    O2 7626   0.904   0.133  16.053  0.6973  0.0999  1.0331
  510MPD2     C 7627   3.005   1.951  15.001 -0.1793 -0.1098 -0.0490
  510MPD2    C1 7628   3.058   1.824  14.964 -0.3670 -0.1461 -0.5644
  510MPD2    C2 7629   3.156   1.830  14.869  0.4170 -0.0512 -0.2640
  510MPD2    C3 7630   3.213   1.942  14.820 -0.0503  0.9194  0.2488
  510MPD2    C4 7631   3.177   2.064  14.872  0.5488 -0.4622 -0.0872
  510MPD2    C5 7632   3.071   2.067  14.962  0.6806  0.3017  0.9167
  510MPD2     H 7633   3.213   1.745  14.832  1.2442  1.2103 -1.8902
  510MPD2    H1 7634   3.233   2.155  14.853 -1.5679  0.2770 -2.6993
  510MPD2    H2 7635   2.928   1.955  15.077  0.0861  0.6872  0.1779
  510MPD2    H3 7636   3.033   2.159  15.004  1.7457  0.7054  1.0077
  510MPD2     N 7637   3.310   1.937  14.720  0.3581  0.4841  0.3041
  510MPD2    H5 7638   3.339   1.841  14.705 -1.9250  0.0531 -1.3341
  510MPD2    N1 7639   2.997   1.713  15.018 -0.2883 -0.3669 -0.1727
  510MPD2    H7 7640   2.925   1.741  15.084 -0.8413 -0.1754 -0.8576
  511TMC3    C1 7641   2.986   1.479  15.073  0.1699 -0.1125 -0.2217
  511TMC3    C2 7642   2.904   1.502  15.182  0.7377  0.1834  0.1484
  511TMC3    C3 7643   2.820   1.403  15.225 -0.0863  1.0391  0.6155
  511TMC3    C4 7644   2.990   1.354  15.012 -0.1724 -0.1632 -0.1953
  511TMC3    C5 7645   2.903   1.263  15.057 -0.3919  0.2507 -0.4008
  511TMC3    C6 7646   2.816   1.280  15.164 -0.5007  0.1681 -0.6578
  511TMC3     C 7647   3.045   1.584  15.000 -0.0689  0.2748 -0.6183
  511TMC3     O 7648   3.134   1.544  14.924  0.0960 -0.4141  0.7504
  511TMC3     H 7649   2.907   1.600  15.229  1.9422  0.1620  0.1115
  511TMC3    H1 7650   3.039   1.349  14.915 -1.1107  2.2787 -0.7995
  511TMC3    H2 7651   2.736   1.210  15.186 -1.1428  0.2122 -2.8692
  511TMC3    C7 7652   2.884   1.136  14.980  1.1723 -0.2769 -0.0561
  511TMC3    C8 7653   2.774   1.418  15.362 -0.1775 -0.0199  1.1139
  511TMC3    O1 7654   2.938   1.146  14.870  0.2088  0.1603  0.4699
  511TMC3    O2 7655   2.801   1.526  15.414  0.7064  0.1625  0.5387
  512TMC3    C1 7656   1.992   1.314  13.933  0.7331  0.1278  0.4362
  512TMC3    C2 7657   2.129   1.305  13.931  0.4588 -0.1271  0.6322
  512TMC3    C3 7658   2.179   1.178  13.914  0.1778  0.6661  0.7874
  512TMC3    C4 7659   1.909   1.202  13.936 -0.1311 -0.0186  0.6669
  512TMC3    C5 7660   1.968   1.078  13.934 -0.1513  0.1980 -0.2349
  512TMC3    C6 7661   2.103   1.070  13.924 -0.3913 -0.1341  0.5288
  512TMC3     C 7662   1.935   1.447  13.899  0.0669  0.1984  0.2195
  512TMC3     O 7663   1.823   1.462  13.861  0.9073 -0.7988  0.1000
  512TMC3     H 7664   2.190   1.391  13.907  0.9306 -0.9074 -0.9172
  512TMC3    H1 7665   1.802   1.207  13.918 -0.0894 -0.6935  0.2376
  512TMC3    H2 7666   2.157   0.976  13.922 -2.2562 -1.2425  1.3441
  512TMC3    C7 7667   1.889   0.961  13.960  0.4326  0.3944 -0.3059
  512TMC3    C8 7668   2.326   1.167  13.913 -0.2135 -0.2114 -0.2567
  512TMC3    O1 7669   1.780   0.981  14.009 -0.0888  0.6810 -0.0486
  512TMC3    O2 7670   2.371   1.056  13.876  0.1401 -0.3255 -0.1211
  513MPD2     C 7671   3.578   1.594  13.207 -0.5152 -0.4600 -0.1808
  513MPD2    C1 7672   3.675   1.505  13.162 -0.4090 -0.4971 -0.2805
  513MPD2    C2 7673   3.761   1.452  13.259 -1.0061 -0.3687 -0.5432
  513MPD2    C3 7674   3.733   1.480  13.392  0.6432  0.7198  0.1572
  513MPD2    C4 7675   3.634   1.560  13.435 -0.1491 -0.6070  0.2190
  513MPD2    C5 7676   3.555   1.618  13.343 -0.4149 -0.1546  0.1245
  513MPD2     H 7677   3.841   1.390  13.218 -0.8221 -1.4178  1.4245
  513MPD2    H1 7678   3.622   1.590  13.538  1.7999 -0.8262  0.4997
  513MPD2    H2 7679   3.520   1.642  13.129 -1.0945  1.5549  1.5105
  513MPD2    H3 7680   3.488   1.692  13.385 -0.3057 -1.1254  2.0350
  513MPD2     N 7681   3.827   1.422  13.478 -0.4145 -0.3354 -0.6132
  513MPD2    H5 7682   3.894   1.357  13.437  0.6475 -0.3119  1.1106
  513MPD2    N1 7683   3.699   1.468  13.030 -0.1088 -0.0646 -0.0585
  513MPD2    H7 7684   3.753   1.383  13.014  1.1242  0.9281 -1.1489
  514TMC3    C1 7685   3.697   1.452  12.810  0.8802 -0.3833  0.1400
  514TMC3    C2 7686   3.770   1.548  12.740  0.3259  0.1832 -0.0753
  514TMC3    C3 7687   3.903   1.534  12.722  0.0827  0.6304  0.2821
  514TMC3    C4 7688   3.765   1.338  12.845 -0.5185 -0.7907 -0.2185
  514TMC3    C5 7689   3.898   1.326  12.829  0.8024 -0.6715  0.2107
  514TMC3    C6 7690   3.975   1.425  12.765  0.3154 -0.2052 -0.1902
  514TMC3     C 7691   3.626   1.509  12.925 -0.9563 -0.7940  0.2864
  514TMC3     O 7692   3.557   1.609  12.910  0.5667  1.0074  0.2204
  514TMC3     H 7693   3.723   1.641  12.711 -1.4368 -0.3317  1.1126
  514TMC3    H1 7694   3.710   1.264  12.903 -0.9331  1.4274  2.1987
  514TMC3    H2 7695   4.074   1.406  12.725 -1.2179  1.2302 -4.6325
  514TMC3    C7 7696   3.959   1.251  12.934 -0.5378 -0.1068 -0.3992
  514TMC3    C8 7697   3.966   1.614  12.620  0.3921  0.0342  0.2822
  514TMC3    O1 7698   3.886   1.224  13.026 -0.5768 -0.0543 -0.5432
  514TMC3    O2 7699   3.893   1.625  12.523  0.0891 -0.4885 -0.3458
  515MPD2     C 7700   2.273   2.183  14.723  0.0335 -0.0509  0.4212
  515MPD2    C1 7701   2.210   2.302  14.697 -0.3804 -0.3359 -0.7435
  515MPD2    C2 7702   2.266   2.418  14.762 -0.1604 -0.0739  0.1421
  515MPD2    C3 7703   2.391   2.409  14.826 -0.1500 -0.3611  0.4853
  515MPD2    C4 7704   2.458   2.293  14.829  0.1901 -0.0732 -0.8242
  515MPD2    C5 7705   2.390   2.178  14.792 -0.0109  0.3363 -0.3123
  515MPD2     H 7706   2.224   2.516  14.742 -1.7275 -0.7372  0.1731
  515MPD2    H1 7707   2.557   2.279  14.869 -0.3194 -1.0248  0.0971
  515MPD2    H2 7708   2.238   2.087  14.686  0.1082  0.2838 -0.5083
  515MPD2    H3 7709   2.439   2.082  14.805  1.7762  1.0377 -1.8752
  515MPD2     N 7710   2.461   2.517  14.878 -0.0316 -0.3919 -0.0518
  515MPD2    H5 7711   2.555   2.499  14.913  0.4928  0.8748 -0.7969
  515MPD2    N1 7712   2.084   2.316  14.627  0.0065 -0.3803  0.1888
  515MPD2    H7 7713   2.046   2.408  14.613  0.4831 -0.4408 -1.4304
  516TMC3    C1 7714   1.860   2.249  14.574 -0.3100  0.2185 -0.3861
  516TMC3    C2 7715   1.829   2.378  14.563  0.0343  0.6562 -0.0521
  516TMC3    C3 7716   1.714   2.421  14.627  0.0448 -0.3552  0.2974
  516TMC3    C4 7717   1.777   2.152  14.630  0.9527 -0.2561 -0.1311
  516TMC3    C5 7718   1.659   2.189  14.691 -0.0709  0.3975 -0.4191
  516TMC3    C6 7719   1.630   2.329  14.688 -0.5248 -0.6316  0.0232
  516TMC3     C 7720   2.004   2.210  14.588  0.3204  0.2076  0.1726
  516TMC3     O 7721   2.026   2.090  14.599 -0.1938  0.8227  0.7016
  516TMC3     H 7722   1.886   2.436  14.491 -1.5771  0.3946 -1.5518
  516TMC3    H1 7723   1.786   2.044  14.625  2.2589 -0.1340 -0.3784
  516TMC3    H2 7724   1.544   2.372  14.739  1.0644  0.6170  1.6309
  516TMC3    C7 7725   1.635   2.122  14.814 -0.2428  0.7101  0.4252
  516TMC3    C8 7726   1.654   2.550  14.598  0.3299  0.4932  0.2791
  516TMC3    O1 7727   1.730   2.047  14.848  0.1990  0.1433  0.1989
  516TMC3    O2 7728   1.539   2.575  14.630 -0.3990  0.8182  0.1845
  517MPD2     C 7729   1.419   4.012   0.066 -0.3665 -0.1168 -0.3343
  517MPD2    C1 7730   1.501   4.070  17.719 -0.1774  0.0584 -0.0395
  517MPD2    C2 7731   1.564   4.185   0.008  0.7974  0.4867  1.0739
  517MPD2    C3 7732   1.540   4.248   0.136  0.6531 -0.1624  0.0210
  517MPD2    C4 7733   1.456   4.188   0.225 -0.1465 -0.1665  0.3066
  517MPD2    C5 7734   1.394   4.077   0.186  0.0067 -0.2049 -0.1968
  517MPD2     H 7735   1.634   4.234  17.683 -0.6241  2.3643  0.9480
  517MPD2    H1 7736   1.436   4.223   0.325 -0.4095 -0.1206  0.2375
  517MPD2    H2 7737   1.360   3.922   0.052 -0.3152 -0.2949  0.6370
  517MPD2    H3 7738   1.326   4.028   0.255  2.1645  0.7464  2.6016
  517MPD2     N 7739   1.616   4.353   0.202  0.3716  0.3555  0.2432
  517MPD2    H5 7740   1.607   4.357   0.303  0.5512 -0.1467  0.2794
  517MPD2    N1 7741   1.532   4.012  17.591 -0.0226 -0.5688  0.0297
  517MPD2    H7 7742   1.589   4.066  17.527  0.1823  0.3300  0.9701
  518TMC3    C1 7743   1.522   3.847  17.424  0.3422 -0.0754  0.3464
  518TMC3    C2 7744   1.540   3.713  17.414  0.0072 -0.0387  0.0182
  518TMC3    C3 7745   1.640   3.660  17.344 -0.4915 -0.1474  0.2210
  518TMC3    C4 7746   1.594   3.938  17.349 -0.4867  0.7110 -0.1826
  518TMC3    C5 7747   1.700   3.881  17.280  0.1973 -0.0966 -0.3198
  518TMC3    C6 7748   1.720   3.742  17.276 -0.4645 -0.4618 -0.2836
  518TMC3     C 7749   1.473   3.894  17.550  0.5348  0.4074 -0.2499
  518TMC3     O 7750   1.418   3.806  17.617 -0.1978  0.2389  0.4005
  518TMC3     H 7751   1.488   3.650  17.485 -0.8793  0.4294 -0.2065
  518TMC3    H1 7752   1.580   4.045  17.340 -0.0567  0.7654 -0.1875
  518TMC3    H2 7753   1.794   3.694  17.212 -1.8281 -0.0196 -2.2050
  518TMC3    C7 7754   1.769   3.966  17.185 -0.4545  0.7716 -0.3165
  518TMC3    C8 7755   1.636   3.519  17.309  0.1512 -0.3297  0.3857
  518TMC3    O1 7756   1.739   4.087  17.200 -0.3811 -0.4930 -0.2066
  518TMC3    O2 7757   1.727   3.474  17.246 -0.3590 -0.5329  0.4230
  519MPD2     C 7758   4.036   2.525  14.658  0.1628 -0.4223 -0.0603
  519MPD2    C1 7759   4.002   2.584  14.538  0.4404  0.1926 -0.5117
  519MPD2    C2 7760   4.100   2.589  14.434 -0.2260 -0.5017  0.5698
  519MPD2    C3 7761   4.222   2.532  14.454 -0.0106  1.2037  0.9009
  519MPD2    C4 7762   4.243   2.455  14.565  0.8380  0.6157  0.1203
  519MPD2    C5 7763   4.159   2.461  14.667  0.3497 -0.2164 -0.1343
  519MPD2     H 7764   4.083   2.651  14.347 -2.2436  0.7553  1.8634
  519MPD2    H1 7765   4.341   2.411  14.577  0.7862  0.5807  0.4085
  519MPD2    H2 7766   3.973   2.509  14.744 -0.1533  1.0039 -0.0213
  519MPD2    H3 7767   4.184   2.400  14.753 -0.1438 -1.4899 -0.8868
  519MPD2     N 7768   4.324   2.533  14.353  0.0966  0.6185  0.3126
  519MPD2    H5 7769   4.405   2.478  14.380  0.0911  0.9620  1.0361
  519MPD2    N1 7770   3.877   2.642  14.524 -0.6956  0.0384  0.1667
  519MPD2    H7 7771   3.808   2.614  14.593 -1.8656  1.6382 -0.3393
  520TMC3    C1 7772   4.422   2.531  14.146 -1.2088  0.3903  0.4112
  520TMC3    C2 7773   4.454   2.601  14.032 -0.1458 -0.5739  0.4759
  520TMC3    C3 7774   4.537   2.540  13.949 -0.0508 -0.3922 -0.1375
  520TMC3    C4 7775   4.460   2.401  14.174  0.0806 -0.4213 -0.5877
  520TMC3    C5 7776   4.533   2.342  14.079 -0.2521 -0.1805 -0.3857
  520TMC3    C6 7777   4.580   2.414  13.968 -0.3030  0.2789 -1.4598
  520TMC3     C 7778   4.322   2.589  14.231 -0.3816 -0.2350  0.5832
  520TMC3     O 7779   4.257   2.683  14.187  0.2616  0.0520 -0.2180
  520TMC3     H 7780   4.428   2.701  14.000  1.8561  0.1647  1.1230
  520TMC3    H1 7781   4.414   2.344  14.254 -0.4693 -3.9337 -3.3949
  520TMC3    H2 7782   4.650   2.377  13.894 -0.9587  1.5629 -2.7050
  520TMC3    C7 7783   4.576   2.204  14.099  0.5571 -0.2301 -0.1840
  520TMC3    C8 7784   4.522   2.577  13.811 -0.7562  0.2598 -0.3060
  520TMC3    O1 7785   4.573   2.153  14.209 -0.0830 -0.9421  0.5874
  520TMC3    O2 7786   4.632   2.596  13.756 -0.6799 -0.9196  0.0648
  521MPD2     C 7787   0.001   0.819   0.070 -0.5161  0.4213  0.3539
  521MPD2    C1 7788   4.727   0.769  17.685 -0.1060  0.2943  0.2508
  521MPD2    C2 7789   0.103   0.779  17.607 -0.2377  0.3016  0.2285
  521MPD2    C3 7790   0.224   0.819  17.650  0.0316  0.2043  0.3580
  521MPD2    C4 7791   0.233   0.865   0.038  0.1883  0.1353 -0.0321
  521MPD2    C5 7792   0.119   0.868   0.118 -0.4975  0.2890 -0.1959
  521MPD2     H 7793   0.093   0.759  17.501  0.3830 -0.2267  0.2737
  521MPD2    H1 7794   0.322   0.907   0.083 -1.0313  0.7284  1.8468
  521MPD2    H2 7795   4.654   0.818   0.140 -0.1219  1.8694  0.8320
  521MPD2    H3 7796   0.126   0.912   0.217 -2.1050 -0.6474  0.3275
  521MPD2     N 7797   0.326   0.806  17.555 -1.5468  0.0251 -0.1079
  521MPD2    H5 7798   0.309   0.751  17.471  0.9956  0.9039 -1.1800
  521MPD2    N1 7799   4.605   0.711  17.642 -0.1006 -0.3108 -0.4291
  521MPD2    H7 7800   4.527   0.709  17.707  0.6460 -0.9158  0.4450
  522TMC3    C1 7801   0.540   0.782  17.471 -0.2597  0.8941  0.0978
  522TMC3    C2 7802   0.653   0.714  17.504  0.4455  0.4566  0.3293
  522TMC3    C3 7803   0.723   0.653  17.398  0.3780  0.1405  0.5646
  522TMC3    C4 7804   0.495   0.802  17.347  0.2395 -0.0112 -0.0409
  522TMC3    C5 7805   0.566   0.738  17.244  0.1899  0.2834 -0.6378
  522TMC3    C6 7806   0.681   0.659  17.268 -0.1300  0.5251 -0.0972
  522TMC3     C 7807   0.461   0.836  17.580  0.4397 -0.0717 -0.1137
  522TMC3     O 7808   0.510   0.909  17.666  0.0985 -0.3038 -0.1786
  522TMC3     H 7809   0.680   0.724  17.609 -1.2671 -1.3863  0.9412
  522TMC3    H1 7810   0.407   0.863  17.329  2.4744  2.2317 -3.3476
  522TMC3    H2 7811   0.730   0.612  17.184  0.4823  0.1959  0.4447
  522TMC3    C7 7812   0.549   0.781  17.103 -0.0115  0.1690  0.4496
  522TMC3    C8 7813   0.820   0.547  17.438 -0.1233 -0.1916 -0.1735
  522TMC3    O1 7814   0.647   0.775  17.031 -0.2182 -0.5384  0.2334
  522TMC3    O2 7815   0.884   0.567  17.541  0.3173  0.0665 -0.1775
  523MPD2     C 7816   2.877   1.244  10.092 -0.1331  0.3234 -0.1804
  523MPD2    C1 7817   2.767   1.170  10.076  0.0547  0.0275  0.2440
  523MPD2    C2 7818   2.677   1.204   9.970  0.3239  0.2161  0.5423
  523MPD2    C3 7819   2.706   1.325   9.894 -0.3070 -0.3823  0.5454
  523MPD2    C4 7820   2.804   1.404   9.923 -0.2821  0.3580 -0.5901
  523MPD2    C5 7821   2.885   1.358  10.023 -0.1631 -0.0737  0.0030
  523MPD2     H 7822   2.584   1.153   9.949 -1.2127  3.7312 -1.2065
  523MPD2    H1 7823   2.844   1.492   9.874  0.1422  1.0585  1.0091
  523MPD2    H2 7824   2.956   1.220  10.163 -0.5091  2.6516  1.0226
  523MPD2    H3 7825   2.972   1.419  10.044 -0.6086  0.6791 -0.3356
  523MPD2     N 7826   2.619   1.367   9.792 -0.1752 -0.4125  0.4814
  523MPD2    H5 7827   2.643   1.451   9.740 -0.5366 -0.8963 -0.4688
  523MPD2    N1 7828   2.757   1.054  10.156  0.3112  0.5379  0.1122
  523MPD2    H7 7829   2.807   1.057  10.245  1.0924 -0.6420 -0.2917
  524TMC3    C1 7830   2.454   1.368   9.631 -0.5054  0.6728  0.4896
  524TMC3    C2 7831   2.385   1.302   9.531  0.2788 -0.0891 -0.0304
  524TMC3    C3 7832   2.312   1.372   9.437  0.2501 -0.0610  1.1506
  524TMC3    C4 7833   2.453   1.505   9.634 -0.2934 -0.2167  0.0375
  524TMC3    C5 7834   2.372   1.574   9.541  0.2673  0.1487  0.2274
  524TMC3    C6 7835   2.307   1.510   9.441  0.1021  0.3826 -0.0251
  524TMC3     C 7836   2.523   1.290   9.733 -0.0090  0.1345  0.5583
  524TMC3     O 7837   2.492   1.172   9.743  0.2439 -0.3484  0.1871
  524TMC3     H 7838   2.360   1.199   9.557  2.9049 -1.1285 -1.6677
  524TMC3    H1 7839   2.481   1.558   9.724 -0.9737  0.1758  0.0200
  524TMC3    H2 7840   2.245   1.567   9.372 -2.3308 -1.5019  0.6184
  524TMC3    C7 7841   2.363   1.719   9.549  0.4812  0.0727  0.0491
  524TMC3    C8 7842   2.267   1.310   9.312  0.3075  0.1379 -0.6915
  524TMC3    O1 7843   2.441   1.760   9.630  0.0107 -0.1624  0.4241
  524TMC3    O2 7844   2.213   1.379   9.225  0.2894  0.4460  0.2514
  525MPD2     C 7845   0.502   2.124  14.481 -0.1936  0.1559  0.5936
  525MPD2    C1 7846   0.601   2.111  14.570  0.2939 -0.2018 -0.4802
  525MPD2    C2 7847   0.660   2.221  14.622 -0.8751  0.0287 -0.2983
  525MPD2    C3 7848   0.605   2.348  14.586 -0.2917 -0.8550  0.0695
  525MPD2    C4 7849   0.503   2.357  14.495  0.2704 -0.3848 -0.1506
  525MPD2    C5 7850   0.453   2.246  14.449  0.4257  0.2305  0.0216
  525MPD2     H 7851   0.738   2.226  14.697 -0.9881 -0.8656 -0.1257
  525MPD2    H1 7852   0.468   2.451  14.454 -0.9018 -0.5468  0.4927
  525MPD2    H2 7853   0.461   2.042  14.424  0.8321  1.7815 -2.4741
  525MPD2    H3 7854   0.375   2.244  14.373  2.2585  1.8500 -1.8851
  525MPD2     N 7855   0.645   2.467  14.643  0.4604 -0.1939  0.2780
  525MPD2    H5 7856   0.593   2.552  14.624  0.4391 -0.3820 -0.4835
  525MPD2    N1 7857   0.644   1.984  14.618 -0.1825 -0.7236  0.1026
  525MPD2    H7 7858   0.728   1.982  14.676 -0.3785 -0.1803  0.4056
  526TMC3    C1 7859   0.626   1.755  14.671 -0.1279 -0.3746 -0.9013
  526TMC3    C2 7860   0.546   1.697  14.770  0.3628 -0.6321 -0.3699
  526TMC3    C3 7861   0.609   1.608  14.849 -0.3214 -0.0783 -0.6242
  526TMC3    C4 7862   0.751   1.712  14.639 -0.4759  1.0983  0.5229
  526TMC3    C5 7863   0.811   1.622  14.728  0.3673 -0.3133  0.5437
  526TMC3    C6 7864   0.736   1.573  14.832  0.3415 -0.7508  0.3605
  526TMC3     C 7865   0.568   1.870  14.604 -0.5654  0.6952 -0.0505
  526TMC3     O 7866   0.464   1.849  14.545  0.0760  0.3225 -0.4593
  526TMC3     H 7867   0.450   1.746  14.789  1.8760  2.4229 -0.5729
  526TMC3    H1 7868   0.805   1.767  14.563  1.9992 -2.8381 -0.5479
  526TMC3    H2 7869   0.780   1.511  14.909 -2.5560 -2.1497  0.8855
  526TMC3    C7 7870   0.955   1.629  14.747  0.8615 -0.6978  0.1419
  526TMC3    C8 7871   0.546   1.597  14.979  0.1968  0.7562  0.1567
  526TMC3    O1 7872   1.007   1.714  14.679 -0.0367  0.5034  0.2134
  526TMC3    O2 7873   0.625   1.616  15.069  0.4982 -0.6139  0.4631
  527MPD2     C 7874   2.478   0.012   1.324  0.2919 -0.0194  1.0140
  527MPD2    C1 7875   2.588   0.048   1.408 -0.2695 -0.0786  0.2400
  527MPD2    C2 7876   2.714   4.732   1.374  0.5936  0.3923  0.2298
  527MPD2    C3 7877   2.736   4.656   1.262  1.3425  0.5820  0.0541
  527MPD2    C4 7878   2.627   4.631   1.180  0.5321 -0.0547 -0.1295
  527MPD2    C5 7879   2.500   4.670   1.213  0.3651  0.1398 -0.1471
  527MPD2     H 7880   2.799   0.007   1.440 -0.1051  1.2537  0.9879
  527MPD2    H1 7881   2.633   4.572   1.089 -1.6090 -1.9740  0.9807
  527MPD2    H2 7882   2.377   0.044   1.347 -0.5715 -2.6874  0.9549
  527MPD2    H3 7883   2.416   4.651   1.147  0.5269 -0.5237 -0.1636
  527MPD2     N 7884   2.863   4.605   1.232 -0.3845  0.2545  0.0148
  527MPD2    H5 7885   2.944   4.652   1.271 -0.5768  0.3120  0.3499
  527MPD2    N1 7886   2.572   0.129   1.516 -0.2875  0.5687 -0.0394
  527MPD2    H7 7887   2.652   0.143   1.577  0.0653 -0.9663 -0.1518
  528TMC3    C1 7888   2.460   0.269   1.670 -0.3406 -0.2065 -0.0052
  528TMC3    C2 7889   2.581   0.340   1.689  0.1581  0.5316 -0.0289
  528TMC3    C3 7890   2.585   0.439   1.788 -0.4348 -0.3090  0.7054
  528TMC3    C4 7891   2.352   0.290   1.743 -0.1607  0.4900  0.8838
  528TMC3    C5 7892   2.361   0.377   1.848  0.0353 -0.0640 -0.0551
  528TMC3    C6 7893   2.471   0.456   1.864  0.5390  0.0405  0.2011
  528TMC3     C 7894   2.453   0.182   1.557  0.1952 -0.3788 -0.0330
  528TMC3     O 7895   2.337   0.166   1.513  0.1468 -0.0335 -0.1187
  528TMC3     H 7896   2.665   0.335   1.621 -1.0084  3.5609 -1.6753
  528TMC3    H1 7897   2.265   0.227   1.731 -0.5563  1.2292 -0.1373
  528TMC3    H2 7898   2.461   0.536   1.936  2.8248  0.6482 -0.1617
  528TMC3    C7 7899   2.239   0.392   1.927  0.0245  0.2703  0.7249
  528TMC3    C8 7900   2.711   0.526   1.793 -0.9221  0.0129  0.5183
  528TMC3    O1 7901   2.131   0.378   1.870  0.1520 -0.2807  0.1015
  528TMC3    O2 7902   2.811   0.485   1.732 -0.0226  0.5701  0.4699
  529MPD2     C 7903   0.224   2.763   1.309  0.1892 -0.2992 -0.1201
  529MPD2    C1 7904   0.316   2.748   1.206  0.0073 -0.6839  0.6237
  529MPD2    C2 7905   0.275   2.780   1.076  0.2314  0.1072 -0.0983
  529MPD2    C3 7906   0.155   2.833   1.053 -0.0483 -0.4098 -0.1859
  529MPD2    C4 7907   0.070   2.866   1.159 -0.0487 -0.5046 -0.6800
  529MPD2    C5 7908   0.098   2.819   1.286  0.5218  0.0577  0.4761
  529MPD2     H 7909   0.348   2.765   0.997 -1.2482 -5.2606 -0.4938
  529MPD2    H1 7910   4.714   2.923   1.153 -1.1110 -2.1088  0.4127
  529MPD2    H2 7911   0.251   2.739   1.411 -0.6659 -0.4832  0.0640
  529MPD2    H3 7912   0.028   2.836   1.367  1.9925 -2.0933  2.1973
  529MPD2     N 7913   0.129   2.883   0.920  0.0631  0.5557  0.0674
  529MPD2    H5 7914   0.062   2.959   0.911  0.9903  1.4090  0.3582
  529MPD2    N1 7915   0.452   2.707   1.224  0.4621  0.2860 -0.4777
  529MPD2    H7 7916   0.503   2.685   1.139 -0.1836 -1.9631 -0.2813
  530TMC3    C1 7917   0.656   2.644   1.314  0.3226  0.2081 -0.4729
  530TMC3    C2 7918   0.743   2.672   1.416 -0.1252 -0.8857 -0.1469
  530TMC3    C3 7919   0.866   2.607   1.426  0.3355 -0.2048 -0.5795
  530TMC3    C4 7920   0.687   2.548   1.217  0.2530  0.2702  0.4654
  530TMC3    C5 7921   0.806   2.479   1.236 -0.4059 -0.8759 -0.1105
  530TMC3    C6 7922   0.892   2.501   1.337  0.3932  0.3579 -0.0556
  530TMC3     C 7923   0.519   2.694   1.341 -0.0955  0.0041  0.4434
  530TMC3     O 7924   0.483   2.715   1.459 -0.7498 -0.1788  0.4027
  530TMC3     H 7925   0.709   2.746   1.489  2.0108 -0.7023  0.6701
  530TMC3    H1 7926   0.614   2.506   1.148  1.3273 -0.8738  0.0265
  530TMC3    H2 7927   0.987   2.450   1.342 -0.7407 -1.7410 -0.1516
  530TMC3    C7 7928   0.820   2.358   1.171 -0.2192 -0.9560 -0.9601
  530TMC3    C8 7929   0.954   2.618   1.541 -0.0437  0.6985  0.3742
  530TMC3    O1 7930   0.935   2.319   1.140 -0.0092 -0.3502  0.3503
  530TMC3    O2 7931   0.909   2.688   1.628 -0.4509 -0.0135 -0.3929
  531MPD2     C 7932   4.369   1.128  13.211 -0.0094  0.2636 -0.3966
  531MPD2    C1 7933   4.239   1.138  13.252 -0.5036 -0.1442  0.6188
  531MPD2    C2 7934   4.151   1.166  13.151 -0.3257  0.3254  0.1848
  531MPD2    C3 7935   4.182   1.193  13.018 -0.1133  0.1813  0.1091
  531MPD2    C4 7936   4.312   1.192  12.983 -0.1037  0.0693  0.3481
  531MPD2    C5 7937   4.403   1.151  13.078 -0.1660  0.4590 -0.3932
  531MPD2     H 7938   4.046   1.151  13.176 -0.3496 -0.5106 -0.4154
  531MPD2    H1 7939   4.340   1.209  12.880  1.4498  0.9825  0.9151
  531MPD2    H2 7940   4.445   1.090  13.280 -1.4290 -1.8420  0.0182
  531MPD2    H3 7941   4.507   1.135  13.049 -0.3313 -2.3899  0.6375
  531MPD2     N 7942   4.087   1.220  12.914  0.0848  0.3473  0.2370
  531MPD2    H5 7943   4.123   1.230  12.820 -1.3445 -1.2421 -0.4615
  531MPD2    N1 7944   4.206   1.128  13.390 -0.2246 -0.3488  0.0007
  531MPD2    H7 7945   4.281   1.094  13.450 -0.1411  0.3598  0.2928
  532TMC3    C1 7946   4.052   1.152  13.581  0.7017  0.5234 -0.3849
  532TMC3    C2 7947   3.932   1.215  13.602  0.8578  0.1229 -0.2399
  532TMC3    C3 7948   3.916   1.326  13.675 -0.2120  1.0799 -0.5299
  532TMC3    C4 7949   4.162   1.192  13.661 -0.2120  0.2924 -0.3318
  532TMC3    C5 7950   4.146   1.302  13.748 -0.0880 -0.0551 -0.3164
  532TMC3    C6 7951   4.028   1.379  13.741  0.5179  0.4503 -0.0316
  532TMC3     C 7952   4.081   1.160  13.436  0.1326  0.0860  0.0102
  532TMC3     O 7953   3.986   1.213  13.380  0.0926 -0.0318  0.4464
  532TMC3     H 7954   3.841   1.186  13.551  1.3192 -1.1200 -0.3574
  532TMC3    H1 7955   4.259   1.146  13.643 -1.0379 -2.1500  1.5699
  532TMC3    H2 7956   4.017   1.466  13.804 -2.5310 -1.1962  1.7324
  532TMC3    C7 7957   4.258   1.353  13.811  0.4448 -0.7122 -0.2470
  532TMC3    C8 7958   3.823   1.417  13.620  1.1455 -0.0927  0.1307
  532TMC3    O1 7959   4.265   1.474  13.823 -0.1368  0.6310  0.3093
  532TMC3    O2 7960   3.773   1.495  13.703  0.3729  0.2230 -0.4911
  533TMC3    C1 7961   0.776   2.618  14.750  0.2364  0.3043 -0.4621
  533TMC3    C2 7962   0.881   2.698  14.721  0.3824  0.2839  0.4956
  533TMC3    C3 7963   0.886   2.818  14.785  0.0228 -0.8660 -0.1511
  533TMC3    C4 7964   0.674   2.660  14.839 -0.2458  0.3706 -0.2638
  533TMC3    C5 7965   0.696   2.782  14.908  0.5169 -0.1640  0.2070
  533TMC3    C6 7966   0.794   2.868  14.877 -0.1790 -0.3564 -0.1737
  533TMC3     C 7967   0.767   2.487  14.692  0.0137  0.7342  0.1246
  533TMC3     O 7968   0.872   2.419  14.677  0.6800  1.0229 -0.2091
  533TMC3     H 7969   0.964   2.660  14.661 -0.0371  1.3326 -0.7290
  533TMC3    H1 7970   0.587   2.596  14.849  1.1539 -1.6450 -1.0981
  533TMC3    H2 7971   0.815   2.953  14.941 -0.8123  0.1229 -0.6082
  533TMC3    C7 7972   0.606   2.811  15.025 -0.1536 -0.1676  0.9517
  533TMC3    C8 7973   1.015   2.872  14.799  1.1081  0.4879 -0.2769
  533TMC3    O1 7974   0.582   2.926  15.067 -0.1615 -0.1009 -0.2644
  533TMC3    O2 7975   1.108   2.798  14.792 -0.0599  0.2498  0.0053
  534MPD2     C 7976   3.126   3.541   1.722 -0.1255  0.4712  0.3552
  534MPD2    C1 7977   3.075   3.599   1.603  0.0370 -0.0462  0.0476
  534MPD2    C2 7978   3.008   3.535   1.504 -0.5423  0.9336  0.4301
  534MPD2    C3 7979   2.975   3.405   1.524  0.0786 -0.4329  0.1923
  534MPD2    C4 7980   3.023   3.339   1.630  0.5172  1.2970  0.2287
  534MPD2    C5 7981   3.099   3.405   1.723  0.0992  0.3622  0.3095
  534MPD2     H 7982   2.966   3.589   1.420  1.8890  0.5437 -1.0368
  534MPD2    H1 7983   3.010   3.232   1.641 -0.3625  1.4918  1.0835
  534MPD2    H2 7984   3.186   3.583   1.801  1.4818 -0.6416 -0.2779
  534MPD2    H3 7985   3.142   3.346   1.804  1.8820 -0.4572 -1.2387
  534MPD2     N 7986   2.894   3.328   1.437  0.0757  0.5778  0.0705
  534MPD2    H5 7987   2.871   3.233   1.463 -0.2711  0.6051 -0.1327
  534MPD2    N1 7988   3.088   3.733   1.583 -0.4712 -1.0518 -0.0563
  534MPD2    H7 7989   3.025   3.764   1.510 -1.0000  0.7677  1.1923
  535TMC3    C1 7990   2.768   3.274   1.245 -0.4629  0.0475 -0.9994
  535TMC3    C2 7991   2.706   3.180   1.316 -0.7911 -0.4867 -0.2987
  535TMC3    C3 7992   2.657   3.072   1.249  0.2992 -0.7423 -0.1401
  535TMC3    C4 7993   2.772   3.280   1.114 -0.2740 -0.2436 -0.5260
  535TMC3    C5 7994   2.718   3.176   1.049 -0.0012  0.1849  0.3180
  535TMC3    C6 7995   2.666   3.071   1.118 -0.3382  0.6990  0.5841
  535TMC3     C 7996   2.861   3.375   1.306 -0.2260 -0.8579  0.3260
  535TMC3     O 7997   2.877   3.479   1.250 -0.2433  0.4146 -0.2185
  535TMC3     H 7998   2.693   3.191   1.423  1.3902 -0.0312 -0.0835
  535TMC3    H1 7999   2.817   3.363   1.060 -0.4732 -0.2049 -0.6337
  535TMC3    H2 8000   2.616   2.994   1.060 -0.2850  0.3349  1.0196
  535TMC3    C7 8001   2.765   3.139   0.918  0.2461 -0.1207 -0.1781
  535TMC3    C8 8002   2.543   3.003   1.305 -0.5956 -0.7164  0.4654
  535TMC3    O1 8003   2.796   3.019   0.905  0.7853  0.6825  0.2931
  535TMC3    O2 8004   2.472   2.941   1.225  0.5596 -0.4366 -0.0617
  536MPD2     C 8005   1.460   1.656  16.861 -0.0134 -0.7032  1.0319
  536MPD2    C1 8006   1.425   1.523  16.826 -0.5174  1.1768  0.3749
  536MPD2    C2 8007   1.353   1.510  16.709  0.1825 -0.3556 -0.1586
  536MPD2    C3 8008   1.327   1.619  16.630  0.1321  0.4925 -0.3213
  536MPD2    C4 8009   1.368   1.742  16.667  0.0909  0.2270  0.4384
  536MPD2    C5 8010   1.438   1.761  16.777 -0.1984  0.2477  0.4258
  536MPD2     H 8011   1.322   1.411  16.679  2.5370 -1.2478  0.3554
  536MPD2    H1 8012   1.365   1.824  16.596  1.0054  0.4241  0.6316
  536MPD2    H2 8013   1.495   1.682  16.960  2.2607  0.3509 -0.0480
  536MPD2    H3 8014   1.482   1.859  16.792 -1.6576  0.6358  2.0910
  536MPD2     N 8015   1.266   1.613  16.500  0.3468 -0.1277 -0.3217
  536MPD2    H5 8016   1.258   1.705  16.458 -0.0496 -0.1809 -0.3638
  536MPD2    N1 8017   1.468   1.421  16.914 -0.1565 -0.0584 -0.3117
  536MPD2    H7 8018   1.528   1.446  16.992  0.2744 -1.1701 -0.2870
  537TMC3    C1 8019   1.505   1.208  17.001 -0.0206 -0.1986 -0.0543
  537TMC3    C2 8020   1.635   1.234  17.019  0.4811  0.5072 -0.1226
  537TMC3    C3 8021   1.716   1.146  17.090 -0.0985  0.1702 -0.6852
  537TMC3    C4 8022   1.451   1.097  17.053 -0.0766 -0.4043 -0.0303
  537TMC3    C5 8023   1.542   1.010  17.110 -0.2640 -0.2746 -0.8262
  537TMC3    C6 8024   1.676   1.022  17.139  0.2096  0.7321 -0.2629
  537TMC3     C 8025   1.442   1.288  16.901 -0.1310  0.1420 -0.1124
  537TMC3     O 8026   1.372   1.230  16.819  0.3498 -0.7728  0.5580
  537TMC3     H 8027   1.680   1.318  16.966 -0.6793  2.1633  1.5193
  537TMC3    H1 8028   1.349   1.066  17.034  0.2484 -0.7231 -1.1987
  537TMC3    H2 8029   1.738   0.953  17.195  0.2399 -0.4147 -1.7122
  537TMC3    C7 8030   1.481   0.886  17.137  0.1450  0.3409  0.1951
  537TMC3    C8 8031   1.842   1.200  17.128 -0.4546  0.5011 -0.0965
  537TMC3    O1 8032   1.400   0.841  17.061  0.2914 -0.3015  0.4040
  537TMC3    O2 8033   1.847   1.316  17.169  0.2272  0.5310 -1.3620
  538TMC3    C1 8034   3.300   0.928  11.068 -1.1763  0.2744  0.4446
  538TMC3    C2 8035   3.376   0.817  11.030 -0.3883 -0.0126 -0.4592
  538TMC3    C3 8036   3.351   0.776  10.902 -0.5545  0.0301 -1.0876
  538TMC3    C4 8037   3.208   0.994  10.991  0.2141  0.5243 -0.3102
  538TMC3    C5 8038   3.201   0.953  10.862  0.3021  1.1305  0.6588
  538TMC3    C6 8039   3.267   0.836  10.814  0.9472 -0.0534  0.1593
  538TMC3     C 8040   3.264   0.921  11.210  0.2895  0.3613  0.2855
  538TMC3     O 8041   3.147   0.911  11.236  0.6581 -0.1728  0.7676
  538TMC3     H 8042   3.445   0.772  11.100 -1.1600  0.8754  0.8666
  538TMC3    H1 8043   3.141   1.070  11.030  0.9658 -0.6296  3.2147
  538TMC3    H2 8044   3.243   0.785  10.722  1.7033 -2.9171  1.5556
  538TMC3    C7 8045   3.077   1.000  10.792  0.4349  0.6975  0.4812
  538TMC3    C8 8046   3.413   0.648  10.858  0.4261 -0.9061 -0.9516
  538TMC3    O1 8047   3.025   0.928  10.705  0.0818  0.3655 -0.7201
  538TMC3    O2 8048   3.443   0.562  10.938  0.6204  0.4850  0.0495
  539MPD2     C 8049   3.262   0.424  11.656  0.0710 -0.2028 -0.3633
  539MPD2    C1 8050   3.167   0.329  11.671 -0.1883  0.4391 -0.2063
  539MPD2    C2 8051   3.040   0.358  11.637  0.2024 -0.9520  0.2305
  539MPD2    C3 8052   3.007   0.482  11.581 -0.4037 -0.2217 -0.4380
  539MPD2    C4 8053   3.099   0.581  11.572 -0.1931  0.6674 -0.0777
  539MPD2    C5 8054   3.227   0.549  11.616  0.2353 -0.6560 -0.1162
  539MPD2     H 8055   2.959   0.287  11.644  1.1221 -1.8484  1.8076
  539MPD2    H1 8056   3.078   0.681  11.537 -0.1904  1.0912  1.1206
  539MPD2    H2 8057   3.359   0.396  11.695  1.3083  3.6224 -0.6762
  539MPD2    H3 8058   3.309   0.620  11.616  0.0621 -0.4590 -0.7810
  539MPD2     N 8059   2.875   0.508  11.552  0.1346  0.4985 -0.4801
  539MPD2    H5 8060   2.802   0.444  11.584 -0.5603  2.3440  1.6593
  539MPD2    N1 8061   3.184   0.196  11.711  0.2500 -0.0102 -0.1425
  539MPD2    H7 8062   3.099   0.141  11.706 -0.2729  0.9479 -2.0642
  540TMC3    C1 8063   2.678   0.610  11.468  0.3520 -0.0487 -0.6205
  540TMC3    C2 8064   2.628   0.664  11.355  0.0159 -0.5905  0.4240
  540TMC3    C3 8065   2.496   0.646  11.325  0.2718  0.0696 -0.1566
  540TMC3    C4 8066   2.598   0.577  11.575  0.7285 -0.1749  0.1333
  540TMC3    C5 8067   2.459   0.580  11.547  0.1900  0.0411 -0.0094
  540TMC3    C6 8068   2.408   0.615  11.425  0.4471 -0.4038  0.2248
  540TMC3     C 8069   2.820   0.615  11.481  0.1349  0.0946 -0.0387
  540TMC3     O 8070   2.873   0.706  11.425 -0.0278  0.7730 -0.0245
  540TMC3     H 8071   2.691   0.696  11.273 -1.8549  0.0613 -0.7594
  540TMC3    H1 8072   2.642   0.540  11.668 -1.9379 -0.2159  1.3704
  540TMC3    H2 8073   2.303   0.589  11.414 -0.3188  2.4281  0.8247
  540TMC3    C7 8074   2.367   0.531  11.642  0.3403  0.6383 -0.0026
  540TMC3    C8 8075   2.448   0.624  11.190 -0.5675 -0.2317  0.1474
  540TMC3    O1 8076   2.267   0.469  11.603  0.1458  0.1847  0.1287
  540TMC3    O2 8077   2.332   0.586  11.184 -0.0921 -0.3906 -0.0056
  541MPD2     C 8078   0.874   1.066  13.322  0.7603  0.0436 -0.2357
  541MPD2    C1 8079   0.851   1.033  13.186  0.1069  0.2890  0.3020
  541MPD2    C2 8080   0.884   1.123  13.084 -0.2141 -0.3500  0.1665
  541MPD2    C3 8081   0.928   1.249  13.118 -0.1807 -0.1752  0.3540
  541MPD2    C4 8082   0.938   1.284  13.255 -0.4125  0.5019 -0.7871
  541MPD2    C5 8083   0.924   1.192  13.354 -0.3421  0.5990  0.7075
  541MPD2     H 8084   0.885   1.088  12.981  1.5875  0.6792 -0.1727
  541MPD2    H1 8085   0.963   1.387  13.278  1.4977  0.2689 -1.8616
  541MPD2    H2 8086   0.847   0.996  13.400 -0.0362 -0.1021 -0.6395
  541MPD2    H3 8087   0.948   1.222  13.455 -1.2482  0.9104  0.8304
  541MPD2     N 8088   0.959   1.357  13.030  0.1933 -0.2569 -0.3318
  541MPD2    H5 8089   0.995   1.442  13.074 -1.3255  0.6936 -0.9434
  541MPD2    N1 8090   0.810   0.902  13.158 -0.2095  0.6328  0.1040
  541MPD2    H7 8091   0.844   0.869  13.068 -1.1168  1.6312 -0.6078
  542TMC3    C1 8092   0.925   1.477  12.831  0.0358 -0.2627  0.6421
  542TMC3    C2 8093   0.917   1.481  12.689 -0.1253  0.0257 -0.0180
  542TMC3    C3 8094   0.840   1.579  12.631 -0.2505  0.0801  0.1877
  542TMC3    C4 8095   0.859   1.568  12.910 -0.3683  0.3119 -0.7422
  542TMC3    C5 8096   0.793   1.666  12.847  0.4715  0.5531 -0.1315
  542TMC3    C6 8097   0.784   1.680  12.711  0.6066 -0.2536  0.5774
  542TMC3     C 8098   0.951   1.349  12.890 -0.0782 -0.3169  0.6183
  542TMC3     O 8099   0.942   1.253  12.815  0.5144  0.2117 -0.2640
  542TMC3     H 8100   0.969   1.403  12.635  0.5823  0.0821  0.5717
  542TMC3    H1 8101   0.850   1.557  13.017 -0.4255  2.7011 -0.5089
  542TMC3    H2 8102   0.739   1.767  12.665  0.0727 -0.7389  0.1916
  542TMC3    C7 8103   0.741   1.776  12.924  0.1918  0.1447 -0.1011
  542TMC3    C8 8104   0.825   1.579  12.486  0.7804  0.9526 -0.3214
  542TMC3    O1 8105   0.807   1.818  13.020 -0.3546  0.3517 -0.4143
  542TMC3    O2 8106   0.868   1.480  12.424  0.0393 -0.7477  0.7297
  543TMC3    C1 8107   0.557   2.382  17.507 -0.1611 -0.3358 -1.0628
  543TMC3    C2 8108   0.629   2.334  17.612 -0.0052 -0.0290  0.3725
  543TMC3    C3 8109   0.605   2.379  17.738  0.5036 -0.4491  0.1680
  543TMC3    C4 8110   0.459   2.474  17.529  0.5397  0.7452 -0.3679
  543TMC3    C5 8111   0.440   2.527  17.657 -0.4326  0.1788 -0.4325
  543TMC3    C6 8112   0.516   2.477   0.020  1.0730  0.0432 -0.2427
  543TMC3     C 8113   0.586   2.337  17.374 -0.1191 -0.3688  0.7552
  543TMC3     O 8114   0.637   2.228  17.363  0.3452 -0.3774 -0.0027
  543TMC3     H 8115   0.715   2.276  17.579  0.4600  0.5059  0.6303
  543TMC3    H1 8116   0.388   2.503  17.452  0.8001  1.9682 -0.1486
  543TMC3    H2 8117   0.509   2.525   0.117  0.5580  2.4062 -1.4411
  543TMC3    C7 8118   0.329   2.619  17.681  0.4693  0.0793 -0.0138
  543TMC3    C8 8119   0.621   2.284   0.091  0.1788 -0.1021 -0.1072
  543TMC3    O1 8120   0.313   2.655   0.055 -0.1067 -0.4534  0.2514
  543TMC3    O2 8121   0.708   2.203   0.076 -0.7840  0.2998  0.0394
  544MPD2     C 8122   0.445   2.014   0.484 -0.1507  0.0784  0.4803
  544MPD2    C1 8123   0.519   1.973   0.371  0.2487 -0.3464 -0.0574
  544MPD2    C2 8124   0.554   2.063   0.272 -0.2216 -0.5719  0.1788
  544MPD2    C3 8125   0.503   2.198   0.288  0.8840  0.7991  0.2130
  544MPD2    C4 8126   0.431   2.235   0.398 -0.5081 -0.5149  0.6158
  544MPD2    C5 8127   0.409   2.145   0.496 -0.5226 -0.4989  0.3237
  544MPD2     H 8128   0.619   2.043   0.188  0.5281 -1.7920  1.0715
  544MPD2    H1 8129   0.378   2.329   0.401  2.6299  1.1938  2.1743
  544MPD2    H2 8130   0.423   1.945   0.564 -1.9428  0.7422  0.5649
  544MPD2    H3 8131   0.339   2.169   0.575 -0.5822  0.1260  0.0891
  544MPD2     N 8132   0.524   2.294   0.189 -0.4801 -0.1169 -0.0122
  544MPD2    H5 8133   0.484   2.386   0.207  1.6837  1.0887 -1.3817
  544MPD2    N1 8134   0.565   1.837   0.361  0.2879  0.5275 -0.2219
  544MPD2    H7 8135   0.548   1.774   0.439 -1.2638  0.1115 -0.8903
  545TMC3    C1 8136   0.631   1.632   0.268  0.1037 -0.0394  0.0842
  545TMC3    C2 8137   0.641   1.560   0.151 -0.2253  0.7808  0.1506
  545TMC3    C3 8138   0.677   1.424   0.162 -0.3422 -0.5745 -0.2056
  545TMC3    C4 8139   0.636   1.579   0.392 -0.1966 -0.1528 -0.4069
  545TMC3    C5 8140   0.656   1.439   0.401  0.0236 -0.1817 -0.5044
  545TMC3    C6 8141   0.667   1.365   0.283  0.8176 -0.4204  0.2873
  545TMC3     C 8142   0.621   1.777   0.252 -0.6899  0.0183 -0.0201
  545TMC3     O 8143   0.622   1.818   0.137  0.0236 -0.2422  0.2757
  545TMC3     H 8144   0.632   1.604   0.053  1.6285 -1.1407 -0.8786
  545TMC3    H1 8145   0.635   1.632   0.486 -1.0301  1.0720 -1.0937
  545TMC3    H2 8146   0.676   1.257   0.294 -2.5225 -0.6991  0.2825
  545TMC3    C7 8147   0.605   1.380   0.526 -0.2619 -1.0854 -0.2755
  545TMC3    C8 8148   0.692   1.339   0.050  0.4488 -0.2422 -0.4073
  545TMC3    O1 8149   0.523   1.443   0.589  0.4468 -0.2248 -0.6136
  545TMC3    O2 8150   0.656   1.222   0.051 -0.1384 -0.0627 -0.1401
  546MPD2     C 8151   2.050   2.063  17.701  0.2118  0.0482  0.1974
  546MPD2    C1 8152   1.941   2.085  17.617 -0.1466  0.5537 -0.5066
  546MPD2    C2 8153   1.927   2.218  17.573 -0.0645 -0.2000  0.0726
  546MPD2    C3 8154   2.026   2.317  17.585  0.1727  0.7810 -0.1123
  546MPD2    C4 8155   2.138   2.285  17.660 -0.5208  0.2898 -0.2045
  546MPD2    C5 8156   2.149   2.160  17.716 -0.2656  0.3401  0.2096
  546MPD2     H 8157   1.840   2.237  17.511 -0.4541  1.2688  1.0769
  546MPD2    H1 8158   2.224   2.350  17.672  1.3293 -1.9762 -1.2748
  546MPD2    H2 8159   2.081   1.963  17.729  0.7945 -0.4107 -2.0075
  546MPD2    H3 8160   2.237   2.137   0.033 -1.6217 -0.2726  1.9331
  546MPD2     N 8161   2.007   2.451  17.530 -0.6635  0.2664  0.2134
  546MPD2    H5 8162   2.093   2.505  17.540 -0.6102  0.1709  0.2764
  546MPD2    N1 8163   1.835   1.983  17.607 -0.2249  0.5246  0.0815
  546MPD2    H7 8164   1.853   1.890  17.643  0.9323  1.0276  0.8018
  547TMC3    C1 8165   1.650   1.870  17.516 -0.1349  0.1052  0.9557
  547TMC3    C2 8166   1.584   1.857  17.399 -0.1435 -0.7224 -0.2197
  547TMC3    C3 8167   1.539   1.730  17.365 -0.2763  0.4441  1.0071
  547TMC3    C4 8168   1.664   1.764  17.598 -0.3958  0.1853 -0.6786
  547TMC3    C5 8169   1.628   1.638  17.557 -0.0850 -0.5636  0.7313
  547TMC3    C6 8170   1.559   1.619  17.441 -0.2814 -0.3167  0.8130
  547TMC3     C 8171   1.711   1.996  17.546  0.2268 -0.5222 -0.3277
  547TMC3     O 8172   1.654   2.090  17.497  0.3034 -0.7117 -0.1890
  547TMC3     H 8173   1.570   1.950  17.344 -0.6860 -0.1412  0.8879
  547TMC3    H1 8174   1.718   1.772  17.692  0.2052  1.2785 -1.1153
  547TMC3    H2 8175   1.532   1.521  17.404 -1.0472  0.7834 -1.5612
  547TMC3    C7 8176   1.618   1.541  17.662 -0.2699 -0.5603 -0.5992
  547TMC3    C8 8177   1.443   1.725  17.257  0.9761 -0.1739  0.5544
  547TMC3    O1 8178   1.599   1.579   0.035  0.3516 -0.3606  0.0318
  547TMC3    O2 8179   1.439   1.817  17.179  0.5138 -0.6988 -0.5267
  548MPD2     C 8180   2.003   2.500  13.327  0.4520  0.8374  0.4562
  548MPD2    C1 8181   1.953   2.510  13.198 -0.5918  0.2002  0.2825
  548MPD2    C2 8182   2.040   2.483  13.093  0.0113 -0.5398 -0.0856
  548MPD2    C3 8183   2.168   2.434  13.113  0.0295 -0.8108  1.0069
  548MPD2    C4 8184   2.220   2.424  13.240 -0.8233  0.1529  0.3312
  548MPD2    C5 8185   2.132   2.459  13.346  0.5826 -0.1288 -0.3493
  548MPD2     H 8186   1.997   2.489  12.993  2.0301 -0.9839 -0.9719
  548MPD2    H1 8187   2.316   2.386  13.274 -0.3329 -0.3845 -1.6590
  548MPD2    H2 8188   1.939   2.516  13.414  2.4915 -0.6415  2.2198
  548MPD2    H3 8189   2.171   2.448  13.447  2.5277 -2.1580 -1.3059
  548MPD2     N 8190   2.237   2.395  12.995 -0.1054  0.3644 -0.1164
  548MPD2    H5 8191   2.193   2.410  12.905 -2.0671 -0.8249  0.6270
  548MPD2    N1 8192   1.819   2.548  13.187 -0.1830 -0.3137  0.0676
  548MPD2    H7 8193   1.773   2.563  13.276 -0.0827  0.0981  0.0496
  549TMC3    C1 8194   1.619   2.624  13.094 -0.2982  0.3923 -0.2870
  549TMC3    C2 8195   1.572   2.714  13.005  0.3728  0.3362 -0.3043
  549TMC3    C3 8196   1.466   2.786  13.046  0.0201 -0.7797  0.4104
  549TMC3    C4 8197   1.545   2.599  13.211 -0.0959 -0.4434 -0.0242
  549TMC3    C5 8198   1.433   2.678  13.247 -0.1341 -0.2814 -0.7929
  549TMC3    C6 8199   1.395   2.777  13.165  0.2257 -0.3437  0.2707
  549TMC3     C 8200   1.748   2.567  13.072  0.3931 -0.5038  1.0161
  549TMC3     O 8201   1.779   2.554  12.955  0.0891  0.4600 -0.0576
  549TMC3     H 8202   1.634   2.735  12.919  0.7340  0.5329  0.0068
  549TMC3    H1 8203   1.568   2.505  13.261  1.4485  0.8293  1.6505
  549TMC3    H2 8204   1.302   2.830  13.181 -0.1027 -0.8324  0.0194
  549TMC3    C7 8205   1.330   2.611  13.328  0.3936  0.7795 -0.2666
  549TMC3    C8 8206   1.395   2.867  12.947 -0.2293 -0.0518 -0.9961
  549TMC3    O1 8207   1.211   2.632  13.299  0.0592  0.7299  0.2432
  549TMC3    O2 8208   1.318   2.949  12.993  0.2108  0.0729  0.4172
  550TMC3    C1 8209   0.560   1.325  12.157 -0.0353 -0.1562 -0.0419
  550TMC3    C2 8210   0.557   1.355  12.290  0.1198 -0.2092 -0.6862
  550TMC3    C3 8211   0.477   1.459  12.332 -0.6883  0.0091  1.1525
  550TMC3    C4 8212   0.485   1.398  12.067 -0.5696  0.2220 -0.2016
  550TMC3    C5 8213   0.415   1.505  12.115  0.0266  0.3829  0.6275
  550TMC3    C6 8214   0.401   1.533  12.249  0.3033  0.2680 -0.2076
  550TMC3     C 8215   0.635   1.210  12.104  0.5727  0.0163  1.0641
  550TMC3     O 8216   0.734   1.175  12.169  0.2389  0.3017  0.2124
  550TMC3     H 8217   0.620   1.295  12.355 -0.6113  0.3533  0.5520
  550TMC3    H1 8218   0.488   1.371  11.962 -1.0220 -2.5236  0.4902
  550TMC3    H2 8219   0.364   1.630  12.280  0.3785  0.9403 -2.2326
  550TMC3    C7 8220   0.288   1.509  12.048  0.6629  0.4856 -0.5745
  550TMC3    C8 8221   0.456   1.483  12.471 -0.2058  0.5857  0.2034
  550TMC3    O1 8222   0.198   1.546  12.119  0.2035 -0.5486  0.2229
  550TMC3    O2 8223   0.380   1.577  12.489  0.4384 -0.0428  0.1570
  551TMC3    C1 8224   2.751   3.758  13.324  0.1137  0.1647  0.0681
  551TMC3    C2 8225   2.838   3.825  13.242  0.3731  0.1735 -0.0677
  551TMC3    C3 8226   2.931   3.908  13.302 -0.0975  0.1011 -0.7020
  551TMC3    C4 8227   2.767   3.758  13.458  0.1094  0.2834 -0.1296
  551TMC3    C5 8228   2.858   3.850  13.510  0.4802  0.1298  0.8302
  551TMC3    C6 8229   2.945   3.913  13.433  0.8481  0.5463  0.3324
  551TMC3     C 8230   2.651   3.684  13.255  0.3255  0.3488  0.2320
  551TMC3     O 8231   2.611   3.729  13.148  1.1464  0.2266 -0.5000
  551TMC3     H 8232   2.823   3.845  13.136 -2.7429 -0.5692  0.2513
  551TMC3    H1 8233   2.719   3.690  13.528  1.8323 -1.4588 -0.6460
  551TMC3    H2 8234   3.026   3.966  13.482  1.1353  0.5339 -0.1333
  551TMC3    C7 8235   2.880   3.871  13.661  0.0493  0.4483 -0.7013
  551TMC3    C8 8236   3.000   4.005  13.222  0.4919  0.9011 -0.6890
  551TMC3    O1 8237   2.855   3.784  13.746 -0.1705  0.2022 -0.1731
  551TMC3    O2 8238   3.029   3.976  13.104  0.6458 -0.2239 -0.1098
  552MPD2     C 8239   0.037   0.763  14.378  0.2944 -0.9284 -0.4823
  552MPD2    C1 8240   0.041   0.629  14.344  0.5427 -0.4234 -1.0836
  552MPD2    C2 8241   0.109   0.539  14.426  0.9933 -0.3919 -0.1310
  552MPD2    C3 8242   0.175   0.585  14.541  0.2641 -0.8830  0.0260
  552MPD2    C4 8243   0.193   0.720  14.556  0.4445 -0.0765 -0.6593
  552MPD2    C5 8244   0.131   0.810  14.472 -0.2729 -0.0741 -0.1529
  552MPD2     H 8245   0.089   0.433  14.417 -0.8572  0.1139 -1.9387
  552MPD2    H1 8246   0.242   0.765  14.641  1.0956  1.3176 -1.7555
  552MPD2    H2 8247   4.702   0.837  14.345 -0.8669 -1.3530  1.0893
  552MPD2    H3 8248   0.134   0.915  14.499 -2.4230  0.2371 -1.1573
  552MPD2     N 8249   0.238   0.504  14.641  0.4253  0.2192  0.2298
  552MPD2    H5 8250   0.301   0.539  14.712  1.1791 -1.3191  0.3139
  552MPD2    N1 8251   4.680   0.572  14.254  0.4592 -0.1539 -0.2475
  552MPD2    H7 8252   4.691   0.479  14.216 -0.3372 -0.3769  0.0792
  553TMC3    C1 8253   4.522   0.572  14.086 -0.9834  0.0516  0.0259
  553TMC3    C2 8254   4.469   0.651  13.991 -0.1066  0.4026 -0.5236
  553TMC3    C3 8255   4.377   0.601  13.907 -0.3600  0.0249  0.5694
  553TMC3    C4 8256   4.472   0.447  14.113 -0.3359 -0.0311 -0.3354
  553TMC3    C5 8257   4.362   0.418  14.041  0.0059 -0.5201  0.7491
  553TMC3    C6 8258   4.323   0.483  13.920  0.1118 -0.7066  0.4644
  553TMC3     C 8259   4.574   0.644  14.195 -0.4533 -0.4416 -0.3350
  553TMC3     O 8260   4.529   0.755  14.217  0.2518 -0.3332 -0.1766
  553TMC3     H 8261   4.517   0.746  13.974  0.0293  0.3798 -0.2466
  553TMC3    H1 8262   4.490   0.404  14.210  1.4040  2.3755  0.4103
  553TMC3    H2 8263   4.245   0.452  13.851  1.1848  0.3770 -1.2470
  553TMC3    C7 8264   4.332   0.278  14.040 -0.2291 -0.2158 -0.5449
  553TMC3    C8 8265   4.370   0.662  13.779 -0.6121  0.0745  0.0022
  553TMC3    O1 8266   4.223   0.246  13.999 -0.2899 -0.4687  0.4425
  553TMC3    O2 8267   4.437   0.764  13.766  0.3092 -0.2353 -0.8998
  554TMC3    C1 8268   1.822   0.112  11.423  0.3485 -0.3931  0.4991
  554TMC3    C2 8269   1.750   0.045  11.333 -0.3073 -0.1032 -1.0872
  554TMC3    C3 8270   1.684   0.121  11.243  0.4322  0.0647 -0.4025
  554TMC3    C4 8271   1.848   0.245  11.424  0.1189 -0.0552  0.4045
  554TMC3    C5 8272   1.776   0.324  11.338  0.1721 -0.4547 -0.4171
  554TMC3    C6 8273   1.699   0.258  11.244  0.6593  0.0138 -0.2771
  554TMC3     C 8274   1.913   0.026  11.498 -0.6126 -0.0787  0.1971
  554TMC3     O 8275   2.027   0.065  11.506  0.0833  0.0174  0.1597
  554TMC3     H 8276   1.750   4.673  11.323 -0.4071 -0.1832 -0.2292
  554TMC3    H1 8277   1.906   0.294  11.501 -0.2470 -0.6128  1.0394
  554TMC3    H2 8278   1.653   0.319  11.166 -0.9515 -1.0920 -0.1886
  554TMC3    C7 8279   1.839   0.433  11.283 -0.1302  0.2140 -0.0944
  554TMC3    C8 8280   1.655   0.074  11.109 -1.1216 -0.1837  0.1496
  554TMC3    O1 8281   1.820   0.463  11.165 -0.2777 -0.6830 -0.7507
  554TMC3    O2 8282   1.554   0.124  11.056 -0.1516 -0.5044 -0.1110
  555TMC3    C1 8283   0.353   3.884  15.042 -0.3815 -0.5434 -0.0132
  555TMC3    C2 8284   0.273   3.925  15.147 -0.2487 -0.1661  0.2712
  555TMC3    C3 8285   0.300   3.868  15.269 -0.7363 -0.0444 -0.1228
  555TMC3    C4 8286   0.450   3.795  15.059 -0.5357 -0.3457  0.2677
  555TMC3    C5 8287   0.479   3.753  15.183 -0.0099 -0.2324  0.4190
  555TMC3    C6 8288   0.403   3.780  15.288  0.4580  0.3105 -0.0367
  555TMC3     C 8289   0.348   3.948  14.916 -0.8175 -0.5491  0.0070
  555TMC3     O 8290   0.449   3.953  14.852  0.6232 -0.1831  0.0828
  555TMC3     H 8291   0.217   4.018  15.153 -3.2555 -1.9768 -0.0182
  555TMC3    H1 8292   0.493   3.755  14.968 -1.5783 -2.4633  0.6991
  555TMC3    H2 8293   0.412   3.728  15.383  1.1577 -3.2445 -2.0465
  555TMC3    C7 8294   0.524   3.615  15.182 -0.0886 -0.5003  0.4275
  555TMC3    C8 8295   0.259   3.951  15.380  0.1514 -0.2434  0.1137
  555TMC3    O1 8296   0.439   3.532  15.204 -0.6162  0.3679 -0.5125
  555TMC3    O2 8297   0.160   4.021  15.358 -0.0658  0.1367  0.6981
  556MPD2     C 8298   4.380   1.513  10.223  0.5127 -0.2231  0.2771
  556MPD2    C1 8299   4.276   1.470  10.308  0.0472 -0.1736  0.1246
  556MPD2    C2 8300   4.224   1.344  10.302  0.6900 -0.0116 -0.7721
  556MPD2    C3 8301   4.276   1.259  10.206  0.6127  0.0359 -0.0121
  556MPD2    C4 8302   4.378   1.301  10.116  0.3237 -0.2826 -0.1390
  556MPD2    C5 8303   4.430   1.424  10.130  0.4445  0.1658 -0.4820
  556MPD2     H 8304   4.144   1.317  10.370  1.7103  0.5829  0.6562
  556MPD2    H1 8305   4.398   1.246  10.025  2.4173  1.5711 -0.7836
  556MPD2    H2 8306   4.423   1.612  10.233  0.2722  0.0824 -1.6960
  556MPD2    H3 8307   4.503   1.451  10.054  1.4425  0.3598  0.5569
  556MPD2     N 8308   4.231   1.126  10.184 -0.4699 -0.5700  0.8528
  556MPD2    H5 8309   4.275   1.066  10.115  0.3815  0.8776  0.1525
  556MPD2    N1 8310   4.239   1.542  10.417  0.0480 -0.5436  0.3201
  556MPD2    H7 8311   4.183   1.487  10.482  1.5268 -0.3585  1.7649
  557TMC3    C1 8312   4.081   0.939  10.232  0.3075 -0.2986 -0.3108
  557TMC3    C2 8313   4.140   0.859  10.141  0.2587  0.4575 -0.5618
  557TMC3    C3 8314   4.093   0.727  10.129 -0.0315 -0.6563 -0.3659
  557TMC3    C4 8315   3.973   0.897  10.309  0.1571 -0.4173  0.1839
  557TMC3    C5 8316   3.925   0.767  10.283 -0.4367 -0.2243  0.4112
  557TMC3    C6 8317   3.988   0.678  10.194  0.0185  0.1451 -0.0363
  557TMC3     C 8318   4.125   1.072  10.254 -0.0744  0.3803  0.0607
  557TMC3     O 8319   4.062   1.119  10.348  0.3420  0.0756 -0.4321
  557TMC3     H 8320   4.230   0.886  10.088  1.5528 -2.2550  0.2346
  557TMC3    H1 8321   3.915   0.957  10.379  0.3144  0.0412 -0.0848
  557TMC3    H2 8322   3.964   0.572  10.191 -0.0739  0.1366  1.1784
  557TMC3    C7 8323   3.807   0.734  10.362 -0.0334 -0.2869 -0.1572
  557TMC3    C8 8324   4.171   0.639  10.047 -0.2276  0.3688 -0.2529
  557TMC3    O1 8325   3.727   0.822  10.394 -0.0298  0.4825  0.7890
  557TMC3    O2 8326   4.274   0.689  10.004  0.4338  0.8629 -0.3620
  558TMC3    C1 8327   1.714   3.929  10.659 -0.1884 -0.4152 -0.1080
  558TMC3    C2 8328   1.585   3.937  10.700  0.2215 -0.1461  0.7983
  558TMC3    C3 8329   1.492   3.952  10.600  0.4406  0.0599 -1.0806
  558TMC3    C4 8330   1.752   3.947  10.526 -0.2666  0.9057  0.8333
  558TMC3    C5 8331   1.654   3.969  10.436 -0.1777 -0.5322 -0.5369
  558TMC3    C6 8332   1.522   3.969  10.468  0.8496  0.2838 -0.2046
  558TMC3     C 8333   1.824   3.896  10.746  0.1035  0.7371  0.1320
  558TMC3     O 8334   1.939   3.902  10.702 -0.3978  0.1747 -0.2960
  558TMC3     H 8335   1.565   3.948  10.806  0.8533  1.0373  0.7896
  558TMC3    H1 8336   1.857   3.945  10.500 -0.5803  1.2462 -0.4614
  558TMC3    H2 8337   1.440   3.984  10.400  1.0971  0.4227 -0.4712
  558TMC3    C7 8338   1.698   3.959  10.300  0.0674  0.6092  0.4884
  558TMC3    C8 8339   1.353   3.950  10.638 -0.3201 -0.2883  0.3034
  558TMC3    O1 8340   1.797   4.022  10.262 -0.2312 -0.1700  0.7230
  558TMC3    O2 8341   1.274   3.978  10.555  0.3004 -0.9520 -0.8199
  559MPD2     C 8342   1.852   4.248  10.648  0.3282  0.6040  0.0171
  559MPD2    C1 8343   1.784   4.263  10.766 -0.2597 -0.2180  0.4115
  559MPD2    C2 8344   1.855   4.234  10.884  0.2106  0.2885  0.8320
  559MPD2    C3 8345   1.987   4.201  10.881 -0.0824  0.2401 -0.6149
  559MPD2    C4 8346   2.060   4.200  10.764  0.6453  0.2186 -0.1042
  559MPD2    C5 8347   1.992   4.211  10.646 -0.3617  0.1646  0.9684
  559MPD2     H 8348   1.808   4.252  10.980  1.7811  2.2152  1.2620
  559MPD2    H1 8349   2.168   4.210  10.768  0.3564  2.6959  1.6094
  559MPD2    H2 8350   1.802   4.252  10.552  0.1687 -2.1423 -0.0382
  559MPD2    H3 8351   2.049   4.196  10.556 -1.8229 -1.6219  0.3445
  559MPD2     N 8352   2.045   4.182  11.002  0.1775 -0.3596  0.2544
  559MPD2    H5 8353   1.980   4.186  11.080  0.8537 -4.9378  1.0237
  559MPD2    N1 8354   1.650   4.300  10.761 -0.6162  0.2820 -0.3410
  559MPD2    H7 8355   1.607   4.331  10.674  1.0036  1.3547 -0.7499
  560TMC3    C1 8356   2.199   4.158  11.184  0.1074 -0.3682 -0.5464
  560TMC3    C2 8357   2.096   4.108  11.256  0.3397  0.3596 -0.6053
  560TMC3    C3 8358   2.102   4.106  11.391 -0.8354  0.4044  0.0811
  560TMC3    C4 8359   2.311   4.212  11.243  0.8255  0.3872 -0.1023
  560TMC3    C5 8360   2.311   4.209  11.379  0.0503  0.7238  0.5331
  560TMC3    C6 8361   2.214   4.151  11.459  0.6021 -0.5898  0.1543
  560TMC3     C 8362   2.180   4.183  11.041  0.7285  0.3639 -0.4941
  560TMC3     O 8363   2.278   4.195  10.969 -0.3654 -0.2189 -0.1696
  560TMC3     H 8364   2.007   4.071  11.207  0.6094  1.4710 -1.9358
  560TMC3    H1 8365   2.389   4.249  11.176  1.5620 -0.1875  0.4368
  560TMC3    H2 8366   2.204   4.160  11.567  1.3690  0.1688  0.1668
  560TMC3    C7 8367   2.404   4.289  11.455 -0.0515  0.5863  0.0363
  560TMC3    C8 8368   1.987   4.056  11.462 -0.1284 -0.1154  0.3846
  560TMC3    O1 8369   2.403   4.267  11.576 -0.1132  0.0112  0.4483
  560TMC3    O2 8370   1.879   4.082  11.414 -0.3730  0.2139  0.0597
  561TMC3    C1 8371   4.323   3.448  11.094  0.1563 -0.6959  0.2480
  561TMC3    C2 8372   4.284   3.384  11.208 -0.9150  0.1848  0.0429
  561TMC3    C3 8373   4.277   3.453  11.330  0.0390  0.6263  0.0526
  561TMC3    C4 8374   4.366   3.579  11.090 -0.3917  0.3708 -0.0469
  561TMC3    C5 8375   4.360   3.645  11.209 -0.4657  0.4911 -0.5304
  561TMC3    C6 8376   4.310   3.585  11.326 -0.0027 -0.4808  0.2917
  561TMC3     C 8377   4.356   3.355  10.985  0.7893  0.4433  0.8224
  561TMC3     O 8378   4.304   3.243  10.986 -0.2022 -0.0958 -0.5065
  561TMC3     H 8379   4.265   3.278  11.214 -1.9268  0.1818 -3.3974
  561TMC3    H1 8380   4.405   3.632  11.004  0.3264 -0.9635 -0.5473
  561TMC3    H2 8381   4.296   3.643  11.417  1.6733  1.5541 -0.7455
  561TMC3    C7 8382   4.402   3.786  11.218  0.0897 -0.0807 -0.3473
  561TMC3    C8 8383   4.249   3.377  11.450  0.4176 -0.4149  0.5980
  561TMC3    O1 8384   4.363   3.836  11.323  0.0698  0.0944 -0.0860
  561TMC3    O2 8385   4.262   3.257  11.440  0.2359 -0.1465 -1.0424
  562TMC3    C1 8386   0.319   4.257  16.833 -0.6123  0.8330  0.8172
  562TMC3    C2 8387   0.284   4.390  16.816 -0.2650  0.0897  1.0220
  562TMC3    C3 8388   0.224   4.423  16.698  0.0667 -0.1993 -0.3633
  562TMC3    C4 8389   0.288   4.154  16.747 -0.6998 -0.2493 -0.2782
  562TMC3    C5 8390   0.221   4.200  16.638  0.2569 -0.5230 -0.5520
  562TMC3    C6 8391   0.187   4.329  16.611 -0.0527 -0.0520 -0.0136
  562TMC3     C 8392   0.439   4.234  16.909  0.8585 -0.1504 -0.4917
  562TMC3     O 8393   0.509   4.135  16.893  0.5268  0.1146 -0.3996
  562TMC3     H 8394   0.312   4.473  16.881  1.5130  0.2514  0.0582
  562TMC3    H1 8395   0.325   4.053  16.757 -0.8794 -0.2685  0.1770
  562TMC3    H2 8396   0.142   4.341  16.514  2.4547  1.5173 -0.9921
  562TMC3    C7 8397   0.202   4.102  16.529  0.5651  0.2793  0.4588
  562TMC3    C8 8398   0.221   4.565  16.652  0.3703 -0.1632  0.1023
  562TMC3    O1 8399   0.196   4.147  16.416 -0.0597 -0.2874  0.0291
  562TMC3    O2 8400   0.224   4.652  16.742 -0.0779 -0.8509  0.1504
  563MPD2     C 8401   3.173   0.899  15.774  0.0523  0.4674 -0.1439
  563MPD2    C1 8402   3.182   0.797  15.866  0.5131  0.7010  0.1953
  563MPD2    C2 8403   3.301   0.727  15.888 -0.2340 -0.3618 -0.1253
  563MPD2    C3 8404   3.417   0.768  15.820 -0.1248 -0.2652  0.6276
  563MPD2    C4 8405   3.407   0.870  15.726 -0.0642 -0.2956  0.3198
  563MPD2    C5 8406   3.289   0.940  15.706 -0.1068  0.3632 -0.3797
  563MPD2     H 8407   3.312   0.646  15.958  1.8455 -0.4766 -0.5908
  563MPD2    H1 8408   3.497   0.921  15.691 -0.7684 -0.0415 -1.0977
  563MPD2    H2 8409   3.081   0.957  15.769  0.9617  1.8064 -1.3033
  563MPD2    H3 8410   3.276   1.034  15.655  5.0940  0.2195 -1.9756
  563MPD2     N 8411   3.530   0.686  15.831 -0.0064 -0.1179 -0.6083
  563MPD2    H5 8412   3.517   0.601  15.885  2.0735  0.4379  0.7331
  563MPD2    N1 8413   3.084   0.766  15.964 -0.1550 -0.0838 -0.5921
  563MPD2    H7 8414   3.097   0.676  16.010 -0.1937 -0.0981 -0.6083
  564TMC3    C1 8415   2.871   0.771  16.068  0.3734 -0.2429  0.3430
  564TMC3    C2 8416   2.734   0.763  16.046 -0.1594 -0.5809 -0.5954
  564TMC3    C3 8417   2.652   0.716  16.153  0.0689 -0.3093 -0.4181
  564TMC3    C4 8418   2.922   0.731  16.188  1.0349 -0.0288 -0.4073
  564TMC3    C5 8419   2.840   0.685  16.289 -0.9560 -0.5969  0.5223
  564TMC3    C6 8420   2.702   0.676  16.273 -0.7340 -0.1270 -0.5152
  564TMC3     C 8421   2.963   0.836  15.980  0.2791 -0.2351 -0.5285
  564TMC3     O 8422   2.932   0.940  15.928  0.2653 -0.4875  0.5058
  564TMC3     H 8423   2.700   0.800  15.950  2.0061  2.1362 -0.3109
  564TMC3    H1 8424   3.029   0.737  16.203  0.9779 -1.3147  0.5471
  564TMC3    H2 8425   2.643   0.630  16.351 -0.3697 -1.2272 -0.8885
  564TMC3    C7 8426   2.903   0.584  16.374  0.0179  0.1919  0.5071
  564TMC3    C8 8427   2.564   0.606  16.111  0.7355  0.1365 -0.5047
  564TMC3    O1 8428   3.022   0.603  16.399  0.1401 -0.1175  0.1341
  564TMC3    O2 8429   2.552   0.515  16.186 -0.1661 -0.0529 -0.1650
  565TMC3    C1 8430   3.539   2.909  10.468  0.1518 -0.0244  0.5945
  565TMC3    C2 8431   3.535   2.771  10.487 -0.0932  0.1894  0.7452
  565TMC3    C3 8432   3.422   2.709  10.439  0.7930 -0.2098  0.0464
  565TMC3    C4 8433   3.438   2.980  10.405  0.1278 -0.4271  0.4232
  565TMC3    C5 8434   3.336   2.910  10.355  0.2433  0.4882 -0.1310
  565TMC3    C6 8435   3.314   2.775  10.386  0.3490  0.3077 -0.3710
  565TMC3     C 8436   3.668   2.976  10.499 -0.4105 -0.6114  0.6313
  565TMC3     O 8437   3.688   3.084  10.451 -0.0100 -0.8137  0.1198
  565TMC3     H 8438   3.617   2.722  10.539  0.6470 -0.8349 -1.4162
  565TMC3    H1 8439   3.454   3.084  10.378  0.7366 -0.0809  2.1641
  565TMC3    H2 8440   3.225   2.720  10.357  0.4908  0.1588 -0.5205
  565TMC3    C7 8441   3.225   2.981  10.297 -0.1044 -0.4278  0.2999
  565TMC3    C8 8442   3.417   2.573  10.470 -0.5325 -0.0017 -0.6815
  565TMC3    O1 8443   3.242   3.104  10.294  0.3680  0.2422 -0.0909
  565TMC3    O2 8444   3.469   2.530  10.572  0.3462 -0.8687  0.4995
  566MPD2     C 8445   4.649   3.808  14.468 -0.6145  0.7532 -0.0618
  566MPD2    C1 8446   4.705   3.883  14.374  0.0637 -0.1457 -0.3379
  566MPD2    C2 8447   4.634   3.915  14.263 -1.1173  0.0571 -1.0350
  566MPD2    C3 8448   4.503   3.864  14.240  0.5675 -0.3122 -0.4026
  566MPD2    C4 8449   4.456   3.780  14.338  0.6110  0.0308 -0.1938
  566MPD2    C5 8450   4.528   3.742  14.445 -0.7677  0.5043 -0.0101
  566MPD2     H 8451   4.680   3.969  14.181 -1.4341  2.1285  0.1521
  566MPD2    H1 8452   4.359   3.735  14.323  0.5793  0.2140 -0.5289
  566MPD2    H2 8453   4.711   3.782  14.553 -0.3841  0.4902 -0.3099
  566MPD2    H3 8454   4.483   3.676  14.518 -2.5040 -0.5040 -1.9862
  566MPD2     N 8455   4.418   3.896  14.134  0.0509  0.0681  0.3094
  566MPD2    H5 8456   4.325   3.856  14.128 -0.7611  2.0538 -0.4069
  566MPD2    N1 8457   0.101   3.932  14.393  0.0145  0.3679  0.2743
  566MPD2    H7 8458   0.157   3.887  14.464 -0.2397  0.9553  0.8515
  567TMC3    C1 8459   0.311   4.037  14.355 -0.0275 -0.2572  0.4162
  567TMC3    C2 8460   0.381   4.090  14.248 -0.5053 -0.3085 -0.7413
  567TMC3    C3 8461   0.511   4.049  14.231  0.0169  0.2160  0.0277
  567TMC3    C4 8462   0.361   3.942  14.440  0.2763 -0.4075 -0.0358
  567TMC3    C5 8463   0.486   3.903  14.422  0.7437 -0.5214 -0.1434
  567TMC3    C6 8464   0.562   3.950  14.314  0.9245  0.3242  0.6458
  567TMC3     C 8465   0.170   4.030  14.327 -0.1320 -0.2376  0.1330
  567TMC3     O 8466   0.125   4.108  14.245  0.7362 -0.2646  0.8173
  567TMC3     H 8467   0.324   4.136  14.168 -0.3312  1.1828 -0.0107
  567TMC3    H1 8468   0.314   3.928  14.537  0.3930 -1.7322 -0.1654
  567TMC3    H2 8469   0.652   3.892  14.297 -0.3019 -1.4506  0.2320
  567TMC3    C7 8470   0.563   3.818  14.510  0.3490 -0.5036  0.3466
  567TMC3    C8 8471   0.558   4.075  14.098  0.8093  0.4276 -1.1675
  567TMC3    O1 8472   0.682   3.848  14.512  0.2377  0.0721 -0.0415
  567TMC3    O2 8473   0.483   4.140  14.024 -0.0566 -0.5764 -0.1215
  568MPD2     C 8474   2.931   4.291  16.308  1.3801 -0.4422 -0.4662
  568MPD2    C1 8475   2.813   4.261  16.374  0.1846 -0.0774 -0.3017
  568MPD2    C2 8476   2.695   4.284  16.308 -0.1186 -0.4904 -0.0269
  568MPD2    C3 8477   2.698   4.332  16.179 -0.3748  0.2436  0.1384
  568MPD2    C4 8478   2.818   4.366  16.121  0.1527 -0.9899  0.1289
  568MPD2    C5 8479   2.936   4.349  16.185  0.0119  0.0312  0.3740
  568MPD2     H 8480   2.598   4.264  16.352  1.0369  0.9071  3.1387
  568MPD2    H1 8481   2.826   4.408  16.022 -1.1215  1.4452  1.0753
  568MPD2    H2 8482   3.022   4.265  16.362 -0.3959  1.8301  3.6095
  568MPD2    H3 8483   3.033   4.375  16.145  1.0338 -1.0027  2.1895
  568MPD2     N 8484   2.574   4.348  16.104  0.0526  0.3301 -0.4005
  568MPD2    H5 8485   2.491   4.317  16.153  0.5646  0.7436  0.7359
  568MPD2    N1 8486   2.832   4.197  16.498  0.2505  0.6606 -0.1471
  568MPD2    H7 8487   2.926   4.168  16.521 -0.3038 -0.2810  0.9528
  569TMC3    C1 8488   2.427   4.450  15.954  0.0705 -0.2709 -0.0879
  569TMC3    C2 8489   2.347   4.446  16.065 -0.1885 -0.1657  0.3916
  569TMC3    C3 8490   2.276   4.565  16.094  0.1221 -0.5113  0.0205
  569TMC3    C4 8491   2.418   4.561  15.870  0.1119 -0.8315  0.2705
  569TMC3    C5 8492   2.356   4.673  15.901 -0.3310  0.3475 -0.4084
  569TMC3    C6 8493   2.287   4.678  16.018  0.5950  0.6940  0.1726
  569TMC3     C 8494   2.562   4.400  15.974  0.9196 -0.0309 -0.0218
  569TMC3     O 8495   2.642   4.421  15.881  0.2289  0.3298 -0.0425
  569TMC3     H 8496   2.331   4.361  16.129  0.8276 -0.7378 -0.1165
  569TMC3    H1 8497   2.490   4.571  15.790  0.4359 -1.4927  0.4753
  569TMC3    H2 8498   2.232   0.034  16.035 -3.0213 -1.8008  2.0585
  569TMC3    C7 8499   2.371   0.058  15.823 -0.0567  0.2427 -0.4522
  569TMC3    C8 8500   2.245   4.576  16.236  0.0021  0.7590  0.0449
  569TMC3    O1 8501   2.386   0.050  15.700 -0.5128  0.7616  0.1668
  569TMC3    O2 8502   2.200   4.476  16.289 -0.8511  0.3798  0.6307
  570TMC3    C1 8503   1.957   3.191  16.121 -0.1077 -0.4768 -0.3367
  570TMC3    C2 8504   2.066   3.160  16.042 -0.5164 -0.3096 -0.1889
  570TMC3    C3 8505   2.146   3.260  15.987  0.1005 -0.0322  0.8044
  570TMC3    C4 8506   1.921   3.316  16.158  0.3203  0.1817  0.0898
  570TMC3    C5 8507   1.991   3.409  16.093 -0.2429  0.4038 -0.2936
  570TMC3    C6 8508   2.106   3.393  16.012  0.0967  0.1467  0.1419
  570TMC3     C 8509   1.882   3.077  16.170  0.6331 -0.6566 -0.3073
  570TMC3     O 8510   1.880   2.975  16.098  0.0172  0.3009 -0.8510
  570TMC3     H 8511   2.080   3.055  16.021  2.1151  0.2774 -1.2964
  570TMC3    H1 8512   1.827   3.339  16.207 -0.6389  0.0738 -1.7087
  570TMC3    H2 8513   2.156   3.481  15.972  1.8232 -1.3176 -0.8988
  570TMC3    C7 8514   1.940   3.545  16.107  0.3370 -0.1090  0.2146
  570TMC3    C8 8515   2.261   3.240  15.907 -0.6048  1.2642  0.6297
  570TMC3    O1 8516   1.876   3.574  16.204  0.0112 -0.3672 -0.1865
  570TMC3    O2 8517   2.322   3.338  15.855 -0.2255  0.0651 -0.0031
  571MPD2     C 8518   4.317   0.095  17.493  0.8798 -0.3741  0.1412
  571MPD2    C1 8519   4.234   0.052  17.599  0.2501 -0.6237 -0.5298
  571MPD2    C2 8520   4.223   0.137  17.705 -0.5264 -0.0017 -0.1522
  571MPD2    C3 8521   4.307   0.241  17.729  0.9596 -0.5586 -0.4397
  571MPD2    C4 8522   4.395   0.276  17.631  0.0606  0.3913  0.1592
  571MPD2    C5 8523   4.394   0.208  17.512 -0.0908  0.3727  0.1251
  571MPD2     H 8524   4.143   0.110   0.030  1.3461 -2.5212  1.0616
  571MPD2    H1 8525   4.467   0.356  17.644 -1.0377  1.7537 -2.0263
  571MPD2    H2 8526   4.333   0.042  17.400 -2.0266 -0.5581 -0.2573
  571MPD2    H3 8527   4.470   0.235  17.440  1.9931  1.8190  2.8569
  571MPD2     N 8528   4.297   0.323   0.099  0.3238 -0.1945  0.4725
  571MPD2    H5 8529   4.374   0.389   0.106  0.5825 -0.3352 -1.0694
  571MPD2    N1 8530   4.180   4.657  17.584  0.0233 -0.8383  0.1918
  571MPD2    H7 8531   4.210   4.622  17.494 -2.0991 -0.1998 -0.7581
  572TMC3    C1 8532   4.273   0.403   0.312  0.1623  0.1295 -0.3598
  572TMC3    C2 8533   4.221   0.380   0.439 -0.1537  0.0327  0.1045
  572TMC3    C3 8534   4.226   0.474   0.536 -0.6233 -0.1972 -0.2050
  572TMC3    C4 8535   4.329   0.525   0.289  0.1692 -0.1505  0.0748
  572TMC3    C5 8536   4.328   0.615   0.393  0.0600  0.6029  0.3097
  572TMC3    C6 8537   4.277   0.596   0.517 -0.7272  0.8131  0.2894
  572TMC3     C 8538   4.218   0.310   0.208 -0.5636 -0.0243 -0.7389
  572TMC3     O 8539   4.128   0.232   0.234 -0.5867 -0.4248  0.1530
  572TMC3     H 8540   4.160   0.291   0.451  1.8486 -1.3936 -0.2783
  572TMC3    H1 8541   4.367   0.556   0.193  2.6521 -4.6358 -0.4081
  572TMC3    H2 8542   4.275   0.676   0.590  1.9823  0.1882  1.0511
  572TMC3    C7 8543   4.389   0.745   0.365  0.3217 -0.0601  0.0511
  572TMC3    C8 8544   4.158   0.428   0.657  0.3149 -0.0520 -0.0551
  572TMC3    O1 8545   4.407   0.774   0.246  0.2184 -0.4877  0.0268
  572TMC3    O2 8546   4.101   0.315   0.656  0.0150  0.2773  0.2153
  573MPD2     C 8547   1.650   0.770   1.492 -0.0974  0.3562  0.1807
  573MPD2    C1 8548   1.547   0.860   1.492  0.2636  0.1591  0.0809
  573MPD2    C2 8549   1.430   0.833   1.424  0.4702  0.2005 -0.3508
  573MPD2    C3 8550   1.421   0.714   1.350  0.3014  0.5374  0.2173
  573MPD2    C4 8551   1.530   0.629   1.351  0.0362 -0.4586 -0.0669
  573MPD2    C5 8552   1.642   0.654   1.420  0.2004  0.1512 -0.1631
  573MPD2     H 8553   1.344   0.898   1.416  1.0553  1.0439  0.2149
  573MPD2    H1 8554   1.519   0.534   1.301 -1.8441 -0.7567  0.9129
  573MPD2    H2 8555   1.742   0.793   1.545  1.3445  0.3059 -2.3181
  573MPD2    H3 8556   1.731   0.592   1.417 -0.5149 -0.8803  0.3867
  573MPD2     N 8557   1.318   0.677   1.262  0.1059 -0.1867  0.4834
  573MPD2    H5 8558   1.322   0.583   1.224 -1.2576  0.3601 -1.0409
  573MPD2    N1 8559   1.566   0.979   1.569  0.2948  0.2752 -0.0009
  573MPD2    H7 8560   1.653   1.001   1.615  1.0483  1.3443 -1.9384
  574TMC3    C1 8561   1.127   0.718   1.121  0.2015 -0.1113 -0.0055
  574TMC3    C2 8562   1.017   0.799   1.100  0.2870 -0.5925  0.7419
  574TMC3    C3 8563   0.951   0.785   0.982  0.8402 -0.5887  0.1168
  574TMC3    C4 8564   1.168   0.625   1.028 -0.5500 -0.0692  0.1658
  574TMC3    C5 8565   1.097   0.613   0.912 -0.5220 -0.5666 -0.0986
  574TMC3    C6 8566   0.983   0.690   0.890  0.0795 -0.0114  0.0176
  574TMC3     C 8567   1.212   0.759   1.232  1.1899  0.5068  0.1691
  574TMC3     O 8568   1.181   0.866   1.282  0.0715 -0.5417 -1.1168
  574TMC3     H 8569   0.981   0.870   1.174 -0.6144  0.5007 -0.7501
  574TMC3    H1 8570   1.267   0.580   1.028  0.1142  1.3694  0.1605
  574TMC3    H2 8571   0.916   0.668   0.807 -2.0263  1.7865  1.2451
  574TMC3    C7 8572   1.151   0.524   0.811  0.3216  0.1437  0.0396
  574TMC3    C8 8573   0.826   0.853   0.977  0.0348  0.0871  0.2137
  574TMC3    O1 8574   1.243   0.451   0.839 -0.6114 -0.3642  0.2789
  574TMC3    O2 8575   0.772   0.894   1.076  0.4128  0.2157 -1.0517
  575TMC3    C1 8576   3.585   1.848  10.958  0.4615 -0.3663  0.2797
  575TMC3    C2 8577   3.522   1.730  10.933  0.1060 -0.3878  0.2411
  575TMC3    C3 8578   3.446   1.728  10.819 -0.4969  0.6010  0.1308
  575TMC3    C4 8579   3.562   1.959  10.878 -0.1098 -0.2160  0.3549
  575TMC3    C5 8580   3.487   1.949  10.766  0.7625  0.3909 -0.0454
  575TMC3    C6 8581   3.417   1.835  10.739 -0.4864  0.4281 -0.1435
  575TMC3     C 8582   3.638   1.868  11.092 -0.0237  0.6488 -0.4552
  575TMC3     O 8583   3.623   1.780  11.173  0.3472  0.3389  0.0316
  575TMC3     H 8584   3.533   1.644  10.999  1.4462 -0.7641 -0.4837
  575TMC3    H1 8585   3.605   2.057  10.895  1.3502 -0.6752 -0.7041
  575TMC3    H2 8586   3.335   1.827  10.670 -2.2522  1.3652  1.8325
  575TMC3    C7 8587   3.474   2.072  10.689 -0.1603  0.1836  0.3599
  575TMC3    C8 8588   3.388   1.596  10.784 -0.2134 -0.4237 -0.0184
  575TMC3    O1 8589   3.476   2.179  10.746 -0.2122  0.7371 -0.3117
  575TMC3    O2 8590   3.378   1.508  10.868 -0.3978  0.1266  0.1205
  576MPD2     C 8591   3.295   3.656  12.482 -0.9911 -1.3286  0.9439
  576MPD2    C1 8592   3.330   3.771  12.413 -0.6945  0.2480  0.6796
  576MPD2    C2 8593   3.241   3.880  12.414 -0.2252  1.0573 -0.5013
  576MPD2    C3 8594   3.136   3.865  12.499 -0.1269  0.2901  0.2793
  576MPD2    C4 8595   3.098   3.747  12.549  0.1296 -0.3249  0.4149
  576MPD2    C5 8596   3.180   3.638  12.555  0.3979 -0.0510 -0.2048
  576MPD2     H 8597   3.263   3.970  12.358 -0.9510  1.2207 -0.5261
  576MPD2    H1 8598   3.004   3.728  12.601  0.6701  1.5819  2.1149
  576MPD2    H2 8599   3.360   3.571  12.463 -0.8083 -0.5593 -1.8957
  576MPD2    H3 8600   3.173   3.543  12.606 -1.3858  1.9043  3.1871
  576MPD2     N 8601   3.054   3.982  12.518  0.3645 -0.3510 -0.4134
  576MPD2    H5 8602   3.102   4.055  12.466 -0.9465 -0.7647 -2.1860
  576MPD2    N1 8603   3.455   3.789  12.342  0.5250 -0.0244 -0.5872
  576MPD2    H7 8604   3.469   3.879  12.299  0.2260  0.7229  0.8726
  577TMC3    C1 8605   3.658   3.738  12.221  0.3646 -0.3016 -0.1577
  577TMC3    C2 8606   3.732   3.636  12.172  0.1199  0.0615  0.0649
  577TMC3    C3 8607   3.848   3.658  12.106  0.6019  0.6062 -0.2965
  577TMC3    C4 8608   3.708   3.861  12.231  0.3654 -0.0077  1.0626
  577TMC3    C5 8609   3.839   3.880  12.183 -0.1789  0.0849 -0.1246
  577TMC3    C6 8610   3.907   3.779  12.119 -0.1486  0.5839  0.1746
  577TMC3     C 8611   3.560   3.699  12.319  0.4116  0.0449  0.3789
  577TMC3     O 8612   3.554   3.577  12.348  0.6717 -0.1224  0.2056
  577TMC3     H 8613   3.689   3.537  12.160  1.2621 -0.6887  2.1765
  577TMC3    H1 8614   3.674   3.932  12.306  1.6729  2.5289 -0.7111
  577TMC3    H2 8615   4.009   3.798  12.086  0.5056  1.6780  2.8385
  577TMC3    C7 8616   3.895   4.011  12.187  0.3949 -0.1069 -0.0426
  577TMC3    C8 8617   3.921   3.548  12.071  0.2327  0.6237 -0.3280
  577TMC3    O1 8618   4.018   4.018  12.191 -0.4180  0.2530 -0.2379
  577TMC3    O2 8619   3.898   3.450  12.137  0.3981 -0.3820  0.0464
  578MPD2     C 8620   0.983   2.874   1.274  0.3563  0.1666  0.1202
  578MPD2    C1 8621   1.045   2.796   1.180 -0.0353 -0.3920 -0.4154
  578MPD2    C2 8622   1.184   2.778   1.186 -0.4403 -0.1990  0.1609
  578MPD2    C3 8623   1.264   2.831   1.289 -0.4873 -0.0229  0.1172
  578MPD2    C4 8624   1.198   2.911   1.383 -0.0877 -0.2031 -0.8845
  578MPD2    C5 8625   1.056   2.936   1.368 -0.2744  0.0120  0.0424
  578MPD2     H 8626   1.230   2.708   1.117  2.2173  2.3855 -0.7170
  578MPD2    H1 8627   1.253   2.960   1.463 -1.6661 -1.8703  1.2139
  578MPD2    H2 8628   0.877   2.894   1.268  0.2327 -0.1682  1.0578
  578MPD2    H3 8629   0.993   2.985   1.441  1.0486  1.1614  0.4289
  578MPD2     N 8630   1.398   2.794   1.292  0.5944 -0.2078 -0.6959
  578MPD2    H5 8631   1.427   2.726   1.222  0.7690  1.5905 -2.3552
  578MPD2    N1 8632   0.964   2.753   1.075 -0.0866 -0.3938  0.4383
  578MPD2    H7 8633   0.869   2.789   1.069 -0.1862 -1.3643 -3.7129
  579TMC3    C1 8634   1.621   2.818   1.351 -0.4601  0.2190  0.4508
  579TMC3    C2 8635   1.715   2.838   1.449  0.3576 -0.6077 -0.1602
  579TMC3    C3 8636   1.843   2.809   1.422  0.0477  0.0798 -0.1703
  579TMC3    C4 8637   1.658   2.775   1.224 -0.4091  0.0939 -0.6801
  579TMC3    C5 8638   1.794   2.744   1.218  0.2123 -0.3748  0.2606
  579TMC3    C6 8639   1.892   2.755   1.314  0.6582  0.3961 -0.0191
  579TMC3     C 8640   1.481   2.828   1.393 -0.5318  0.1981  0.6391
  579TMC3     O 8641   1.461   2.904   1.485  0.2957 -0.9236  0.9927
  579TMC3     H 8642   1.682   2.880   1.543 -1.8427  1.8956 -2.0503
  579TMC3    H1 8643   1.590   2.767   1.140 -0.6124 -1.3146 -0.3807
  579TMC3    H2 8644   1.993   2.726   1.289 -0.4501 -3.1196 -0.3876
  579TMC3    C7 8645   1.839   2.699   1.088 -0.1058  0.2136 -0.2164
  579TMC3    C8 8646   1.939   2.835   1.522  0.0556  1.2230  0.0915
  579TMC3    O1 8647   1.948   2.748   1.058 -0.0776  0.5388 -0.0210
  579TMC3    O2 8648   1.907   2.814   1.635 -0.0894 -0.0483 -0.1740
  580TMC3    C1 8649   1.652   2.290  12.745 -0.4985 -0.4802  0.6134
  580TMC3    C2 8650   1.757   2.357  12.694 -0.9028 -0.8638 -0.1955
  580TMC3    C3 8651   1.886   2.339  12.735 -0.2613 -0.1551 -0.0549
  580TMC3    C4 8652   1.659   2.205  12.855 -0.5865  0.1164 -0.1007
  580TMC3    C5 8653   1.793   2.187  12.891 -0.1737  0.6773  0.4669
  580TMC3    C6 8654   1.907   2.247  12.836  0.3267 -0.1383 -0.4049
  580TMC3     C 8655   1.528   2.350  12.708 -0.3635 -0.1231  0.0301
  580TMC3     O 8656   1.511   2.359  12.582 -0.2057 -0.1529  0.1575
  580TMC3     H 8657   1.728   2.440  12.631  1.8797  0.8867  0.8310
  580TMC3    H1 8658   1.565   2.176  12.901  0.1398 -2.1372 -0.0394
  580TMC3    H2 8659   2.007   2.247  12.877  0.2513 -0.8957 -0.2294
  580TMC3    C7 8660   1.811   2.106  13.006  0.4146  0.0776 -0.0765
  580TMC3    C8 8661   1.982   2.439  12.690 -0.6463 -0.3128 -0.3460
  580TMC3    O1 8662   1.711   2.086  13.070 -0.3092  0.1163 -0.0017
  580TMC3    O2 8663   2.072   2.462  12.774  0.3132  0.0911  0.2470
  581MPD2     C 8664   3.850   2.128  14.853 -0.0922 -0.5129  0.5048
  581MPD2    C1 8665   3.723   2.102  14.899  0.1474 -0.7497 -0.1515
  581MPD2    C2 8666   3.622   2.178  14.851 -0.2716  0.3557  0.5618
  581MPD2    C3 8667   3.640   2.296  14.772  0.1559 -0.1413 -0.1040
  581MPD2    C4 8668   3.771   2.321  14.727 -0.1047  0.5027 -0.8037
  581MPD2    C5 8669   3.870   2.230  14.760  1.0960 -0.1346 -0.0861
  581MPD2     H 8670   3.520   2.154  14.879 -0.2349  0.9606  1.2026
  581MPD2    H1 8671   3.781   2.386  14.641 -1.9347  1.1073 -0.5705
  581MPD2    H2 8672   3.927   2.053  14.864  0.9724  0.7065  1.3444
  581MPD2    H3 8673   3.969   2.242  14.717 -0.0518  3.4849 -1.7624
  581MPD2     N 8674   3.529   2.366  14.722  0.2006  0.1543  0.0549
  581MPD2    H5 8675   3.434   2.330  14.731  0.6777 -1.0721  0.1625
  581MPD2    N1 8676   3.703   1.985  14.977  0.2082 -0.6175 -0.1384
  581MPD2    H7 8677   3.783   1.931  15.006  0.0725  0.1095  1.5642
  582TMC3    C1 8678   3.600   1.790  15.058 -0.2802 -0.4654 -0.3541
  582TMC3    C2 8679   3.706   1.760  15.141 -0.5131  0.6822 -0.1218
  582TMC3    C3 8680   3.700   1.644  15.209 -0.3137  0.0231  0.7804
  582TMC3    C4 8681   3.488   1.711  15.047  0.1895 -0.1976 -0.5782
  582TMC3    C5 8682   3.489   1.593  15.117  0.3354 -0.0812 -0.0863
  582TMC3    C6 8683   3.601   1.557  15.182 -0.9527  0.1907  0.7473
  582TMC3     C 8684   3.584   1.924  15.007  0.0953  0.2184 -0.4728
  582TMC3     O 8685   3.472   1.975  15.019 -1.1942  0.1920 -0.0966
  582TMC3     H 8686   3.784   1.834  15.154  1.0846 -1.1574  0.7271
  582TMC3    H1 8687   3.405   1.747  14.987 -1.0638 -2.4008 -0.1743
  582TMC3    H2 8688   3.606   1.466  15.242  1.9895 -0.8099 -1.0168
  582TMC3    C7 8689   3.378   1.579  15.203  0.1487  0.2275  0.1103
  582TMC3    C8 8690   3.734   1.655  15.351  0.3945 -0.1880  0.1220
  582TMC3    O1 8691   3.367   1.481  15.281 -0.6565  0.1100 -0.0451
  582TMC3    O2 8692   3.713   1.766  15.396 -0.0170  0.4280 -0.3894
  583MPD2     C 8693   3.410   4.024  16.594  0.6801  0.1624 -0.3724
  583MPD2    C1 8694   3.483   4.118  16.523  0.4607  0.3750 -1.1451
  583MPD2    C2 8695   3.500   4.244  16.571 -0.1576  0.1395  0.7651
  583MPD2    C3 8696   3.445   4.271  16.699 -0.5952 -0.2006  0.3674
  583MPD2    C4 8697   3.379   4.173  16.774  0.4766  0.2272  0.3866
  583MPD2    C5 8698   3.363   4.050  16.718  0.5776  0.2316 -0.1501
  583MPD2     H 8699   3.560   4.318  16.520  0.8758  0.1695  2.0089
  583MPD2    H1 8700   3.340   4.178  16.876  0.3648 -0.7962  0.3890
  583MPD2    H2 8701   3.394   3.922  16.563 -0.8387  0.1540  0.4212
  583MPD2    H3 8702   3.321   3.966  16.772  1.2285  0.3874  0.5932
  583MPD2     N 8703   3.464   4.404  16.752  0.0055 -0.1607 -0.1860
  583MPD2    H5 8704   3.534   4.460  16.703 -0.0044 -0.0188 -0.0397
  583MPD2    N1 8705   3.559   4.076  16.409 -0.9260 -0.0612  0.1245
  583MPD2    H7 8706   3.634   4.138  16.380 -0.7315  1.1699  3.2431
  584TMC3    C1 8707   3.449   4.568  16.935 -0.8590 -0.6521 -0.1795
  584TMC3    C2 8708   3.561   4.632  16.885 -0.0544 -0.8221  0.1756
  584TMC3    C3 8709   3.626   4.711  16.974 -0.0955  0.0016  0.6252
  584TMC3    C4 8710   3.398   4.597  17.057  0.7694  0.0701  0.2346
  584TMC3    C5 8711   3.470   4.673  17.138 -0.5614  0.3982  0.0538
  584TMC3    C6 8712   3.575   0.011  17.095  0.0811  0.9335 -0.1216
  584TMC3     C 8713   3.402   4.447  16.869 -0.2094  0.1735 -0.8055
  584TMC3     O 8714   3.314   4.396  16.939 -0.2464  0.4346  0.3011
  584TMC3     H 8715   3.603   4.616  16.787 -0.3761  2.0551 -0.4395
  584TMC3    H1 8716   3.306   4.549  17.089 -0.2015  1.6960 -0.1257
  584TMC3    H2 8717   3.616   0.089  17.158  2.5755  1.6039 -2.5810
  584TMC3    C7 8718   3.432   4.664  17.279 -0.0801  0.5348  0.3601
  584TMC3    C8 8719   3.746   0.045  16.918 -0.6746  0.3020  0.4772
  584TMC3    O1 8720   3.369   4.567  17.314 -0.6528  0.1692 -0.4447
  584TMC3    O2 8721   3.758   0.041  16.796  0.9333 -0.4817  0.1858
  585MPD2     C 8722   2.932   2.497   0.730  0.5897 -0.1038  0.3625
  585MPD2    C1 8723   3.016   2.507   0.622  0.6145 -0.2917 -0.8345
  585MPD2    C2 8724   2.998   2.418   0.516 -0.2008 -0.4412  0.1692
  585MPD2    C3 8725   2.891   2.323   0.516 -0.7620 -0.0844 -0.1485
  585MPD2    C4 8726   2.800   2.324   0.619  0.0052 -0.0046 -0.0977
  585MPD2    C5 8727   2.822   2.411   0.722  0.3303  0.0174 -0.3290
  585MPD2     H 8728   3.046   2.436   0.421 -0.8584  0.9447  0.0947
  585MPD2    H1 8729   2.726   2.245   0.631 -0.7617  1.1558  2.6611
  585MPD2    H2 8730   2.944   2.554   0.822 -1.6389 -0.0701  0.6209
  585MPD2    H3 8731   2.750   2.414   0.803  1.3282  0.3649  0.5384
  585MPD2     N 8732   2.856   2.247   0.409  0.1091  0.5033 -0.4763
  585MPD2    H5 8733   2.759   2.217   0.401  0.9277 -1.9473 -1.4754
  585MPD2    N1 8734   3.112   2.609   0.619 -0.4050 -0.2869  0.5380
  585MPD2    H7 8735   3.101   2.690   0.679 -0.8404  0.3479 -0.3988
  586TMC3    C1 8736   2.866   2.252   0.177 -0.7846 -0.4806  0.1913
  586TMC3    C2 8737   2.952   2.268   0.073 -0.4647  0.2209  1.1344
  586TMC3    C3 8738   2.905   2.348  17.718  0.1654  0.3645  0.0429
  586TMC3    C4 8739   2.740   2.313   0.187  0.5309 -0.2179  0.2371
  586TMC3    C5 8740   2.705   2.405   0.090  0.1670  0.0825 -0.9416
  586TMC3    C6 8741   2.789   2.424  17.727  0.4735 -0.3200  0.0780
  586TMC3     C 8742   2.939   2.239   0.302  0.2203 -0.2195 -0.2875
  586TMC3     O 8743   3.064   2.230   0.306  0.6611 -0.0532 -0.1933
  586TMC3     H 8744   3.048   2.221   0.055 -1.0962 -0.3733 -0.6536
  586TMC3    H1 8745   2.675   2.307   0.273 -0.4497  0.0295 -0.4959
  586TMC3    H2 8746   2.782   2.507  17.657  0.7112  1.4181  2.1300
  586TMC3    C7 8747   2.562   2.421   0.060 -0.3702  0.8419  0.0185
  586TMC3    C8 8748   2.932   2.300  17.584  0.3088 -0.1715  0.3396
  586TMC3    O1 8749   2.490   2.334   0.102 -0.2498  0.0930 -0.2491
  586TMC3    O2 8750   3.030   2.231  17.573 -0.3666 -0.3125 -0.0964
  587TMC3    C1 8751   0.611   1.479  16.385 -0.4265 -0.2405  0.4575
  587TMC3    C2 8752   0.630   1.579  16.481  0.5180 -0.5017  0.8333
  587TMC3    C3 8753   0.739   1.575  16.565 -0.3950  0.1846 -0.3109
  587TMC3    C4 8754   0.700   1.370  16.381  0.5821  0.1745  0.6654
  587TMC3    C5 8755   0.809   1.367  16.466  0.0750 -0.0515 -0.0642
  587TMC3    C6 8756   0.833   1.474  16.556  0.2719 -0.1418 -0.0642
  587TMC3     C 8757   0.481   1.451  16.328  0.4259 -0.3033 -0.4087
  587TMC3     O 8758   0.473   1.403  16.218  0.5423  0.0519  0.2129
  587TMC3     H 8759   0.564   1.664  16.475  1.1159 -0.1549 -1.0083
  587TMC3    H1 8760   0.687   1.287  16.313  0.1525  0.3056  0.5883
  587TMC3    H2 8761   0.911   1.478  16.631 -0.0044  0.4788  0.1946
  587TMC3    C7 8762   0.833   1.239  16.513 -0.4585 -0.5914  0.2167
  587TMC3    C8 8763   0.736   1.663  16.683 -0.2683 -0.9722 -0.5678
  587TMC3    O1 8764   0.743   1.159  16.492  0.5422  0.0004 -0.8141
  587TMC3    O2 8765   0.820   1.626  16.762  0.2164 -0.7325 -0.2059
  588TMC3    C1 8766   3.135   0.292  10.038 -0.2043 -0.4612 -0.3526
  588TMC3    C2 8767   3.088   0.169  10.072 -0.1172  0.2256  0.1150
  588TMC3    C3 8768   3.183   0.071  10.076 -0.4599 -0.1537 -0.2654
  588TMC3    C4 8769   3.267   0.316  10.006  0.2132 -0.2155 -0.2370
  588TMC3    C5 8770   3.356   0.218  10.022 -0.4956 -1.0585 -0.4578
  588TMC3    C6 8771   3.315   0.098  10.066 -0.8298  0.4651  0.3511
  588TMC3     C 8772   3.051   0.404  10.064  1.0118  0.1269  0.3143
  588TMC3     O 8773   2.929   0.399  10.049  0.6501 -0.6287 -0.2125
  588TMC3     H 8774   2.983   0.160  10.096 -0.2204 -0.2221 -0.4860
  588TMC3    H1 8775   3.301   0.404   9.952  1.9008  0.9716  2.7679
  588TMC3    H2 8776   3.383   0.020  10.098  0.3844  0.5896 -1.9278
  588TMC3    C7 8777   3.494   0.242  10.015 -0.2026  0.3851  0.5587
  588TMC3    C8 8778   3.137   4.673  10.062  0.2773  0.1727 -0.9920
  588TMC3    O1 8779   3.571   0.148   9.981 -0.6298  0.3669 -0.3647
  588TMC3    O2 8780   3.025   4.655  10.014  0.1584  1.0384  0.0302
  589TMC3    C1 8781   1.917   1.839   1.515 -0.5845 -0.3187 -0.2528
  589TMC3    C2 8782   2.009   1.791   1.608 -0.0199  0.3666 -0.2674
  589TMC3    C3 8783   2.091   1.694   1.560 -0.1162  0.0830  0.2160
  589TMC3    C4 8784   1.878   1.781   1.399  0.1316  0.0837  1.1043
  589TMC3    C5 8785   1.964   1.674   1.363 -0.9583  0.3688 -0.0799
  589TMC3    C6 8786   2.082   1.640   1.433  0.1035  0.1532 -0.5305
  589TMC3     C 8787   1.844   1.957   1.564  0.4187 -0.0415  0.1830
  589TMC3     O 8788   1.750   1.991   1.493 -0.2194  0.1929  0.2522
  589TMC3     H 8789   2.012   1.816   1.714 -1.2757 -1.6538  0.2488
  589TMC3    H1 8790   1.793   1.812   1.340  0.7516  1.4922  0.9262
  589TMC3    H2 8791   2.157   1.573   1.391  1.1920 -0.7719  2.8618
  589TMC3    C7 8792   1.941   1.579   1.258 -0.2957  0.0546  0.0028
  589TMC3    C8 8793   2.196   1.650   1.644  0.0229 -0.0576  0.1379
  589TMC3    O1 8794   2.018   1.488   1.238  0.1384  0.3626  0.0250
  589TMC3    O2 8795   2.176   1.652   1.765  0.6367 -0.0564  0.1202
  590MPD2     C 8796   1.261   4.178  16.623  0.0236  0.4235 -0.4681
  590MPD2    C1 8797   1.231   4.310  16.664 -0.3379  0.9482 -0.0880
  590MPD2    C2 8798   1.328   4.406  16.642  0.2870 -0.8292 -0.2286
  590MPD2    C3 8799   1.448   4.383  16.580  0.0273  0.0337  0.4777
  590MPD2    C4 8800   1.473   4.255  16.546  0.8764  0.3938  0.0857
  590MPD2    C5 8801   1.380   4.157  16.565  0.6038  0.2856 -0.2824
  590MPD2     H 8802   1.320   4.512  16.663  1.9159 -1.1320  1.8740
  590MPD2    H1 8803   1.553   4.222  16.480  0.8947 -2.2788  1.4528
  590MPD2    H2 8804   1.194   4.095  16.642  1.9568 -0.8482  0.7709
  590MPD2    H3 8805   1.411   4.057  16.537 -0.6502 -0.2721  0.3124
  590MPD2     N 8806   1.528   4.497  16.562 -0.1127  0.4562 -0.4862
  590MPD2    H5 8807   1.487   4.586  16.589 -2.6020 -0.8354  0.0439
  590MPD2    N1 8808   1.112   4.343  16.735 -0.8456  0.1635 -0.5600
  590MPD2    H7 8809   1.055   4.261  16.756  1.8905 -1.8739 -1.1017
  591TMC3    C1 8810   1.715   4.635  16.520  1.0264  0.5257 -0.2893
  591TMC3    C2 8811   1.808   4.644  16.418 -0.2510 -0.3899  1.3684
  591TMC3    C3 8812   1.842   0.032  16.381  0.3432 -0.0381  0.6152
  591TMC3    C4 8813   1.662   0.010  16.578  0.0958  0.0776 -0.6838
  591TMC3    C5 8814   1.712   0.137  16.542  0.2963 -0.5140 -0.3856
  591TMC3    C6 8815   1.797   0.149  16.435  0.6165  0.1556  0.0781
  591TMC3     C 8816   1.657   4.502  16.524  0.3437  0.6145  0.6817
  591TMC3     O 8817   1.710   4.403  16.473 -0.3984  0.0967 -0.0764
  591TMC3     H 8818   1.860   4.557  16.380  1.6298  1.9531 -1.4043
  591TMC3    H1 8819   1.603   0.004  16.669 -1.3731  1.6659 -1.5501
  591TMC3    H2 8820   1.821   0.245  16.393  1.1541  0.2802  0.6673
  591TMC3    C7 8821   1.618   0.243  16.566 -0.3369 -0.1735 -0.1822
  591TMC3    C8 8822   1.907   0.034  16.246 -0.1165 -0.4304  0.2282
  591TMC3    O1 8823   1.502   0.214  16.592 -0.0178  0.2032  0.4026
  591TMC3    O2 8824   1.912   4.660  16.195  0.0361 -0.9190  0.2953
  592MPD2     C 8825   2.250   2.515  11.623 -0.2078  0.0212  0.1498
  592MPD2    C1 8826   2.244   2.490  11.759  0.9792  0.3329 -0.7022
  592MPD2    C2 8827   2.135   2.421  11.818  0.4794  0.2895  0.2702
  592MPD2    C3 8828   2.027   2.391  11.725  0.7729  0.2947  0.0551
  592MPD2    C4 8829   2.036   2.425  11.590  1.1483 -0.0740 -0.0776
  592MPD2    C5 8830   2.148   2.487  11.544 -0.2864 -0.7291  0.9227
  592MPD2     H 8831   2.138   2.399  11.924 -0.0762 -0.2190  0.1783
  592MPD2    H1 8832   1.955   2.419  11.517 -0.1352 -1.5704  1.4445
  592MPD2    H2 8833   2.341   2.564  11.592 -0.0305 -0.1367  0.4255
  592MPD2    H3 8834   2.167   2.516  11.441 -0.6344  0.3956  1.1791
  592MPD2     N 8835   1.912   2.335  11.786  0.0715 -0.2728  0.0205
  592MPD2    H5 8836   1.919   2.318  11.886  1.3967 -1.7717 -0.3179
  592MPD2    N1 8837   2.353   2.537  11.835 -0.4866 -0.5651 -0.4682
  592MPD2    H7 8838   2.423   2.590  11.784 -1.5071  1.6097  0.4105
  593TMC3    C1 8839   2.492   2.619  12.009 -0.0611  0.1395 -0.4115
  593TMC3    C2 8840   2.489   2.688  12.124 -0.6543  0.5439 -0.7994
  593TMC3    C3 8841   2.600   2.755  12.167 -0.0612  0.2173  0.2432
  593TMC3    C4 8842   2.606   2.608  11.937  0.0903  0.0779  0.8097
  593TMC3    C5 8843   2.715   2.676  11.983 -0.8162 -0.7773  0.4200
  593TMC3    C6 8844   2.724   2.738  12.108 -0.3518  0.4323 -0.1951
  593TMC3     C 8845   2.368   2.551  11.970  1.0753  0.2986 -0.4070
  593TMC3     O 8846   2.292   2.515  12.061 -0.5079 -0.2040 -0.2196
  593TMC3     H 8847   2.392   2.705  12.170  0.0066  1.0031  0.4292
  593TMC3    H1 8848   2.618   2.557  11.842  1.1341  2.5157 -0.3533
  593TMC3    H2 8849   2.811   2.801  12.123 -0.3992  0.3494  0.4094
  593TMC3    C7 8850   2.839   2.664  11.900 -0.1088  0.0579 -0.4659
  593TMC3    C8 8851   2.597   2.849  12.275  0.5884 -0.2085  0.6277
  593TMC3    O1 8852   2.828   2.643  11.779 -0.2305  0.7981 -0.1006
  593TMC3    O2 8853   2.488   2.872  12.329  0.2953 -0.0106  0.1301
  594MPD2     C 8854   0.922   0.228  15.036 -0.3607  0.3790  0.2209
  594MPD2    C1 8855   0.855   0.339  14.984  0.0373 -0.5410 -0.5666
  594MPD2    C2 8856   0.930   0.455  14.957  0.1026 -0.6169  0.1385
  594MPD2    C3 8857   1.063   0.460  14.979 -0.0726 -0.1608  0.0094
  594MPD2    C4 8858   1.129   0.353  15.039 -0.8779 -0.0040 -0.3588
  594MPD2    C5 8859   1.056   0.237  15.071 -0.3914 -0.1497 -0.1733
  594MPD2     H 8860   0.883   0.542  14.912 -0.3050 -1.0495 -0.2613
  594MPD2    H1 8861   1.237   0.351  15.051 -0.6589 -1.6279 -2.5907
  594MPD2    H2 8862   0.868   0.142  15.074 -1.1611  0.7268 -0.1205
  594MPD2    H3 8863   1.105   0.147  15.106 -1.9829 -1.8751 -2.3842
  594MPD2     N 8864   1.129   0.579  14.940 -0.5677  0.1117  0.6339
  594MPD2    H5 8865   1.087   0.651  14.883  0.5840  0.4876  0.2491
  594MPD2    N1 8866   0.715   0.327  14.957 -0.0527  0.0432 -0.3039
  594MPD2    H7 8867   0.675   0.238  14.984 -3.2031  1.6548  0.2754
  595TMC3    C1 8868   1.474   0.815  14.761  0.0882 -1.0602  0.2003
  595TMC3    C2 8869   1.440   0.737  14.873  0.1385 -0.8378  0.2514
  595TMC3    C3 8870   1.310   0.737  14.909  0.8574  0.8562 -0.7379
  595TMC3    C4 8871   1.376   0.894  14.706  0.0131 -0.4237  0.2470
  595TMC3    C5 8872   1.248   0.902  14.763 -0.2690 -0.1389  0.4371
  595TMC3    C6 8873   1.209   0.819  14.862 -0.4429  0.0084  0.0755
  595TMC3     C 8874   1.590   0.892  14.790 -0.2290  0.0275  0.2015
  595TMC3     O 8875   1.650   0.872  14.894 -0.5107  0.0127 -0.3537
  595TMC3     H 8876   1.519   0.685  14.926 -0.7254 -1.6334  0.7650
  595TMC3    H1 8877   1.384   0.925  14.603 -1.3392  0.1801  0.3290
  595TMC3    H2 8878   1.107   0.830  14.898 -0.1843  1.6541  0.2994
  595TMC3    C7 8879   1.199   1.037  14.784 -0.1161  0.4585  0.3602
  595TMC3    C8 8880   1.266   0.611  14.971  0.1684  0.0136  0.6092
  595TMC3    O1 8881   1.097   1.050  14.852  0.1682  0.1109  0.7395
  595TMC3    O2 8882   1.341   0.549  15.045 -0.0987 -0.3183  0.2928
  596MPD2     C 8883   4.268   3.414  16.897 -0.4115  0.0380 -0.1277
  596MPD2    C1 8884   4.263   3.526  16.821 -0.2801  0.1045 -0.7660
  596MPD2    C2 8885   4.276   3.519  16.682  0.1889 -0.5783 -0.2357
  596MPD2    C3 8886   4.315   3.410  16.616  0.1027 -0.4151 -0.5878
  596MPD2    C4 8887   4.351   3.302  16.696  0.6031 -0.1011 -0.7659
  596MPD2    C5 8888   4.315   3.305  16.827  0.2882  0.0091 -0.4702
  596MPD2     H 8889   4.266   3.612  16.627 -0.6637 -0.1470  0.6363
  596MPD2    H1 8890   4.382   3.205  16.659  2.1843  0.5554 -1.1499
  596MPD2    H2 8891   4.248   3.413  17.004 -0.9323  2.6431 -0.1912
  596MPD2    H3 8892   4.323   3.223  16.897  1.6723  1.9959  1.7381
  596MPD2     N 8893   4.330   3.406  16.473 -0.4091  0.0511  0.0008
  596MPD2    H5 8894   4.361   3.317  16.435 -1.0927  0.4118 -1.4081
  596MPD2    N1 8895   4.225   3.648  16.874  0.1343  0.0576 -0.4616
  596MPD2    H7 8896   4.223   3.730  16.813 -0.5011  0.4112  0.0267
  597TMC3    C1 8897   4.146   3.820  17.014 -0.2561  0.1426  0.5928
  597TMC3    C2 8898   4.199   3.918  16.933 -0.3192  0.4620 -0.4317
  597TMC3    C3 8899   4.146   4.046  16.941  0.2537  0.0781  0.5780
  597TMC3    C4 8900   4.062   3.850  17.119 -1.3635  0.6014 -0.7245
  597TMC3    C5 8901   4.014   3.985  17.123 -0.3002 -0.1896  1.3888
  597TMC3    C6 8902   4.058   4.085  17.043 -0.1421 -0.3417 -0.4425
  597TMC3     C 8903   4.186   3.677  17.002 -0.3591  0.5124 -0.1214
  597TMC3     O 8904   4.178   3.598  17.097  0.1434 -0.2871  0.5284
  597TMC3     H 8905   4.291   3.897  16.880  0.0789  0.8705  0.0920
  597TMC3    H1 8906   4.028   3.771  17.185 -1.3793  0.7759 -0.5229
  597TMC3    H2 8907   4.015   4.184  17.041 -0.3724 -0.4350 -0.0493
  597TMC3    C7 8908   3.955   4.035  17.255  0.3318 -0.4201  0.0312
  597TMC3    C8 8909   4.220   4.156  16.880 -0.4502 -0.2850  0.0233
  597TMC3    O1 8910   3.945   3.954  17.346  0.4321  0.2121  0.3536
  597TMC3    O2 8911   4.199   4.263  16.936 -0.1589  0.2041 -0.2101
  598TMC3    C1 8912   2.684   0.302  15.408 -0.2514  0.0249 -0.1092
  598TMC3    C2 8913   2.711   0.171  15.374  0.5197 -0.3250 -0.3338
  598TMC3    C3 8914   2.673   0.139  15.244  0.5019 -0.1029  0.4577
  598TMC3    C4 8915   2.633   0.399  15.327 -0.4486 -1.1828 -0.2054
  598TMC3    C5 8916   2.616   0.372  15.195  0.4209  0.4715  0.7299
  598TMC3    C6 8917   2.636   0.238  15.156  0.3918 -0.5593 -0.1370
  598TMC3     C 8918   2.716   0.353  15.543 -0.1177  0.1476  0.3192
  598TMC3     O 8919   2.759   0.467  15.554  0.0788  0.6382  0.7607
  598TMC3     H 8920   2.751   0.100  15.445 -2.8103 -2.0613 -0.2092
  598TMC3    H1 8921   2.611   0.497  15.366 -0.9458 -1.4538  0.1972
  598TMC3    H2 8922   2.654   0.218  15.051 -1.2775  1.5446 -0.8277
  598TMC3    C7 8923   2.616   0.472  15.083  0.0011 -0.4605  0.7025
  598TMC3    C8 8924   2.691   0.001  15.198 -0.4142 -0.0476  0.0654
  598TMC3    O1 8925   2.593   0.425  14.972  0.5812 -0.5366 -0.0318
  598TMC3    O2 8926   2.746   4.659  15.278  0.4050 -0.2664  0.6107
  599MPD2     C 8927   2.868   2.733  16.135  0.0957  0.0480  0.0491
  599MPD2    C1 8928   2.769   2.638  16.126 -0.0346 -0.0261 -1.0470
  599MPD2    C2 8929   2.641   2.672  16.165 -0.4029  0.2273 -0.1202
  599MPD2    C3 8930   2.607   2.804  16.205 -0.0369 -0.6449 -0.3724
  599MPD2    C4 8931   2.712   2.898  16.213  0.0049  0.1545  0.3503
  599MPD2    C5 8932   2.840   2.861  16.179  0.3791 -0.2464 -0.0819
  599MPD2     H 8933   2.557   2.604  16.151  0.0512 -0.2276 -0.6165
  599MPD2    H1 8934   2.706   2.996  16.260 -0.2080  0.0042  0.6375
  599MPD2    H2 8935   2.972   2.711  16.115 -0.4857 -0.5153 -2.3319
  599MPD2    H3 8936   2.922   2.928  16.203 -1.7676  1.4520  2.4431
  599MPD2     N 8937   2.482   2.846  16.248  0.1200  0.9015 -0.5035
  599MPD2    H5 8938   2.485   2.944  16.274  2.4827  0.8386 -0.5393
  599MPD2    N1 8939   2.817   2.515  16.079  0.0439  0.0477  0.1267
  599MPD2    H7 8940   2.912   2.526  16.043 -0.0386 -1.1304 -0.4505
  600TMC3    C1 8941   2.257   2.848  16.320  0.6341  0.2156  0.4460
  600TMC3    C2 8942   2.161   2.780  16.394  0.5014  0.9154 -0.3664
  600TMC3    C3 8943   2.075   2.850  16.477  0.0320 -0.7456 -0.4373
  600TMC3    C4 8944   2.267   2.986  16.341  0.8036  1.0172 -0.0099
  600TMC3    C5 8945   2.177   3.055  16.414  0.3706  0.0762 -0.3050
  600TMC3    C6 8946   2.081   2.986  16.483 -0.5828  0.6237  0.4171
  600TMC3     C 8947   2.369   2.770  16.269  0.9263  0.3516 -0.1803
  600TMC3     O 8948   2.362   2.648  16.252  0.4999  0.4757 -0.5806
  600TMC3     H 8949   2.159   2.672  16.392  0.2514  0.9043  0.5372
  600TMC3    H1 8950   2.330   3.043  16.274 -0.4947  1.9897 -0.4178
  600TMC3    H2 8951   2.014   3.030  16.555 -0.3143 -0.0995  1.1171
  600TMC3    C7 8952   2.171   3.197  16.401  0.7291  0.0015 -0.5286
  600TMC3    C8 8953   1.958   2.787  16.545 -0.5074 -0.0651 -0.0538
  600TMC3    O1 8954   2.068   3.239  16.448 -0.1863 -0.6029 -0.4151
  600TMC3    O2 8955   1.927   2.823  16.655  0.3027 -0.4394  0.0195
  601MPD2     C 8956   4.529   1.221   0.497  0.0899 -0.3001 -0.0299
  601MPD2    C1 8957   4.506   1.170   0.370  0.5612 -0.1376 -0.5103
  601MPD2    C2 8958   4.473   1.035   0.361 -0.2821 -0.6358  0.7305
  601MPD2    C3 8959   4.464   0.953   0.474  0.6613  0.0690 -0.3215
  601MPD2    C4 8960   4.489   1.012   0.600  0.3334 -0.3792 -0.0397
  601MPD2    C5 8961   4.524   1.142   0.605 -0.0729 -0.1060  0.2116
  601MPD2     H 8962   4.439   0.995   0.266 -1.9725 -0.7964  1.4045
  601MPD2    H1 8963   4.485   0.960   0.695  0.1287 -1.4910 -0.6487
  601MPD2    H2 8964   4.552   1.327   0.509  1.0562 -0.3759 -1.1693
  601MPD2    H3 8965   4.535   1.197   0.698  1.0301 -0.9155  0.5511
  601MPD2     N 8966   4.427   0.817   0.476  0.0148  0.6743 -0.4204
  601MPD2    H5 8967   4.415   0.774   0.568  0.4488  1.7434  0.1348
  601MPD2    N1 8968   4.493   1.251   0.257  0.3297  0.8111 -0.5714
  601MPD2    H7 8969   4.474   1.204   0.170 -1.7432 -0.3789  0.5243
  602TMC3    C1 8970   4.453   1.439   0.121  0.2746 -0.1419  0.4607
  602TMC3    C2 8971   4.350   1.527   0.108 -0.6941  0.0617  0.6089
  602TMC3    C3 8972   4.304   1.561  17.724 -0.2045 -0.1679 -0.2061
  602TMC3    C4 8973   4.496   1.372   0.012  1.0727  0.0056  0.0419
  602TMC3    C5 8974   4.446   1.396  17.631  0.1337  0.2405 -0.3116
  602TMC3    C6 8975   4.353   1.496  17.614 -0.2430  0.2220 -0.0966
  602TMC3     C 8976   4.478   1.390   0.256 -0.0025 -0.3425 -0.5625
  602TMC3     O 8977   4.456   1.470   0.348  0.4866 -0.0654 -0.1196
  602TMC3     H 8978   4.300   1.557   0.199 -2.6107  0.8524 -0.7145
  602TMC3    H1 8979   4.568   1.291   0.017 -0.1667 -1.1125 -0.0751
  602TMC3    H2 8980   4.309   1.532  17.522  0.8172  1.0445 -0.2746
  602TMC3    C7 8981   4.417   1.275  17.556  0.7423  0.5320 -0.2574
  602TMC3    C8 8982   4.167   1.544  17.714 -0.4588 -0.7222  0.6772
  602TMC3    O1 8983   4.494   1.179  17.547  0.0933  0.0447 -0.2439
  602TMC3    O2 8984   4.124   1.481  17.621  0.6086 -0.3761 -0.5503
  603TMC3    C1 8985   2.962   2.107  10.599 -0.0322 -0.8878 -0.7772
  603TMC3    C2 8986   3.040   2.042  10.694  0.0668 -0.5150  0.6257
  603TMC3    C3 8987   3.130   2.126  10.760 -0.2924  0.0603 -0.2660
  603TMC3    C4 8988   2.973   2.239  10.571  0.3721 -0.7592  0.2421
  603TMC3    C5 8989   3.056   2.317  10.648  0.0407  0.2206  0.2372
  603TMC3    C6 8990   3.136   2.266  10.748  0.2974 -1.6122  0.1404
  603TMC3     C 8991   2.862   2.026  10.536 -0.2825  0.9622  0.4764
  603TMC3     O 8992   2.880   1.903  10.541  0.1844 -0.0991 -0.5669
  603TMC3     H 8993   3.040   1.936  10.718  0.5219 -0.5802  0.3434
  603TMC3    H1 8994   2.919   2.283  10.488 -0.3312  0.8683  1.5670
  603TMC3    H2 8995   3.220   2.313  10.797  0.5188 -0.3819 -1.4261
  603TMC3    C7 8996   3.062   2.459  10.634 -0.5783  0.4932  0.2517
  603TMC3    C8 8997   3.187   2.064  10.872 -0.1800  0.4008 -0.1876
  603TMC3    O1 8998   3.137   2.510  10.717 -0.1400  0.1263 -0.2572
  603TMC3    O2 8999   3.186   1.938  10.878 -0.1918 -0.3272  0.0098
  604MPD2     C 9000   3.960   0.287  16.407 -0.1465 -0.7122  0.5514
  604MPD2    C1 9001   3.838   0.231  16.404 -0.9830 -0.7518  0.3104
  604MPD2    C2 9002   3.793   0.161  16.288  0.1661  0.4885  0.8243
  604MPD2    C3 9003   3.879   0.143  16.176 -0.2468 -0.2495 -0.4556
  604MPD2    C4 9004   4.007   0.203  16.188 -0.4309 -0.1761 -0.3572
  604MPD2    C5 9005   4.047   0.265  16.306 -0.0507 -0.0707  0.3826
  604MPD2     H 9006   3.694   0.117  16.281  1.0812 -1.4538  0.0814
  604MPD2    H1 9007   4.064   0.209  16.096 -0.4951 -2.1007 -0.5232
  604MPD2    H2 9008   3.991   0.341  16.496  0.9098  0.9158 -0.8102
  604MPD2    H3 9009   4.144   0.315  16.306  0.2125 -0.5777 -0.8767
  604MPD2     N 9010   3.829   0.083  16.051 -0.6081 -0.3168  0.0227
  604MPD2    H5 9011   3.732   0.055  16.043 -0.3639 -1.0103 -0.5580
  604MPD2    N1 9012   3.752   0.255  16.518  0.3921  0.3033 -0.6354
  604MPD2    H7 9013   3.781   0.321  16.590  0.0633 -0.9491  0.6373
  605TMC3    C1 9014   3.566   0.253  16.654 -0.0924  0.6482 -0.0368
  605TMC3    C2 9015   3.638   0.324  16.750 -0.5017  0.3562  0.3306
  605TMC3    C3 9016   3.565   0.392  16.843  0.1238  0.9187  0.4606
  605TMC3    C4 9017   3.433   0.244  16.657  0.0574  0.5888 -0.0330
  605TMC3    C5 9018   3.356   0.313  16.757 -0.3538  0.2221  0.3261
  605TMC3    C6 9019   3.427   0.392  16.848  0.2167  0.0444 -0.1816
  605TMC3     C 9020   3.629   0.209  16.533  0.4698  0.2062  0.4547
  605TMC3     O 9021   3.558   0.151  16.455  0.0448 -0.1857 -0.2336
  605TMC3     H 9022   3.746   0.317  16.761 -0.6097 -2.0852 -0.0842
  605TMC3    H1 9023   3.383   0.175  16.591 -3.0158  2.9419 -0.1756
  605TMC3    H2 9024   3.371   0.456  16.915 -1.2317 -0.3945 -0.9760
  605TMC3    C7 9025   3.224   0.344  16.717 -0.2872 -0.1508  0.4541
  605TMC3    C8 9026   3.640   0.455  16.948  0.0393  0.1827 -0.0275
  605TMC3    O1 9027   3.178   0.458  16.742 -1.4464 -0.3771  0.1691
  605TMC3    O2 9028   3.582   0.470  17.055  0.0466  0.4635  0.2631
  606TMC3    C1 9029   4.682   3.823  17.528  0.4552  0.8280  0.2517
  606TMC3    C2 9030   4.715   3.768  17.649 -0.1490  0.3669  0.2228
  606TMC3    C3 9031   4.733   3.634  17.650 -0.3588  0.1431  0.1506
  606TMC3    C4 9032   4.686   3.757  17.410 -0.2715  0.2393 -0.1034
  606TMC3    C5 9033   4.704   3.624  17.420  0.2036  0.3767  0.8161
  606TMC3    C6 9034   4.732   3.559  17.538  0.4542  0.7603  0.1155
  606TMC3     C 9035   4.647   3.961  17.520 -0.2800  0.5452  0.3816
  606TMC3     O 9036   4.662   4.016  17.412 -0.4893 -0.1243  0.2128
  606TMC3     H 9037   4.736   3.831  17.734  0.3052 -0.0882  0.4508
  606TMC3    H1 9038   4.661   3.805  17.316 -1.2421 -2.0972 -1.0315
  606TMC3    H2 9039   0.018   3.454  17.550 -1.8395  0.4463  1.4997
  606TMC3    C7 9040   4.645   3.547  17.311 -0.0088 -0.4408 -0.8691
  606TMC3    C8 9041   0.002   3.559   0.031 -0.2428 -0.3363  0.5589
  606TMC3    O1 9042   4.648   3.599  17.204 -0.4676  0.0029  0.0760
  606TMC3    O2 9043   0.073   3.459   0.034 -0.3322 -0.0197  0.1879
  607MPD2     C 9044   2.181   2.007  11.498  0.0508  0.6530 -0.6645
  607MPD2    C1 9045   2.287   2.012  11.592 -0.8827  0.3259  0.3786
  607MPD2    C2 9046   2.309   1.911  11.683 -0.0767 -0.0862 -0.2431
  607MPD2    C3 9047   2.224   1.797  11.682 -0.8213  0.4513 -0.4196
  607MPD2    C4 9048   2.123   1.786  11.584  0.1732  0.1851  0.0174
  607MPD2    C5 9049   2.103   1.894  11.496 -0.5398  0.5490 -0.1884
  607MPD2     H 9050   2.391   1.911  11.754 -0.8083  1.5882  0.6018
  607MPD2    H1 9051   2.056   1.703  11.563  1.2406 -0.7815  0.4397
  607MPD2    H2 9052   2.154   2.077  11.420  1.6082 -0.0444 -1.8202
  607MPD2    H3 9053   2.029   1.881  11.418  0.2319 -1.1897 -0.6490
  607MPD2     N 9054   2.251   1.696  11.777 -0.3825  0.9951  0.5286
  607MPD2    H5 9055   2.316   1.718  11.851  0.5229  1.1404 -0.3141
  607MPD2    N1 9056   2.380   2.116  11.602  0.1085  0.2068 -0.1191
  607MPD2    H7 9057   2.457   2.101  11.666  0.5225  0.8859 -0.4623
  608TMC3    C1 9058   2.500   2.316  11.562 -0.4447  0.0890 -0.2101
  608TMC3    C2 9059   2.535   2.291  11.693 -0.2837 -0.6315  0.4296
  608TMC3    C3 9060   2.658   2.330  11.737  0.1987 -0.6185  0.2592
  608TMC3    C4 9061   2.590   2.360  11.472  0.1422  0.8062 -0.3207
  608TMC3    C5 9062   2.716   2.384  11.515  0.1883 -0.1665  0.0995
  608TMC3    C6 9063   2.755   2.369  11.648 -0.1736  0.1957 -0.1074
  608TMC3     C 9064   2.391   2.222  11.511  0.3580 -0.4596  0.4284
  608TMC3     O 9065   2.346   2.239  11.399  0.1877  0.4203 -0.0209
  608TMC3     H 9066   2.453   2.298  11.764 -0.6984  2.7589 -0.3869
  608TMC3    H1 9067   2.565   2.371  11.367 -1.2788  0.5774 -0.0016
  608TMC3    H2 9068   2.844   2.419  11.685 -1.1929  0.3928  2.0684
  608TMC3    C7 9069   2.820   2.421  11.416  0.2977  0.6503 -0.4371
  608TMC3    C8 9070   2.714   2.278  11.865 -0.3070  0.5461  0.0386
  608TMC3    O1 9071   2.783   2.464  11.308  0.4361  0.5832  0.4426
  608TMC3    O2 9072   2.836   2.291  11.882 -0.5385  0.6419 -0.3459
  609TMC3    C1 9073   1.299   1.365   9.027 -0.7254 -0.3143 -0.4511
  609TMC3    C2 9074   1.350   1.491   9.039  0.3827  0.1425  0.7657
  609TMC3    C3 9075   1.469   1.519   8.983 -0.1115  0.4182  0.0800
  609TMC3    C4 9076   1.370   1.265   8.968 -0.2031 -0.1533 -0.3705
  609TMC3    C5 9077   1.495   1.298   8.917  0.1954 -0.4915  0.5306
  609TMC3    C6 9078   1.550   1.422   8.924  0.4654 -0.2197  0.0806
  609TMC3     C 9079   1.178   1.324   9.099  0.0282  0.5150 -0.1458
  609TMC3     O 9080   1.174   1.206   9.135  0.6807 -0.2701 -0.3788
  609TMC3     H 9081   1.299   1.555   9.111  0.2492  0.1476  0.6656
  609TMC3    H1 9082   1.323   1.168   8.957  0.3709 -0.6093  1.2575
  609TMC3    H2 9083   1.644   1.446   8.877 -0.6137  0.9999 -1.4431
  609TMC3    C7 9084   1.580   1.188   8.883  0.1536 -0.1839  0.0053
  609TMC3    C8 9085   1.516   1.653   8.973  0.5624  0.1683 -0.1352
  609TMC3    O1 9086   1.693   1.200   8.925  0.7881 -0.5740 -0.6665
  609TMC3    O2 9087   1.634   1.667   8.933  0.2119  0.2926  0.6056
  610TMC3    C1 9088   2.511   1.849  13.278  0.3854  1.0654 -0.0216
  610TMC3    C2 9089   2.479   1.910  13.158  0.0396  0.5719 -0.2165
  610TMC3    C3 9090   2.564   1.896  13.050 -0.0243 -0.6092  0.3365
  610TMC3    C4 9091   2.626   1.783  13.289 -0.0585  0.3390  0.5043
  610TMC3    C5 9092   2.713   1.779  13.181 -0.4532  0.3174  0.4361
  610TMC3    C6 9093   2.683   1.826  13.053 -0.0805 -0.4989 -0.7294
  610TMC3     C 9094   2.410   1.832  13.380 -0.1421 -0.5274 -0.0709
  610TMC3     O 9095   2.401   1.726  13.435  0.1770  0.0533 -0.6094
  610TMC3     H 9096   2.383   1.959  13.152  0.4581  1.5006  0.6192
  610TMC3    H1 9097   2.655   1.723  13.375 -0.7077 -1.2598 -0.4045
  610TMC3    H2 9098   2.761   1.821  12.977 -1.0874 -2.2166 -1.6629
  610TMC3    C7 9099   2.842   1.709  13.195  0.2332 -0.0806 -0.4231
  610TMC3    C8 9100   2.520   1.959  12.929 -0.2015 -0.1566  0.8185
  610TMC3    O1 9101   2.896   1.662  13.097 -0.3219 -0.2988 -0.3060
  610TMC3    O2 9102   2.400   1.974  12.918 -0.6077  0.7346  0.2524
  611MPD2     C 9103   2.274   2.362   9.884  0.3358  0.0537  1.0637
  611MPD2    C1 9104   2.195   2.396   9.993  0.2534  0.3470  0.5977
  611MPD2    C2 9105   2.204   2.527  10.049  0.6081  0.8296  0.0188
  611MPD2    C3 9106   2.295   2.619   9.997  0.3499 -0.1524 -0.1946
  611MPD2    C4 9107   2.367   2.590   9.881  0.2915  0.2292 -1.1064
  611MPD2    C5 9108   2.352   2.463   9.828  0.0055  0.4519 -0.6745
  611MPD2     H 9109   2.135   2.550  10.129  1.8467  1.0447  1.0195
  611MPD2    H1 9110   2.434   2.656   9.827  3.2190 -1.5222  0.3841
  611MPD2    H2 9111   2.262   2.272   9.825 -0.1946  0.9605 -0.2204
  611MPD2    H3 9112   2.413   2.431   9.745 -0.3523  0.9991 -1.1442
  611MPD2     N 9113   2.313   2.741  10.061  0.1136  0.4049  0.4266
  611MPD2    H5 9114   2.386   2.793  10.014  0.4747 -0.5650 -0.0881
  611MPD2    N1 9115   2.104   2.309  10.054 -0.0140 -0.2864 -0.0217
  611MPD2    H7 9116   2.031   2.341  10.117 -0.6860  0.2525 -1.0728
  612TMC3    C1 9117   2.318   2.915  10.223  0.9073  0.1478  0.5448
  612TMC3    C2 9118   2.452   2.901  10.251 -0.5643  0.3213  0.3958
  612TMC3    C3 9119   2.513   3.007  10.312  0.2750 -0.1667  0.3208
  612TMC3    C4 9120   2.237   3.022  10.253 -0.6033 -0.0226 -0.4296
  612TMC3    C5 9121   2.305   3.120  10.318 -0.2913 -0.4440 -1.3634
  612TMC3    C6 9122   2.439   3.118  10.344  0.0036 -0.0869 -0.7625
  612TMC3     C 9123   2.257   2.790  10.179 -0.4960  0.1048 -0.0801
  612TMC3     O 9124   2.141   2.768  10.212 -0.5955  0.2752  0.2696
  612TMC3     H 9125   2.508   2.815  10.216 -0.0936  0.6648  0.3143
  612TMC3    H1 9126   2.130   3.017  10.237 -0.7159  0.2067  0.2439
  612TMC3    H2 9127   2.485   3.202  10.395  0.3345 -0.9043  0.2635
  612TMC3    C7 9128   2.234   3.255  10.346  0.2211  0.2496 -1.0965
  612TMC3    C8 9129   2.637   2.994  10.383  0.4542  0.3988 -0.2585
  612TMC3    O1 9130   2.306   3.343  10.384 -0.0269  0.6293  0.0162
  612TMC3    O2 9131   2.688   3.096  10.415 -0.2938 -0.3310  0.5228
  613MPD2     C 9132   0.452   3.811  16.769 -0.2199  0.2151  0.2699
  613MPD2    C1 9133   0.452   3.732  16.654 -0.3682  0.3184  0.4560
  613MPD2    C2 9134   0.367   3.620  16.667 -0.2940  0.6407 -0.0859
  613MPD2    C3 9135   0.310   3.575  16.788 -0.3158 -0.0411  0.2559
  613MPD2    C4 9136   0.316   3.660  16.895  0.7181  0.4265  0.5322
  613MPD2    C5 9137   0.390   3.774  16.886 -0.1375 -0.3355  0.5143
  613MPD2     H 9138   0.376   3.553  16.582 -0.5295 -0.0476  0.4290
  613MPD2    H1 9139   0.281   3.638  16.996  1.3205  0.0693  0.6637
  613MPD2    H2 9140   0.511   3.901  16.780 -0.3459  0.1012  1.9734
  613MPD2    H3 9141   0.398   3.834  16.976  0.4164 -0.3326  0.4672
  613MPD2     N 9142   0.259   3.447  16.783  0.0964 -0.4919 -0.2682
  613MPD2    H5 9143   0.270   3.386  16.703 -2.1932 -1.8393  0.4439
  613MPD2    N1 9144   0.499   3.765  16.529 -0.3553  0.5924 -0.8742
  613MPD2    H7 9145   0.478   3.698  16.455 -1.4265 -0.2512  0.1981
  614TMC3    C1 9146   0.576   3.862  16.353  0.0360 -0.0754 -0.5061
  614TMC3    C2 9147   0.620   3.739  16.311  0.0270  0.4323 -0.2821
  614TMC3    C3 9148   0.553   3.679  16.203 -0.3465  0.5751  0.1981
  614TMC3    C4 9149   0.486   3.933  16.283  0.4561 -0.1039 -0.8001
  614TMC3    C5 9150   0.423   3.871  16.177  0.3014  0.0661 -0.1113
  614TMC3    C6 9151   0.457   3.750  16.133  0.2229 -0.0391 -0.4664
  614TMC3     C 9152   0.553   3.876  16.493  0.1021 -0.0018 -0.6057
  614TMC3     O 9153   0.540   3.986  16.547  0.1529  0.8500 -0.6975
  614TMC3     H 9154   0.691   3.679  16.366  0.1437  1.7976  1.0289
  614TMC3    H1 9155   0.442   4.024  16.322  1.4979  0.4411 -0.8753
  614TMC3    H2 9156   0.391   3.699  16.064 -0.7245  1.3129 -0.5431
  614TMC3    C7 9157   0.365   3.970  16.078  0.1022  0.8339  0.3018
  614TMC3    C8 9158   0.525   3.540  16.227 -0.1291 -0.1102 -0.2080
  614TMC3    O1 9159   0.305   4.067  16.119  0.1674  0.1958  0.2143
  614TMC3    O2 9160   0.538   3.512  16.345 -0.2250 -0.0785 -0.1797
  615MPD2     C 9161   1.169   0.293  16.335  0.3120  0.5961 -0.0935
  615MPD2    C1 9162   1.047   0.331  16.378  0.6840  1.0681 -0.1655
  615MPD2    C2 9163   0.998   0.462  16.361 -0.4534  0.9904 -0.3900
  615MPD2    C3 9164   1.080   0.557  16.297  0.0849 -0.1270 -0.2120
  615MPD2    C4 9165   1.208   0.519  16.259  0.1240  0.0855  0.6444
  615MPD2    C5 9166   1.255   0.391  16.281 -0.0307 -0.2429  0.7648
  615MPD2     H 9167   0.894   0.483  16.382  0.1619  2.4330  1.2090
  615MPD2    H1 9168   1.281   0.588  16.219 -0.1186  0.5565  1.0192
  615MPD2    H2 9169   1.201   0.190  16.337  1.3347  0.9229  0.2726
  615MPD2    H3 9170   1.352   0.357  16.248  0.5343  1.4982  0.6663
  615MPD2     N 9171   1.032   0.683  16.268  0.6147  0.2131  0.0861
  615MPD2    H5 9172   1.087   0.742  16.207 -0.6427  0.5837 -0.6891
  615MPD2    N1 9173   0.961   0.245  16.449 -0.5000 -0.1084 -0.4058
  615MPD2    H7 9174   0.875   0.289  16.478  1.9198  1.1752  4.8300
  616TMC3    C1 9175   0.871   0.071  16.561  0.1469  0.1761  0.1099
  616TMC3    C2 9176   0.883   0.111  16.688  0.0715  0.3149 -0.0699
  616TMC3    C3 9177   0.781   0.195  16.738 -0.2610 -0.4997  0.2808
  616TMC3    C4 9178   0.764   0.103  16.483  0.2297  0.1723 -0.4046
  616TMC3    C5 9179   0.658   0.170  16.540 -0.3168  1.0568 -0.3965
  616TMC3    C6 9180   0.664   0.224  16.665 -0.6348  0.0428 -0.3873
  616TMC3     C 9181   0.979   0.116  16.482  0.4236 -0.2430 -0.2116
  616TMC3     O 9182   1.077   0.043  16.480  0.4055  0.7774 -0.4174
  616TMC3     H 9183   0.977   0.089  16.737 -0.1271  0.8385  0.5434
  616TMC3    H1 9184   0.762   0.063  16.383  0.9191 -2.5854  0.6897
  616TMC3    H2 9185   0.580   0.271  16.713 -1.7073 -0.3547 -1.8732
  616TMC3    C7 9186   0.563   0.226  16.442  0.0254 -0.3055 -0.1672
  616TMC3    C8 9187   0.815   0.286  16.845 -0.2890  0.5440 -0.8366
  616TMC3    O1 9188   0.549   0.161  16.339 -0.6766 -0.2576 -0.1021
  616TMC3    O2 9189   0.728   0.359  16.891 -0.0904 -0.1504 -0.4035
  617MPD2     C 9190   3.708   3.721  13.884  0.2253 -0.2851 -0.7909
  617MPD2    C1 9191   3.683   3.592  13.931  0.3076 -0.7405 -0.4465
  617MPD2    C2 9192   3.561   3.531  13.914  0.1155  0.6128 -0.3542
  617MPD2    C3 9193   3.470   3.591  13.831  1.1479 -0.2932 -0.0680
  617MPD2    C4 9194   3.501   3.714  13.779  0.2488 -0.2088  0.2964
  617MPD2    C5 9195   3.618   3.780  13.803 -0.1775 -0.6656 -0.7175
  617MPD2     H 9196   3.528   3.442  13.966  1.2974 -0.4114 -1.3669
  617MPD2    H1 9197   3.445   3.758  13.697  1.3915 -0.5920 -0.7058
  617MPD2    H2 9198   3.807   3.765  13.886 -0.5989  1.5699 -0.5426
  617MPD2    H3 9199   3.634   3.875  13.754  0.5963  0.7908  2.4321
  617MPD2     N 9200   3.345   3.520  13.810 -0.2183 -0.0374  0.1550
  617MPD2    H5 9201   3.325   3.437  13.865 -0.6391 -0.3420 -0.4652
  617MPD2    N1 9202   3.768   3.516  14.013 -0.2051 -0.7971 -0.9801
  617MPD2    H7 9203   3.732   3.432  14.057 -1.4047  0.0599 -0.2986
  618TMC3    C1 9204   3.977   3.426  14.072  0.6958 -0.3885 -0.5306
  618TMC3    C2 9205   3.934   3.311  14.017 -0.3202  0.7791 -0.2802
  618TMC3    C3 9206   4.023   3.225  13.952  0.6539 -0.4227  0.5369
  618TMC3    C4 9207   4.109   3.445  14.087  0.3502  0.0600  0.0139
  618TMC3    C5 9208   4.199   3.370  14.025 -0.5893  0.2495 -0.0849
  618TMC3    C6 9209   4.156   3.262  13.951 -1.2529 -0.2887 -0.6446
  618TMC3     C 9210   3.901   3.540  14.037  0.7680  0.1009 -0.3929
  618TMC3     O 9211   3.955   3.642  14.011  0.2686  0.2351 -0.2129
  618TMC3     H 9212   3.828   3.290  14.001 -0.3149  1.3382 -1.0283
  618TMC3    H1 9213   4.145   3.542  14.122  1.5731  0.1218 -1.3947
  618TMC3    H2 9214   4.235   3.206  13.903 -1.0506 -0.1165 -0.5150
  618TMC3    C7 9215   4.343   3.408  14.033 -0.4800  0.2094  0.1738
  618TMC3    C8 9216   3.961   3.168  13.826 -0.4848  1.0636  0.6529
  618TMC3    O1 9217   4.386   3.427  14.143  0.8298 -0.0646 -0.1613
  618TMC3    O2 9218   3.841   3.153  13.822  0.3309 -0.4685 -0.3407
  619MPD2     C 9219   0.011   0.194  13.735 -0.0183  0.1891  0.6555
  619MPD2    C1 9220   4.651   0.291  13.697  0.6019 -0.9756  0.1053
  619MPD2    C2 9221   4.520   0.256  13.676  0.2238 -0.3031 -0.5195
  619MPD2    C3 9222   4.470   0.129  13.696  0.2932 -0.3995 -0.1646
  619MPD2    C4 9223   4.565   0.036  13.725  0.0354 -0.2575  0.1005
  619MPD2    C5 9224   4.697   0.067  13.744  0.0524  0.4711  0.3444
  619MPD2     H 9225   4.448   0.325  13.636  0.1289 -0.3538 -0.4369
  619MPD2    H1 9226   4.535   4.670  13.742 -2.2347  0.0480 -2.0983
  619MPD2    H2 9227   0.116   0.220  13.744  0.3071 -0.8233 -0.2784
  619MPD2    H3 9228   0.024   4.718  13.769 -0.1523 -0.0031 -0.7615
  619MPD2     N 9229   4.332   0.090  13.686 -0.1796 -0.5756 -0.0209
  619MPD2    H5 9230   4.306   4.728  13.693 -2.0150 -0.1631 -0.8862
  619MPD2    N1 9231   4.703   0.414  13.670  0.1664 -0.4372 -0.3136
  619MPD2    H7 9232   0.048   0.439  13.725  0.3380 -1.4499 -0.1034
  620TMC3    C1 9233   4.706   0.618  13.555  0.2579  0.2567  0.0432
  620TMC3    C2 9234   4.704   0.671  13.432  0.4004 -0.1487 -0.0422
  620TMC3    C3 9235   4.715   0.808  13.427  0.2894 -0.0127 -0.1765
  620TMC3    C4 9236   4.733   0.685  13.668  0.0648  0.1513  0.1675
  620TMC3    C5 9237   0.027   0.820  13.653  0.1492  0.2393  0.2927
  620TMC3    C6 9238   0.022   0.880  13.529  0.1955 -0.3044 -0.1477
  620TMC3     C 9239   4.661   0.490  13.563 -0.5296  0.6549 -0.1791
  620TMC3     O 9240   4.623   0.441  13.455  0.6085 -0.2124 -0.1027
  620TMC3     H 9241   4.675   0.622  13.340  0.0005  0.5154 -0.2759
  620TMC3    H1 9242   0.000   0.635  13.764  2.4173  0.4221  0.2361
  620TMC3    H2 9243   0.004   0.985  13.512  0.3904 -0.4336 -1.1270
  620TMC3    C7 9244   0.000   0.913  13.766  0.3436 -0.4045 -0.4333
  620TMC3    C8 9245   4.626   0.879  13.337 -0.2880 -0.1880  0.3741
  620TMC3    O1 9246   4.689   0.865  13.868 -0.9452  0.4237 -0.3319
  620TMC3    O2 9247   4.671   0.985  13.293  0.5071 -0.4163  0.0473
  621MPD2     C 9248   1.174   0.022   9.684  0.6666 -0.3929  0.8977
  621MPD2    C1 9249   1.142   0.066   9.559  0.1568  0.8315 -0.4285
  621MPD2    C2 9250   1.157   0.201   9.542 -0.6537 -1.1712 -0.4080
  621MPD2    C3 9251   1.174   0.290   9.645  0.5748 -0.3951  0.7018
  621MPD2    C4 9252   1.199   0.246   9.771 -0.0870  0.7309  0.2565
  621MPD2    C5 9253   1.199   0.109   9.787  0.2521 -0.4625  0.3353
  621MPD2     H 9254   1.134   0.240   9.443 -1.3899 -0.8029 -0.0902
  621MPD2    H1 9255   1.215   0.310   9.857 -0.1681  0.2158  0.6542
  621MPD2    H2 9256   1.190   4.653   9.703 -1.8557 -1.1217 -1.0128
  621MPD2    H3 9257   1.209   0.063   9.884  0.4380  1.1583  1.0887
  621MPD2     N 9258   1.157   0.426   9.621 -0.5130  0.4494  0.1659
  621MPD2    H5 9259   1.163   0.462   9.526  1.2847 -0.9273 -0.2426
  621MPD2    N1 9260   1.105   4.722   9.451  0.1139 -0.3015 -0.0240
  621MPD2    H7 9261   1.078   0.028   9.363 -2.0832  0.6615  1.1285
  622TMC3    C1 9262   1.009   4.545   9.351  0.0869  0.7943 -0.1441
  622TMC3    C2 9263   1.027   4.414   9.317  0.0974  0.5048  0.0465
  622TMC3    C3 9264   0.929   4.343   9.261 -0.5240  0.3029  0.1990
  622TMC3    C4 9265   0.891   4.610   9.334 -0.3850 -0.1418 -0.1761
  622TMC3    C5 9266   0.792   4.537   9.275 -0.8585  0.0621 -0.4919
  622TMC3    C6 9267   0.805   4.407   9.231 -0.2293  1.2102  0.0845
  622TMC3     C 9268   1.086   4.587   9.457 -0.2215  0.4680 -0.0627
  622TMC3     O 9269   1.125   4.505   9.538  0.4331  0.1238  0.3726
  622TMC3     H 9270   1.124   4.371   9.342 -1.3744 -2.3619  0.7834
  622TMC3    H1 9271   0.881   4.710   9.373 -2.5388 -1.1420  1.8193
  622TMC3    H2 9272   0.719   4.352   9.193  1.1147 -0.5925 -0.3511
  622TMC3    C7 9273   0.654   4.584   9.308 -0.3949 -0.1460  0.0821
  622TMC3    C8 9274   0.960   4.204   9.224  0.1120 -0.6210 -0.1854
  622TMC3    O1 9275   0.574   4.497   9.315  0.0185  0.4233  0.2155
  622TMC3    O2 9276   1.070   4.193   9.176 -0.2448  0.0856  0.0680
  623MPD2     C 9277   4.238   0.876  15.958  0.0248 -0.6742 -0.1422
  623MPD2    C1 9278   4.174   0.778  16.030 -0.0512 -0.9970  0.1015
  623MPD2    C2 9279   4.220   0.759  16.157  0.3956  0.1574 -0.0912
  623MPD2    C3 9280   4.309   0.851  16.217 -0.8478 -0.6743 -0.4136
  623MPD2    C4 9281   4.356   0.956  16.144  0.9039 -0.3137 -0.6052
  623MPD2    C5 9282   4.328   0.963  16.009  0.6359  0.7783  0.0059
  623MPD2     H 9283   4.190   0.668  16.209 -1.1797  1.0207  0.5021
  623MPD2    H1 9284   4.436   1.018  16.182  0.0845 -1.3668  2.8280
  623MPD2    H2 9285   4.224   0.882  15.850 -3.7999  1.2629  0.4623
  623MPD2    H3 9286   4.368   1.045  15.950  2.3378 -0.0938 -0.0432
  623MPD2     N 9287   4.347   0.824  16.349  0.2797 -0.3069 -0.1244
  623MPD2    H5 9288   4.298   0.748  16.396  0.0720 -1.0623 -1.5432
  623MPD2    N1 9289   4.071   0.706  15.957  0.7104 -0.4444  0.1517
  623MPD2    H7 9290   4.060   0.715  15.856 -0.5027  0.6616  0.3849
  624TMC3    C1 9291   4.568   0.742  16.741  0.0009  0.0125 -0.8770
  624TMC3    C2 9292   4.447   0.720  16.804  0.4437 -0.4294 -0.1544
  624TMC3    C3 9293   4.330   0.745  16.737 -0.1234 -0.4471  0.5687
  624TMC3    C4 9294   4.574   0.815  16.620  0.4067  0.0817 -0.3053
  624TMC3    C5 9295   4.451   0.838  16.558 -0.1690  0.4700  0.2353
  624TMC3    C6 9296   4.333   0.799  16.616 -0.0183 -0.1872 -0.2805
  624TMC3     C 9297   4.685   0.749  16.822 -0.2096 -0.5187  0.6434
  624TMC3     O 9298   4.685   0.771  16.945  0.6897  0.2094  0.4446
  624TMC3     H 9299   4.441   0.664  16.896 -0.0788 -0.7021 -0.3481
  624TMC3    H1 9300   4.662   0.863  16.579  2.0868 -0.7777  2.2971
  624TMC3    H2 9301   4.243   0.830  16.565  0.7078  1.1316 -0.7571
  624TMC3    C7 9302   4.450   0.868  16.420 -0.8015 -0.4038 -0.0434
  624TMC3    C8 9303   4.204   0.718  16.784 -0.0753  0.3755 -0.0975
  624TMC3    O1 9304   4.552   0.928  16.378 -0.5400  0.5216  0.4790
  624TMC3    O2 9305   4.127   0.674  16.699  0.2086  0.4118 -0.8448
  625MPD2     C 9306   4.605   1.700   1.076  0.2772  0.2068  0.5278
  625MPD2    C1 9307   4.612   1.818   1.010 -0.0516  0.8847 -0.3084
  625MPD2    C2 9308   0.001   1.859   0.960  0.5662  0.1038  0.1769
  625MPD2    C3 9309   0.117   1.790   0.983 -0.0352 -0.5843  0.0971
  625MPD2    C4 9310   0.108   1.675   1.056 -0.1279 -0.2204 -0.3075
  625MPD2    C5 9311   4.721   1.634   1.101 -0.2028 -0.0228 -0.5964
  625MPD2     H 9312   0.005   1.954   0.908  1.5699 -0.0207  0.0249
  625MPD2    H1 9313   0.195   1.620   1.090 -0.6150 -0.2512  0.8922
  625MPD2    H2 9314   4.515   1.663   1.124  0.6117 -2.0682 -0.6112
  625MPD2    H3 9315   4.709   1.540   1.155 -1.5883  0.4179 -0.1457
  625MPD2     N 9316   0.237   1.844   0.935 -0.4291  0.5821  0.7547
  625MPD2    H5 9317   0.233   1.918   0.866  0.5561  0.1080  0.1873
  625MPD2    N1 9318   4.498   1.893   0.983  0.0752  0.1235 -0.0776
  625MPD2    H7 9319   4.509   1.968   0.916  0.0236  0.8051  0.6764
  626TMC3    C1 9320   4.279   1.976   0.994  0.0671  0.4526 -0.2267
  626TMC3    C2 9321   4.282   2.009   0.859  0.2249  0.0880 -0.0995
  626TMC3    C3 9322   4.188   2.100   0.821  0.3606  1.0960  0.2493
  626TMC3    C4 9323   4.197   2.046   1.090  0.3872  0.5470 -0.4130
  626TMC3    C5 9324   4.105   2.128   1.037  0.6908 -0.0356 -0.7450
  626TMC3    C6 9325   4.104   2.166   0.908  0.3270  0.1677 -0.8876
  626TMC3     C 9326   4.382   1.899   1.055  0.4168 -0.3175 -0.0605
  626TMC3     O 9327   4.356   1.853   1.165 -0.4605  0.6457 -0.7239
  626TMC3     H 9328   4.356   1.961   0.796  1.2058 -0.6621  1.6244
  626TMC3    H1 9329   4.199   2.022   1.195  2.0000  1.2860 -0.2787
  626TMC3    H2 9330   4.031   2.230   0.859  0.9675  1.2919 -0.3686
  626TMC3    C7 9331   4.006   2.186   1.124 -0.4674  0.5583  0.0295
  626TMC3    C8 9332   4.142   2.101   0.684  0.2054 -0.1412  1.3626
  626TMC3    O1 9333   4.025   2.158   1.245  0.1001 -0.3198  0.2964
  626TMC3    O2 9334   4.222   2.145   0.601 -0.1052  0.3270  0.5400
  627MPD2     C 9335   3.293   2.081  14.176  0.2583 -0.5609  0.3615
  627MPD2    C1 9336   3.206   2.158  14.252  0.8853  0.0127 -0.1090
  627MPD2    C2 9337   3.086   2.099  14.294 -0.0224 -0.2416 -0.0004
  627MPD2    C3 9338   3.060   1.965  14.276  0.4902 -0.3816  0.5629
  627MPD2    C4 9339   3.158   1.890  14.218  0.0531  0.0585  0.1633
  627MPD2    C5 9340   3.277   1.948  14.179 -0.7308 -0.1584  0.4797
  627MPD2     H 9341   3.009   2.165  14.333  0.1554 -0.3473  0.5179
  627MPD2    H1 9342   3.165   1.782  14.211 -0.0795 -0.0245  1.2183
  627MPD2    H2 9343   3.386   2.124  14.140  1.1787 -2.2299  0.7263
  627MPD2    H3 9344   3.362   1.884  14.163  0.6262  2.2188 -1.7004
  627MPD2     N 9345   2.938   1.908  14.314 -0.4054 -0.3995 -0.1373
  627MPD2    H5 9346   2.870   1.973  14.353  0.7700  0.4535  0.4831
  627MPD2    N1 9347   3.240   2.291  14.295  0.2928  0.2762  0.2605
  627MPD2    H7 9348   3.331   2.330  14.270 -0.1639  1.1254 -0.0913
  628TMC3    C1 9349   3.256   2.485  14.412  0.8875  0.0827  0.2405
  628TMC3    C2 9350   3.367   2.449  14.486  0.4505  0.3228  0.3156
  628TMC3    C3 9351   3.407   2.525  14.590  0.2206 -0.6524  0.0109
  628TMC3    C4 9352   3.205   2.613  14.427 -0.3785  0.4550  0.2134
  628TMC3    C5 9353   3.261   2.701  14.512  0.0618  0.5706 -0.1160
  628TMC3    C6 9354   3.362   2.659  14.597 -0.0828 -0.0037  0.0920
  628TMC3     C 9355   3.167   2.381  14.364 -0.8454  1.3374 -0.2452
  628TMC3     O 9356   3.052   2.383  14.406  0.1704 -0.5635 -0.9067
  628TMC3     H 9357   3.410   2.350  14.481 -0.5322 -0.0860 -0.0677
  628TMC3    H1 9358   3.124   2.643  14.361  1.3578 -0.4790 -2.3598
  628TMC3    H2 9359   3.406   2.734  14.661 -0.5243  0.6592 -0.3789
  628TMC3    C7 9360   3.231   2.840  14.505 -0.4425  0.1450 -0.0252
  628TMC3    C8 9361   3.533   2.488  14.662 -0.1869  0.2478  0.6098
  628TMC3    O1 9362   3.263   2.897  14.605 -0.8471 -0.1276 -0.5548
  628TMC3    O2 9363   3.628   2.567  14.664  0.0213  0.2092 -0.3990
  629MPD2     C 9364   1.111   0.671  17.018 -0.0712  0.4151  0.2468
  629MPD2    C1 9365   1.192   0.574  16.957 -0.3616  0.0350  0.2191
  629MPD2    C2 9366   1.139   0.456  16.910  0.0800 -0.9826  0.0471
  629MPD2    C3 9367   1.005   0.428  16.934  0.2369 -0.2684  0.1500
  629MPD2    C4 9368   0.936   0.513  17.021 -0.7674 -0.5500  0.9320
  629MPD2    C5 9369   0.986   0.633  17.064  0.1331 -1.0829  0.1150
  629MPD2     H 9370   1.188   0.394  16.836  0.2330  0.0896 -0.7534
  629MPD2    H1 9371   0.831   0.496  17.046 -0.8527 -0.4574  0.6384
  629MPD2    H2 9372   1.146   0.771  17.038  0.5275 -0.2251  2.3092
  629MPD2    H3 9373   0.929   0.709  17.116 -1.1910 -0.9952 -1.4704
  629MPD2     N 9374   0.952   0.315  16.858 -0.6459 -0.4219  0.4707
  629MPD2    H5 9375   1.024   0.267  16.805  1.2538  0.9180  1.8188
  629MPD2    N1 9376   1.322   0.612  16.920  0.0921 -0.0671  0.7529
  629MPD2    H7 9377   1.352   0.702  16.957  2.7681 -1.1809  1.2509
  630TMC3    C1 9378   1.551   0.592  16.895 -0.4826  0.4978  0.3238
  630TMC3    C2 9379   1.566   0.713  16.846 -0.3761  0.1029  0.6129
  630TMC3    C3 9380   1.684   0.777  16.870 -0.4999  0.5486 -0.2318
  630TMC3    C4 9381   1.651   0.517  16.942  0.3676 -0.3743  0.4296
  630TMC3    C5 9382   1.761   0.584  16.977 -0.0857  1.3418 -0.1335
  630TMC3    C6 9383   1.785   0.716  16.944 -0.6921 -0.5232 -0.4908
  630TMC3     C 9384   1.418   0.524  16.893 -0.2038 -0.3009  0.3648
  630TMC3     O 9385   1.417   0.403  16.888 -0.5445  0.1948  0.1415
  630TMC3     H 9386   1.492   0.772  16.794  0.5201  0.0981 -0.6708
  630TMC3    H1 9387   1.614   0.426  16.989  1.2228 -0.2253  1.3781
  630TMC3    H2 9388   1.871   0.768  16.986  0.1475 -3.0924  0.9137
  630TMC3    C7 9389   1.834   0.506  17.079  0.3709  0.3681 -0.0165
  630TMC3    C8 9390   1.716   0.912  16.822 -0.1596 -0.1982  0.6606
  630TMC3    O1 9391   1.761   0.439  17.154  0.3731  0.2653 -0.1762
  630TMC3    O2 9392   1.814   0.967  16.869 -0.0215 -0.5447 -0.1403
  631MPD2     C 9393   0.550   0.867  15.500 -0.4326  0.1777  0.0354
  631MPD2    C1 9394   0.468   0.922  15.596 -0.5024 -0.3567  0.0105
  631MPD2    C2 9395   0.529   0.940  15.723  0.7516  0.1849  0.1794
  631MPD2    C3 9396   0.665   0.918  15.749 -0.8583 -0.1551 -0.3328
  631MPD2    C4 9397   0.738   0.878  15.641 -0.4238 -0.2441  1.1055
  631MPD2    C5 9398   0.684   0.857  15.521  0.4823  0.2893  0.0924
  631MPD2     H 9399   0.461   0.965  15.803  2.3696  0.0487  1.6063
  631MPD2    H1 9400   0.843   0.851  15.645 -0.3851  0.2651  3.0939
  631MPD2    H2 9401   0.513   0.856  15.399 -0.6910 -0.7661  0.2368
  631MPD2    H3 9402   0.750   0.823  15.443  0.8922 -1.1571  1.0726
  631MPD2     N 9403   0.713   0.934  15.879 -0.1466 -0.0196  0.3437
  631MPD2    H5 9404   0.646   0.980  15.941  0.7864  0.5689  0.9232
  631MPD2    N1 9405   0.334   0.947  15.556 -0.0670  0.6386 -0.0098
  631MPD2    H7 9406   0.309   0.932  15.458  2.2834 -0.6774 -0.4165
  632TMC3    C1 9407   0.113   1.047  15.569 -0.9528  0.3358  0.4014
  632TMC3    C2 9408   0.015   1.091  15.651 -0.2260  0.0996 -0.3463
  632TMC3    C3 9409   4.644   1.151  15.588  0.2313  0.0745  1.1805
  632TMC3    C4 9410   0.094   1.036  15.434  0.0939 -0.1286  0.8083
  632TMC3    C5 9411   4.723   1.099  15.378 -0.7329 -0.2384  0.2998
  632TMC3    C6 9412   4.619   1.144  15.453 -0.3062 -0.2541 -0.2168
  632TMC3     C 9413   0.239   1.003  15.638  0.0087 -0.7741 -0.0015
  632TMC3     O 9414   0.244   1.027  15.755 -0.6177  0.1068 -0.7090
  632TMC3     H 9415   0.031   1.101  15.758  3.7341 -1.4105 -0.7865
  632TMC3    H1 9416   0.172   0.991  15.375 -1.8653 -1.7847 -0.5283
  632TMC3    H2 9417   4.552   1.219  15.412  0.1179  0.2879  0.0784
  632TMC3    C7 9418   0.002   1.143  15.244 -0.0724 -0.1704 -0.0070
  632TMC3    C8 9419   4.540   1.210  15.668 -0.5892  0.3597  0.0370
  632TMC3    O1 9420   4.638   1.139  15.173  0.1248 -0.2404  0.5522
  632TMC3    O2 9421   4.429   1.210  15.622  0.6483 -0.1116 -0.4679
  633MPD2     C 9422   3.843   3.563  17.380  0.1612 -0.1578  0.3209
  633MPD2    C1 9423   3.819   3.471  17.273  0.2260 -0.0415 -0.1908
  633MPD2    C2 9424   3.842   3.337  17.296  0.1869  0.0295 -0.1619
  633MPD2    C3 9425   3.895   3.295  17.417  0.2274 -0.0914 -0.0136
  633MPD2    C4 9426   3.920   3.385  17.522  0.2903  0.2247  0.1413
  633MPD2    C5 9427   3.900   3.516  17.495  0.0555 -0.9139  0.2903
  633MPD2     H 9428   3.829   3.265  17.216 -2.3584  1.0879 -0.7030
  633MPD2    H1 9429   3.955   3.359  17.621 -1.6834 -1.4103  0.4159
  633MPD2    H2 9430   3.832   3.668  17.354 -2.6380 -0.6320 -0.3826
  633MPD2    H3 9431   3.923   3.587  17.573  0.6175 -2.2716  1.3591
  633MPD2     N 9432   3.922   3.159  17.446 -0.5271 -0.3294  0.0786
  633MPD2    H5 9433   3.954   3.142  17.541 -0.8957 -3.2052 -0.3033
  633MPD2    N1 9434   3.773   3.507  17.148  1.0472 -0.0429  0.5898
  633MPD2    H7 9435   3.797   3.438  17.078  0.1730  0.2843 -0.0327
  634TMC3    C1 9436   3.709   3.645  16.971  0.1239 -0.1319 -0.1886
  634TMC3    C2 9437   3.726   3.536  16.893 -0.1062  0.1931 -0.4290
  634TMC3    C3 9438   3.742   3.549  16.759  0.3168 -0.5808 -0.3751
  634TMC3    C4 9439   3.709   3.772  16.925 -0.5672 -0.7785  0.0818
  634TMC3    C5 9440   3.745   3.785  16.788  0.5962  0.1849 -0.3905
  634TMC3    C6 9441   3.756   3.677  16.701  0.3779 -0.2498  0.1033
  634TMC3     C 9442   3.724   3.633  17.112 -0.2887 -0.6608 -0.5121
  634TMC3     O 9443   3.690   3.727  17.181  0.5699 -0.2626 -0.7917
  634TMC3     H 9444   3.709   3.436  16.931 -0.6660  0.8961  1.1806
  634TMC3    H1 9445   3.706   3.854  16.995  2.9920 -1.8137  1.4258
  634TMC3    H2 9446   3.772   3.695  16.595 -1.1656  2.2418  0.2956
  634TMC3    C7 9447   3.767   3.917  16.731  0.6456 -0.4117  0.0253
  634TMC3    C8 9448   3.805   3.442  16.695 -0.7672 -0.2580  0.1735
  634TMC3    O1 9449   3.835   3.916  16.629 -0.0019  0.5640 -0.2389
  634TMC3    O2 9450   3.843   3.355  16.769  0.0451 -0.5810  0.6279
  635TMC3    C1 9451   4.103   4.446  17.654 -0.5379  0.6413 -0.0747
  635TMC3    C2 9452   4.143   4.397  17.532  0.9956  0.1171 -0.4963
  635TMC3    C3 9453   4.174   4.268  17.517  0.2468 -0.5047  0.3795
  635TMC3    C4 9454   4.083   4.359   0.017  0.3089 -0.4863 -0.8479
  635TMC3    C5 9455   4.104   4.229  17.734 -0.2491  0.8444  0.1231
  635TMC3    C6 9456   4.150   4.176  17.619 -0.4289 -0.3924  0.0261
  635TMC3     C 9457   4.113   4.587  17.681 -0.0049 -0.5161 -0.1044
  635TMC3     O 9458   4.082   4.625   0.050  0.3505 -0.7205 -0.0536
  635TMC3     H 9459   4.133   4.467  17.450 -1.6975  0.4569  0.1402
  635TMC3    H1 9460   4.038   4.398   0.107  3.6564 -0.2965  0.7494
  635TMC3    H2 9461   4.148   4.071  17.595 -0.7630 -0.6762  1.3027
  635TMC3    C7 9462   4.070   4.132   0.096  0.7797  0.0271 -0.5100
  635TMC3    C8 9463   4.241   4.235  17.393  0.6850 -0.4435  0.0891
  635TMC3    O1 9464   4.029   4.022   0.067  0.0235  0.8109  0.1587
  635TMC3    O2 9465   4.267   4.324  17.314  0.1812 -0.0210  0.4963
  636MPD2     C 9466   0.121   3.868  16.362  0.0048 -0.4988 -0.0538
  636MPD2    C1 9467   0.129   3.867  16.500 -0.7706  0.4408  0.2014
  636MPD2    C2 9468   0.076   3.759  16.572  0.1007 -0.1394 -0.0125
  636MPD2    C3 9469   0.026   3.644  16.507  0.0949  0.9417 -0.0746
  636MPD2    C4 9470   0.025   3.643  16.365 -0.0102 -0.0879 -0.0968
  636MPD2    C5 9471   0.083   3.751  16.295  0.8852  0.8273 -0.1965
  636MPD2     H 9472   0.073   3.763  16.681  1.1722  0.0389  0.0071
  636MPD2    H1 9473   4.696   3.576  16.310  1.0862  1.3502 -3.1035
  636MPD2    H2 9474   0.154   3.948  16.296  0.3454 -0.9753 -0.4720
  636MPD2    H3 9475   0.091   3.751  16.187  2.0233 -0.2271 -0.1163
  636MPD2     N 9476   4.701   3.544  16.585 -0.3599 -0.0768  0.4912
  636MPD2    H5 9477   4.720   3.547  16.685  1.4527  1.0214  0.1158
  636MPD2    N1 9478   0.173   3.979  16.580 -0.2299  0.1437  0.1652
  636MPD2    H7 9479   0.169   3.975  16.681 -0.3450 -0.2106  0.1471
  637TMC3    C1 9480   4.681   3.306  16.630  0.1749 -0.2702 -0.0015
  637TMC3    C2 9481   4.721   3.348  16.757 -0.3851  0.9144 -0.0971
  637TMC3    C3 9482   0.098   3.294  16.815  0.4929  0.1753  0.2449
  637TMC3    C4 9483   0.016   3.204  16.572  0.1507 -1.2987 -0.2153
  637TMC3    C5 9484   0.139   3.159  16.612 -0.2870  0.5279  0.5820
  637TMC3    C6 9485   0.176   3.206  16.737  0.4406  0.8583  0.2083
  637TMC3     C 9486   4.658   3.424  16.541 -0.0233  0.4424 -0.1374
  637TMC3     O 9487   4.641   3.390  16.426 -0.4236 -0.3609 -0.6386
  637TMC3     H 9488   4.657   3.408  16.820 -2.0562 -0.0121 -0.9195
  637TMC3    H1 9489   4.722   3.182  16.470  0.7073 -1.9406 -0.2407
  637TMC3    H2 9490   0.265   3.167  16.785 -0.7918 -1.8367  0.2783
  637TMC3    C7 9491   0.229   3.207  16.508 -0.4814  0.4446 -0.5428
  637TMC3    C8 9492   0.175   3.395  16.879 -0.0484 -0.0962 -0.1237
  637TMC3    O1 9493   0.308   3.297  16.541  0.3486 -1.0040  0.0094
  637TMC3    O2 9494   0.121   3.448  16.975 -0.2995 -0.4142 -0.1228
  638MPD2     C 9495   0.400   2.752  15.233 -0.1347 -0.5115 -0.2727
  638MPD2    C1 9496   0.488   2.664  15.185  0.0619  0.0937  0.1663
  638MPD2    C2 9497   0.488   2.534  15.241  0.0873 -0.2195 -0.1752
  638MPD2    C3 9498   0.392   2.503  15.330 -0.7388 -0.5489  0.3456
  638MPD2    C4 9499   0.303   2.591  15.386  0.0236 -0.0794  0.8022
  638MPD2    C5 9500   0.309   2.714  15.335  0.4812  0.0543 -0.0328
  638MPD2     H 9501   0.567   2.467  15.209  0.5024 -0.8209  2.1142
  638MPD2    H1 9502   0.227   2.553  15.454  0.2682  1.4403  1.9359
  638MPD2    H2 9503   0.415   2.857  15.209 -0.2785 -0.3299  0.4119
  638MPD2    H3 9504   0.249   2.795  15.375 -0.1348 -0.0695 -0.7186
  638MPD2     N 9505   0.390   2.357  15.350 -0.1335  0.1199  0.1485
  638MPD2    H5 9506   0.455   2.301  15.295  0.6525  1.7666 -0.6124
  638MPD2    N1 9507   0.578   2.686  15.087  0.3194  0.6538 -0.2208
  638MPD2    H7 9508   0.626   2.604  15.051 -1.1109  0.1108 -0.8895
  639TMC3    C1 9509   0.296   2.140  15.386  0.0514 -0.1406  0.2493
  639TMC3    C2 9510   0.216   2.075  15.290  0.0229  0.4298  0.6370
  639TMC3    C3 9511   0.260   1.967  15.231 -0.3092  0.0330  0.3278
  639TMC3    C4 9512   0.418   2.092  15.421  0.4094 -0.2476  0.0155
  639TMC3    C5 9513   0.463   1.979  15.350 -0.0299 -0.0932  0.1016
  639TMC3    C6 9514   0.384   1.914  15.261  0.0115 -0.1548 -0.1470
  639TMC3     C 9515   0.281   2.287  15.398 -0.2256  0.4204 -0.7053
  639TMC3     O 9516   0.168   2.323  15.426 -0.0578  0.4796  0.0815
  639TMC3     H 9517   0.126   2.127  15.261  0.0006 -0.0586 -0.1847
  639TMC3    H1 9518   0.482   2.134  15.497  0.2091  1.4735 -0.7751
  639TMC3    H2 9519   0.424   1.837  15.197  0.0624 -1.8151  1.9053
  639TMC3    C7 9520   0.574   1.898  15.389 -0.2259 -0.0602 -0.5466
  639TMC3    C8 9521   0.218   1.934  15.096  0.1066 -0.7857  0.2375
  639TMC3    O1 9522   0.553   1.775  15.400 -0.2729  0.1776  0.1133
  639TMC3    O2 9523   0.302   1.936  15.008 -0.3873 -0.0947  0.3565
  640MPD2     C 9524   1.851   2.034   9.786  0.0069  0.3212 -0.2697
  640MPD2    C1 9525   1.725   1.982   9.816 -0.4901  0.1669 -0.5851
  640MPD2    C2 9526   1.619   2.070   9.863 -0.3801  0.1335 -0.5038
  640MPD2    C3 9527   1.638   2.203   9.868 -0.3883 -0.3204  0.1107
  640MPD2    C4 9528   1.763   2.262   9.837 -0.1119 -0.2722 -0.2090
  640MPD2    C5 9529   1.860   2.175   9.787 -0.2472  0.5619  0.8950
  640MPD2     H 9530   1.522   2.023   9.874  1.0034 -2.3844  1.0853
  640MPD2    H1 9531   1.783   2.368   9.846  1.7433 -0.8286  2.1617
  640MPD2    H2 9532   1.937   1.974   9.759 -0.1340 -1.3537  3.0584
  640MPD2    H3 9533   1.958   2.214   9.764  0.4060 -2.4962 -1.5528
  640MPD2     N 9534   1.539   2.293   9.914 -0.1894  0.6023  0.4902
  640MPD2    H5 9535   1.564   2.391   9.924 -0.8559  0.9571 -1.2655
  640MPD2    N1 9536   1.706   1.837   9.812 -0.3759 -0.8959  0.0642
  640MPD2    H7 9537   1.790   1.797   9.772  0.2736 -1.3896  1.9046
  641TMC3    C1 9538   1.579   1.633   9.822  0.7611 -1.0105  0.7994
  641TMC3    C2 9539   1.651   1.586   9.718  0.6905 -0.0892  0.4614
  641TMC3    C3 9540   1.611   1.462   9.675  0.3674 -0.0167 -0.0545
  641TMC3    C4 9541   1.476   1.576   9.881 -0.3003  0.7756 -0.8539
  641TMC3    C5 9542   1.445   1.454   9.832 -0.2713  0.2567  0.4389
  641TMC3    C6 9543   1.516   1.386   9.737 -0.9514  0.3089  0.6948
  641TMC3     C 9544   1.600   1.774   9.869  0.4921 -0.6190 -0.5409
  641TMC3     O 9545   1.538   1.808   9.969 -0.0022  0.2948 -0.8083
  641TMC3     H 9546   1.710   1.648   9.652 -0.7945 -0.2870 -1.0618
  641TMC3    H1 9547   1.427   1.626   9.964  0.2250  0.9275 -0.6398
  641TMC3    H2 9548   1.486   1.290   9.697 -1.0091  0.5907  0.0489
  641TMC3    C7 9549   1.353   1.378   9.909 -0.1595  0.1874  0.0722
  641TMC3    C8 9550   1.711   1.384   9.597 -0.0380  0.0208 -1.2507
  641TMC3    O1 9551   1.368   1.252   9.905 -0.1803 -0.6677  0.5945
  641TMC3    O2 9552   1.662   1.278   9.553  0.3268 -0.4430  0.7170
  642TMC3    C1 9553   2.408   2.339  12.844  0.2519 -0.1790  0.2391
  642TMC3    C2 9554   2.533   2.368  12.806 -0.1407  0.3906 -0.3022
  642TMC3    C3 9555   2.558   2.366  12.668 -0.2701 -0.6036  0.5288
  642TMC3    C4 9556   2.312   2.298  12.757  0.1040  0.0482 -0.3117
  642TMC3    C5 9557   2.338   2.294  12.622  0.3949  0.0766 -0.4689
  642TMC3    C6 9558   2.461   2.328  12.576  0.1887 -0.3247  0.2969
  642TMC3     C 9559   2.363   2.352  12.984  0.3841  0.9963 -0.5322
  642TMC3     O 9560   2.448   2.327  13.066  0.9001 -0.1516  0.4600
  642TMC3     H 9561   2.610   2.400  12.875  0.3735 -0.5567 -0.4380
  642TMC3    H1 9562   2.216   2.268  12.795 -0.2473  1.4397 -0.1156
  642TMC3    H2 9563   2.485   2.326  12.471  3.5703  0.0888  1.0528
  642TMC3    C7 9564   2.231   2.263  12.527 -0.2952  0.4479  0.0263
  642TMC3    C8 9565   2.695   2.395  12.633  0.8901 -0.1987  0.2419
  642TMC3    O1 9566   2.247   2.302  12.412 -0.4456  0.5842  0.3877
  642TMC3    O2 9567   2.776   2.359  12.716 -0.0041  0.2330  0.0158
  643TMC3    C1 9568   1.347   1.620   0.371 -0.2086 -0.3102  0.8661
  643TMC3    C2 9569   1.309   1.664   0.249  0.0764 -0.9335  0.3213
  643TMC3    C3 9570   1.273   1.567   0.159 -0.1419 -0.3323  0.0093
  643TMC3    C4 9571   1.368   1.487   0.393 -0.1866 -0.5287  0.1745
  643TMC3    C5 9572   1.329   1.392   0.297 -0.3963 -0.2175 -0.1139
  643TMC3    C6 9573   1.284   1.430   0.174  0.0302  0.5120  0.2899
  643TMC3     C 9574   1.403   1.723   0.457 -0.0653  0.8392 -0.3327
  643TMC3     O 9575   1.342   1.828   0.472 -0.5185  0.5329 -0.1679
  643TMC3     H 9576   1.280   1.766   0.225  1.7793 -0.6075 -0.3238
  643TMC3    H1 9577   1.398   1.451   0.491  0.6052 -1.3325 -0.3638
  643TMC3    H2 9578   1.255   1.356   0.100 -0.3430  0.1441  0.8034
  643TMC3    C7 9579   1.355   1.254   0.331 -1.2397  0.6008  0.5323
  643TMC3    C8 9580   1.256   1.600   0.020 -0.3770  0.4500 -0.9996
  643TMC3    O1 9581   1.310   1.220   0.440 -0.6833 -0.5747 -0.4293
  643TMC3    O2 9582   1.238   1.514  17.677  0.4389  0.0779 -0.1568
  644MPD2     C 9583   1.068   2.476   9.581 -0.8240  0.3381 -0.5590
  644MPD2    C1 9584   1.198   2.501   9.604  0.2852  0.4773 -0.0537
  644MPD2    C2 9585   1.236   2.602   9.695  0.4647 -0.7743 -0.5722
  644MPD2    C3 9586   1.136   2.664   9.769  0.0878  0.5355  0.7910
  644MPD2    C4 9587   1.003   2.633   9.740  0.0199 -0.1495 -0.1742
  644MPD2    C5 9588   0.970   2.553   9.639  0.1707  0.1368 -0.4762
  644MPD2     H 9589   1.336   2.624   9.730 -0.1499 -0.2962  0.8668
  644MPD2    H1 9590   0.921   2.685   9.788  1.5257  1.1658  0.9709
  644MPD2    H2 9591   1.047   2.396   9.512 -2.4349  0.2611  0.0296
  644MPD2    H3 9592   0.865   2.539   9.619  0.1992  1.2059 -1.3510
  644MPD2     N 9593   1.170   2.759   9.865 -0.4172  0.5203  0.2478
  644MPD2    H5 9594   1.266   2.792   9.851  0.5743 -1.7156  1.8237
  644MPD2    N1 9595   1.292   2.416   9.537 -0.3464  1.0733 -0.0840
  644MPD2    H7 9596   1.249   2.333   9.497 -1.3230  1.5646 -0.0490
  645TMC3    C1 9597   1.143   2.908  10.047 -0.6616 -0.6220  0.0354
  645TMC3    C2 9598   1.089   2.925  10.173  0.0324 -0.8806  0.4777
  645TMC3    C3 9599   1.148   3.018  10.255  0.3084 -0.1293 -0.0059
  645TMC3    C4 9600   1.254   2.979  10.008 -0.3349  0.0041  0.6141
  645TMC3    C5 9601   1.318   3.050  10.106  0.4713  0.6235 -0.2111
  645TMC3    C6 9602   1.262   3.082  10.225 -0.3666 -0.2054 -0.0260
  645TMC3     C 9603   1.081   2.810   9.961 -0.5576  1.0707  0.3258
  645TMC3     O 9604   0.984   2.750  10.009  0.4298  0.4013 -0.6304
  645TMC3     H 9605   0.991   2.882  10.190 -1.0119  1.0576 -0.7240
  645TMC3    H1 9606   1.290   2.979   9.906 -1.0859 -0.4506  0.3492
  645TMC3    H2 9607   1.305   3.153  10.295  1.4051  1.9247 -3.2544
  645TMC3    C7 9608   1.428   3.132  10.064  0.2048 -0.1762  0.5273
  645TMC3    C8 9609   1.116   3.033  10.394 -0.2739 -0.5072  0.7039
  645TMC3    O1 9610   1.432   3.241  10.116  0.6093  0.0731 -0.1466
  645TMC3    O2 9611   1.155   3.138  10.445  0.4375 -0.6632  0.4881
  646MPD2     C 9612   0.919   1.169  14.596  0.3404 -0.0014  0.2817
  646MPD2    C1 9613   0.801   1.139  14.666 -0.5147 -0.2358 -0.5256
  646MPD2    C2 9614   0.677   1.187  14.617  0.2760  0.1700  0.3519
  646MPD2    C3 9615   0.681   1.284  14.513  0.4956 -0.2410 -0.3083
  646MPD2    C4 9616   0.798   1.304  14.440  0.0508  0.0895 -0.2407
  646MPD2    C5 9617   0.914   1.242  14.483  0.4510 -0.2609  0.1638
  646MPD2     H 9618   0.587   1.155  14.668 -1.1557  0.1101 -2.1957
  646MPD2    H1 9619   0.792   1.344  14.339  2.3726 -2.4496 -1.3926
  646MPD2    H2 9620   1.011   1.120  14.626  0.0427 -1.0495 -0.4924
  646MPD2    H3 9621   1.001   1.244  14.418 -0.8986  0.8649 -1.6029
  646MPD2     N 9622   0.559   1.340  14.467  0.3927  1.2175  0.1430
  646MPD2    H5 9623   0.479   1.303  14.517  0.8079 -0.8324 -0.7111
  646MPD2    N1 9624   0.809   1.058  14.784  0.0964  0.1069  0.2212
  646MPD2    H7 9625   0.900   1.051  14.828  0.1996  0.6046  0.0814
  647TMC3    C1 9626   0.749   0.915  14.954  0.5822  0.2223 -0.1304
  647TMC3    C2 9627   0.663   0.808  14.983 -0.3091  0.4695  0.2634
  647TMC3    C3 9628   0.682   0.742  15.100  0.2562 -0.4483 -0.7555
  647TMC3    C4 9629   0.850   0.945  15.041 -0.2042  0.7184  0.5797
  647TMC3    C5 9630   0.875   0.866  15.148  0.2216 -0.4423  0.2490
  647TMC3    C6 9631   0.792   0.757  15.182 -0.0831 -0.6983  0.0567
  647TMC3     C 9632   0.702   1.005  14.846 -0.0565  0.1797 -0.0316
  647TMC3     O 9633   0.583   0.992  14.806 -0.5413 -0.4008  0.0578
  647TMC3     H 9634   0.583   0.770  14.921  0.5885 -1.3322  0.2232
  647TMC3    H1 9635   0.908   1.033  15.014  1.5492 -1.3631 -2.4598
  647TMC3    H2 9636   0.803   0.703  15.275  3.1544  1.7150  1.0672
  647TMC3    C7 9637   1.001   0.868  15.222 -0.5156 -0.0481  0.4164
  647TMC3    C8 9638   0.569   0.662  15.143 -0.4870  0.8821 -0.1098
  647TMC3    O1 9639   1.019   0.791  15.314  0.4845 -0.5715 -0.2023
  647TMC3    O2 9640   0.462   0.695  15.090 -0.1990 -0.2136  0.5094
  648TMC3    C1 9641   4.316   3.479  16.244 -0.4804  0.3284 -0.6075
  648TMC3    C2 9642   4.362   3.353  16.202  0.2632  0.2110 -0.3389
  648TMC3    C3 9643   4.392   3.335  16.068 -0.0326  0.1757  0.2818
  648TMC3    C4 9644   4.307   3.590  16.155  0.1307 -0.5929  0.1953
  648TMC3    C5 9645   4.329   3.552  16.020  0.6108  0.4333 -0.8783
  648TMC3    C6 9646   4.381   3.434  15.975 -0.9025 -0.4513 -0.4317
  648TMC3     C 9647   4.318   3.514  16.387 -0.4245  0.4138  0.5306
  648TMC3     O 9648   4.308   3.632  16.414 -0.5294 -0.1702 -0.1952
  648TMC3     H 9649   4.365   3.271  16.273 -0.7713 -0.8487 -1.5151
  648TMC3    H1 9650   4.278   3.690  16.186 -0.4194 -0.9135  0.7199
  648TMC3    H2 9651   4.405   3.420  15.870  1.9903  0.8672  0.0320
  648TMC3    C7 9652   4.289   3.647  15.916  0.2376 -0.1023 -0.6843
  648TMC3    C8 9653   4.416   3.195  16.029 -0.0172  0.0693  0.8328
  648TMC3    O1 9654   4.301   3.613  15.797  0.0846  0.3156 -0.0028
  648TMC3    O2 9655   4.343   3.111  16.081  0.0351  0.5015 -0.7584
  649TMC3    C1 9656   3.189   0.602  13.092 -0.1014 -0.1164  0.4893
  649TMC3    C2 9657   3.309   0.584  13.027  0.2416  0.6579  0.1976
  649TMC3    C3 9658   3.379   0.481  13.074  0.2566  0.2518  0.0225
  649TMC3    C4 9659   3.142   0.521  13.189 -0.3446  0.5826 -0.0582
  649TMC3    C5 9660   3.211   0.404  13.215  0.1234 -0.4000 -0.4791
  649TMC3    C6 9661   3.338   0.389  13.163 -0.6348  1.0306  0.8044
  649TMC3     C 9662   3.101   0.707  13.052 -0.2142 -0.6188  0.1484
  649TMC3     O 9663   3.002   0.727  13.118 -0.5541 -0.3802 -0.2436
  649TMC3     H 9664   3.345   0.644  12.944  0.8737  0.9097  0.6563
  649TMC3    H1 9665   3.048   0.541  13.240 -1.1672 -2.0646 -0.5304
  649TMC3    H2 9666   3.400   0.308  13.199  0.6924  1.0662 -1.4083
  649TMC3    C7 9667   3.173   0.330  13.332  0.3290 -0.4808 -0.0190
  649TMC3    C8 9668   3.511   0.459  13.021  0.5597 -0.3796 -0.0189
  649TMC3    O1 9669   3.100   0.375  13.418  0.7111 -0.3379 -0.5081
  649TMC3    O2 9670   3.536   0.340  13.031  0.2279 -0.5981 -0.3672
  650TMC3    C1 9671   1.551   1.723  13.777  0.6053 -0.5700  0.5147
  650TMC3    C2 9672   1.504   1.853  13.771 -0.3724  0.2954 -0.7184
  650TMC3    C3 9673   1.576   1.945  13.699 -0.2411  0.0551  0.1884
  650TMC3    C4 9674   1.652   1.682  13.694  0.4336  0.4605  0.9848
  650TMC3    C5 9675   1.719   1.771  13.619 -0.2857 -0.3420 -0.5275
  650TMC3    C6 9676   1.687   1.907  13.625 -0.2535  0.4603 -0.3736
  650TMC3     C 9677   1.455   1.626  13.826 -0.1450  0.3613  0.0997
  650TMC3     O 9678   1.339   1.651  13.816  0.2289  0.7216  0.0551
  650TMC3     H 9679   1.418   1.879  13.832 -1.0818 -0.0760 -1.5626
  650TMC3    H1 9680   1.690   1.580  13.687 -1.8020 -0.3742  1.0396
  650TMC3    H2 9681   1.759   1.981  13.593  0.6352  0.1390  0.8771
  650TMC3    C7 9682   1.817   1.725  13.527  0.4828 -0.7277  0.3706
  650TMC3    C8 9683   1.527   2.072  13.655  0.7357 -0.1968  0.7044
  650TMC3    O1 9684   1.890   1.631  13.548 -0.1361 -0.2113  0.0744
  650TMC3    O2 9685   1.619   2.141  13.614  0.2420  0.1098 -0.0737
  651MPD2     C 9686   0.616   4.189  11.063 -0.0845 -0.6669 -0.2933
  651MPD2    C1 9687   0.624   4.228  10.932  0.6630 -0.1353  0.1011
  651MPD2    C2 9688   0.753   4.245  10.867 -0.2739  0.1494  0.0412
  651MPD2    C3 9689   0.861   4.218  10.945  0.3781  0.0157 -0.0131
  651MPD2    C4 9690   0.851   4.187  11.073 -0.2886  0.3132  0.4392
  651MPD2    C5 9691   0.733   4.167  11.127 -0.6629  0.0260  0.0376
  651MPD2     H 9692   0.769   4.269  10.763  0.1098  1.2936  0.3592
  651MPD2    H1 9693   0.930   4.183  11.147  0.2509 -0.7896 -0.1991
  651MPD2    H2 9694   0.529   4.188  11.127  0.2980  0.3733  0.2260
  651MPD2    H3 9695   0.727   4.147  11.233  1.2843 -1.6008 -0.1622
  651MPD2     N 9696   0.988   4.228  10.878 -0.4731 -0.3289 -0.1320
  651MPD2    H5 9697   0.979   4.242  10.778 -0.6669  0.0050 -0.0661
  651MPD2    N1 9698   0.508   4.250  10.860  0.6278 -0.8734 -0.1809
  651MPD2    H7 9699   0.423   4.226  10.911 -0.1535 -1.2838 -1.7054
  652TMC3    C1 9700   1.431   4.326  10.824 -1.0293  0.2132  0.2399
  652TMC3    C2 9701   1.333   4.260  10.885 -0.5249  0.4758 -0.0419
  652TMC3    C3 9702   1.203   4.291  10.847 -0.2352  0.3739  0.1070
  652TMC3    C4 9703   1.404   4.420  10.726  0.4222 -0.5224  0.2197
  652TMC3    C5 9704   1.271   4.447  10.699  0.1248  0.2799 -0.1297
  652TMC3    C6 9705   1.168   4.374  10.750  0.1876 -0.1235 -0.0908
  652TMC3     C 9706   1.562   4.279  10.862 -0.1265  0.5253 -0.5037
  652TMC3     O 9707   1.577   4.212  10.965 -0.1875  0.5952 -0.4284
  652TMC3     H 9708   1.351   4.187  10.963 -3.8270  1.6228  1.7976
  652TMC3    H1 9709   1.487   4.478  10.688  1.4681 -2.5216 -0.5401
  652TMC3    H2 9710   1.064   4.395  10.727  0.4280  1.0723 -0.1114
  652TMC3    C7 9711   1.234   4.545  10.597 -0.0246  0.2614  0.6316
  652TMC3    C8 9712   1.106   4.244  10.940 -0.1099 -0.7978  0.4100
  652TMC3    O1 9713   1.136   4.522  10.526  0.2986  0.0030  0.4723
  652TMC3    O2 9714   1.126   4.241  11.061 -0.3919  0.0406  0.2984
  653MPD2     C 9715   3.721   3.559   0.229 -0.2047 -0.1287  0.0315
  653MPD2    C1 9716   3.664   3.644   0.143  0.0487  0.2314  0.0376
  653MPD2    C2 9717   3.631   3.594   0.017  0.0978 -0.1577 -0.2736
  653MPD2    C3 9718   3.641   3.457  17.728 -0.2796  0.0219 -0.1956
  653MPD2    C4 9719   3.693   3.372   0.082  0.5086  0.5069 -0.2586
  653MPD2    C5 9720   3.740   3.422   0.200 -0.7097 -0.5774 -0.0618
  653MPD2     H 9721   3.606   3.667  17.684  2.6051 -0.8662 -1.7712
  653MPD2    H1 9722   3.697   3.264   0.075 -0.9806  0.4688 -0.7189
  653MPD2    H2 9723   3.770   3.588   0.321  3.9537  1.3345 -2.6034
  653MPD2    H3 9724   3.798   3.358   0.265  0.0408  0.9166  0.7517
  653MPD2     N 9725   3.582   3.418  17.611 -0.0781  0.1137 -0.3211
  653MPD2    H5 9726   3.529   3.482  17.553  2.0272  1.1302 -1.1133
  653MPD2    N1 9727   3.627   3.779   0.171 -0.2287  0.0914 -0.1334
  653MPD2    H7 9728   3.609   3.845   0.097  0.4495 -0.5501 -0.8697
  654TMC3    C1 9729   3.515   3.279  17.432  0.0440  0.0907 -0.1069
  654TMC3    C2 9730   3.465   3.386  17.362 -0.0047 -0.0811 -0.0661
  654TMC3    C3 9731   3.418   3.366  17.241  0.0639  0.5438 -0.0519
  654TMC3    C4 9732   3.514   3.149  17.378  0.1347  0.1391 -0.1834
  654TMC3    C5 9733   3.449   3.138  17.257 -0.2646 -0.5654  0.5552
  654TMC3    C6 9734   3.410   3.243  17.185  0.0072  0.1319  0.5395
  654TMC3     C 9735   3.576   3.288  17.563  0.1142  0.3831  0.3977
  654TMC3     O 9736   3.623   3.185  17.608 -0.5171 -0.1021 -0.3221
  654TMC3     H 9737   3.451   3.487  17.399  0.9425  0.0376 -0.0429
  654TMC3    H1 9738   3.541   3.065  17.441  1.7960 -0.2599 -1.4305
  654TMC3    H2 9739   3.348   3.220  17.100  0.3767  1.8067 -0.1914
  654TMC3    C7 9740   3.419   3.006  17.206  0.1956  0.2243 -0.0880
  654TMC3    C8 9741   3.384   3.484  17.153  0.0741  0.0948  0.5182
  654TMC3    O1 9742   3.398   2.992  17.087 -0.9618  0.2177 -0.6609
  654TMC3    O2 9743   3.352   3.594  17.195  0.4783 -0.0867  0.1941
  655MPD2     C 9744   0.280   3.604  15.741 -0.0212 -0.2645  0.4143
  655MPD2    C1 9745   0.151   3.621  15.689 -0.0378  0.1011  0.1639
  655MPD2    C2 9746   0.131   3.588  15.555  0.6314  0.1179  0.4588
  655MPD2    C3 9747   0.230   3.535  15.481 -0.9629 -0.0783 -0.5702
  655MPD2    C4 9748   0.358   3.521  15.527 -0.0747 -0.3111  0.1764
  655MPD2    C5 9749   0.378   3.558  15.657 -0.6899 -0.4096 -0.1095
  655MPD2     H 9750   0.033   3.611  15.513  0.9625 -1.0112 -0.9419
  655MPD2    H1 9751   0.429   3.469  15.463  0.4684  0.2959  0.2763
  655MPD2    H2 9752   0.313   3.639  15.838  2.4941  0.3317 -0.6406
  655MPD2    H3 9753   0.477   3.548  15.701 -0.5147  0.5429 -0.2848
  655MPD2     N 9754   0.200   3.488  15.351  0.1777 -0.1209  0.4103
  655MPD2    H5 9755   0.277   3.473  15.286  0.2121 -0.0127  0.4265
  655MPD2    N1 9756   0.054   3.705  15.744  0.1918 -0.3008 -0.1263
  655MPD2    H7 9757   4.714   3.722  15.678  0.0016 -0.0646  0.1537
  656TMC3    C1 9758   4.695   3.866  15.873  0.8649 -0.0028  0.1660
  656TMC3    C2 9759   4.647   3.889  16.002  0.1648  0.8519  0.2441
  656TMC3    C3 9760   4.558   3.993  16.009  0.6609 -0.1316 -0.0151
  656TMC3    C4 9761   4.650   3.932  15.765  0.4904  0.7952  0.4265
  656TMC3    C5 9762   4.558   4.031  15.784  0.3123 -0.1472  0.2143
  656TMC3    C6 9763   4.496   4.054  15.901 -0.4789  0.5764  0.2414
  656TMC3     C 9764   0.069   3.773  15.861  0.0062 -0.1677 -0.3776
  656TMC3     O 9765   0.142   3.747  15.957  0.1779  0.1955  0.0507
  656TMC3     H 9766   4.682   3.840  16.093  0.8848  0.3793 -0.2823
  656TMC3    H1 9767   4.697   3.909  15.669  0.7137  1.6268  0.3402
  656TMC3    H2 9768   4.414   4.124  15.913 -0.1119  0.5505  2.8841
  656TMC3    C7 9769   4.530   4.106  15.661 -0.1152 -0.3290  0.2166
  656TMC3    C8 9770   4.484   3.980  16.130 -0.1776 -0.3553  0.3068
  656TMC3    O1 9771   4.596   4.087  15.562  0.0707 -0.3410 -0.4471
  656TMC3    O2 9772   4.462   3.867  16.170 -0.3447 -0.0618  0.8575
  657TMC3    C1 9773   3.652   3.385  15.099 -0.1380 -0.1673  0.2642
  657TMC3    C2 9774   3.674   3.515  15.149 -0.0098 -0.8076 -0.4101
  657TMC3    C3 9775   3.656   3.620  15.059  0.0655  0.3721  0.6797
  657TMC3    C4 9776   3.630   3.361  14.963 -0.6604 -0.3668  0.0546
  657TMC3    C5 9777   3.619   3.471  14.879  0.6010  0.0088  0.2221
  657TMC3    C6 9778   3.625   3.602  14.922 -0.1153 -0.1827  0.3282
  657TMC3     C 9779   3.602   3.283  15.193  0.3683 -0.6221 -0.4253
  657TMC3     O 9780   3.536   3.333  15.286  0.4936  0.1282  0.1297
  657TMC3     H 9781   3.688   3.528  15.255 -2.0286  0.4371 -0.3060
  657TMC3    H1 9782   3.593   3.266  14.924 -1.2691 -1.0228  2.2308
  657TMC3    H2 9783   3.601   3.684  14.855  0.7683 -2.1838 -2.4212
  657TMC3    C7 9784   3.582   3.439  14.737 -0.1448  0.0992 -0.3240
  657TMC3    C8 9785   3.607   3.747  15.110 -0.2507 -0.1422 -0.2704
  657TMC3    O1 9786   3.530   3.335  14.712 -0.4494  0.2876 -0.5546
  657TMC3    O2 9787   3.569   3.838  15.035 -0.7126 -0.3361  0.3457
  658MPD2     C 9788   0.600   3.482  14.882 -0.2310 -0.2319 -0.1579
  658MPD2    C1 9789   0.461   3.476  14.849 -0.3083 -0.3649 -0.0094
  658MPD2    C2 9790   0.431   3.551  14.735  0.1269 -0.3848  0.2673
  658MPD2    C3 9791   0.522   3.639  14.683  0.3447  0.4733  0.5290
  658MPD2    C4 9792   0.651   3.634  14.719  0.2482  0.1333  0.5218
  658MPD2    C5 9793   0.689   3.562  14.822 -0.3689 -0.6372 -0.2400
  658MPD2     H 9794   0.329   3.559  14.702 -0.3846 -3.1364  1.1219
  658MPD2    H1 9795   0.722   3.702  14.672 -0.5985  1.2060  0.7845
  658MPD2    H2 9796   0.642   3.432  14.968  1.5476 -0.2313 -1.0209
  658MPD2    H3 9797   0.791   3.575  14.857 -0.3755 -2.3517  0.4280
  658MPD2     N 9798   0.483   3.726  14.578 -0.0017 -0.3715  0.3841
  658MPD2    H5 9799   0.386   3.717  14.548  0.0766  1.3497 -0.3317
  658MPD2    N1 9800   0.371   3.395  14.925 -0.3109  0.3238  0.9151
  658MPD2    H7 9801   0.403   3.352  15.011  0.3124 -0.0754  0.4763
  659TMC3    C1 9802   0.143   3.326  14.973  0.1472  0.3293 -0.0390
  659TMC3    C2 9803   0.165   3.377  15.099  0.3726 -0.7014  0.2920
  659TMC3    C3 9804   0.052   3.435  15.171 -0.2534 -0.5166  0.2379
  659TMC3    C4 9805   0.011   3.334  14.915  0.4356 -0.1534  0.5697
  659TMC3    C5 9806   4.646   3.385  14.988  0.3146 -0.1479  0.6497
  659TMC3    C6 9807   4.657   3.427  15.123  0.4663 -0.4965  0.3441
  659TMC3     C 9808   0.245   3.357  14.872 -0.2961  0.1422  0.6195
  659TMC3     O 9809   0.207   3.370  14.756 -0.0360  0.5848 -0.2196
  659TMC3     H 9810   0.262   3.378  15.147  0.1759  0.2510  0.6646
  659TMC3    H1 9811   4.734   3.310  14.810  0.1566  0.5789  0.4392
  659TMC3    H2 9812   4.572   3.473  15.173 -0.1188 -1.3166  0.1001
  659TMC3    C7 9813   4.524   3.395  14.927  0.1885 -0.4263 -0.3241
  659TMC3    C8 9814   0.071   3.458  15.309 -0.2577  0.5490 -0.0156
  659TMC3    O1 9815   4.428   3.406  15.006  0.2411 -0.3287  0.3294
  659TMC3    O2 9816   4.696   3.461  15.363 -0.2979 -0.2929 -0.4655
  660MPD2     C 9817   3.321   2.667  13.099  0.4434 -0.1619 -0.0722
  660MPD2    C1 9818   3.233   2.769  13.072  0.0310 -0.0241  0.2948
  660MPD2    C2 9819   3.129   2.792  13.160  0.7747  0.4672  0.3111
  660MPD2    C3 9820   3.108   2.711  13.270 -0.1560  0.3876 -0.6819
  660MPD2    C4 9821   3.189   2.603  13.291 -0.0008  0.2804  0.4222
  660MPD2    C5 9822   3.292   2.580  13.200 -0.1679  0.0951  0.3453
  660MPD2     H 9823   3.059   2.872  13.138 -1.0877 -1.2361  0.0100
  660MPD2    H1 9824   3.177   2.537  13.376  1.4253  0.5770  0.8533
  660MPD2    H2 9825   3.413   2.654  13.043  1.1828 -1.2079  1.3720
  660MPD2    H3 9826   3.359   2.495  13.210 -1.1523 -0.3589  3.0760
  660MPD2     N 9827   3.015   2.735  13.373 -0.0752 -0.1585  0.5283
  660MPD2    H5 9828   3.035   2.675  13.453  1.2670 -1.8219 -1.0624
  660MPD2    N1 9829   3.247   2.841  12.956 -0.0067  0.6961  0.9017
  660MPD2    H7 9830   3.170   2.906  12.944 -1.7745 -1.3742  1.0399
  661TMC3    C1 9831   3.353   2.948  12.768  0.1052  0.0047 -0.4406
  661TMC3    C2 9832   3.432   2.925  12.664 -0.4962  0.7431  0.4263
  661TMC3    C3 9833   3.416   3.006  12.552  0.0270  0.8994 -0.0333
  661TMC3    C4 9834   3.267   3.054  12.775  0.5419  0.1067 -0.3528
  661TMC3    C5 9835   3.259   3.140  12.667  0.0462  0.5086  0.3648
  661TMC3    C6 9836   3.325   3.112  12.552 -0.3495 -0.4811  0.3208
  661TMC3     C 9837   3.355   2.849  12.876  0.5699  0.8998 -0.1280
  661TMC3     O 9838   3.450   2.780  12.873 -0.0614 -0.1398 -0.0169
  661TMC3     H 9839   3.503   2.843  12.659 -0.5267  0.8433 -1.7759
  661TMC3    H1 9840   3.216   3.068  12.870  1.8873 -1.3118  0.5786
  661TMC3    H2 9841   3.319   3.176  12.465 -1.7074  0.4911  1.1206
  661TMC3    C7 9842   3.122   3.190  12.651 -0.1200  0.9844 -0.1210
  661TMC3    C8 9843   3.507   2.980  12.448 -0.1441  0.6860 -0.0650
  661TMC3    O1 9844   3.062   3.241  12.741 -0.1908 -0.5312  0.3795
  661TMC3    O2 9845   3.557   2.865  12.451 -0.4158  0.1677 -0.0889
  662MPD2     C 9846   2.738   2.150  17.133  0.0198 -0.4263  0.3440
  662MPD2    C1 9847   2.846   2.100  17.205 -0.0976  0.3665 -0.3977
  662MPD2    C2 9848   2.889   2.163  17.321  0.5458  0.2898 -0.0820
  662MPD2    C3 9849   2.818   2.275  17.367  0.2701  0.2034 -0.1135
  662MPD2    C4 9850   2.707   2.320  17.301  0.3694 -0.3436 -0.3878
  662MPD2    C5 9851   2.670   2.256  17.185  0.4223 -0.1135 -0.0638
  662MPD2     H 9852   2.956   2.109  17.387  0.9843 -0.5297 -1.1861
  662MPD2    H1 9853   2.648   2.405  17.336  1.5215 -0.5289  1.9945
  662MPD2    H2 9854   2.710   2.104  17.039 -2.7490  0.1586  0.8837
  662MPD2    H3 9855   2.581   2.296  17.138  2.3067  4.7948  0.4959
  662MPD2     N 9856   2.837   2.335  17.488  0.4902  0.4584 -0.0135
  662MPD2    H5 9857   2.776   2.412  17.513  1.6276  1.6167 -0.8095
  662MPD2    N1 9858   2.908   1.981  17.176 -0.6165  0.2939  0.7480
  662MPD2    H7 9859   2.993   1.959  17.227  0.7792  0.2219 -1.6198
  663TMC3    C1 9860   2.960   1.790  17.067  0.4978  1.2439  0.2226
  663TMC3    C2 9861   3.033   1.753  17.178 -0.4400  0.0752  0.0262
  663TMC3    C3 9862   3.145   1.680  17.173 -0.1979 -0.5439  0.2567
  663TMC3    C4 9863   3.000   1.741  16.947 -0.5849 -0.4595 -0.2291
  663TMC3    C5 9864   3.107   1.666  16.943  0.6600 -0.2434 -0.6301
  663TMC3    C6 9865   3.182   1.628  17.050 -0.5204  0.0060  0.1733
  663TMC3     C 9866   2.870   1.895  17.077  0.3091 -0.0043  0.0105
  663TMC3     O 9867   2.791   1.904  16.987  1.0104  0.5083  0.6289
  663TMC3     H 9868   2.984   1.766  17.274 -0.6287 -2.3508  0.2548
  663TMC3    H1 9869   2.939   1.756  16.859  0.3437  1.3805 -0.5799
  663TMC3    H2 9870   3.266   1.560  17.042 -1.1512 -0.6676 -0.7489
  663TMC3    C7 9871   3.113   1.573  16.834 -0.2846 -1.1213 -0.0375
  663TMC3    C8 9872   3.152   1.555  17.251  0.2094 -0.4774 -0.0710
  663TMC3    O1 9873   3.063   1.598  16.728  0.8159  0.0053 -0.5925
  663TMC3    O2 9874   3.114   1.459  17.183  0.5911 -0.1743  0.4835
  664MPD2     C 9875   1.430   4.644   0.243 -0.3934  1.0927  0.2873
  664MPD2    C1 9876   1.507   0.020   0.258  0.2694 -0.0604  0.5735
  664MPD2    C2 9877   1.523   0.073   0.385 -0.3070 -0.2005  0.3495
  664MPD2    C3 9878   1.465   0.015   0.500  0.4599 -0.0121 -0.0186
  664MPD2    C4 9879   1.395   4.631   0.484  0.5374  0.4183  0.3036
  664MPD2    C5 9880   1.378   4.582   0.357  0.0710  0.2811 -0.6564
  664MPD2     H 9881   1.578   0.166   0.380 -0.0877 -0.3083  0.8198
  664MPD2    H1 9882   1.350   4.581   0.569  2.6975  1.3263  1.9652
  664MPD2    H2 9883   1.394   4.598   0.152  1.9336  1.4908 -0.8251
  664MPD2    H3 9884   1.317   4.493   0.347 -0.9926  0.7805  1.3404
  664MPD2     N 9885   1.496   0.087   0.622 -0.0032  0.2283  0.0523
  664MPD2    H5 9886   1.557   0.169   0.622  0.2189  0.0707 -1.5376
  664MPD2    N1 9887   1.569   0.075   0.151 -0.4065  0.3636 -0.4021
  664MPD2    H7 9888   1.630   0.151   0.178 -0.3274  0.5666 -1.1566
  665TMC3    C1 9889   1.453   0.180   0.841 -0.4664  0.6782  0.1504
  665TMC3    C2 9890   1.404   0.155   0.968 -0.2372 -0.7316 -0.1199
  665TMC3    C3 9891   1.427   0.241   1.075 -0.0793 -0.2508  0.2086
  665TMC3    C4 9892   1.514   0.295   0.805 -0.1287  0.2095  0.6954
  665TMC3    C5 9893   1.545   0.380   0.908  0.3855  0.8014 -1.0227
  665TMC3    C6 9894   1.508   0.351   1.040 -0.0573 -0.5725  0.2336
  665TMC3     C 9895   1.434   0.065   0.742  0.4231  0.2443  0.6170
  665TMC3     O 9896   1.369   4.702   0.778 -0.3766 -0.2142  0.0058
  665TMC3     H 9897   1.338   0.072   0.988 -1.2982 -0.2783 -1.6978
  665TMC3    H1 9898   1.532   0.311   0.699 -1.0974  1.1410  0.6778
  665TMC3    H2 9899   1.550   0.407   1.123 -2.0981  0.9115  0.2836
  665TMC3    C7 9900   1.543   0.523   0.873  0.3549 -0.6432  0.1183
  665TMC3    C8 9901   1.316   0.297   1.148 -0.1915 -0.2643 -0.1008
  665TMC3    O1 9902   1.512   0.550   0.762 -0.0140  0.2490  0.0939
  665TMC3    O2 9903   1.345   0.379   1.236 -0.1546 -0.5407  0.5948
  666TMC3    C1 9904   1.144   0.657   9.664  0.0170 -0.1952  0.0538
  666TMC3    C2 9905   1.271   0.676   9.620  0.1074 -0.2749 -0.3415
  666TMC3    C3 9906   1.333   0.792   9.635  0.1878  0.9004  0.1883
  666TMC3    C4 9907   1.089   0.766   9.723 -0.0662  0.3310 -0.2813
  666TMC3    C5 9908   1.146   0.891   9.724  0.5182  0.3951 -0.0470
  666TMC3    C6 9909   1.274   0.906   9.671  0.2865  0.7674  0.0340
  666TMC3     C 9910   1.123   0.525   9.716  0.3183 -0.7454 -0.4076
  666TMC3     O 9911   1.075   0.507   9.826  0.2146 -0.2861  0.2214
  666TMC3     H 9912   1.332   0.592   9.588  0.3070 -0.1652 -0.2467
  666TMC3    H1 9913   0.992   0.752   9.770 -0.1820 -1.9718 -1.1977
  666TMC3    H2 9914   1.328   0.998   9.691  0.1855  0.4210  1.9205
  666TMC3    C7 9915   1.074   1.004   9.787  0.3782  0.4346 -0.0821
  666TMC3    C8 9916   1.460   0.775   9.698 -0.5544 -0.5884  0.2822
  666TMC3    O1 9917   0.983   0.989   9.863 -0.0086 -0.0297 -0.3390
  666TMC3    O2 9918   1.464   0.669   9.758  0.6633  0.2342 -0.0262
  667MPD2     C 9919   2.251   0.572  14.568 -0.1600  0.7849  0.2702
  667MPD2    C1 9920   2.274   0.527  14.696  0.5027 -0.1524  0.3760
  667MPD2    C2 9921   2.222   0.402  14.734  0.6629 -0.1338 -0.3774
  667MPD2    C3 9922   2.152   0.323  14.643  0.1124  0.5534  0.3988
  667MPD2    C4 9923   2.134   0.373  14.517 -0.1877 -0.3626 -0.3902
  667MPD2    C5 9924   2.183   0.490  14.483  0.3920  0.0479 -0.1150
  667MPD2     H 9925   2.246   0.374  14.836 -0.6429  1.2281  0.2923
  667MPD2    H1 9926   2.070   0.313  14.454  1.8959 -0.4276 -2.4398
  667MPD2    H2 9927   2.287   0.659  14.515  0.8636 -1.3344 -2.5705
  667MPD2    H3 9928   2.173   0.531  14.383 -2.4122  0.6342  0.3974
  667MPD2     N 9929   2.078   0.204  14.677  0.2846  0.4265  0.3130
  667MPD2    H5 9930   2.030   0.157  14.601  0.3320  0.6553  0.1432
  667MPD2    N1 9931   2.336   0.613  14.790  0.3596  0.2265 -0.3394
  667MPD2    H7 9932   2.364   0.572  14.879 -0.4009  2.0377  0.7277
  668TMC3    C1 9933   2.413   0.821  14.892  0.4231  0.2841 -0.1820
  668TMC3    C2 9934   2.457   0.950  14.884  0.6112  0.6124  0.3137
  668TMC3    C3 9935   2.451   1.033  14.987  0.5425 -0.1162 -0.7550
  668TMC3    C4 9936   2.351   0.778  15.014 -0.5534 -1.2778  1.0909
  668TMC3    C5 9937   2.327   0.878  15.108 -0.8167  0.1367 -0.4891
  668TMC3    C6 9938   2.383   1.000  15.100  0.1764 -0.0082 -0.0268
  668TMC3     C 9939   2.372   0.749  14.771 -0.6138  0.2996 -0.2961
  668TMC3     O 9940   2.368   0.823  14.675 -0.2701 -0.4901  0.1718
  668TMC3     H 9941   2.492   0.980  14.786 -1.4484  0.2475 -0.5320
  668TMC3    H1 9942   2.320   0.677  15.036 -2.1512 -0.9207  0.5368
  668TMC3    H2 9943   2.357   1.069  15.180  0.1993 -1.4340  1.1986
  668TMC3    C7 9944   2.272   0.848  15.236  0.3697 -0.1570 -0.6499
  668TMC3    C8 9945   2.498   1.166  14.977 -0.3351  0.2432 -0.0101
  668TMC3    O1 9946   2.323   0.912  15.330  0.4504 -0.1818  0.4812
  668TMC3    O2 9947   2.463   1.247  15.061 -0.3793 -0.4158 -0.0560
  669TMC3    C1 9948   0.318   0.269  14.982 -0.5181  0.1098  0.1926
  669TMC3    C2 9949   0.245   0.270  14.864 -0.2395  0.2539  0.4256
  669TMC3    C3 9950   0.311   0.325  14.760  0.0311 -0.7082  0.3308
  669TMC3    C4 9951   0.447   0.317  14.993  0.2693 -0.5352 -0.0151
  669TMC3    C5 9952   0.500   0.373  14.884  0.4406 -0.2239  0.5569
  669TMC3    C6 9953   0.434   0.386  14.763  0.0123  0.2073  0.3591
  669TMC3     C 9954   0.267   0.195  15.097  0.5174  0.2852  0.3043
  669TMC3     O 9955   0.149   0.200  15.127  0.2251  0.2531  0.0313
  669TMC3     H 9956   0.145   0.228  14.858 -0.1045 -0.0872  0.5742
  669TMC3    H1 9957   0.497   0.316  15.090 -0.4932  0.4913  0.3931
  669TMC3    H2 9958   0.482   0.427  14.676  0.2323  1.2738  0.9821
  669TMC3    C7 9959   0.639   0.412  14.886 -0.0942 -1.0723 -0.2175
  669TMC3    C8 9960   0.217   0.366  14.654  0.6020 -1.1910 -0.4795
  669TMC3    O1 9961   0.674   0.520  14.839  0.5543 -0.5971  0.4964
  669TMC3    O2 9962   0.167   0.285  14.578  0.5868  0.1780 -0.2943
  670MPD2     C 9963   3.399   3.126  13.703 -0.3398  0.1247 -0.6835
  670MPD2    C1 9964   3.507   3.170  13.775  0.1386 -1.1038 -0.4620
  670MPD2    C2 9965   3.521   3.128  13.907 -0.4955 -0.6597  0.7198
  670MPD2    C3 9966   3.437   3.028  13.960  0.4389  0.3632 -0.7890
  670MPD2    C4 9967   3.335   2.977  13.884  0.0614  0.2006  0.6802
  670MPD2    C5 9968   3.311   3.030  13.759 -0.6172 -0.5426  0.0019
  670MPD2     H 9969   3.607   3.169  13.958 -0.1822 -0.6575  0.1798
  670MPD2    H1 9970   3.274   2.895  13.918  1.1757 -0.2768  1.5115
  670MPD2    H2 9971   3.384   3.156  13.600 -3.4721 -0.8109 -0.4879
  670MPD2    H3 9972   3.232   2.985  13.699 -0.6093 -2.5168  1.4663
  670MPD2     N 9973   3.454   2.955  14.080 -0.1040 -0.0376  0.1282
  670MPD2    H5 9974   3.381   2.890  14.105 -2.6833  2.5987 -0.5017
  670MPD2    N1 9975   3.602   3.251  13.704  0.2924 -0.0053  0.0589
  670MPD2    H7 9976   3.694   3.260  13.747  0.5579 -1.9327 -0.0905
  671TMC3    C1 9977   3.566   2.847  14.244  0.1990 -0.6660 -0.5957
  671TMC3    C2 9978   3.650   2.845  14.348  0.2706  0.1280  0.7967
  671TMC3    C3 9979   3.694   2.723  14.394 -0.9297  0.0336  0.1786
  671TMC3    C4 9980   3.519   2.732  14.184  0.0136 -0.1211  0.1274
  671TMC3    C5 9981   3.555   2.613  14.239  0.3232  0.0158 -0.1680
  671TMC3    C6 9982   3.633   2.605  14.355 -0.1419  0.2415  0.9620
  671TMC3     C 9983   3.564   2.960  14.157 -0.0927 -0.0828 -0.2085
  671TMC3     O 9984   3.667   3.028  14.158  0.5832 -0.1722 -0.0915
  671TMC3     H 9985   3.724   2.925  14.352 -1.5303  1.6606  3.7809
  671TMC3    H1 9986   3.472   2.725  14.087  0.8435  2.1259 -0.4323
  671TMC3    H2 9987   3.680   2.514  14.392 -2.2419 -1.2298 -0.0244
  671TMC3    C7 9988   3.542   2.494  14.158 -0.1590 -0.5480 -0.5518
  671TMC3    C8 9989   3.835   2.716  14.416  0.0375  0.3718 -0.2644
  671TMC3    O1 9990   3.475   2.401  14.205 -0.1601 -0.0810  0.0863
  671TMC3    O2 9991   3.893   2.764  14.320 -0.1560  0.2401 -0.1977
  672MPD2     C 9992   3.097   3.465   0.666  0.3549 -0.2981  0.3462
  672MPD2    C1 9993   3.178   3.363   0.693  0.1467  0.4580  0.0787
  672MPD2    C2 9994   3.178   3.315   0.822 -0.1135  0.2255 -0.1731
  672MPD2    C3 9995   3.109   3.378   0.920 -0.2880  0.0612  0.1220
  672MPD2    C4 9996   3.039   3.492   0.894  0.1124  0.3688 -0.1399
  672MPD2    C5 9997   3.020   3.527   0.762  0.3014 -0.1337 -0.4529
  672MPD2     H 9998   3.253   3.240   0.844  0.5866  1.1984  0.7320
  672MPD2    H1 9999   2.973   3.538   0.966 -0.3968  0.9408 -0.9575
  672MPD2    H210000   3.086   3.498   0.563  0.8989  0.3964  0.5069
  672MPD2    H310001   2.948   3.605   0.736  3.3042  2.1384 -1.9262
  672MPD2     N10002   3.124   3.356   1.053 -0.4747 -0.2420 -0.1391
  672MPD2    H510003   3.072   3.415   1.117  0.8606  2.2771 -1.3631
  672MPD2    N110004   3.257   3.320   0.586  0.1725  0.2019 -0.0805
  672MPD2    H710005   3.231   3.355   0.494 -2.2184  1.5352  1.1086
  673TMC3    C110006   3.400   3.186   0.455  0.3069  0.1161 -0.3494
  673TMC3    C210007   3.510   3.105   0.449  0.0731  0.5722 -0.0219
  673TMC3    C310008   3.556   3.074   0.322 -0.1709  0.3844 -0.5298
  673TMC3    C410009   3.356   3.258   0.347  0.3238  0.1678 -0.2785
  673TMC3    C510010   3.406   3.225   0.226 -0.7319  0.5336  1.0450
  673TMC3    C610011   3.500   3.130   0.208 -0.3139 -0.2753 -0.2244
  673TMC3     C10012   3.358   3.227   0.590 -0.0529 -0.7696 -0.2670
  673TMC3     O10013   3.413   3.183   0.689  0.1094 -0.6807 -0.0985
  673TMC3     H10014   3.538   3.054   0.541 -0.6683 -0.5559 -0.4159
  673TMC3    H110015   3.267   3.320   0.345  2.0036  2.6468  2.3595
  673TMC3    H210016   3.557   3.119   0.116 -2.1335  1.3301 -1.5392
  673TMC3    C710017   3.356   3.298   0.111  0.1429  0.5908 -0.3902
  673TMC3    C810018   3.648   2.959   0.306 -0.3140  0.2000  0.0132
  673TMC3    O110019   3.339   3.221   0.016  0.1146 -0.3636 -0.4931
  673TMC3    O210020   3.667   2.911   0.196 -0.2193  0.6748  0.4871
  674MPD2     C10021   3.355   2.259  17.669 -0.4344 -0.0478  0.2066
  674MPD2    C110022   3.340   2.232   0.057 -0.5105  0.1169  0.1700
  674MPD2    C210023   3.347   2.336   0.148  0.3533 -0.4660  0.4669
  674MPD2    C310024   3.365   2.466   0.107 -0.0244 -0.0849  0.3100
  674MPD2    C410025   3.376   2.499  17.721  0.5295  0.6920 -0.0008
  674MPD2    C510026   3.377   2.394  17.626  0.5855 -0.5782  0.1461
  674MPD2     H10027   3.338   2.315   0.254  0.0111 -0.1404  0.5025
  674MPD2    H110028   3.385   2.600  17.682  4.8811  0.4548  0.3623
  674MPD2    H210029   3.349   2.188  17.588 -1.7557 -0.1789  0.4245
  674MPD2    H310030   3.388   2.413  17.520  2.8833 -1.1622  0.2939
  674MPD2     N10031   3.362   2.568   0.202 -0.8297  0.5236 -0.1228
  674MPD2    H510032   3.353   2.536   0.298  0.3144  4.0857  1.1627
  674MPD2    N110033   3.311   2.099   0.110  0.0065 -0.9140  0.2142
  674MPD2    H710034   3.292   2.089   0.210 -1.5202 -1.1936 -0.1029
  675TMC3    C110035   3.257   1.869   0.111  0.0061  0.4534 -0.0093
  675TMC3    C210036   3.176   1.881   0.230 -0.2751 -0.0107  0.0630
  675TMC3    C310037   3.167   1.770   0.311 -0.4487 -0.1056  0.4160
  675TMC3    C410038   3.311   1.751   0.073 -0.7142  0.1165 -0.2876
  675TMC3    C510039   3.294   1.641   0.158  0.4353  0.1875  0.3145
  675TMC3    C610040   3.217   1.647   0.271  0.0147 -0.0575 -0.0850
  675TMC3     C10041   3.300   1.989   0.030  0.0218 -0.0828 -0.1239
  675TMC3     O10042   3.337   1.966  17.659  0.1445  0.4191 -0.1679
  675TMC3     H10043   3.124   1.973   0.256  1.5783  1.1507 -0.3057
  675TMC3    H110044   3.367   1.739  17.724 -0.7391  0.1457 -0.3066
  675TMC3    H210045   3.193   1.563   0.336  0.6114 -0.9108 -0.9803
  675TMC3    C710046   3.336   1.515   0.107 -0.4611  0.2909 -0.4166
  675TMC3    C810047   3.083   1.778   0.430 -0.1200  0.2007 -0.3288
  675TMC3    O110048   3.377   1.504  17.737 -0.3065 -0.4962  0.2826
  675TMC3    O210049   3.024   1.674   0.464  0.0091  0.3661 -0.7065
  676MPD2     C10050   1.453   2.000  10.902 -0.5638 -0.3112  0.2113
  676MPD2    C110051   1.404   1.899  10.985 -0.5108 -0.8931 -0.3431
  676MPD2    C210052   1.392   1.772  10.931 -0.2814  0.6815 -0.0306
  676MPD2    C310053   1.424   1.749  10.801 -0.4271  0.0960 -0.0844
  676MPD2    C410054   1.482   1.852  10.725  0.2664  0.6467  0.0909
  676MPD2    C510055   1.481   1.979  10.769 -0.7587 -0.0366 -0.6295
  676MPD2     H10056   1.375   1.693  11.003  1.8256  0.7281  0.5147
  676MPD2    H110057   1.494   1.843  10.618 -0.9264  1.2282 -0.0976
  676MPD2    H210058   1.461   2.106  10.923 -0.3806 -0.8545  2.8840
  676MPD2    H310059   1.509   2.061  10.705  2.7316 -0.5384  0.2304
  676MPD2     N10060   1.394   1.626  10.743  0.8008  0.8194  0.3571
  676MPD2    H510061   1.417   1.615  10.645  0.0171  2.0807  0.0279
  676MPD2    N110062   1.364   1.912  11.122  0.4598  0.0673 -0.2778
  676MPD2    H710063   1.338   1.822  11.162 -2.2239  0.6377 -0.7235
  677TMC3    C110064   1.316   2.009  11.335 -0.8727 -0.1388  0.4609
  677TMC3    C210065   1.234   1.902  11.357  0.6682 -0.1363  0.6199
  677TMC3    C310066   1.129   1.917  11.443 -0.1207  0.9892  0.9793
  677TMC3    C410067   1.295   2.123  11.407  0.6904  0.4221 -0.4913
  677TMC3    C510068   1.191   2.135  11.487  0.1846 -0.3928 -0.2457
  677TMC3    C610069   1.092   2.036  11.499 -0.2398 -0.2718 -0.1124
  677TMC3     C10070   1.366   2.030  11.195  0.0213 -0.1388 -0.3909
  677TMC3     O10071   1.392   2.144  11.158  0.0477 -0.9110  0.2041
  677TMC3     H10072   1.247   1.805  11.313  1.0109  0.7061 -1.1221
  677TMC3    H110073   1.358   2.210  11.390  2.1653 -0.7630 -1.0599
  677TMC3    H210074   1.001   2.042  11.557 -0.3735  2.6217 -0.6561
  677TMC3    C710075   1.200   2.225  11.601 -0.3623  0.2582 -0.0970
  677TMC3    C810076   1.030   1.817  11.446 -0.7649  0.5976  0.3443
  677TMC3    O110077   1.093   2.261  11.651  0.5062 -0.0022  0.1176
  677TMC3    O210078   0.982   1.796  11.334  0.0975 -0.5461 -0.1322
  678MPD2     C10079   2.708   1.615   1.732 -0.0461  0.2119  0.7684
  678MPD2    C110080   2.680   1.597   1.600 -0.3159  0.0001  0.1833
  678MPD2    C210081   2.550   1.585   1.552  0.0561  0.1700  0.0298
  678MPD2    C310082   2.442   1.593   1.639 -0.0574 -0.3307 -0.0849
  678MPD2    C410083   2.468   1.620   1.773  0.6720  0.3779  0.7674
  678MPD2    C510084   2.596   1.614   1.816 -0.3732 -0.8687  0.0589
  678MPD2     H10085   2.531   1.587   1.446 -0.9044 -0.8968  0.1945
  678MPD2    H110086   2.387   1.626   1.845 -0.4695 -0.4120 -0.4380
  678MPD2    H210087   2.805   1.607   1.779  0.2688 -0.6192 -0.0257
  678MPD2    H310088   2.616   1.617   1.922 -3.4734 -1.8167  0.6437
  678MPD2     N10089   2.309   1.616   1.576 -0.3012 -0.2081 -0.8868
  678MPD2    H510090   2.312   1.607   1.475 -1.7339  1.3245 -1.0611
  678MPD2    N110091   2.778   1.580   1.496  0.7729  0.4853  0.1360
  678MPD2    H710092   2.735   1.553   1.408  0.6816  1.3864 -0.0922
  679TMC3    C110093   3.184   1.558   1.275  0.2153  0.0797  0.4402
  679TMC3    C210094   3.114   1.607   1.384  0.0480 -0.6203  0.4174
  679TMC3    C310095   2.987   1.552   1.400 -0.4168  0.2454 -0.1072
  679TMC3    C410096   3.142   1.458   1.193 -0.1774  0.0356  0.2958
  679TMC3    C510097   3.011   1.426   1.209 -0.5074 -0.8993  0.2337
  679TMC3    C610098   2.933   1.458   1.316  0.8664 -0.8326  0.0375
  679TMC3     C10099   3.323   1.596   1.257  0.2159 -0.2620  0.0461
  679TMC3     O10100   3.390   1.522   1.187  0.7594 -0.0875  0.4736
  679TMC3     H10101   3.152   1.679   1.456  1.6013  0.6235 -1.6157
  679TMC3    H110102   3.189   1.427   1.100  1.1994  0.9494  0.6812
  679TMC3    H210103   2.838   1.407   1.325  0.4847 -0.1915 -0.3211
  679TMC3    C710104   2.961   1.332   1.119 -0.1058  0.1213  0.5589
  679TMC3    C810105   2.913   1.603   1.510 -0.2919  0.0444  0.7166
  679TMC3    O110106   2.901   1.233   1.159  0.2657 -0.6928 -0.3396
  679TMC3    O210107   2.978   1.656   1.599  0.5075 -0.0960 -0.1736
  680MPD2     C10108   2.842   0.551  14.139 -0.4500 -0.7050 -0.8336
  680MPD2    C110109   2.946   0.472  14.099 -0.0914  0.3732  0.4192
  680MPD2    C210110   3.069   0.527  14.095 -0.2621 -0.0642  0.4480
  680MPD2    C310111   3.088   0.664  14.140 -0.0221  0.2407 -0.1109
  680MPD2    C410112   2.981   0.744  14.180 -0.5680 -0.1277 -0.1191
  680MPD2    C510113   2.857   0.684  14.172 -0.0496 -0.4622  0.6522
  680MPD2     H10114   3.150   0.467  14.057 -1.0997 -0.5852 -0.5100
  680MPD2    H110115   2.981   0.848  14.211  0.7576 -0.3852  0.7627
  680MPD2    H210116   2.741   0.514  14.126  0.5266 -3.4777 -0.4643
  680MPD2    H310117   2.769   0.744  14.189  2.2724  2.6379  1.6223
  680MPD2     N10118   3.212   0.725  14.144 -0.0589  0.0620  0.0701
  680MPD2    H510119   3.216   0.816  14.188 -3.1044 -0.4546  1.4031
  680MPD2    N110120   2.919   0.336  14.071 -0.3633 -0.6343  0.5198
  680MPD2    H710121   3.002   0.286  14.043  0.1637  0.4998  0.0850
  681TMC3    C110122   2.835   0.121  14.076  0.4496  0.9213 -0.4395
  681TMC3    C210123   2.862   0.070  14.202  0.3011  0.2879 -0.2914
  681TMC3    C310124   2.951   4.704  14.215 -0.6172 -0.5170 -0.3034
  681TMC3    C410125   2.921   0.093  13.974  0.2681  0.3329  0.2942
  681TMC3    C510126   3.016   4.731  13.989 -0.2324  0.4191 -0.5036
  681TMC3    C610127   3.036   4.668  14.109  0.0167  0.3711  1.0960
  681TMC3     C10128   2.800   0.267  14.076  0.1673  0.2722 -0.3217
  681TMC3     O10129   2.687   0.303  14.105  0.3247 -0.2071  0.0753
  681TMC3     H10130   2.802   0.092  14.289 -0.5551  2.4485 -1.4315
  681TMC3    H110131   2.894   0.124  13.874  3.1995 -1.1637 -0.9514
  681TMC3    H210132   3.102   4.583  14.114  0.5699  0.6871 -1.1824
  681TMC3    C710133   3.099   4.693  13.874 -0.5841  0.1515 -0.4227
  681TMC3    C810134   3.008   4.696  14.348 -0.2580 -0.1595 -0.0148
  681TMC3    O110135   3.151   4.585  13.886  0.0431  0.3210 -0.6140
  681TMC3    O210136   2.934   4.671  14.441 -0.0902  0.0036  1.0445
  682MPD2     C10137   0.321   1.983  10.365  0.0819  0.3177 -0.1819
  682MPD2    C110138   0.339   1.855  10.420  0.0820 -0.2391 -0.1759
  682MPD2    C210139   0.326   1.832  10.558  0.2102  0.3323 -0.2553
  682MPD2    C310140   0.291   1.937  10.640  0.9025  0.3080  0.5078
  682MPD2    C410141   0.265   2.059  10.581 -0.1428 -0.3756  0.3406
  682MPD2    C510142   0.273   2.081  10.446 -0.1249 -0.2524  0.3707
  682MPD2     H10143   0.356   1.737  10.599  0.2144  0.2276 -0.5034
  682MPD2    H110144   0.244   2.144  10.645  1.3493 -0.3459  0.8062
  682MPD2    H210145   0.346   2.007  10.262  1.5195  1.3791  0.4082
  682MPD2    H310146   0.275   2.182  10.408  0.6265 -0.4831 -0.1947
  682MPD2     N10147   0.264   1.921  10.774  0.1045  0.0520 -0.1224
  682MPD2    H510148   0.252   2.005  10.828 -2.0616 -1.5057  1.8230
  682MPD2    N110149   0.379   1.742  10.344  0.1118 -0.6465  0.1228
  682MPD2    H710150   0.399   1.659  10.399 -1.9383 -1.5941 -0.5432
  683TMC3    C110151   0.254   1.886  11.178 -0.5422  0.5423  0.4833
  683TMC3    C210152   0.181   1.785  11.234  0.6452  0.6205  0.7289
  683TMC3    C310153   0.161   1.676  11.157 -0.5931 -0.2286  0.6198
  683TMC3    C410154   0.278   1.896  11.045 -0.4863 -0.0956  0.1997
  683TMC3    C510155   0.252   1.786  10.971  0.1847  0.9122 -0.1549
  683TMC3    C610156   0.180   1.675  11.021 -0.2497  0.3921  1.2881
  683TMC3     C10157   0.305   1.985  11.274 -0.7933  0.0683  0.7301
  683TMC3     O10158   0.293   1.961  11.390 -0.7328 -0.1933 -0.3189
  683TMC3     H10159   0.143   1.791  11.335 -2.5662 -0.8241 -0.3761
  683TMC3    H110160   0.335   1.977  11.001 -1.6630 -0.4009 -1.9119
  683TMC3    H210161   0.167   1.583  10.965  0.7810  1.2557 -0.3497
  683TMC3    C710162   0.244   1.794  10.829 -0.1089  0.1325  0.9439
  683TMC3    C810163   0.059   1.590  11.211 -0.2399  0.0097  0.8350
  683TMC3    O110164   0.214   1.692  10.770  0.3408 -0.6722 -0.5256
  683TMC3    O210165   4.715   1.641  11.291 -0.0691 -0.0214 -0.2868
  684MPD2     C10166   3.483   0.488  16.304 -0.0172  0.2211  0.3799
  684MPD2    C110167   3.544   0.568  16.216 -0.1085  0.5380 -0.3740
  684MPD2    C210168   3.506   0.698  16.212  0.4976  0.0167 -0.0016
  684MPD2    C310169   3.408   0.754  16.292  0.6750 -0.5334  0.0369
  684MPD2    C410170   3.338   0.666  16.367 -0.0652 -0.0055  0.1860
  684MPD2    C510171   3.382   0.533  16.386  0.3147 -0.6358  0.3120
  684MPD2     H10172   3.554   0.762  16.138 -1.3290  0.7262 -0.5704
  684MPD2    H110173   3.255   0.697  16.430 -0.7994  0.0137 -0.8008
  684MPD2    H210174   3.520   0.390  16.331  0.5088  0.4570  0.5196
  684MPD2    H310175   3.321   0.469  16.448 -0.2159  1.5809  2.0752
  684MPD2     N10176   3.376   0.895  16.302  0.0511 -0.3787 -0.4133
  684MPD2    H510177   3.323   0.928  16.382 -0.0300 -1.6425  0.0528
  684MPD2    N110178   3.640   0.521  16.126  0.1841  0.2653 -0.5243
  684MPD2    H710179   3.709   0.593  16.107 -0.5736  0.8441 -1.0247
  685TMC3    C110180   3.727   0.407  15.956 -0.1612  0.1994 -0.6283
  685TMC3    C210181   3.664   0.482  15.862 -0.4112 -0.6477 -0.5030
  685TMC3    C310182   3.731   0.582  15.797  0.3437  0.0821  0.1324
  685TMC3    C410183   3.853   0.436  15.990 -0.7679  0.0088  0.0259
  685TMC3    C510184   3.912   0.545  15.932  0.7188 -0.0691  0.1140
  685TMC3    C610185   3.852   0.613  15.832  1.1580  0.0805 -0.7194
  685TMC3     C10186   3.651   0.391  16.077  0.8636 -0.3801 -0.4280
  685TMC3     O10187   3.565   0.305  16.079 -0.5639  0.4917 -0.4912
  685TMC3     H10188   3.563   0.446  15.842 -1.0219  0.1165  1.1922
  685TMC3    H110189   3.885   0.405  16.088 -1.2500 -0.8443 -0.0885
  685TMC3    H210190   3.893   0.704  15.788 -0.8142  1.4741  0.3443
  685TMC3    C710191   3.975   0.636  16.024 -0.3043 -0.3480 -0.2104
  685TMC3    C810192   3.650   0.704  15.767 -0.1591  0.3658 -0.2873
  685TMC3    O110193   3.959   0.619  16.142  0.3860 -0.9539 -0.0372
  685TMC3    O210194   3.702   0.806  15.726 -0.2910  0.3066  0.5933
  686MPD2     C10195   0.131   1.051  16.440  0.1618 -0.1308 -0.4484
  686MPD2    C110196   0.162   1.003  16.319  0.2033  0.5978 -0.3677
  686MPD2    C210197   0.296   1.001  16.286 -0.1735 -0.0720 -0.2455
  686MPD2    C310198   0.393   1.058  16.368  0.1809  0.1920  0.0568
  686MPD2    C410199   0.353   1.137  16.476  0.6911 -0.0220  0.9260
  686MPD2    C510200   0.221   1.123  16.512 -0.7488 -0.0123  0.3040
  686MPD2     H10201   0.329   0.957  16.192  1.5921 -0.9882  0.8116
  686MPD2    H110202   0.418   1.206  16.529  1.4494  0.6661 -0.8863
  686MPD2    H210203   0.031   1.049  16.481  0.2588  0.0882 -0.1979
  686MPD2    H310204   0.185   1.174  16.600  0.2071  0.7389  0.2585
  686MPD2     N10205   0.531   1.059  16.325  0.1705  0.0562 -0.3490
  686MPD2    H510206   0.600   1.101  16.387 -1.1740 -0.2792  1.3682
  686MPD2    N110207   0.054   0.946  16.247  0.5849 -0.1808  0.0157
  686MPD2    H710208   4.698   0.953  16.289  1.0977 -0.4666  1.1743
  687TMC3    C110209   0.726   1.020  16.201 -0.1562  0.1581 -0.5035
  687TMC3    C210210   0.768   1.042  16.074  0.0137 -0.1567  0.8677
  687TMC3    C310211   0.873   0.971  16.037  0.0948  0.2724 -0.3207
  687TMC3    C410212   0.774   0.929  16.293  0.5119 -1.1589 -0.7302
  687TMC3    C510213   0.886   0.869  16.250  0.3729 -0.3558  0.7283
  687TMC3    C610214   0.938   0.893  16.123 -0.0634 -0.5784  0.9002
  687TMC3     C10215   0.576   1.028  16.199 -0.3287  0.3742 -0.6307
  687TMC3     O10216   0.517   1.000  16.095 -0.6905 -0.1214  0.2818
  687TMC3     H10217   0.716   1.119  16.018  1.2571 -1.4428 -2.0328
  687TMC3    H110218   0.724   0.903  16.386  1.2601  0.7307  0.2076
  687TMC3    H210219   1.026   0.843  16.084 -0.9735 -0.2024 -1.6003
  687TMC3    C710220   0.921   0.749  16.316  0.3439  0.3728 -0.1404
  687TMC3    C810221   0.847   0.909  15.914  1.3801 -0.1870  0.1220
  687TMC3    O110222   0.837   0.707  16.392 -0.7680  0.4772  0.7244
  687TMC3    O210223   0.933   0.852  15.853  0.0649 -0.3219 -0.5978
  688MPD2     C10224   3.719   4.387  17.565  0.1485 -0.3768  0.6831
  688MPD2    C110225   3.773   4.262  17.591 -0.4470 -0.7885 -0.0512
  688MPD2    C210226   3.822   4.177  17.493 -0.0253 -0.1623 -0.4573
  688MPD2    C310227   3.851   4.236  17.366 -0.1625  0.3324 -0.8531
  688MPD2    C410228   3.802   4.361  17.342  0.2464  0.2504 -0.0171
  688MPD2    C510229   3.732   4.437  17.437 -0.4839  0.0672 -0.1171
  688MPD2     H10230   3.850   4.075  17.519 -0.2323  0.0300  0.4902
  688MPD2    H110231   3.819   4.421  17.253 -1.2559  0.2970 -0.2629
  688MPD2    H210232   3.682   4.450  17.645 -0.2131 -0.0707  0.2712
  688MPD2    H310233   3.712   4.541  17.418  2.7335  0.8323  0.6816
  688MPD2     N10234   3.911   4.169  17.253 -0.0610 -0.2683  0.3878
  688MPD2    H510235   3.937   4.233  17.179  1.0059 -0.7878  0.3203
  688MPD2    N110236   3.772   4.207  17.718  0.4405  0.3888 -0.4045
  688MPD2    H710237   3.782   4.106  17.727 -0.9176  0.3161  0.4325
  689TMC3    C110238   3.711   4.182   0.196 -1.0243 -0.1617 -0.4959
  689TMC3    C210239   3.679   4.237   0.313 -0.1814 -0.3069  0.5372
  689TMC3    C310240   3.650   4.169   0.429 -0.3381  0.1023  0.6497
  689TMC3    C410241   3.695   4.048   0.185  1.1073 -0.0646  0.2918
  689TMC3    C510242   3.637   3.978   0.291 -0.6392 -0.7647 -0.0316
  689TMC3    C610243   3.616   4.038   0.418 -0.2609 -0.7160 -0.0975
  689TMC3     C10244   3.737   4.277   0.092  0.2367  0.8402  0.6580
  689TMC3     O10245   3.701   4.391   0.102  0.4006  0.1411 -0.3028
  689TMC3     H10246   3.698   4.343   0.317 -1.2348 -0.0511 -1.5568
  689TMC3    H110247   3.734   3.999   0.097  1.3129  1.4114 -0.4433
  689TMC3    H210248   3.566   3.980   0.495 -2.2218  1.7132  0.4723
  689TMC3    C710249   3.620   3.833   0.295 -0.1249  0.0250 -0.6150
  689TMC3    C810250   3.614   4.236   0.551 -0.3396  0.0364  0.9513
  689TMC3    O110251   3.606   3.786   0.406  0.0242  0.4621  0.3397
  689TMC3    O210252   3.549   4.165   0.628 -0.0508 -0.4461 -0.2244
  690MPD2     C10253   1.513   1.421  16.180  0.0396  0.2355  0.0718
  690MPD2    C110254   1.465   1.391  16.057 -0.1008  0.5559  0.2526
  690MPD2    C210255   1.522   1.454  15.947  0.3391  0.5252  0.0198
  690MPD2    C310256   1.622   1.545  15.947 -0.1635  0.4250  0.1992
  690MPD2    C410257   1.672   1.572  16.075 -0.6450  0.0508 -0.6350
  690MPD2    C510258   1.612   1.515  16.188 -0.0103 -0.1652 -0.1961
  690MPD2     H10259   1.475   1.415  15.857 -1.0708 -0.1670  1.0659
  690MPD2    H110260   1.755   1.638  16.092 -0.8485  0.3409 -0.7687
  690MPD2    H210261   1.469   1.376  16.268 -0.6074  0.3814 -0.1765
  690MPD2    H310262   1.663   1.531  16.282 -2.4651  1.8022  0.8136
  690MPD2     N10263   1.653   1.615  15.834 -0.1076  0.1159 -0.6669
  690MPD2    H510264   1.599   1.609  15.749 -1.1966 -0.5930  0.0718
  690MPD2    N110265   1.352   1.313  16.029 -0.2562  0.2394  0.1434
  690MPD2    H710266   1.323   1.309  15.932 -0.1817 -5.3230  0.3513
  691TMC3    C110267   1.222   1.116  16.046 -0.5746  0.1144 -0.0064
  691TMC3    C210268   1.167   1.164  15.926 -0.6536  0.3222  0.1941
  691TMC3    C310269   1.151   1.078  15.822 -0.1368 -1.0178 -0.4768
  691TMC3    C410270   1.277   0.992  16.052 -0.0240 -0.1775 -0.0929
  691TMC3    C510271   1.279   0.915  15.937 -0.5727 -0.3924  0.2962
  691TMC3    C610272   1.207   0.951  15.827 -0.8113  0.1825 -0.8838
  691TMC3     C10273   1.303   1.212  16.117  0.2457 -0.2925 -0.3962
  691TMC3     O10274   1.339   1.183  16.233 -0.0579 -0.5279  0.0124
  691TMC3     H10275   1.132   1.267  15.931  0.1501  0.5620  0.9937
  691TMC3    H110276   1.335   0.967  16.140 -1.4244  0.8453  1.1143
  691TMC3    H210277   1.186   0.886  15.744  1.9588  1.7132 -2.7693
  691TMC3    C710278   1.281   0.773  15.962 -0.4330 -0.3544  0.3678
  691TMC3    C810279   1.082   1.126  15.698  0.0125  1.1548  0.4984
  691TMC3    O110280   1.374   0.728  16.030 -0.1823 -0.5048  0.0419
  691TMC3    O210281   1.092   1.043  15.606 -0.2186 -0.1346 -0.0742
  692TMC3    C110282   2.855   2.301  15.995  0.6074  0.5173 -0.2454
  692TMC3    C210283   2.987   2.328  16.016  0.2109  0.0528 -0.8717
  692TMC3    C310284   3.082   2.230  15.992  0.0120 -0.4071 -0.3782
  692TMC3    C410285   2.816   2.180  15.948 -0.1017 -0.6510 -0.2380
  692TMC3    C510286   2.911   2.083  15.944 -0.5613  0.2158  0.4069
  692TMC3    C610287   3.046   2.101  15.961 -0.3814 -0.2631 -0.2686
  692TMC3     C10288   2.753   2.397  16.037  0.1722 -0.3416  0.0700
  692TMC3     O10289   2.633   2.371  16.033 -0.3295  0.2418 -0.5305
  692TMC3     H10290   3.034   2.423  15.992 -1.1354  1.4482  1.9762
  692TMC3    H110291   2.712   2.153  15.941 -0.5289  0.8593  0.2061
  692TMC3    H210292   3.120   2.030  15.927 -1.6309 -1.7910  0.2089
  692TMC3    C710293   2.870   1.947  15.914 -0.5728  0.0657  0.6787
  692TMC3    C810294   3.180   2.219  16.090  0.0225 -0.5660  0.6500
  692TMC3    O110295   2.757   1.939  15.871  0.4477 -0.3405  0.3016
  692TMC3    O210296   3.253   2.122  16.108  0.5410  0.2233  0.3362
  693MPD2     C10297   2.665   1.295  10.850 -0.0656 -0.1806  0.0509
  693MPD2    C110298   2.674   1.158  10.818 -0.1607 -0.0432  0.3518
  693MPD2    C210299   2.797   1.107  10.798 -0.1984  0.2597 -0.1364
  693MPD2    C310300   2.912   1.181  10.828  0.0336  0.8151 -0.0173
  693MPD2    C410301   2.902   1.312  10.872 -0.0960  0.6222  0.5707
  693MPD2    C510302   2.780   1.369  10.879  0.6499 -0.0057  0.2495
  693MPD2     H10303   2.802   1.005  10.761 -1.9107  0.0155  0.3317
  693MPD2    H110304   2.985   1.370  10.910 -0.1237  0.7340  0.4597
  693MPD2    H210305   2.565   1.337  10.862  0.3706  0.4428  1.4195
  693MPD2    H310306   2.775   1.476  10.898 -2.7359  0.0166 -0.7535
  693MPD2     N10307   3.045   1.131  10.831 -0.2924  0.0060 -0.2295
  693MPD2    H510308   3.114   1.186  10.882  0.2718 -1.3509  0.4753
  693MPD2    N110309   2.554   1.097  10.786  0.2351 -0.4353  0.0691
  693MPD2    H710310   2.475   1.155  10.812  0.8388  0.4285 -0.0187
  694TMC3    C110311   2.388   0.956  10.754  0.5149  0.1287  0.0820
  694TMC3    C210312   2.314   0.890  10.657 -0.1002  0.3618  0.4132
  694TMC3    C310313   2.185   0.853  10.686  0.6897 -0.1208 -0.6698
  694TMC3    C410314   2.334   0.987  10.870  0.1244 -0.0887  0.1709
  694TMC3    C510315   2.209   0.930  10.897  0.2795  0.0679 -0.7850
  694TMC3    C610316   2.127   0.874  10.806 -0.2739 -0.6724 -0.6272
  694TMC3     C10317   2.528   0.974  10.742 -0.0192 -0.7216 -0.3719
  694TMC3     O10318   2.607   0.886  10.707  0.2831  0.1538  0.4384
  694TMC3     H10319   2.370   0.848  10.574 -0.8986 -0.6286  0.3787
  694TMC3    H110320   2.385   1.041  10.949 -0.2260 -1.0140  1.0258
  694TMC3    H210321   2.022   0.855  10.828 -0.5195  0.4208 -0.8860
  694TMC3    C710322   2.163   0.941  11.036 -0.2002 -0.6745  0.1543
  694TMC3    C810323   2.101   0.785  10.586  0.3810  0.7353 -0.8076
  694TMC3    O110324   2.228   1.021  11.102 -0.2874  0.6327 -0.1443
  694TMC3    O210325   2.020   0.711  10.637 -0.0521  0.2056  0.0942
  695MPD2     C10326   4.446   2.728  13.579  0.6825  0.5213 -0.6272
  695MPD2    C110327   4.360   2.643  13.644  0.0712 -0.4699  0.4557
  695MPD2    C210328   4.234   2.631  13.602  0.3958 -0.2264 -0.3148
  695MPD2    C310329   4.192   2.684  13.487 -0.6626 -0.6363  0.3759
  695MPD2    C410330   4.282   2.753  13.408  0.5011 -0.0008  0.0836
  695MPD2    C510331   4.408   2.775  13.457  0.0681  0.0827 -0.3058
  695MPD2     H10332   4.160   2.569  13.652 -1.2338  1.3858 -0.7135
  695MPD2    H110333   4.259   2.800  13.313  2.5069  0.1421 -0.3277
  695MPD2    H210334   4.547   2.749  13.612  0.8634  0.1447 -0.9449
  695MPD2    H310335   4.485   2.817  13.393  1.2154 -0.1522  0.9549
  695MPD2     N10336   4.065   2.648  13.439 -0.3217 -0.3557  0.0019
  695MPD2    H510337   3.999   2.622  13.513 -0.0596  2.2905  1.1759
  695MPD2    N110338   4.397   2.577  13.764 -0.3298  0.2841 -1.1743
  695MPD2    H710339   4.321   2.535  13.816 -0.3442 -0.1919 -1.5776
  696TMC3    C110340   3.870   2.637  13.302 -0.6024 -0.9514 -0.4499
  696TMC3    C210341   3.804   2.573  13.397 -0.3772 -0.6280 -0.1342
  696TMC3    C310342   3.673   2.591  13.411 -0.2232 -0.1798 -0.9266
  696TMC3    C410343   3.803   2.720  13.213 -0.2094  0.4573 -0.2148
  696TMC3    C510344   3.666   2.741  13.234 -0.3622 -0.2649  0.2268
  696TMC3    C610345   3.600   2.667  13.332  0.1581 -0.5662 -0.3248
  696TMC3     C10346   4.015   2.668  13.314 -0.9670  0.2628 -0.5827
  696TMC3     O10347   4.066   2.718  13.212  0.6162  0.5242 -0.1200
  696TMC3     H10348   3.855   2.514  13.472 -0.4096 -1.2268 -0.5857
  696TMC3    H110349   3.853   2.785  13.142  1.6565 -0.4612  0.2708
  696TMC3    H210350   3.494   2.677  13.354 -0.0387 -0.0883 -1.5021
  696TMC3    C710351   3.606   2.858  13.173 -1.2040  0.4924  0.0015
  696TMC3    C810352   3.611   2.547  13.531  0.3065  0.1001 -0.3618
  696TMC3    O110353   3.659   2.893  13.072  0.6376  0.1038  0.8944
  696TMC3    O210354   3.530   2.619  13.591 -0.6153  0.5637 -0.1255
  697MPD2     C10355   3.138   3.887  15.416 -0.4239 -0.3565  1.1236
  697MPD2    C110356   3.039   3.858  15.323  0.4588  0.0689 -0.1716
  697MPD2    C210357   3.005   3.944  15.218 -0.5609 -0.0752 -0.4981
  697MPD2    C310358   3.059   4.071  15.216  0.0129  0.8354 -0.3949
  697MPD2    C410359   3.159   4.094  15.309 -0.0445 -0.0360 -1.0480
  697MPD2    C510360   3.204   4.005  15.407  0.5248  0.7819 -0.2100
  697MPD2     H10361   2.934   3.915  15.142 -1.1399  1.1879 -0.4457
  697MPD2    H110362   3.206   4.192  15.312  1.0522 -0.5443 -2.0725
  697MPD2    H210363   3.164   3.823  15.499 -0.8734  0.6381  2.0232
  697MPD2    H310364   3.286   4.019  15.477  0.1912  0.1047  0.3192
  697MPD2     N10365   3.032   4.159  15.110  0.0939  0.0768 -0.1446
  697MPD2    H510366   2.951   4.141  15.052 -1.6194  0.9667  1.9580
  697MPD2    N110367   2.977   3.730  15.335  0.2801  0.4311 -0.5132
  697MPD2    H710368   2.923   3.699  15.255  0.0403  0.1220 -0.2326
  698TMC3    C110369   3.026   4.354  14.981 -1.0730  0.1477 -0.8516
  698TMC3    C210370   3.009   4.491  15.002 -0.1861 -0.2428 -0.0352
  698TMC3    C310371   2.934   4.554  14.901 -0.2394  0.5070  0.1608
  698TMC3    C410372   2.972   4.280  14.872  1.0029  0.6407 -0.2596
  698TMC3    C510373   2.920   4.358  14.769 -0.5259  0.0699 -0.5860
  698TMC3    C610374   2.904   4.496  14.779  0.9307  0.3346  0.6103
  698TMC3     C10375   3.077   4.284  15.095  0.2526  0.1393 -0.4790
  698TMC3     O10376   3.151   4.344  15.172  0.4675  0.4602  0.1223
  698TMC3     H10377   3.008   4.539  15.099  1.7603  0.0626 -0.1683
  698TMC3    H110378   2.995   4.174  14.863  0.1976  0.2974  1.6354
  698TMC3    H210379   2.846   4.547  14.703 -1.2643 -2.9017  0.1112
  698TMC3    C710380   2.871   4.298  14.647 -0.1889 -0.8799 -0.5264
  698TMC3    C810381   2.930   4.695  14.906  0.2738  0.0421 -0.8130
  698TMC3    O110382   2.840   4.377  14.554  0.5615  0.5565 -0.3610
  698TMC3    O210383   2.832   0.006  14.847  0.2072  0.5653  0.1555
  699TMC3    C110384   2.886   2.846  13.521  0.5317 -0.3036 -0.1725
  699TMC3    C210385   2.966   2.801  13.618 -0.1914 -0.1921  0.4747
  699TMC3    C310386   2.909   2.757  13.729  0.5909  0.0456  0.3040
  699TMC3    C410387   2.749   2.850  13.534  0.4256 -0.0562 -0.0821
  699TMC3    C510388   2.689   2.798  13.652  1.0178 -0.2379 -0.0848
  699TMC3    C610389   2.774   2.756  13.748 -0.3549 -0.8494 -0.1254
  699TMC3     C10390   2.938   2.844  13.391  0.3783  0.1460 -0.4341
  699TMC3     O10391   2.890   2.924  13.308 -0.0808  0.5556 -0.4758
  699TMC3     H10392   3.071   2.825  13.616  0.0415 -1.1663  0.8576
  699TMC3    H110393   2.686   2.875  13.449  0.1132  0.0590  0.1795
  699TMC3    H210394   2.731   2.728  13.844 -4.1596 -0.0462 -1.5921
  699TMC3    C710395   2.545   2.797  13.679  0.2202 -0.1073  0.0172
  699TMC3    C810396   2.961   2.643  13.797  0.7414 -0.5897  0.3712
  699TMC3    O110397   2.516   2.754  13.791 -0.4166 -0.2647  0.1608
  699TMC3    O210398   2.887   2.589  13.877  0.6124  0.1231 -0.4363
  700TMC3    C110399   1.903   4.427  17.273 -1.0737 -0.4971 -0.4226
  700TMC3    C210400   1.999   4.333  17.254 -0.0717  0.5396  0.4786
  700TMC3    C310401   2.098   4.305  17.349  0.1122 -0.4788  0.4298
  700TMC3    C410402   1.900   4.499  17.389  0.0660  0.2966  0.6472
  700TMC3    C510403   1.980   4.451  17.492  0.1428  0.3069 -1.0459
  700TMC3    C610404   2.079   4.358  17.470  1.0315  0.1926 -0.9614
  700TMC3     C10405   1.877   4.505  17.152 -0.3571  0.0289 -0.1387
  700TMC3     O10406   1.958   4.479  17.063  0.0131 -0.3545  0.0611
  700TMC3     H10407   1.998   4.283  17.157 -0.1813 -0.0734  0.7934
  700TMC3    H110408   1.827   4.579  17.397 -1.2538 -0.8503  0.0509
  700TMC3    H210409   2.151   4.331  17.546  2.7428  0.4056 -2.5031
  700TMC3    C710410   2.010   4.537  17.602 -0.2353 -0.0267  0.3038
  700TMC3    C810411   2.229   4.276  17.298  0.1432 -0.8955 -0.8384
  700TMC3    O110412   2.009   4.654  17.569 -0.7080 -0.2528  0.4995
  700TMC3    O210413   2.227   4.228  17.183 -0.7041 -0.0815  0.2548
  701TMC3    C110414   2.371   3.387  15.505 -0.3062 -0.4195  0.2193
  701TMC3    C210415   2.448   3.357  15.388 -0.0819 -0.4050 -0.5468
  701TMC3    C310416   2.513   3.463  15.332 -0.8149 -0.5296 -0.1136
  701TMC3    C410417   2.368   3.510  15.562 -0.7839  0.5060 -0.7218
  701TMC3    C510418   2.436   3.607  15.499  0.5894  0.2540 -0.0145
  701TMC3    C610419   2.515   3.591  15.383  0.4661  0.6480 -0.2423
  701TMC3     C10420   2.268   3.293  15.547 -0.5320  0.2140 -0.3286
  701TMC3     O10421   2.160   3.332  15.587 -0.9182 -0.3273 -0.3931
  701TMC3     H10422   2.445   3.261  15.337  1.6411 -1.1539  0.7526
  701TMC3    H110423   2.292   3.543  15.632 -2.0875 -2.4424 -0.7352
  701TMC3    H210424   2.554   3.678  15.331 -2.0424  1.3284 -0.9883
  701TMC3    C710425   2.399   3.737  15.536 -0.3325 -0.5800  0.0892
  701TMC3    C810426   2.544   3.451  15.187 -0.0055 -0.0190 -0.2266
  701TMC3    O110427   2.408   3.822  15.452 -0.5046  0.1402  0.4443
  701TMC3    O210428   2.662   3.454  15.161 -0.2717 -0.3510 -0.2296
  702MPD2     C10429   1.640   1.314  10.205 -0.2110 -0.1414  0.4039
  702MPD2    C110430   1.563   1.419  10.246  0.2201  0.3871  0.1752
  702MPD2    C210431   1.612   1.541  10.214  0.6860 -0.1635  0.6128
  702MPD2    C310432   1.729   1.562  10.153 -0.6112  0.4237 -0.0295
  702MPD2    C410433   1.799   1.461  10.097  0.1272 -0.2618 -0.7468
  702MPD2    C510434   1.750   1.337  10.132  0.5876 -0.0191 -0.1823
  702MPD2     H10435   1.565   1.621  10.270 -0.1062 -1.7051  2.1838
  702MPD2    H110436   1.887   1.461  10.034  0.0706  1.6316 -0.8089
  702MPD2    H210437   1.615   1.209  10.221 -0.5808  0.1049  1.4499
  702MPD2    H310438   1.805   1.250  10.098 -1.9966 -1.6521 -0.1864
  702MPD2     N10439   1.767   1.695  10.143 -0.1438  0.1231  0.5175
  702MPD2    H510440   1.710   1.764  10.192 -0.8605 -0.7973  0.9845
  702MPD2    N110441   1.446   1.412  10.328  0.1108  0.8112  0.3092
  702MPD2    H710442   1.412   1.501  10.365 -1.9222 -0.4796  1.5661
  703TMC3    C110443   1.884   1.892  10.113  0.2136 -0.2227 -0.3148
  703TMC3    C210444   1.775   1.961  10.158 -0.0833  0.0965 -1.1563
  703TMC3    C310445   1.795   2.089  10.196 -0.0547 -1.0723 -0.1708
  703TMC3    C410446   2.000   1.963  10.076 -0.3892 -0.4137 -0.1451
  703TMC3    C510447   2.007   2.097  10.108 -0.1633 -0.3341 -0.3766
  703TMC3    C610448   1.906   2.161  10.176 -0.1217 -0.0544  0.7634
  703TMC3     C10449   1.881   1.748  10.092  0.6905 -0.4194 -0.4034
  703TMC3     O10450   1.961   1.702  10.008  0.2866 -0.0977  0.7126
  703TMC3     H10451   1.679   1.911  10.161  0.5969 -1.0839  0.8558
  703TMC3    H110452   2.090   1.910  10.046  1.1900  1.9322  0.4257
  703TMC3    H210453   1.904   2.266  10.203  0.9867  0.5451 -1.4265
  703TMC3    C710454   2.104   2.173  10.026 -1.0251 -0.1694 -0.2309
  703TMC3    C810455   1.680   2.170  10.226 -0.0544  0.7524 -0.9488
  703TMC3    O110456   2.190   2.113   9.970  0.2282  0.7742 -0.0861
  703TMC3    O210457   1.686   2.286  10.198 -0.3903  0.1913  0.0638
  704TMC3    C110458   3.811   4.495  12.464  0.3381 -0.0686  0.7478
  704TMC3    C210459   3.947   4.484  12.439 -0.2683  0.5224 -1.9637
  704TMC3    C310460   4.016   4.383  12.497  0.4198  0.8578  0.9251
  704TMC3    C410461   3.740   4.401  12.531  0.0134 -0.2482  0.5923
  704TMC3    C510462   3.819   4.295  12.581  0.9925  0.1524  0.8022
  704TMC3    C610463   3.956   4.285  12.572  0.9392  0.2855 -0.3657
  704TMC3     C10464   3.734   4.592  12.386  0.5609 -0.2847  0.3759
  704TMC3     O10465   3.621   4.561  12.353  0.3174  0.1287 -0.6175
  704TMC3     H10466   4.000   4.554  12.376  0.9092  0.4321 -1.0656
  704TMC3    H110467   3.633   4.394  12.549  0.2348 -0.4140  1.8762
  704TMC3    H210468   4.012   4.211  12.628 -0.0215 -1.0030 -1.1387
  704TMC3    C710469   3.748   4.169  12.606  0.7653  0.2614 -0.0192
  704TMC3    C810470   4.164   4.391  12.470  0.1728 -0.6022  0.6760
  704TMC3    O110471   3.644   4.180  12.671  0.2053  0.4731  0.0965
  704TMC3    O210472   4.200   4.460  12.378  0.2576 -0.8158  0.8870
  705MPD2     C10473   3.425   1.873  16.652 -0.3301 -0.0169 -0.0847
  705MPD2    C110474   3.320   1.839  16.567 -0.0723  0.0287 -0.1190
  705MPD2    C210475   3.191   1.883  16.593 -0.0332 -0.2579 -0.1728
  705MPD2    C310476   3.169   1.957  16.699 -0.3141  0.1351  0.1161
  705MPD2    C410477   3.271   1.981  16.790 -0.3321  0.3982 -0.2559
  705MPD2    C510478   3.391   1.919  16.772 -0.3455 -0.4771 -0.3615
  705MPD2     H10479   3.107   1.871  16.525  0.1496 -1.6562 -0.1419
  705MPD2    H110480   3.279   2.052  16.871  0.3763 -0.6706  0.6129
  705MPD2    H210481   3.530   1.847  16.640 -0.0565  1.2673 -0.4582
  705MPD2    H310482   3.465   1.949  16.846 -1.2491 -2.8887  1.5255
  705MPD2     N10483   3.039   2.021  16.712 -0.1485 -0.7020 -0.6415
  705MPD2    H510484   2.979   1.992  16.636 -0.7033  0.6625 -0.7224
  705MPD2    N110485   3.343   1.778  16.440  0.4297 -0.9361  0.1523
  705MPD2    H710486   3.271   1.796  16.371 -1.0752  2.5299  2.6169
  706TMC3    C110487   3.671   1.749  16.100 -0.1084 -0.1811 -0.1076
  706TMC3    C210488   3.650   1.883  16.064  0.1642 -0.9388  0.7565
  706TMC3    C310489   3.566   1.957  16.139  0.3350  0.3105 -0.5056
  706TMC3    C410490   3.590   1.693  16.198 -0.3245  0.1990  0.3921
  706TMC3    C510491   3.497   1.774  16.259 -0.9026 -0.6454 -0.7483
  706TMC3    C610492   3.489   1.907  16.243 -0.5396 -0.1050 -0.5533
  706TMC3     C10493   3.736   1.653  16.018  0.2158  0.0800  0.2564
  706TMC3     O10494   3.761   1.546  16.071  0.3358  0.3712  0.1461
  706TMC3     H10495   3.716   1.929  15.991  1.6725 -2.1260  1.3654
  706TMC3    H110496   3.588   1.587  16.221 -3.3412  0.1671  0.0048
  706TMC3    H210497   3.430   1.980  16.297 -0.2719  0.8165 -1.4938
  706TMC3    C710498   3.470   1.737  16.395 -0.1878  0.5875  0.1342
  706TMC3    C810499   3.568   2.105  16.122 -0.5065  0.6235 -0.1345
  706TMC3    O110500   3.561   1.691  16.465  0.9392 -0.3491 -0.0659
  706TMC3    O210501   3.592   2.158  16.014  0.3539 -0.2892  0.1843
  707TMC3    C110502   0.837   1.862   1.631  0.2328 -0.2277 -0.2732
  707TMC3    C210503   0.795   1.760   1.556 -0.0775 -0.3016 -0.0368
  707TMC3    C310504   0.657   1.739   1.543  0.0441 -0.2897 -0.1094
  707TMC3    C410505   0.749   1.939   1.700  0.5450  0.5791  0.1424
  707TMC3    C510506   0.613   1.912   1.681  0.1165 -1.4456  0.4514
  707TMC3    C610507   0.560   1.808   1.611  0.0592  0.7090  1.5644
  707TMC3     C10508   0.971   1.849   1.679 -0.3033  0.3884 -0.3323
  707TMC3     O10509   1.062   1.802   1.614 -0.1920 -0.0492 -0.6614
  707TMC3     H10510   0.863   1.717   1.483 -0.1502 -2.0555  0.9184
  707TMC3    H110511   0.779   2.028   1.755  1.3234  1.0001 -0.9388
  707TMC3    H210512   0.456   1.792   1.584  1.1847 -2.8984 -0.7035
  707TMC3    C710513   0.511   1.986   1.753  0.1166  0.4512  0.2021
  707TMC3    C810514   0.609   1.623   1.475 -0.4951  0.5943  0.2598
  707TMC3    O110515   0.404   1.995   1.694 -0.2411  0.4825 -0.1468
  707TMC3    O210516   0.491   1.621   1.450  0.6698 -0.0557 -0.3064
  708MPD2     C10517   1.357   0.760  14.244  0.2747 -0.8394  1.1598
  708MPD2    C110518   1.362   0.711  14.373  0.4207  0.6781 -0.0188
  708MPD2    C210519   1.484   0.705  14.445 -0.5248 -0.1208  0.8597
  708MPD2    C310520   1.599   0.765  14.388 -0.3558 -0.5722 -0.0030
  708MPD2    C410521   1.589   0.823  14.266  1.2358 -0.1844  0.5463
  708MPD2    C510522   1.470   0.823  14.197 -1.2468  0.3539 -0.2850
  708MPD2     H10523   1.492   0.656  14.542  3.9495  1.6097  1.3678
  708MPD2    H110524   1.674   0.874  14.222 -0.8325  2.1668 -0.7085
  708MPD2    H210525   1.259   0.782  14.203  1.2141 -0.5418 -0.9312
  708MPD2    H310526   1.462   0.876  14.103  0.9828 -0.3396 -0.8771
  708MPD2     N10527   1.726   0.760  14.443  0.3368 -0.0658  0.2360
  708MPD2    H510528   1.802   0.797  14.387 -0.6033 -1.5948 -2.0391
  708MPD2    N110529   1.248   0.656  14.419  0.7272  0.8994  0.1683
  708MPD2    H710530   1.177   0.642  14.348  0.3525 -0.5784  0.8220
  709TMC3    C110531   1.135   0.463  14.498 -0.1436 -1.0253 -0.9563
  709TMC3    C210532   1.142   0.402  14.375 -0.7076 -0.2803 -0.6852
  709TMC3    C310533   1.145   0.265  14.376 -0.2038 -0.1951  0.3000
  709TMC3    C410534   1.130   0.381  14.607  0.0960 -0.0401  0.5180
  709TMC3    C510535   1.150   0.247  14.602 -0.4811  0.2212  0.1016
  709TMC3    C610536   1.151   0.186  14.483  0.9230  0.0407 -0.1066
  709TMC3     C10537   1.232   0.574  14.524  0.8361  0.1242 -0.0356
  709TMC3     O10538   1.309   0.549  14.617  0.2016 -0.4471 -0.4267
  709TMC3     H10539   1.133   0.459  14.282  0.3049 -0.2230 -0.7409
  709TMC3    H110540   1.124   0.438  14.699  0.5033 -0.3171  0.7111
  709TMC3    H210541   1.174   0.082  14.466 -0.4404 -0.0013 -1.7187
  709TMC3    C710542   1.260   0.198  14.687  0.5251  0.5545 -1.0394
  709TMC3    C810543   1.160   0.196  14.249 -0.4172 -0.6221  0.0105
  709TMC3    O110544   1.291   0.077  14.698  0.0217 -0.0441 -0.3686
  709TMC3    O210545   1.111   0.084  14.242 -0.0886 -0.5223  0.3445
  710TMC3    C110546   2.662   1.785   0.338 -0.2627 -0.1335  0.2403
  710TMC3    C210547   2.720   1.752   0.219 -0.4682  0.6102  0.5486
  710TMC3    C310548   2.790   1.635   0.213  0.4118 -0.2786 -0.2975
  710TMC3    C410549   2.677   1.705   0.451 -0.5108  0.2202 -0.9087
  710TMC3    C510550   2.732   1.580   0.434 -0.3265 -0.0623 -0.8127
  710TMC3    C610551   2.793   1.543   0.315  0.4209 -0.6585  1.0157
  710TMC3     C10552   2.631   1.928   0.347  0.2942 -1.1489 -0.5127
  710TMC3     O10553   2.637   1.988   0.242  0.3955 -0.7645  0.4494
  710TMC3     H10554   2.726   1.821   0.135  0.5970  0.0104  0.1289
  710TMC3    H110555   2.632   1.727   0.547  0.2198 -1.2822 -0.2234
  710TMC3    H210556   2.835   1.443   0.319  0.2706 -0.8233 -2.1907
  710TMC3    C710557   2.764   1.519   0.560 -0.1952  0.5785 -0.0291
  710TMC3    C810558   2.864   1.612   0.086 -0.6605 -0.0951  0.3738
  710TMC3    O110559   2.759   1.596   0.656 -0.6608 -0.7198 -0.0945
  710TMC3    O210560   2.851   1.699   0.001  0.3937  0.1521 -0.0846
  711TMC3    C110561   2.504   2.746  14.939 -0.6972  0.4638  0.5387
  711TMC3    C210562   2.462   2.817  15.048  0.0025 -0.1660  0.2989
  711TMC3    C310563   2.562   2.879  15.129 -0.2061  1.1671  0.1037
  711TMC3    C410564   2.637   2.736  14.898  0.4640 -0.2324  0.0750
  711TMC3    C510565   2.722   2.803  14.979 -0.1106 -0.6497 -0.6633
  711TMC3    C610566   2.687   2.889  15.076 -0.7747 -0.0135 -0.0768
  711TMC3     C10567   2.406   2.645  14.894  0.4725 -0.2432  0.0395
  711TMC3     O10568   2.291   2.688  14.870  0.3242  0.2196  0.1760
  711TMC3     H10569   2.359   2.812  15.081  0.8445 -0.0255  2.9861
  711TMC3    H110570   2.678   2.666  14.826 -0.2168  0.5955 -1.1270
  711TMC3    H210571   2.755   2.953  15.132  0.7599 -0.8646 -0.9742
  711TMC3    C710572   2.852   2.757  15.006  0.0400  1.1577  0.0909
  711TMC3    C810573   2.559   2.810  15.253  0.8035  0.7539  0.0886
  711TMC3    O110574   2.892   2.788  15.116 -0.0988 -0.1833  0.0494
  711TMC3    O210575   2.449   2.770  15.289 -0.2417 -0.5702  0.2431
  712MPD2     C10576   4.026   4.090  13.423  0.3542  0.2077 -0.5849
  712MPD2    C110577   3.960   4.180  13.342  0.4118 -0.0282 -0.7584
  712MPD2    C210578   3.959   4.314  13.391 -0.4324 -0.2264  0.0212
  712MPD2    C310579   4.006   4.349  13.511 -0.6911  0.0684 -1.3131
  712MPD2    C410580   4.062   4.251  13.586 -0.7001 -0.1089  0.6948
  712MPD2    C510581   4.072   4.121  13.552 -0.3719  0.6173 -1.1574
  712MPD2     H10582   3.908   4.378  13.319  1.7514  1.4323 -0.0197
  712MPD2    H110583   4.097   4.276  13.686 -2.6063  1.2408  1.0142
  712MPD2    H210584   4.027   3.986  13.393  1.8040 -0.5120  1.9416
  712MPD2    H310585   4.124   4.055  13.620 -1.4472  0.8019 -0.1456
  712MPD2     N10586   4.001   4.480  13.560  0.2674  1.2637 -0.5466
  712MPD2    H510587   4.042   4.504  13.649  2.4707 -1.3822 -0.8599
  712MPD2    N110588   3.887   4.154  13.222 -0.0724 -0.2181  0.2547
  712MPD2    H710589   3.850   4.239  13.179 -2.5180 -1.4860 -0.1644
  713TMC3    C110590   3.947   4.713  13.554 -0.9327  0.3218 -0.2262
  713TMC3    C210591   4.066   0.008  13.616  0.4129 -0.9653 -0.2416
  713TMC3    C310592   4.098   0.138  13.627  0.2211 -0.3973  0.1346
  713TMC3    C410593   3.860   0.067  13.497 -0.1236  0.7092 -0.4530
  713TMC3    C510594   3.896   0.197  13.514 -0.8339 -0.3641 -0.6170
  713TMC3    C610595   4.012   0.232  13.584  0.0419  0.3782 -0.0423
  713TMC3     C10596   3.932   4.578  13.499 -0.4906  0.4558  0.4274
  713TMC3     O10597   3.858   4.575  13.405 -0.4821  0.0916 -0.3851
  713TMC3     H10598   4.137   4.673  13.658  1.0546 -0.6722 -0.8359
  713TMC3    H110599   3.765   0.045  13.450 -0.1625 -0.1990  0.0590
  713TMC3    H210600   4.040   0.336  13.592  0.7538  0.1032  1.1568
  713TMC3    C710601   3.844   0.294  13.427 -0.2550  0.6012  0.1232
  713TMC3    C810602   4.223   0.184  13.672  0.4884 -0.2807  0.0072
  713TMC3    O110603   3.917   0.334  13.335  0.3667  0.1934  0.0862
  713TMC3    O210604   4.225   0.304  13.694  0.3691  0.1509  0.2208
  714MPD2     C10605   1.383   2.561   1.806  0.1520  0.0291  0.5418
  714MPD2    C110606   1.418   2.524   1.674  0.5584  0.2930  0.5302
  714MPD2    C210607   1.313   2.519   1.586  0.2408 -0.0060  0.0240
  714MPD2    C310608   1.188   2.564   1.617  0.3349 -0.3185  0.3341
  714MPD2    C410609   1.165   2.600   1.746 -0.0342  0.4175  0.0394
  714MPD2    C510610   1.261   2.587   1.838 -0.3392  0.0217 -0.4568
  714MPD2     H10611   1.325   2.480   1.485  1.9396  0.2394  0.1309
  714MPD2    H110612   1.071   2.622   1.794 -0.0128  0.4223  0.0793
  714MPD2    H210613   1.456   2.567   1.885  1.5146  1.8221 -0.8577
  714MPD2    H310614   1.232   2.597   1.942  1.3022  0.6137 -0.0561
  714MPD2     N10615   1.078   2.560   1.528  0.1410 -0.3076 -0.4138
  714MPD2    H510616   1.109   2.536   1.434 -0.6026 -1.2678 -0.4101
  714MPD2    N110617   1.552   2.484   1.649  0.1356  0.3694 -0.7643
  714MPD2    H710618   1.610   2.479   1.732  0.5936 -1.7497 -1.2151
  715TMC3    C110619   1.745   2.432   1.513 -0.1231  0.1145  0.1933
  715TMC3    C210620   1.793   2.341   1.418  0.5424  0.6344  0.3967
  715TMC3    C310621   1.933   2.324   1.414  0.7518 -0.2045  0.2111
  715TMC3    C410622   1.823   2.496   1.606 -0.0429 -0.1446  0.0351
  715TMC3    C510623   1.959   2.471   1.609  0.5810 -0.1631  0.0334
  715TMC3    C610624   2.002   2.377   1.517 -0.2892 -0.1745  0.3372
  715TMC3     C10625   1.599   2.454   1.522  0.2447  0.1643  0.5008
  715TMC3     O10626   1.533   2.439   1.415  0.1532  0.0763 -0.0150
  715TMC3     H10627   1.727   2.292   1.347 -1.0832  2.5900  0.5531
  715TMC3    H110628   1.770   2.585   1.638 -0.9005 -0.7465  0.2848
  715TMC3    H210629   2.109   2.365   1.509 -0.5924 -1.3213 -2.0220
  715TMC3    C710630   2.058   2.527   1.700 -0.9026 -0.3295 -0.1981
  715TMC3    C810631   1.992   2.208   1.351  0.7979 -0.3583 -0.0613
  715TMC3    O110632   2.171   2.532   1.662 -0.0810  0.5542 -0.0902
  715TMC3    O210633   1.941   2.167   1.252  0.2713 -1.0478  0.2617
  716MPD2     C10634   2.040   1.350   9.739 -0.0792 -0.3776  0.0626
  716MPD2    C110635   1.940   1.333   9.642  0.5779  0.0390 -0.1973
  716MPD2    C210636   1.943   1.221   9.560  0.1123  0.9525  0.0308
  716MPD2    C310637   2.045   1.130   9.577 -0.5497  0.6068  0.1415
  716MPD2    C410638   2.148   1.153   9.666 -0.3539 -0.1408  0.1533
  716MPD2    C510639   2.143   1.261   9.749 -0.0176  0.2674  0.4828
  716MPD2     H10640   1.865   1.190   9.492  0.1156  1.1161 -0.0461
  716MPD2    H110641   2.218   1.072   9.685  0.0683  0.0770 -0.4949
  716MPD2    H210642   2.037   1.417   9.825 -2.4011  1.7788 -1.7166
  716MPD2    H310643   2.217   1.271   9.828  1.0776  0.3708 -0.5572
  716MPD2     N10644   2.041   1.019   9.486  0.4226  0.2184  0.1498
  716MPD2    H510645   1.959   1.012   9.426 -1.3567 -0.9669  2.6927
  716MPD2    N110646   1.832   1.424   9.638  0.0250  0.4511 -0.1203
  716MPD2    H710647   1.831   1.505   9.699  1.0628 -0.0505  0.5786
  717TMC3    C110648   2.096   0.827   9.381  0.1032  0.1059  0.0791
  717TMC3    C210649   2.026   0.869   9.273 -0.3280 -0.5900 -0.6592
  717TMC3    C310650   1.988   0.776   9.178  0.6040 -0.0236 -0.2022
  717TMC3    C410651   2.131   0.693   9.400 -0.7379  0.2843 -0.5745
  717TMC3    C510652   2.091   0.607   9.300  0.5549  0.3265 -0.0938
  717TMC3    C610653   2.019   0.641   9.188  0.6181 -0.2755  0.2436
  717TMC3     C10654   2.141   0.922   9.477 -0.2923 -0.5536  0.7772
  717TMC3     O10655   2.245   0.902   9.541  0.0839  0.6312 -0.0685
  717TMC3     H10656   2.015   0.973   9.246  0.8559 -1.2448 -3.7685
  717TMC3    H110657   2.194   0.670   9.485 -1.1008 -3.5049 -1.3393
  717TMC3    H210658   1.993   0.570   9.110  1.5439 -1.7709  1.2874
  717TMC3    C710659   2.101   0.467   9.325  0.4778  0.1898 -0.2081
  717TMC3    C810660   1.896   0.822   9.076  0.1727  0.3102  0.1239
  717TMC3    O110661   2.028   0.392   9.258  0.6520 -0.7074 -0.3928
  717TMC3    O210662   1.901   0.936   9.049 -0.7224  0.1888 -0.1055
  718MPD2     C10663   0.687   4.174  12.561  0.5893 -0.0143  0.7265
  718MPD2    C110664   0.607   4.220  12.460 -0.2015  0.1426 -0.3219
  718MPD2    C210665   0.468   4.215  12.466 -0.4995 -0.2042 -0.2541
  718MPD2    C310666   0.410   4.172  12.582  1.0509  0.3815 -0.0869
  718MPD2    C410667   0.489   4.117  12.684  0.3303  0.7144  0.6532
  718MPD2    C510668   0.624   4.114  12.670 -0.7187  0.1974  0.2780
  718MPD2     H10669   0.408   4.277  12.400 -2.8380 -1.5118  0.6559
  718MPD2    H110670   0.447   4.072  12.774 -1.0143  1.0442  0.1933
  718MPD2    H210671   0.795   4.175  12.561  0.5915 -0.7418  0.6684
  718MPD2    H310672   0.681   4.063  12.747  1.3161  1.9985 -0.0200
  718MPD2     N10673   0.273   4.203  12.601  0.9368 -0.1299  0.3835
  718MPD2    H510674   0.226   4.245  12.521  0.4682  0.6991  1.0892
  718MPD2    N110675   0.667   4.284  12.350 -0.0351 -0.4489  0.0271
  718MPD2    H710676   0.746   4.345  12.372 -0.4426 -0.0447  0.3759
  719TMC3    C110677   0.669   4.410  12.152  0.1861  0.5334  0.2797
  719TMC3    C210678   0.578   4.493  12.092 -0.4471  1.3046  0.0271
  719TMC3    C310679   0.617   4.622  12.066 -0.1993 -0.6649  0.0790
  719TMC3    C410680   0.798   4.451  12.190  0.3929  0.4632 -0.1353
  719TMC3    C510681   0.830   4.583  12.166  0.2216  0.2371 -0.1577
  719TMC3    C610682   0.745   4.670  12.105  0.3650  0.5655 -0.3054
  719TMC3     C10683   0.605   4.295  12.227 -0.1704 -0.0900  0.4589
  719TMC3     O10684   0.502   4.241  12.187  0.1258 -0.2917 -0.2682
  719TMC3     H10685   0.475   4.464  12.070 -0.4206  0.6726  0.7334
  719TMC3    H110686   0.862   4.389  12.251 -1.5880 -1.7030 -0.2602
  719TMC3    H210687   0.760   0.041  12.109 -4.7500  1.2593  0.1554
  719TMC3    C710688   0.966   4.622  12.186  0.0424 -0.0857 -0.1076
  719TMC3    C810689   0.505   4.709  12.104 -0.0144 -0.4738  0.2313
  719TMC3    O110690   0.997   4.727  12.129  0.4946  0.2935  0.0885
  719TMC3    O210691   0.531   0.073  12.176 -0.1254 -0.7061  0.0968
  720MPD2     C10692   4.180   1.788  14.263  0.6001 -0.2073 -0.3038
  720MPD2    C110693   4.227   1.704  14.155  0.9640  0.6661 -0.7923
  720MPD2    C210694   4.321   1.611  14.165  0.9947  0.2547 -0.3483
  720MPD2    C310695   4.382   1.582  14.290 -0.0305  0.8191 -0.0881
  720MPD2    C410696   4.335   1.653  14.402  0.1257  0.2141 -0.3265
  720MPD2    C510697   4.236   1.744  14.386 -0.0564 -0.2082  0.3038
  720MPD2     H10698   4.355   1.549  14.082  0.2489 -2.0654  1.0694
  720MPD2    H110699   4.382   1.632  14.497 -0.2496 -0.8926 -0.3821
  720MPD2    H210700   4.106   1.867  14.263  0.9287  0.1011 -0.2609
  720MPD2    H310701   4.187   1.789  14.472 -1.6547 -1.6681  0.1706
  720MPD2     N10702   4.483   1.482  14.297  0.4315 -0.4756 -0.1525
  720MPD2    H510703   4.480   1.411  14.225  1.0759 -1.5959  0.9284
  720MPD2    N110704   4.167   1.712  14.021 -0.2210 -0.3373 -1.1523
  720MPD2    H710705   4.220   1.668  13.947 -0.1869  0.7381 -1.7701
  721TMC3    C110706   4.659   1.357  14.385 -0.9123  0.0933  0.4936
  721TMC3    C210707   4.723   1.320  14.503 -0.2975 -0.4946 -0.3745
  721TMC3    C310708   0.108   1.254  14.492  0.0058 -0.8586 -0.4872
  721TMC3    C410709   4.706   1.325  14.260 -0.3722 -0.4143 -0.2183
  721TMC3    C510710   0.092   1.267  14.255  0.2727 -0.0626  0.3029
  721TMC3    C610711   0.164   1.240  14.368  1.1452  0.7234 -0.1951
  721TMC3     C10712   4.568   1.466  14.401 -0.0741  0.2646 -0.2917
  721TMC3     O10713   4.591   1.544  14.492  0.2101 -0.0245  0.0370
  721TMC3     H10714   4.678   1.359  14.594  0.4610 -1.6006  0.4709
  721TMC3    H110715   4.652   1.356  14.171 -2.4556 -1.1207  0.7890
  721TMC3    H210716   0.260   1.191  14.359  1.1574  0.3340  2.1269
  721TMC3    C710717   0.151   1.203  14.137 -0.8151  0.2884  0.2196
  721TMC3    C810718   0.203   1.249  14.601 -0.2899 -0.0460 -1.0668
  721TMC3    O110719   0.157   1.082  14.147 -0.0129 -0.4530 -0.3645
  721TMC3    O210720   0.320   1.228  14.565 -0.2514 -0.5863 -0.0948
  722MPD2     C10721   2.816   0.168  13.607  0.1551 -0.2056 -0.3628
  722MPD2    C110722   2.747   0.271  13.668  0.5741  0.7981  0.2705
  722MPD2    C210723   2.606   0.268  13.668 -0.4044 -0.2931  0.0872
  722MPD2    C310724   2.543   0.176  13.588 -0.0667  0.5008 -0.3668
  722MPD2    C410725   2.617   0.082  13.524 -0.2069  0.4826  0.4744
  722MPD2    C510726   2.752   0.067  13.542  0.2882 -0.0831 -0.0302
  722MPD2     H10727   2.545   0.347  13.711  0.7428  1.1656 -0.9596
  722MPD2    H110728   2.574   4.735  13.468  2.3420 -0.1617 -0.5073
  722MPD2    H210729   2.924   0.163  13.597  0.2379 -1.9472  1.4814
  722MPD2    H310730   2.808   4.729  13.486 -0.3451 -0.6092  0.0299
  722MPD2     N10731   2.398   0.190  13.571  0.8673  0.5112  0.3265
  722MPD2    H510732   2.353   0.249  13.640  0.1946 -0.5026  0.7610
  722MPD2    N110733   2.813   0.384  13.722 -0.3839 -0.2186  0.0538
  722MPD2    H710734   2.751   0.465  13.723 -0.5043 -0.3174  0.6815
  723TMC3    C110735   2.186   0.172  13.466 -0.2396 -0.4796  0.0594
  723TMC3    C210736   2.123   0.148  13.346 -1.0281 -0.3179  0.1466
  723TMC3    C310737   1.991   0.188  13.336  0.2469  0.2380 -0.5057
  723TMC3    C410738   2.126   0.227  13.574 -0.6334  0.4273 -0.8366
  723TMC3    C510739   1.992   0.240  13.565 -0.2834 -0.3986 -0.5050
  723TMC3    C610740   1.922   0.230  13.446  0.0617 -0.2805  0.1386
  723TMC3     C10741   2.325   0.131  13.472 -0.0512  0.1903  0.3063
  723TMC3     O10742   2.367   0.064  13.379 -0.2742  0.7197 -0.0371
  723TMC3     H10743   2.178   0.097  13.267  2.1379  1.9923  0.8449
  723TMC3    H110744   2.174   0.256  13.667  2.0576  1.6956 -2.6223
  723TMC3    H210745   1.816   0.249  13.451  0.3773  1.8643 -1.1784
  723TMC3    C710746   1.908   0.292  13.675  0.0335 -0.0573 -0.3355
  723TMC3    C810747   1.916   0.170  13.213  0.1597  0.4578  0.2231
  723TMC3    O110748   1.802   0.238  13.696 -0.2788 -0.2182  0.1734
  723TMC3    O210749   1.798   0.192  13.219  0.3934  0.0519  0.3472
  724TMC3    C110750   3.436   3.320  10.741 -0.4218  0.5395  0.1131
  724TMC3    C210751   3.395   3.376  10.623  0.4513 -0.0764  0.2040
  724TMC3    C310752   3.457   3.495  10.594  0.7999 -0.2844 -0.1497
  724TMC3    C410753   3.491   3.388  10.846  0.2437 -1.8729 -0.0601
  724TMC3    C510754   3.538   3.512  10.811  0.4545  0.7104 -0.7161
  724TMC3    C610755   3.537   3.558  10.684  0.4474  0.8447 -0.2848
  724TMC3     C10756   3.406   3.181  10.754  0.0386 -0.2155 -0.0937
  724TMC3     O10757   3.307   3.135  10.691  0.8321  1.0263 -0.3134
  724TMC3     H10758   3.368   3.307  10.544 -3.5294 -2.2791  3.4879
  724TMC3    H110759   3.510   3.339  10.941  1.7490  0.1983  0.6976
  724TMC3    H210760   3.582   3.653  10.660  1.9144  0.1392 -0.2881
  724TMC3    C710761   3.600   3.587  10.915 -0.0237 -0.2855 -0.2233
  724TMC3    C810762   3.445   3.534  10.463 -0.6843 -0.0265 -0.2608
  724TMC3    O110763   3.678   3.677  10.868  0.0171 -0.0730  0.3145
  724TMC3    O210764   3.350   3.488  10.406 -0.2267  0.7384  0.6886
  725TMC3    C110765   0.136   1.847  13.236 -0.5854 -0.3597  0.3547
  725TMC3    C210766   0.006   1.872  13.214 -0.7131  0.1798 -0.9003
  725TMC3    C310767   4.689   1.820  13.102 -0.2101 -0.6132 -0.2872
  725TMC3    C410768   0.215   1.775  13.153 -0.5855  1.0497 -0.0037
  725TMC3    C510769   0.150   1.725  13.043 -0.1642 -0.4498 -0.0650
  725TMC3    C610770   0.023   1.753  13.009  0.3453 -0.6671 -0.6671
  725TMC3     C10771   0.200   1.931  13.330  0.4064 -0.0171  0.1633
  725TMC3     O10772   0.142   2.034  13.361 -0.2021  0.3488 -0.3572
  725TMC3     H10773   4.680   1.933  13.279  0.5543  0.3311  0.1504
  725TMC3    H110774   0.323   1.773  13.161 -0.5467  1.3460 -0.5090
  725TMC3    H210775   4.717   1.706  12.921  1.3596 -2.0219 -0.4278
  725TMC3    C710776   0.221   1.645  12.944 -0.0381 -0.3664  0.3858
  725TMC3    C810777   4.547   1.831  13.090  0.0845 -0.2886  0.6582
  725TMC3    O110778   0.168   1.639  12.834  0.4769  0.3974 -0.1650
  725TMC3    O210779   4.478   1.833  13.190 -0.0029  0.4534  0.1980
  726MPD2     C10780   2.831   3.642  10.931 -0.0294  0.3074  0.7984
  726MPD2    C110781   2.734   3.699  10.852 -0.7637  0.8940 -0.0051
  726MPD2    C210782   2.606   3.649  10.850  0.9809 -0.6832  0.6510
  726MPD2    C310783   2.568   3.549  10.941 -0.7951 -0.1026  0.2863
  726MPD2    C410784   2.669   3.495  11.025 -0.0144 -0.2608  0.4816
  726MPD2    C510785   2.805   3.532  11.010 -0.4474  0.1393 -0.4458
  726MPD2     H10786   2.547   3.687  10.768  3.7590 -0.8178 -1.4317
  726MPD2    H110787   2.643   3.411  11.088  0.6270  0.3611  1.5734
  726MPD2    H210788   2.933   3.679  10.938 -0.6027  1.7123  1.7592
  726MPD2    H310789   2.883   3.478  11.063  0.1297 -2.0772 -3.5199
  726MPD2     N10790   2.435   3.492  10.957  0.2611 -0.0949 -0.1073
  726MPD2    H510791   2.414   3.412  11.016 -2.2247 -0.0921 -1.0230
  726MPD2    N110792   2.761   3.803  10.767 -0.6373  0.0363 -0.0458
  726MPD2    H710793   2.684   3.823  10.703  1.3378  0.0069 -2.4015
  727TMC3    C110794   2.877   3.993  10.676  0.2433 -0.1487  0.9016
  727TMC3    C210795   2.965   4.099  10.701  0.0550 -0.2466  0.0271
  727TMC3    C310796   3.005   4.186  10.598  0.0183  0.7941  0.5548
  727TMC3    C410797   2.825   3.982  10.552 -0.1068  0.3180 -0.0721
  727TMC3    C510798   2.860   4.077  10.457  1.3254  0.4737  0.1068
  727TMC3    C610799   2.956   4.177  10.473  0.7411  0.7915 -0.9706
  727TMC3     C10800   2.862   3.886  10.777  0.2488 -0.1936 -1.0140
  727TMC3     O10801   2.953   3.894  10.861 -0.6602 -0.0669  0.2439
  727TMC3     H10802   3.009   4.110  10.799  1.0536 -2.2217 -0.1979
  727TMC3    H110803   2.756   3.902  10.527  0.4390  0.4933 -2.1840
  727TMC3    H210804   2.977   4.257  10.403  1.2980  1.3808 -0.1227
  727TMC3    C710805   2.785   4.069  10.334  0.1914 -0.1950  0.8738
  727TMC3    C810806   3.072   4.308  10.645 -0.1605 -0.8479  0.7332
  727TMC3    O110807   2.734   3.962  10.308  0.1140 -0.2997 -0.1588
  727TMC3    O210808   3.103   4.320  10.763 -0.3203 -0.1341 -0.1573
  728TMC3    C110809   1.778   1.721  15.666 -0.2590  0.3622 -0.6710
  728TMC3    C210810   1.902   1.747  15.617  0.0061  0.0576 -0.8614
  728TMC3    C310811   1.917   1.777  15.482 -0.1080  0.0955  0.6401
  728TMC3    C410812   1.667   1.728  15.582 -0.4833  0.3333 -0.2279
  728TMC3    C510813   1.690   1.761  15.447 -0.6589 -0.0676 -0.5726
  728TMC3    C610814   1.808   1.786  15.392 -0.2858  0.0159  0.2118
  728TMC3     C10815   1.761   1.700  15.812  0.2316 -0.3709 -0.3415
  728TMC3     O10816   1.851   1.729  15.889  0.0216 -0.1737 -0.0181
  728TMC3     H10817   1.988   1.740  15.682 -0.4339 -0.2301 -0.3109
  728TMC3    H110818   1.566   1.714  15.617 -0.7685  1.2643 -0.6781
  728TMC3    H210819   1.824   1.795  15.285 -2.0347  2.8664  0.1764
  728TMC3    C710820   1.570   1.807  15.383 -0.1876 -0.7212  0.0100
  728TMC3    C810821   2.052   1.786  15.437 -0.8542 -0.8013 -0.0508
  728TMC3    O110822   1.465   1.762  15.417 -0.2820  1.0790  0.1276
  728TMC3    O210823   2.063   1.775  15.312 -0.1752 -0.1001  0.1263
  729MPD2     C10824   3.758   2.712  16.701 -0.4589 -0.7462  0.0432
  729MPD2    C110825   3.880   2.672  16.754 -0.6857 -0.2408 -0.2252
  729MPD2    C210826   3.901   2.657  16.891  0.6585  0.6805  0.4839
  729MPD2    C310827   3.810   2.703  16.980  0.4644 -0.1678 -0.0248
  729MPD2    C410828   3.696   2.768  16.926  0.5839 -0.5602 -0.3341
  729MPD2    C510829   3.663   2.757  16.791  0.7281  0.0133  0.4111
  729MPD2     H10830   3.993   2.615  16.928 -0.2703 -1.2356  0.6332
  729MPD2    H110831   3.623   2.814  16.993  0.7821 -0.8942  0.1102
  729MPD2    H210832   3.746   2.721  16.593  0.5076 -1.8290 -0.1599
  729MPD2    H310833   3.564   2.793  16.761  0.5445  0.0346  1.0503
  729MPD2     N10834   3.844   2.719  17.117 -0.3767 -0.1296  0.0498
  729MPD2    H510835   3.790   2.788  17.168 -0.5835  0.1586 -0.5652
  729MPD2    N110836   3.983   2.651  16.663 -0.0970 -0.3225  0.0234
  729MPD2    H710837   3.974   2.696  16.573 -0.5352 -1.7500 -0.6452
  730TMC3    C110838   3.981   2.725  17.306 -0.3617 -0.9800  0.2757
  730TMC3    C210839   4.120   2.739  17.312 -0.1139  0.2841 -0.6118
  730TMC3    C310840   4.175   2.844  17.380  0.2076 -0.5046 -0.5036
  730TMC3    C410841   3.903   2.827  17.356 -0.0915  0.4661 -0.0828
  730TMC3    C510842   3.964   2.931  17.416 -0.3442  0.3376  0.6703
  730TMC3    C610843   4.098   2.941  17.433 -0.4345  0.2676  0.1417
  730TMC3     C10844   3.950   2.657  17.181  0.0257 -0.1095  0.5382
  730TMC3     O10845   4.019   2.561  17.147  0.0665 -0.0706  0.2406
  730TMC3     H10846   4.184   2.665  17.265 -0.0783  0.9962 -1.6831
  730TMC3    H110847   3.796   2.806  17.359 -0.1033  0.4247 -0.8049
  730TMC3    H210848   4.142   3.023  17.489  0.5702 -1.8596  2.5096
  730TMC3    C710849   3.908   3.053  17.358  0.3464  0.6186 -0.1493
  730TMC3    C810850   4.284   2.894  17.295 -0.3173  0.5426  0.1264
  730TMC3    O110851   3.828   3.038  17.266 -0.0791 -0.3509 -0.2817
  730TMC3    O210852   4.287   2.842  17.184 -0.3278 -0.2804 -0.0598
  731MPD2     C10853   4.383   1.739  12.363 -0.6785  0.5265 -0.6753
  731MPD2    C110854   4.266   1.683  12.317 -0.0313  0.0491 -0.6356
  731MPD2    C210855   4.170   1.642  12.412  0.1604  0.5564 -0.6481
  731MPD2    C310856   4.185   1.672  12.543 -0.6353  0.3035  0.1360
  731MPD2    C410857   4.300   1.745  12.584  0.2893 -0.0691 -0.9385
  731MPD2    C510858   4.398   1.772  12.494  0.2468 -1.0509  0.4719
  731MPD2     H10859   4.080   1.589  12.382  0.3658 -0.6031  0.7632
  731MPD2    H110860   4.306   1.786  12.684  0.5480 -0.5945 -0.7397
  731MPD2    H210861   4.457   1.765  12.287  1.5811  1.6443  1.9208
  731MPD2    H310862   4.493   1.814  12.525 -0.5769  0.9611  0.2650
  731MPD2     N10863   4.102   1.634  12.644 -0.6589  0.0715 -0.0811
  731MPD2    H510864   4.141   1.624  12.737  1.4885 -0.0522 -0.9999
  731MPD2    N110865   4.256   1.654  12.178 -0.3612  0.3188  0.4027
  731MPD2    H710866   4.348   1.668  12.136 -0.8314 -0.4306 -0.8635
  732TMC3    C110867   4.183   1.583  11.962 -0.3573 -0.2473 -0.0987
  732TMC3    C210868   4.076   1.539  11.892  0.1419  0.3072 -0.0618
  732TMC3    C310869   4.092   1.486  11.771 -0.2987  0.4865 -0.2357
  732TMC3    C410870   4.313   1.578  11.919  1.0349 -0.3232  0.6763
  732TMC3    C510871   4.322   1.522  11.792  0.2137  0.1414  0.1303
  732TMC3    C610872   4.221   1.479  11.714 -0.1595 -0.1587  0.7500
  732TMC3     C10873   4.155   1.603  12.105 -0.0480  0.3204 -0.2342
  732TMC3     O10874   4.043   1.582  12.140  0.5028 -0.6454 -0.2415
  732TMC3     H10875   3.977   1.560  11.932  0.2595  1.0017 -0.1364
  732TMC3    H110876   4.394   1.617  11.979  1.6603  1.0689 -1.0699
  732TMC3    H210877   4.233   1.436  11.615 -1.9911 -0.2629  0.5842
  732TMC3    C710878   4.450   1.538  11.722 -0.1784 -0.2090  0.1082
  732TMC3    C810879   3.982   1.439  11.690  0.4444 -0.6400  0.7156
  732TMC3    O110880   4.440   1.533  11.596 -0.0336 -0.0048 -0.1328
  732TMC3    O210881   3.999   1.385  11.582  0.0858 -0.3465  0.4658
  733TMC3    C110882   4.646   4.415  12.811  0.0746  0.5669  0.2902
  733TMC3    C210883   0.008   4.322  12.824 -0.0720 -0.1028  0.3000
  733TMC3    C310884   0.101   4.316  12.721 -0.3587 -0.2079 -0.8183
  733TMC3    C410885   4.645   4.517  12.720 -0.3174  0.0732  0.1513
  733TMC3    C510886   0.017   4.517  12.633  0.3007 -0.2144 -0.9283
  733TMC3    C610887   0.105   4.413  12.623 -0.3028 -0.1024  0.3959
  733TMC3     C10888   4.567   4.443  12.929  0.3186 -0.3934  0.2563
  733TMC3     O10889   4.518   4.556  12.935 -0.3924  0.4890  0.0662
  733TMC3     H10890   0.018   4.258  12.911 -1.1313 -1.7635 -0.8125
  733TMC3    H110891   4.566   4.591  12.720 -0.8960 -0.5411  1.2958
  733TMC3    H210892   0.184   4.423  12.550  0.6370 -0.7348  1.3156
  733TMC3    C710893   4.731   4.596  12.513  0.0936 -0.1246 -0.3195
  733TMC3    C810894   0.197   4.203  12.714 -0.6646 -0.6866  0.9865
  733TMC3    O110895   4.616   4.628  12.491 -0.3343 -0.8879  0.5747
  733TMC3    O210896   0.222   4.155  12.825 -0.0466 -0.6684 -0.1514
  734MPD2     C10897   2.758   1.879  12.184 -0.6861  0.2606 -0.3614
  734MPD2    C110898   2.643   1.876  12.111  0.4497  0.5584  0.9930
  734MPD2    C210899   2.607   1.973  12.030 -0.0053  0.3716  0.6682
  734MPD2    C310900   2.687   2.086  12.012 -0.0336  0.0893  0.8196
  734MPD2    C410901   2.805   2.089  12.087  0.1238 -0.2283  0.3326
  734MPD2    C510902   2.838   1.991  12.172 -0.0954 -0.4681  0.6756
  734MPD2     H10903   2.523   1.965  11.963  0.5265  2.9140 -0.3185
  734MPD2    H110904   2.874   2.172  12.095  1.3110 -0.9787 -2.0791
  734MPD2    H210905   2.772   1.795  12.250  1.5594 -0.4949 -1.8127
  734MPD2    H310906   2.935   1.997  12.221  0.2692  3.0146 -0.4869
  734MPD2     N10907   2.637   2.178  11.918  0.4896 -0.5026  0.1007
  734MPD2    H510908   2.541   2.170  11.885  0.9955 -1.6841 -1.0822
  734MPD2    N110909   2.576   1.747  12.106  0.4319  0.2829 -0.2118
  734MPD2    H710910   2.630   1.679  12.158 -0.5933 -0.6905 -0.4324
  735TMC3    C110911   2.425   1.579  12.047  0.4941  0.4010  0.3489
  735TMC3    C210912   2.304   1.572  11.985  0.0235  0.0966  0.2066
  735TMC3    C310913   2.292   1.493  11.870 -1.2269 -0.0500  0.4992
  735TMC3    C410914   2.528   1.499  12.004 -0.0836 -0.1198 -0.8331
  735TMC3    C510915   2.506   1.416  11.901  0.4023  0.5541 -0.3291
  735TMC3    C610916   2.391   1.410  11.827  0.3167 -0.0099  0.3715
  735TMC3     C10917   2.456   1.717  12.057 -0.3839  0.6427 -0.5017
  735TMC3     O10918   2.371   1.793  12.007  0.3856  0.0091  0.3661
  735TMC3     H10919   2.214   1.621  12.019 -0.3861 -0.8940  0.5598
  735TMC3    H110920   2.613   1.484  12.070  0.2243  0.4058 -1.1112
  735TMC3    H210921   2.394   1.359  11.732  0.8579  0.1824  0.2862
  735TMC3    C710922   2.631   1.388  11.829  0.2620 -0.0545 -0.0979
  735TMC3    C810923   2.215   1.560  11.765 -0.4341 -0.0011  0.8174
  735TMC3    O110924   2.724   1.465  11.857  0.0514 -0.1977 -0.0084
  735TMC3    O210925   2.173   1.500  11.668 -0.7032 -0.1437  0.7985
  736MPD2     C10926   2.691   1.097  11.611  0.2293  0.8224 -0.3901
  736MPD2    C110927   2.717   1.219  11.662  0.2507 -0.3816 -0.3778
  736MPD2    C210928   2.836   1.275  11.631  0.4714 -0.2789  0.7226
  736MPD2    C310929   2.935   1.210  11.559 -0.0492 -0.7570  0.4854
  736MPD2    C410930   2.913   1.083  11.505  0.6188  0.0281  0.3911
  736MPD2    C510931   2.791   1.031  11.536 -0.1141  0.0493  0.3059
  736MPD2     H10932   2.850   1.378  11.661  1.5366  0.3906 -2.1304
  736MPD2    H110933   2.985   1.036  11.439 -1.7359  0.2361 -2.3482
  736MPD2    H210934   2.599   1.045  11.637 -0.0138  0.2277 -2.4408
  736MPD2    H310935   2.764   0.938  11.489 -1.4273  0.1838  0.7800
  736MPD2     N10936   3.065   1.268  11.533 -0.6889 -0.0125 -0.7789
  736MPD2    H510937   3.126   1.211  11.476 -0.6341 -1.4960  0.7645
  736MPD2    N110938   2.619   1.272  11.752 -0.2783  0.3179 -0.3241
  736MPD2    H710939   2.536   1.216  11.767  1.4654 -2.1005  0.4077
  737TMC3    C110940   3.235   1.432  11.496  0.5002  0.0081  0.8444
  737TMC3    C210941   3.270   1.558  11.522  0.1098  0.0079 -0.2212
  737TMC3    C310942   3.375   1.618  11.447  0.5737  0.5890  0.6334
  737TMC3    C410943   3.305   1.355  11.404 -0.2582 -0.5614  0.2995
  737TMC3    C510944   3.411   1.415  11.340 -0.7136 -0.2021 -0.6841
  737TMC3    C610945   3.447   1.551  11.354 -0.0822 -0.3426  0.4717
  737TMC3     C10946   3.106   1.398  11.556 -0.1190  0.5592  0.2792
  737TMC3     O10947   3.055   1.478  11.631  0.1483  0.8728 -0.4811
  737TMC3     H10948   3.212   1.621  11.589  1.7668  1.5861 -0.2518
  737TMC3    H110949   3.289   1.249  11.383 -2.0973 -0.3207  0.5216
  737TMC3    H210950   3.506   1.608  11.284 -1.3922 -1.2464 -1.3510
  737TMC3    C710951   3.465   1.340  11.217  0.2493  0.4360 -1.1225
  737TMC3    C810952   3.374   1.761  11.433  0.1060 -0.9091  0.1490
  737TMC3    O110953   3.403   1.248  11.174 -0.6681 -0.1571 -0.2277
  737TMC3    O210954   3.375   1.811  11.545 -0.2518  0.1777 -0.8760
  738MPD2     C10955   2.970   0.255  14.989 -0.5890  0.5237 -0.8796
  738MPD2    C110956   3.053   0.151  15.013 -0.4824 -0.7017 -0.0653
  738MPD2    C210957   3.174   0.189  15.065 -0.6783  0.5161 -0.6594
  738MPD2    C310958   3.220   0.320  15.076  0.2829 -0.0191  0.2682
  738MPD2    C410959   3.137   0.417  15.047  0.1585  0.1417 -0.0026
  738MPD2    C510960   3.009   0.385  15.014  0.1085 -0.3514  0.4158
  738MPD2     H10961   3.248   0.109  15.068 -2.7245 -1.2799  1.9342
  738MPD2    H110962   3.171   0.520  15.058  0.2796 -0.0082  1.0201
  738MPD2    H210963   2.872   0.238  14.946 -1.3773  2.5861  0.1112
  738MPD2    H310964   2.943   0.466  14.983  1.5698  0.4295 -0.6317
  738MPD2     N10965   3.354   0.353  15.103  0.2827  0.0775  0.2774
  738MPD2    H510966   3.367   0.452  15.124 -0.0586 -0.2845  2.1566
  738MPD2    N110967   3.034   0.016  14.982  0.3384 -0.1585 -0.0977
  738MPD2    H710968   3.102   4.683  15.013  0.6081 -0.4686 -1.3977
  739TMC3    C110969   3.591   0.340  15.112 -0.4662  0.2713  0.0808
  739TMC3    C210970   3.598   0.469  15.064  0.3328  0.8723  0.5900
  739TMC3    C310971   3.725   0.514  15.023  0.4520 -0.2509  0.4498
  739TMC3    C410972   3.703   0.265  15.134 -0.7683  0.1187  0.0237
  739TMC3    C510973   3.829   0.321  15.105 -0.1109  0.0325 -0.7720
  739TMC3    C610974   3.837   0.436  15.034 -0.0347 -0.1579  0.8596
  739TMC3     C10975   3.462   0.267  15.111  0.3411 -0.0844  0.2416
  739TMC3     O10976   3.463   0.144  15.111  0.3426  0.4015  0.0750
  739TMC3     H10977   3.506   0.522  15.043 -1.0245 -1.7334 -0.0458
  739TMC3    H110978   3.700   0.166  15.180 -0.7395 -0.0790 -0.4000
  739TMC3    H210979   3.925   0.459  14.976  1.1147 -0.3174  2.5147
  739TMC3    C710980   3.943   0.248  15.163  0.7152  0.3080 -0.3130
  739TMC3    C810981   3.725   0.611  14.909 -0.1160  0.0458 -0.3135
  739TMC3    O110982   3.916   0.169  15.248  0.2104 -0.3332  0.1415
  739TMC3    O210983   3.613   0.635  14.869 -0.0156  0.1252  0.0655
  740TMC3    C110984   3.493   2.016  14.595 -0.3921  1.4016 -0.1668
  740TMC3    C210985   3.570   1.919  14.648 -0.6908 -0.0439  0.1724
  740TMC3    C310986   3.698   1.899  14.603 -0.3524  0.1562  0.8095
  740TMC3    C410987   3.547   2.095  14.496 -0.1199  0.0925  0.7534
  740TMC3    C510988   3.675   2.072  14.454  0.0835 -0.4710 -0.2393
  740TMC3    C610989   3.756   1.974  14.505 -0.3329  0.4958 -0.3992
  740TMC3     C10990   3.363   2.043  14.639 -0.3489 -0.0455 -0.5083
  740TMC3     O10991   3.305   2.155  14.627  0.5242  0.1975 -0.5906
  740TMC3     H10992   3.533   1.875  14.740  0.5065 -0.2155  0.5720
  740TMC3    H110993   3.494   2.180  14.455 -0.6051  0.5088  2.2319
  740TMC3    H210994   3.856   1.956  14.465 -0.0618 -0.8559  0.8792
  740TMC3    C710995   3.745   2.183  14.391 -0.1828 -0.2375  0.3790
  740TMC3    C810996   3.780   1.776  14.633 -0.1601 -0.0778  0.0890
  740TMC3    O110997   3.714   2.294  14.429  0.5344  0.0711  0.3564
  740TMC3    O210998   3.891   1.762  14.585 -0.3751  0.3628  0.0068
  741TMC3    C110999   3.264   0.976  14.820 -0.6689 -0.3123 -0.3641
  741TMC3    C211000   3.224   0.872  14.737  0.2161 -0.6668 -0.6126
  741TMC3    C311001   3.152   0.769  14.793 -0.3008 -0.6440  0.0822
  741TMC3    C411002   3.248   0.962  14.955  0.5346  0.4527  0.1228
  741TMC3    C511003   3.174   0.853  14.997  0.3555  0.1905 -0.7175
  741TMC3    C611004   3.110   0.762  14.922 -0.5762 -0.6887 -0.6230
  741TMC3     C11005   3.352   1.082  14.766  0.4780 -0.9870  0.1818
  741TMC3     O11006   3.419   1.151  14.848 -0.0996 -0.1498  0.2034
  741TMC3     H11007   3.237   0.875  14.630  0.0137  0.0776 -0.6210
  741TMC3    H111008   3.304   1.027  15.021 -0.3147  0.6866  0.6238
  741TMC3    H211009   3.037   0.689  14.954 -0.7361  0.8015  2.4091
  741TMC3    C711010   3.109   0.870  15.127 -0.7304  0.3879 -0.1658
  741TMC3    C811011   3.081   0.697  14.687  0.7076 -0.0977  0.2856
  741TMC3    O111012   3.036   0.776  15.164  0.1852 -0.0416 -0.4994
  741TMC3    O211013   3.021   0.757  14.603  0.6082 -0.6482  0.2358
  742TMC3    C111014   3.833   4.342  15.359 -0.2926  0.2332  0.1575
  742TMC3    C211015   3.747   4.352  15.249 -0.1229 -0.1585 -0.1458
  742TMC3    C311016   3.794   4.284  15.134  0.4404 -0.5104  0.0832
  742TMC3    C411017   3.946   4.264  15.363 -0.0510 -0.0277  0.2516
  742TMC3    C511018   3.974   4.198  15.252 -0.1037 -0.0317 -0.1123
  742TMC3    C611019   3.911   4.213  15.133  0.5466  0.4312 -0.2750
  742TMC3     C11020   3.772   4.374  15.481 -0.0153 -0.0040 -0.1474
  742TMC3     O11021   3.798   4.296  15.575 -0.0150 -0.4227 -0.3088
  742TMC3     H11022   3.642   4.377  15.265  0.4853  1.8579  0.7415
  742TMC3    H111023   3.998   4.266  15.458  0.7858  0.4376 -0.2252
  742TMC3    H211024   3.940   4.151  15.049  2.1172 -0.6828  1.0726
  742TMC3    C711025   4.013   4.060  15.261  0.2224  0.6244 -0.0873
  742TMC3    C811026   3.690   4.232  15.035 -0.0500  0.2365 -0.1550
  742TMC3    O111027   4.069   4.011  15.165  0.2450 -0.2233  0.6693
  742TMC3    O211028   3.717   4.131  14.975  0.1024 -0.1626  1.0459
  743MPD2     C11029   1.391   1.039   2.081  0.1762 -0.1451  0.0747
  743MPD2    C111030   1.402   0.938   1.985  0.7143 -0.6548  0.6253
  743MPD2    C211031   1.531   0.891   1.943  0.1015  0.2752 -0.3589
  743MPD2    C311032   1.643   0.928   2.019  0.0929 -0.2864  0.5012
  743MPD2    C411033   1.626   1.021   2.119  0.4306 -0.5940 -0.6799
  743MPD2    C511034   1.503   1.073   2.148 -0.0111 -0.5458 -0.5734
  743MPD2     H11035   1.555   0.836   1.852  0.9629  0.1479 -0.0597
  743MPD2    H111036   1.714   1.065   2.164 -0.7110  1.6655 -0.6322
  743MPD2    H211037   1.304   1.094   2.114 -0.0417 -0.1678 -0.4596
  743MPD2    H311038   1.492   1.145   2.228 -0.4111  0.5220 -1.6001
  743MPD2     N11039   1.773   0.890   1.971 -0.2026 -0.4904 -0.0948
  743MPD2    H511040   1.774   0.825   1.894 -0.9838 -0.2652 -0.2991
  743MPD2    N111041   1.289   0.903   1.906 -0.0830  0.3366  0.0277
  743MPD2    H711042   1.205   0.953   1.932  1.3747  2.5641  0.5232
  744TMC3    C111043   1.153   0.812   1.746 -0.0594  0.5234  0.5714
  744TMC3    C211044   1.112   0.929   1.687 -0.7687  0.3248  0.0058
  744TMC3    C311045   1.023   0.925   1.586  0.0708  0.1488  0.1664
  744TMC3    C411046   1.120   0.690   1.689 -0.2325  0.9875  0.4881
  744TMC3    C511047   1.025   0.690   1.588  0.9221  0.0114 -0.0191
  744TMC3    C611048   0.971   0.808   1.544 -0.1845  0.9349  0.0005
  744TMC3     C11049   1.278   0.806   1.812  0.3670  0.1716 -0.9574
  744TMC3     O11050   1.359   0.725   1.781  0.1180 -0.3096 -0.5493
  744TMC3     H11051   1.142   1.024   1.730  2.3510 -1.4637  1.8137
  744TMC3    H111052   1.157   0.600   1.738  1.2551  2.4000  1.9734
  744TMC3    H211053   0.894   0.805   1.469  1.7606 -0.5247 -1.9294
  744TMC3    C711054   1.028   0.572   1.499  0.3392  0.2197 -0.3503
  744TMC3    C811055   0.959   1.050   1.553 -0.7866  0.0202 -0.1044
  744TMC3    O111056   1.104   0.480   1.522  0.7687 -0.2181 -0.0442
  744TMC3    O211057   1.010   1.148   1.602  0.0234 -0.0152  0.0971
  745TMC3    C111058   3.748   4.034  13.080 -0.4950  0.0192  0.5036
  745TMC3    C211059   3.642   3.951  13.108 -0.1676  0.1124  0.1465
  745TMC3    C311060   3.514   3.999  13.076  0.2899  0.3380  0.2832
  745TMC3    C411061   3.730   4.153  13.013  0.5442  0.2298  0.8281
  745TMC3    C511062   3.604   4.198  12.980  0.2940  0.0527 -0.0213
  745TMC3    C611063   3.495   4.120  13.021 -0.4755 -0.3738  0.7492
  745TMC3     C11064   3.855   4.031  13.170  0.0661 -0.3002  0.0982
  745TMC3     O11065   3.885   3.929  13.226  0.1042  0.2804  0.3101
  745TMC3     H11066   3.651   3.877  13.186  0.4768 -0.7887 -0.7965
  745TMC3    H111067   3.813   4.217  12.984  0.6770 -0.2072  0.2514
  745TMC3    H211068   3.394   4.155  13.000 -0.5919 -0.7256  0.7246
  745TMC3    C711069   3.572   4.339  12.962 -0.3989  0.3968  1.0173
  745TMC3    C811070   3.418   3.966  13.185  0.1335 -0.2622 -0.0727
  745TMC3    O111071   3.456   4.367  12.941  0.1553  0.1827  0.1618
  745TMC3    O211072   3.400   3.846  13.213 -0.6361 -0.7064 -0.3419
  746TMC3    C111073   1.287   1.421  10.701  0.2836 -0.6356  0.8098
  746TMC3    C211074   1.346   1.417  10.579  0.9736  0.9079 -0.5142
  746TMC3    C311075   1.298   1.321  10.486  0.4236  0.8020 -0.7406
  746TMC3    C411076   1.202   1.319  10.749 -0.2266 -0.4712  0.1133
  746TMC3    C511077   1.157   1.237  10.647  0.0453 -0.0230  0.6187
  746TMC3    C611078   1.198   1.235  10.516  0.3669  0.0939  0.4652
  746TMC3     C11079   1.320   1.527  10.796 -1.2717 -0.0854 -0.6789
  746TMC3     O11080   1.285   1.508  10.914  0.6435 -0.1871  0.5888
  746TMC3     H11081   1.421   1.488  10.544 -0.6859  0.8665 -4.1425
  746TMC3    H111082   1.142   1.329  10.839  0.1261 -0.5890  0.3623
  746TMC3    H211083   1.165   1.155  10.450 -2.8646 -0.1977  2.4190
  746TMC3    C711084   1.072   1.124  10.676  0.4069  0.6206 -0.3171
  746TMC3    C811085   1.387   1.296  10.371 -0.1334  0.0518  0.6471
  746TMC3    O111086   1.014   1.079  10.576  0.0027 -0.2047 -0.3411
  746TMC3    O211087   1.417   1.177  10.357 -0.3731  0.1596  0.3158
  747TMC3    C111088   4.154   1.719  10.522  0.1909  0.2868 -0.0739
  747TMC3    C211089   4.039   1.651  10.527  0.3170  0.6389 -0.6772
  747TMC3    C311090   3.959   1.670  10.637 -0.4584  0.7097 -0.5974
  747TMC3    C411091   4.191   1.818  10.603 -0.5817  0.2479  0.2576
  747TMC3    C511092   4.103   1.850  10.709  0.7998  0.5887 -0.1268
  747TMC3    C611093   3.989   1.777  10.726  0.1511  0.7985  0.7339
  747TMC3     C11094   4.259   1.670  10.440  0.0909  0.8648  0.0281
  747TMC3     O11095   4.330   1.747  10.376  0.2665 -0.4255 -0.0386
  747TMC3     H11096   4.003   1.583  10.450 -1.2190  1.6805 -0.8983
  747TMC3    H111097   4.291   1.857  10.590 -0.2650 -0.5329  0.3425
  747TMC3    H211098   3.923   1.796  10.810 -1.5604  2.3895 -0.9689
  747TMC3    C711099   4.162   1.926  10.820 -0.0049 -0.4981  0.4045
  747TMC3    C811100   3.860   1.571  10.668 -0.4974 -0.9028 -0.1189
  747TMC3    O111101   4.113   1.889  10.931 -0.7312 -0.5323  0.5439
  747TMC3    O211102   3.805   1.529  10.568 -0.3783  0.6729 -0.1841
  748MPD2     C11103   0.590   2.446   1.857  0.3926  0.3449  0.2198
  748MPD2    C111104   0.591   2.384   1.738 -0.1973 -0.4196 -0.1538
  748MPD2    C211105   0.705   2.325   1.690 -0.2409  0.5466 -0.3244
  748MPD2    C311106   0.819   2.319   1.774 -0.0155 -0.1976 -0.1074
  748MPD2    C411107   0.818   2.381   1.897 -0.9795  0.3004  0.3547
  748MPD2    C511108   0.705   2.449   1.928  0.1914 -0.7543  0.7439
  748MPD2     H11109   0.698   2.290   1.588 -1.3789  2.6351 -0.9578
  748MPD2    H111110   0.894   2.368   1.973 -2.0961 -0.5329  1.3351
  748MPD2    H211111   0.497   2.492   1.889  0.2347 -0.5026  0.9535
  748MPD2    H311112   0.705   2.506   2.021  0.6363  1.2087 -0.4753
  748MPD2     N11113   0.930   2.247   1.729  0.5733 -0.0629 -0.4437
  748MPD2    H511114   0.935   2.209   1.635  1.4165 -0.6424 -0.1583
  748MPD2    N111115   0.473   2.388   1.664  0.6176  0.9578 -0.6599
  748MPD2    H711116   0.394   2.425   1.715  0.2661  0.2009 -0.6679
  749TMC3    C111117   1.149   2.147   1.734  0.7691 -0.3841 -0.1151
  749TMC3    C211118   1.235   2.067   1.793  0.5255  0.7217  0.8915
  749TMC3    C311119   1.338   2.004   1.717 -0.1367  0.0397  0.7958
  749TMC3    C411120   1.159   2.180   1.604  0.4517  0.0675  0.1084
  749TMC3    C511121   1.248   2.103   1.538  0.0539 -0.0280 -0.5571
  749TMC3    C611122   1.336   2.005   1.585  0.0980  0.5944  0.0994
  749TMC3     C11123   1.042   2.208   1.805  0.2140 -0.2586 -0.1129
  749TMC3     O11124   1.051   2.204   1.931 -0.5587 -0.3145 -0.5452
  749TMC3     H11125   1.219   2.037   1.896  0.0075 -0.2169  0.5386
  749TMC3    H111126   1.093   2.247   1.550  0.3493  1.7427  2.3128
  749TMC3    H211127   1.404   1.951   1.520 -0.6585  0.1316 -0.2988
  749TMC3    C711128   1.195   2.081   1.402  0.1229 -0.0118  0.4553
  749TMC3    C811129   1.431   1.918   1.790 -0.4976 -0.1578 -0.2627
  749TMC3    O111130   1.148   2.179   1.345  0.0003  0.1657 -0.3037
  749TMC3    O211131   1.432   1.929   1.912  0.1333 -0.3092 -0.0318
  750MPD2     C11132   1.459   3.162  11.919 -0.2388  0.0510  0.0943
  750MPD2    C111133   1.411   3.036  11.937  0.0822 -0.0347 -0.2314
  750MPD2    C211134   1.420   2.942  11.841 -0.7121 -0.3023 -0.0970
  750MPD2    C311135   1.462   2.969  11.710  0.1706  0.2060  0.3858
  750MPD2    C411136   1.527   3.088  11.695  0.2127  0.3362  0.6769
  750MPD2    C511137   1.522   3.178  11.799  0.0708 -0.0695 -0.5317
  750MPD2     H11138   1.380   2.842  11.858  0.3540 -0.2474  2.7174
  750MPD2    H111139   1.574   3.120  11.603 -1.0454 -3.6447 -1.3601
  750MPD2    H211140   1.449   3.236  11.998  0.0672  0.0315  0.1499
  750MPD2    H311141   1.559   3.278  11.779 -0.1555 -0.2081 -1.6350
  750MPD2     N11142   1.456   2.875  11.604 -0.3226  0.4579 -0.1261
  750MPD2    H511143   1.487   2.894  11.509 -0.8047  2.0607  0.0450
  750MPD2    N111144   1.342   3.023  12.056  0.6957  0.3032 -0.0260
  750MPD2    H711145   1.303   3.108  12.095 -0.8080  0.3746 -1.6570
  751TMC3    C111146   1.378   2.698  11.471 -0.7989 -0.1155 -0.9823
  751TMC3    C211147   1.270   2.621  11.438  0.3507  0.1601  0.3828
  751TMC3    C311148   1.286   2.539  11.328 -0.3848  0.1642 -0.4549
  751TMC3    C411149   1.505   2.678  11.420  0.1880  0.0015 -0.0472
  751TMC3    C511150   1.507   2.587  11.319  0.8212  0.5177  0.1372
  751TMC3    C611151   1.405   2.517  11.265  0.0954 -0.1473  0.3435
  751TMC3     C11152   1.369   2.766  11.599  0.5601 -0.1833 -0.6112
  751TMC3     O11153   1.276   2.729  11.672  0.6122  0.0180 -0.1020
  751TMC3     H11154   1.175   2.627  11.491 -0.4167  1.6092 -1.1325
  751TMC3    H111155   1.593   2.735  11.448 -1.5705  1.5465  2.3688
  751TMC3    H211156   1.415   2.447  11.183 -1.8629  0.8896 -0.7745
  751TMC3    C711157   1.625   2.594  11.242 -0.4178  0.4308  0.1518
  751TMC3    C811158   1.173   2.466  11.275 -0.3148  0.0330  0.5161
  751TMC3    O111159   1.652   2.698  11.187  0.1330  0.1866 -0.3380
  751TMC3    O211160   1.188   2.417  11.163 -0.2757  0.0348  0.1477
  752TMC3    C111161   4.730   2.428  17.408  0.3113  1.1182 -0.0724
  752TMC3    C211162   0.040   2.344  17.508  0.2415 -0.5518  0.5336
  752TMC3    C311163   4.711   2.330  17.626  0.0668 -0.0961 -0.1783
  752TMC3    C411164   4.627   2.513  17.444 -0.5117 -0.1966  0.7549
  752TMC3    C511165   4.560   2.499  17.570  0.6846 -0.0364 -0.1685
  752TMC3    C611166   4.596   2.399  17.656 -0.6478 -0.7916 -0.1422
  752TMC3     C11167   0.069   2.460  17.285 -0.0407 -0.0038 -0.5021
  752TMC3     O11168   0.185   2.414  17.288  0.3313 -0.1315  0.2090
  752TMC3     H11169   0.117   2.277  17.472  0.5261  0.2345 -0.3054
  752TMC3    H111170   4.602   2.583  17.366  2.4169 -0.1813 -0.1594
  752TMC3    H211171   4.547   2.383   0.008 -0.7497 -1.6211 -0.3322
  752TMC3    C711172   4.433   2.563  17.569 -0.2821 -0.3269 -1.1325
  752TMC3    C811173   0.026   2.237  17.721 -0.6006  0.3379  0.9070
  752TMC3    O111174   4.387   2.591  17.459 -0.1769 -0.0607 -0.6521
  752TMC3    O211175   0.005   2.256   0.095 -0.2845  0.0024  0.4121
  753TMC3    C111176   2.263   3.700  13.042 -0.7466 -0.2446  0.2543
  753TMC3    C211177   2.280   3.680  13.174  0.3558 -0.1529  0.3419
  753TMC3    C311178   2.212   3.586  13.242  0.3766  0.6608 -0.4596
  753TMC3    C411179   2.181   3.622  12.972 -0.5587  0.2536 -0.4797
  753TMC3    C511180   2.104   3.532  13.043 -0.4582 -0.0356  0.2595
  753TMC3    C611181   2.113   3.516  13.177  0.1313  0.4863 -0.5535
  753TMC3     C11182   2.296   3.828  12.979  0.1867  0.1870 -0.1495
  753TMC3     O11183   2.243   3.861  12.874 -0.0196  0.2643 -0.1421
  753TMC3     H11184   2.337   3.755  13.227 -0.4182  0.1060  0.7976
  753TMC3    H111185   2.163   3.644  12.868 -1.3498 -0.7220 -0.5531
  753TMC3    H211186   2.054   3.439  13.227 -1.2664  1.6806 -0.3723
  753TMC3    C711187   2.010   3.465  12.948  0.6443 -0.8579  0.1834
  753TMC3    C811188   2.244   3.558  13.390 -0.8025  0.2258  0.0862
  753TMC3    O111189   2.008   3.504  12.828  0.5057 -0.0220 -0.4726
  753TMC3    O211190   2.207   3.446  13.429 -0.4161 -0.4487 -0.1131
  754MPD2     C11191   1.215   3.029  13.612 -0.7645  0.5003  0.2842
  754MPD2    C111192   1.216   2.894  13.630 -0.1470  0.0681  0.1403
  754MPD2    C211193   1.110   2.818  13.584 -0.3381 -0.3154  0.4663
  754MPD2    C311194   1.008   2.879  13.518 -0.2362 -0.1868 -1.1141
  754MPD2    C411195   1.002   3.016  13.507  0.2702 -0.2041 -0.6572
  754MPD2    C511196   1.104   3.082  13.548  0.6372 -0.2537  0.0015
  754MPD2     H11197   1.110   2.710  13.594 -0.0932 -0.2034  1.6212
  754MPD2    H111198   0.914   3.067  13.469  1.4430  1.7265 -0.7625
  754MPD2    H211199   1.290   3.089  13.663 -1.1428 -0.0372  1.4573
  754MPD2    H311200   1.108   3.186  13.518 -0.8486 -0.1800  0.0856
  754MPD2     N11201   0.888   2.808  13.479 -0.0356  0.0410 -0.6539
  754MPD2    H511202   0.831   2.851  13.407  0.2253 -1.8937 -1.9951
  754MPD2    N111203   1.329   2.841  13.694 -0.6599 -0.1921  0.3371
  754MPD2    H711204   1.405   2.908  13.707  0.0209 -0.7178 -0.9690
  755MPD2     C11205   0.300   3.329  13.242  0.7114 -0.1737 -0.3458
  755MPD2    C111206   0.223   3.214  13.256  0.7540 -0.4827 -0.0669
  755MPD2    C211207   0.284   3.095  13.297 -0.4302  0.1763 -0.3720
  755MPD2    C311208   0.416   3.088  13.322 -0.3754  0.4377 -0.2521
  755MPD2    C411209   0.494   3.199  13.318  0.9957 -0.1652 -0.0001
  755MPD2    C511210   0.433   3.311  13.266  0.0860 -0.2366  0.1240
  755MPD2     H11211   0.215   3.011  13.296 -0.0596 -0.1156 -2.1720
  755MPD2    H111212   0.599   3.193  13.343  1.1582  1.4783 -0.2592
  755MPD2    H211213   0.269   3.424  13.201 -2.0158 -0.5568  0.8483
  755MPD2    H311214   0.496   3.396  13.240  1.8584 -2.1199 -1.7110
  755MPD2     N11215   0.483   2.967  13.358  0.1448 -0.3477 -0.2360
  755MPD2    H511216   0.581   2.973  13.383 -0.3009 -1.6468  1.7719
  755MPD2    N111217   0.090   3.195  13.207  0.1326  0.1502  0.0159
  755MPD2    H711218   0.050   3.102  13.219  0.6979 -0.2200 -0.9318
  756MPD2     C11219   1.735   3.886  10.018 -0.8685  0.6416 -1.0831
  756MPD2    C111220   1.631   3.834  10.093  0.0667  0.4603  0.0739
  756MPD2    C211221   1.542   3.747  10.034  0.1295 -0.3662  0.1917
  756MPD2    C311222   1.563   3.687   9.907 -0.0331 -0.0842  0.5752
  756MPD2    C411223   1.678   3.731   9.839  0.1375 -0.8691 -0.5232
  756MPD2    C511224   1.759   3.828   9.896 -0.1520  0.0829  0.9519
  756MPD2     H11225   1.456   3.719  10.094  0.3157 -1.8209 -0.2003
  756MPD2    H111226   1.715   3.696   9.744 -0.4149 -0.1032 -1.0149
  756MPD2    H211227   1.804   3.964  10.049 -0.6199 -0.2584  0.6464
  756MPD2    H311228   1.839   3.860   9.831  0.6837 -1.3758  1.2619
  756MPD2     N11229   1.480   3.579   9.873 -0.2595 -0.0416 -0.5194
  756MPD2    H511230   1.423   3.549   9.952  0.0689 -2.4591 -1.2055
  756MPD2    N111231   1.608   3.882  10.226 -0.2479  0.2651 -0.7813
  756MPD2    H711232   1.533   3.832  10.273 -1.9287  2.3148 -1.3127
  757MPD2     C11233   0.695   3.024  10.040 -0.4657 -0.4744  0.4175
  757MPD2    C111234   0.722   2.983   9.911 -0.3608  0.2921  0.3363
  757MPD2    C211235   0.827   3.038   9.836 -0.3488  0.0456  0.1206
  757MPD2    C311236   0.908   3.129   9.898  0.0793 -0.1439  1.0106
  757MPD2    C411237   0.883   3.162  10.027  0.4136 -0.0363 -0.1504
  757MPD2    C511238   0.784   3.104  10.102 -0.3648  0.2676 -0.1917
  757MPD2     H11239   0.822   3.024   9.729  1.7950  1.5883 -0.1728
  757MPD2    H111240   0.939   3.246  10.067  1.9599 -1.6235  0.9706
  757MPD2    H211241   0.601   2.992  10.084  0.5833 -0.4172  2.7001
  757MPD2    H311242   0.770   3.137  10.204 -1.3387  1.0110 -0.5673
  757MPD2     N11243   1.004   3.193   9.818 -0.5723 -0.5523 -0.3925
  757MPD2    H511244   1.011   3.159   9.723 -0.1191 -0.1150 -0.5174
  757MPD2    N111245   0.633   2.886   9.862  0.0668  0.2887 -0.2840
  757MPD2    H711246   0.559   2.866   9.929 -0.6259  1.0380 -0.8356
  758MPD2     C11247   0.625   1.649  16.064  0.0639 -0.0080 -0.5659
  758MPD2    C111248   0.749   1.619  16.107  0.0358  0.2612 -0.2258
  758MPD2    C211249   0.805   1.697  16.206  0.5750  0.1119 -0.0594
  758MPD2    C311250   0.738   1.805  16.254 -0.1702  0.3500  0.8115
  758MPD2    C411251   0.622   1.845  16.189  0.1593  0.0758  0.2646
  758MPD2    C511252   0.571   1.769  16.099  0.3154  0.1281  0.3396
  758MPD2     H11253   0.905   1.668  16.235  1.2088  2.2952 -0.0334
  758MPD2    H111254   0.576   1.939  16.214 -0.5125 -0.6143  1.6292
  758MPD2    H211255   0.568   1.605  15.983 -1.1978 -1.8980  1.3513
  758MPD2    H311256   0.482   1.803  16.046  0.9418 -1.4625 -1.7538
  758MPD2     N11257   0.779   1.874  16.369  0.4740 -0.6406 -0.1658
  758MPD2    H511258   0.709   1.944  16.391 -0.7133 -1.6489 -0.7051
  758MPD2    N111259   0.794   1.493  16.050  0.0497 -0.5842 -0.3083
  758MPD2    H711260   0.735   1.448  15.981 -1.8701  0.4218  0.6855
  759MPD2     C11261   0.812   0.228   9.558 -0.1905  0.3562 -0.1623
  759MPD2    C111262   0.740   0.249   9.677 -0.1925 -0.5178 -0.3437
  759MPD2    C211263   0.697   0.380   9.707 -0.3092 -0.0970  0.1184
  759MPD2    C311264   0.742   0.479   9.623  0.6090  0.2741  0.3498
  759MPD2    C411265   0.816   0.458   9.510  0.3810  0.7708 -0.1315
  759MPD2    C511266   0.844   0.328   9.482  0.1241  0.1474 -0.5378
  759MPD2     H11267   0.639   0.399   9.797  0.1339  2.4834 -0.1420
  759MPD2    H111268   0.846   0.538   9.443 -1.3137  0.8353 -0.8110
  759MPD2    H211269   0.854   0.132   9.529 -0.8026  0.1202 -0.2855
  759MPD2    H311270   0.897   0.305   9.390  1.7800  0.5691  0.3070
  759MPD2     N11271   0.706   0.618   9.658  0.0150  0.2543 -0.1264
  759MPD2    H511272   0.647   0.634   9.739 -1.2025 -2.7595 -0.3892
  759MPD2    N111273   0.703   0.137   9.758  0.3728  0.6677  0.1502
  759MPD2    H711274   0.631   0.150   9.829  0.3151  0.5307  0.1156
  760MPD2     C11275   4.101   3.045  12.251  0.3957  0.3020  0.1793
  760MPD2    C111276   4.229   2.995  12.256  0.2007 -0.4468  0.1792
  760MPD2    C211277   4.251   2.863  12.282  0.5358 -0.9551 -0.3653
  760MPD2    C311278   4.148   2.782  12.321 -0.3245 -0.7127  0.9205
  760MPD2    C411279   4.022   2.836  12.339  0.6163  0.1637  0.3860
  760MPD2    C511280   3.997   2.969  12.304  0.2820 -0.2081 -0.2297
  760MPD2     H11281   4.350   2.819  12.273  0.7004 -0.5389 -0.5848
  760MPD2    H111282   3.931   2.790  12.377 -0.1417  0.1566 -1.4517
  760MPD2    H211283   4.076   3.147  12.223 -1.6698 -0.5984 -1.2605
  760MPD2    H311284   3.895   3.003  12.293  0.2727 -0.5966 -1.4098
  760MPD2     N11285   4.168   2.650  12.362  0.4168  0.3390 -0.4122
  760MPD2    H511286   4.080   2.604  12.382  2.4086 -3.0216  0.7696
  760MPD2    N111287   4.343   3.066  12.218 -0.2033  0.0709 -0.4096
  760MPD2    H711288   4.433   3.023  12.237  0.5984  1.8691 -0.1352
  761MPD2     C11289   0.756   2.156  11.307 -0.3855  0.3202  0.3230
  761MPD2    C111290   0.859   2.177  11.210 -0.3909 -0.2822 -0.3648
  761MPD2    C211291   0.963   2.266  11.232 -0.2505  0.6868  0.5735
  761MPD2    C311292   0.968   2.351  11.338 -0.4526 -0.1899  0.3990
  761MPD2    C411293   0.871   2.328  11.431 -0.1642  0.5848  0.0447
  761MPD2    C511294   0.771   2.233  11.419 -0.1164 -0.0078 -0.2177
  761MPD2     H11295   1.037   2.271  11.153  0.5944 -1.3293  1.2459
  761MPD2    H111296   0.870   2.375  11.528  1.4710 -0.3412  0.4915
  761MPD2    H211297   0.670   2.094  11.287  0.2287 -0.0921 -1.0271
  761MPD2    H311298   0.692   2.225  11.492  1.1797  0.4360  1.2206
  761MPD2     N11299   1.066   2.453  11.362  0.3204 -0.1329 -0.0937
  761MPD2    H511300   1.055   2.506  11.448 -2.2492  1.3399 -1.3445
  761MPD2    N111301   0.840   2.119  11.080  0.5826  0.2188 -0.2021
  761MPD2    H711302   0.764   2.052  11.080  1.1671 -0.4473  0.5202
  762MPD2     C11303   1.335   2.292  10.566 -0.6189  0.8936 -0.1163
  762MPD2    C111304   1.321   2.155  10.540 -0.2863 -0.1972 -0.1433
  762MPD2    C211305   1.405   2.099  10.451  0.1929  0.0263  0.1499
  762MPD2    C311306   1.501   2.177  10.391 -0.4054  0.4281 -0.2924
  762MPD2    C411307   1.530   2.306  10.432  0.2342  0.2176 -0.4531
  762MPD2    C511308   1.438   2.361  10.513 -0.3621  0.6435 -0.0113
  762MPD2     H11309   1.394   1.996  10.420 -0.7947 -0.3081  1.6354
  762MPD2    H111310   1.623   2.356  10.408  0.3313 -0.1425 -0.8411
  762MPD2    H211311   1.269   2.337  10.640  0.7903  1.9407  0.4965
  762MPD2    H311312   1.444   2.463  10.549 -3.5250  0.4766  0.9060
  762MPD2     N11313   1.594   2.107  10.313  0.6839 -0.4628  0.2249
  762MPD2    H511314   1.604   2.006  10.326  0.3967 -0.5665 -0.3436
  762MPD2    N111315   1.227   2.090  10.626 -0.2592 -0.0993 -0.1551
  762MPD2    H711316   1.182   2.151  10.693  1.5284  0.3207  0.6552
  763MPD2     C11317   2.829   1.982  16.252 -0.3337  0.9207 -0.0166
  763MPD2    C111318   2.703   2.038  16.244 -0.1095 -0.0393 -0.1186
  763MPD2    C211319   2.686   2.163  16.294 -0.2969 -0.5217  0.3130
  763MPD2    C311320   2.793   2.218  16.371  0.4709 -0.2529 -0.3618
  763MPD2    C411321   2.911   2.154  16.385  0.3642 -0.0992  0.3983
  763MPD2    C511322   2.935   2.042  16.318  0.3272 -0.4820 -0.7182
  763MPD2     H11323   2.596   2.221  16.280  0.1387  0.2519  0.7731
  763MPD2    H111324   2.994   2.198  16.441  1.9581 -2.1252 -0.3827
  763MPD2    H211325   2.855   1.890  16.200  0.4886  1.9868 -1.4927
  763MPD2    H311326   3.031   1.993  16.334  0.2864 -0.4544 -0.3899
  763MPD2     N11327   2.785   2.337  16.445  0.3419 -0.2655 -0.0010
  763MPD2    H511328   2.874   2.378  16.474 -0.5674  1.7568 -0.0333
  763MPD2    N111329   2.595   1.988  16.167 -0.0521 -0.4895  0.6821
  763MPD2    H711330   2.507   2.039  16.167 -0.3501 -1.0032  1.4881
  764MPD2     C11331   0.806   3.147   0.155  0.1005 -0.2571 -0.3895
  764MPD2    C111332   0.682   3.209   0.133 -0.1426 -0.4825 -0.5545
  764MPD2    C211333   0.585   3.220   0.228 -0.1162 -0.5541 -0.1177
  764MPD2    C311334   0.594   3.145   0.342 -0.0311  0.5666 -0.0868
  764MPD2    C411335   0.718   3.082   0.370  0.2063  0.1946  0.9159
  764MPD2    C511336   0.826   3.091   0.282  0.5180  0.5198  0.1620
  764MPD2     H11337   0.497   3.274   0.194  2.4412  4.1682  0.8249
  764MPD2    H111338   0.729   3.019   0.457  0.8203 -1.7066 -0.5221
  764MPD2    H211339   0.886   3.146   0.081 -0.1553 -0.3225 -0.6664
  764MPD2    H311340   0.920   3.041   0.304  0.2523  0.3717  0.9468
  764MPD2     N11341   0.474   3.136   0.416 -0.0653 -0.2286 -0.1780
  764MPD2    H511342   0.399   3.193   0.377 -0.2879 -1.0644 -0.9888
  764MPD2    N111343   0.655   3.264   0.007  0.0806 -0.1736 -0.0288
  764MPD2    H711344   0.576   3.328   0.010 -0.3797 -0.7956  1.2739
  765MPD2     C11345   0.723   1.372  15.447  0.2615 -0.4512 -0.2292
  765MPD2    C111346   0.736   1.433  15.572 -0.0564  0.6668  0.4544
  765MPD2    C211347   0.826   1.385  15.668 -0.0632 -0.3654  0.1336
  765MPD2    C311348   0.905   1.275  15.630  0.0946  0.0724 -0.0758
  765MPD2    C411349   0.885   1.209  15.502  0.8691  0.1775  0.1965
  765MPD2    C511350   0.788   1.253  15.418 -0.3797 -0.6987  0.7503
  765MPD2     H11351   0.833   1.421  15.770  2.4459  1.4775 -0.6927
  765MPD2    H111352   0.942   1.121  15.473  1.6333  0.2978  1.3306
  765MPD2    H211353   0.654   1.410  15.373 -0.2233  1.1027  1.0214
  765MPD2    H311354   0.775   1.193  15.329 -1.6137 -0.5241  0.8119
  765MPD2     N11355   1.003   1.237  15.725  0.4929  0.3791  0.8999
  765MPD2    H511356   1.011   1.288  15.813 -3.1469  0.9194  0.9407
  765MPD2    N111357   0.656   1.545  15.594  0.3656  0.1441  0.4131
  765MPD2    H711358   0.577   1.550  15.531  0.1053  2.8946  0.9862
  766MPD2     C11359   0.130   1.592  15.282  0.3055 -0.1661  0.3134
  766MPD2    C111360   0.264   1.610  15.310 -0.5729 -0.2933  0.8992
  766MPD2    C211361   0.360   1.587  15.220  0.0111  0.0753  0.3615
  766MPD2    C311362   0.324   1.562  15.090 -0.1605 -0.5312  0.1240
  766MPD2    C411363   0.188   1.541  15.064  0.4745  0.6082 -0.1503
  766MPD2    C511364   0.093   1.546  15.159  0.5035  1.1216 -0.2931
  766MPD2     H11365   0.462   1.606  15.254 -0.2805  0.4832  1.0075
  766MPD2    H111366   0.156   1.530  14.961 -0.7768  0.9807  0.2015
  766MPD2    H211367   0.052   1.607  15.355  0.7280  0.8590  0.5502
  766MPD2    H311368   4.728   1.534  15.122  1.3624  0.8986 -2.6073
  766MPD2     N11369   0.412   1.568  14.979 -0.1020 -0.9660 -0.3432
  766MPD2    H511370   0.358   1.577  14.893  4.5834 -0.1597 -3.1969
  766MPD2    N111371   0.312   1.649  15.431  0.3415  0.4113  0.0624
  766MPD2    H711372   0.411   1.670  15.437 -0.1547  2.4025  1.2253
  767MPD2     C11373   4.619   1.881  14.984 -0.5056 -0.3301  0.3200
  767MPD2    C111374   0.020   1.868  14.982 -0.5077 -0.0736  0.0425
  767MPD2    C211375   0.079   1.813  14.872 -0.2999  0.1523 -0.4033
  767MPD2    C311376   0.006   1.742  14.775  0.0435  0.1219 -0.1898
  767MPD2    C411377   4.604   1.769  14.779  0.5951  0.4612  0.6002
  767MPD2    C511378   4.541   1.835  14.878 -0.7290 -0.2352 -1.0247
  767MPD2     H11379   0.185   1.792  14.879 -1.0804 -2.1709  4.2353
  767MPD2    H111380   4.537   1.737  14.700  0.0146 -0.9507  1.6788
  767MPD2    H211381   4.573   1.942  15.060 -0.4086  0.0292  0.0926
  767MPD2    H311382   4.436   1.862  14.881 -0.8180 -0.6498 -0.4725
  767MPD2     N11383   0.058   1.670  14.668 -0.2006  0.2724  0.1032
  767MPD2    H511384   4.733   1.651  14.589 -0.6051  1.4679  0.1408
  767MPD2    N111385   0.080   1.917  15.093 -0.5906  0.0953  0.0240
  767MPD2    H711386   0.030   1.942  15.178 -0.0688 -0.5808  0.5383
  768MPD2     C11387   1.158   0.771  10.528  0.9226 -0.9049 -0.1197
  768MPD2    C111388   1.113   0.673  10.612 -0.0467 -0.3777 -0.7585
  768MPD2    C211389   1.163   0.665  10.737 -0.0037  0.3049 -0.4168
  768MPD2    C311390   1.260   0.756  10.781  0.6709  0.2407 -0.7896
  768MPD2    C411391   1.311   0.857  10.699  0.3698 -0.6597  0.1709
  768MPD2    C511392   1.258   0.859  10.573 -0.2998 -0.5177  0.8183
  768MPD2     H11393   1.115   0.598  10.808  1.0474 -1.7591 -1.6502
  768MPD2    H111394   1.391   0.924  10.730  0.1171 -0.6119  0.7191
  768MPD2    H211395   1.121   0.777  10.426  4.0743 -0.0983 -1.2222
  768MPD2    H311396   1.299   0.928  10.501 -2.5217 -2.7882 -2.6528
  768MPD2     N11397   1.318   0.750  10.911 -0.0535 -0.2685 -0.1350
  768MPD2    H511398   1.377   0.831  10.927 -0.8517  0.1716  0.5573
  768MPD2    N111399   1.014   0.585  10.572 -0.2264 -0.1360  0.3741
  768MPD2    H711400   0.988   0.508  10.633  1.3677  0.1560  1.4468
  769MPD2     C11401   2.447   3.097  14.807  0.5987  0.4181 -0.4632
  769MPD2    C111402   2.330   3.159  14.835 -0.0887  0.6292  0.1095
  769MPD2    C211403   2.329   3.253  14.934 -0.0809  0.3287 -0.2243
  769MPD2    C311404   2.444   3.295  15.006 -1.2128 -0.4024 -0.2354
  769MPD2    C411405   2.565   3.229  14.977  0.3016  0.2912  0.6883
  769MPD2    C511406   2.561   3.137  14.870 -0.4240  0.0443 -0.2680
  769MPD2     H11407   2.236   3.305  14.955 -1.0696 -1.8841  0.8098
  769MPD2    H111408   2.659   3.235  15.031  0.4493 -2.2671  0.7088
  769MPD2    H211409   2.453   3.013  14.739  1.5057 -0.2322  0.4196
  769MPD2    H311410   2.653   3.090  14.837 -0.8649 -0.6242 -0.5442
  769MPD2     N11411   2.438   3.387  15.117 -0.2787 -0.0689 -0.0270
  769MPD2    H511412   2.345   3.405  15.153  0.7150  4.1458  0.4056
  769MPD2    N111413   2.208   3.111  14.776 -0.0930 -0.7348  0.0131
  769MPD2    H711414   2.211   3.028  14.717 -1.5733 -0.8038  0.0355
  770MPD2     C11415   1.897   2.272  15.028  0.7888 -0.7656  0.4155
  770MPD2    C111416   1.784   2.336  15.081  0.8318 -0.1163 -0.2633
  770MPD2    C211417   1.767   2.467  15.048 -0.4507  0.3614 -0.5773
  770MPD2    C311418   1.841   2.536  14.953 -0.1262 -0.3743 -0.7547
  770MPD2    C411419   1.946   2.471  14.891  0.6770 -0.2927 -0.1162
  770MPD2    C511420   1.970   2.343  14.932  0.5829  0.0456  0.1416
  770MPD2     H11421   1.680   2.517  15.090  1.0413  1.7523  0.8771
  770MPD2    H111422   2.004   2.510  14.808 -0.0963  1.7680  0.3137
  770MPD2    H211423   1.914   2.169  15.054 -0.9749 -1.1637 -0.0402
  770MPD2    H311424   2.055   2.292  14.890  0.0739  0.4558 -1.3742
  770MPD2     N11425   1.818   2.675  14.925 -0.6746  0.1763  0.8350
  770MPD2    H511426   1.735   2.714  14.969 -0.4008  2.1094 -0.3937
  770MPD2    N111427   1.694   2.269  15.171 -0.1443 -0.1717 -0.1353
  770MPD2    H711428   1.717   2.177  15.208  2.6649  1.2955  1.7635
  771MPD2     C11429   2.793   1.328  13.983 -0.1390  0.5116 -0.3174
  771MPD2    C111430   2.723   1.439  13.974  0.0150 -0.5347  0.1314
  771MPD2    C211431   2.587   1.423  13.973 -0.4359  0.1564  0.6200
  771MPD2    C311432   2.527   1.296  13.975 -0.7122 -0.4815  0.9484
  771MPD2    C411433   2.608   1.184  13.980 -0.3512 -0.6093  0.2936
  771MPD2    C511434   2.739   1.208  13.994  0.2215 -0.2731  0.5057
  771MPD2     H11435   2.518   1.505  13.959  0.4207  1.1773  2.3457
  771MPD2    H111436   2.566   1.084  13.986 -0.5805 -0.5526 -0.3833
  771MPD2    H211437   2.900   1.337  13.997 -0.1890  0.7993 -0.1125
  771MPD2    H311438   2.819   1.136  14.008  0.2998 -0.1092  0.9255
  771MPD2     N11439   2.393   1.286  13.946 -0.5336  0.0044  0.0018
  771MPD2    H511440   2.339   1.365  13.980 -1.9802 -0.7274 -0.5999
  771MPD2    N111441   2.780   1.568  13.985  0.3795 -0.0998  0.6634
  771MPD2    H711442   2.731   1.657  13.994  3.6510  1.5325  2.0735
  772MPD2     C11443   2.483   2.227  14.190  0.2046  0.7773  0.5125
  772MPD2    C111444   2.501   2.096  14.159  0.1655 -0.8326 -0.5044
  772MPD2    C211445   2.418   2.000  14.213  0.2712  0.1354  0.2593
  772MPD2    C311446   2.311   2.034  14.300 -0.4611  0.1926 -0.5592
  772MPD2    C411447   2.303   2.163  14.339  0.4126 -0.1390 -1.0496
  772MPD2    C511448   2.388   2.257  14.284  0.6680  0.1934 -0.1762
  772MPD2     H11449   2.426   1.897  14.181  1.4411 -0.6737  3.1102
  772MPD2    H111450   2.236   2.193  14.418  0.9370  2.2354 -1.5042
  772MPD2    H211451   2.550   2.303  14.151  0.5659 -0.2924 -0.9164
  772MPD2    H311452   2.383   2.359  14.322  2.2671  1.6809 -4.0031
  772MPD2     N11453   2.223   1.943  14.360  0.3244 -0.4301 -0.1338
  772MPD2    H511454   2.152   1.984  14.419 -0.1602 -0.1115 -0.9280
  772MPD2    N111455   2.609   2.061  14.074 -0.3816  0.3270 -0.1422
  772MPD2    H711456   2.653   2.140  14.027 -1.4755  0.9380 -0.1355
  773MPD2     C11457   1.851   2.537   0.152  0.4094 -0.4533  0.4013
  773MPD2    C111458   1.787   2.426   0.101  0.1158 -0.1071 -0.0156
  773MPD2    C211459   1.824   2.299   0.148  0.4457  0.0943 -0.2620
  773MPD2    C311460   1.924   2.281   0.248 -0.6193  0.5164  0.2038
  773MPD2    C411461   1.978   2.397   0.305 -0.3704 -0.1745  0.5985
  773MPD2    C511462   1.940   2.527   0.257  0.2030  0.5175 -0.4556
  773MPD2     H11463   1.788   2.214   0.091 -0.2599 -2.0099  3.3247
  773MPD2    H111464   2.053   2.400   0.384  0.2382 -1.8791  0.0808
  773MPD2    H211465   1.833   2.638   0.115 -0.2347 -0.1871  1.4538
  773MPD2    H311466   1.973   2.617   0.308 -2.0677  1.1395 -0.0757
  773MPD2     N11467   1.962   2.149   0.278  0.0508 -0.1750  0.3342
  773MPD2    H511468   1.902   2.076   0.241  1.7041 -0.5875 -1.5200
  773MPD2    N111469   1.687   2.433   0.005 -0.2211  0.5971  0.0445
  773MPD2    H711470   1.643   2.343  17.731  0.1541  0.2152  1.0985
  774MPD2     C11471   1.317   1.854  14.165  0.1889 -1.0764  0.1390
  774MPD2    C111472   1.186   1.867  14.116  0.1487  0.0158 -0.1376
  774MPD2    C211473   1.157   1.975  14.031 -0.1430 -0.3384  0.0821
  774MPD2    C311474   1.254   2.075  14.015 -1.0947  0.4775 -0.3157
  774MPD2    C411475   1.378   2.061  14.061 -0.1714  0.2781 -0.6425
  774MPD2    C511476   1.407   1.949  14.131  0.8323  0.0453  0.1320
  774MPD2     H11477   1.061   1.979  13.981 -0.1844 -0.9807  0.0992
  774MPD2    H111478   1.461   2.124  14.031  0.3376 -0.2657 -0.3811
  774MPD2    H211479   1.353   1.769  14.221  0.3945  0.2790  2.0452
  774MPD2    H311480   1.509   1.933  14.166  1.1292  1.6414 -0.0124
  774MPD2     N11481   1.214   2.189  13.943  0.5724  0.0576 -0.1188
  774MPD2    H511482   1.114   2.191  13.922  0.2259  0.8212  1.6043
  774MPD2    N111483   1.103   1.757  14.152 -0.1572  0.2717 -0.6830
  774MPD2    H711484   1.142   1.675  14.198 -2.5473  0.1506  1.1046
  775MPD2     C11485   2.475   2.937  15.886  0.0323 -0.1370  0.7234
  775MPD2    C111486   2.439   3.064  15.861  0.4238  0.9299  0.2669
  775MPD2    C211487   2.526   3.140  15.792  0.2490  0.5286 -0.6480
  775MPD2    C311488   2.645   3.091  15.744 -0.0640 -0.0657 -0.3811
  775MPD2    C411489   2.688   2.967  15.777 -0.1335  0.7639  0.9153
  775MPD2    C511490   2.600   2.893  15.853 -0.1736  0.2277  0.2178
  775MPD2     H11491   2.499   3.243  15.771  0.0655  1.3410  3.4734
  775MPD2    H111492   2.779   2.918  15.745  0.5354  2.2411  0.5380
  775MPD2    H211493   2.410   2.868  15.939 -0.9780 -0.8784 -1.4769
  775MPD2    H311494   2.624   2.787  15.857 -1.2032  0.0090  0.7978
  775MPD2     N11495   2.740   3.167  15.668  0.4501 -0.3488 -0.1764
  775MPD2    H511496   2.823   3.121  15.633  1.3286  0.3820  0.9309
  775MPD2    N111497   2.309   3.110  15.913 -0.0900  0.5282  0.0232
  775MPD2    H711498   2.252   3.042  15.961 -0.8724  2.0606  1.2917
  776MPD2     C11499   0.520   3.085  12.206 -0.3475  0.1734 -0.2460
  776MPD2    C111500   0.641   3.145  12.198  0.2372 -0.2557  0.4653
  776MPD2    C211501   0.647   3.281  12.159 -0.1358  0.1206 -0.3814
  776MPD2    C311502   0.536   3.341  12.114 -0.2001  0.0729  0.2124
  776MPD2    C411503   0.411   3.283  12.138 -0.4754  0.9050 -0.3978
  776MPD2    C511504   0.404   3.159  12.186  0.1995 -0.0468 -0.0711
  776MPD2     H11505   0.742   3.333  12.151  1.6901 -2.8352  1.9039
  776MPD2    H111506   0.312   3.326  12.123 -0.9099  0.4019  1.0534
  776MPD2    H211507   0.520   2.979  12.229 -1.5096  0.2551  0.1074
  776MPD2    H311508   0.309   3.117  12.217 -0.2883  2.0170  1.2475
  776MPD2     N11509   0.531   3.466  12.052 -0.6727  0.2775  0.1998
  776MPD2    H511510   0.440   3.505  12.031 -0.3401  1.6748  1.3433
  776MPD2    N111511   0.755   3.074  12.248  0.2522  0.0001  0.0118
  776MPD2    H711512   0.734   2.980  12.282 -1.5536  0.5582  0.4327
  777MPD2     C11513   1.494   0.996   1.051  0.0815 -0.0923  0.5684
  777MPD2    C111514   1.602   0.943   1.113 -0.0786  0.0915 -0.3796
  777MPD2    C211515   1.635   0.814   1.076  1.2583 -0.3559 -0.7258
  777MPD2    C311516   1.565   0.745   0.980  0.1508 -0.1403  0.4251
  777MPD2    C411517   1.454   0.802   0.918 -0.2495  0.2513  0.0612
  777MPD2    C511518   1.423   0.930   0.950 -0.1208 -1.3469  0.7157
  777MPD2     H11519   1.707   0.756   1.133  2.4684  2.0154  0.1553
  777MPD2    H111520   1.388   0.741   0.858  0.4445 -0.9237  0.4835
  777MPD2    H211521   1.451   1.093   1.073  0.3106  0.0287  0.4753
  777MPD2    H311522   1.330   0.967   0.908  1.1484 -0.0679 -1.0003
  777MPD2     N11523   1.595   0.604   0.974 -0.1062 -0.1048  0.3263
  777MPD2    H511524   1.655   0.556   1.040  1.3566 -1.7394 -2.1752
  777MPD2    N111525   1.678   1.024   1.200 -0.3951 -0.1903 -0.1948
  777MPD2    H711526   1.638   1.117   1.214 -1.7285 -0.7499 -0.3073
  778MPD2     C11527   2.620   1.442  14.920 -0.4390 -0.7172 -0.1525
  778MPD2    C111528   2.637   1.330  14.843  0.7500  0.4173 -0.4740
  778MPD2    C211529   2.720   1.349  14.734  0.0919  0.5628  0.5316
  778MPD2    C311530   2.796   1.466  14.716 -0.7406 -0.1240 -0.0545
  778MPD2    C411531   2.774   1.569  14.805 -0.4699 -0.4397 -1.0028
  778MPD2    C511532   2.684   1.559  14.902  0.3826  0.7986  0.0320
  778MPD2     H11533   2.735   1.273  14.658 -1.9832 -1.2457  1.9512
  778MPD2    H111534   2.823   1.665  14.800  0.0206 -0.5825  0.9762
  778MPD2    H211535   2.553   1.434  15.005 -2.7875  2.2540 -1.7642
  778MPD2    H311536   2.665   1.643  14.968 -0.8705  1.0290 -0.6139
  778MPD2     N11537   2.885   1.466  14.607  0.4413 -0.9263 -0.0318
  778MPD2    H511538   2.901   1.378  14.558  0.6090 -1.3011  0.7074
  778MPD2    N111539   2.582   1.197  14.868 -0.3817  0.3935 -0.1918
  778MPD2    H711540   2.605   1.124  14.802  1.2172  0.9747 -0.2775
  779MPD2     C11541   2.282   4.680  13.843  0.1324  0.2804 -0.1133
  779MPD2    C111542   2.413   4.689  13.900  0.0137  0.7484  0.1479
  779MPD2    C211543   2.449   0.074  13.953  0.0996  0.1001 -0.3779
  779MPD2    C311544   2.361   0.180  13.955 -0.0932 -0.1529 -0.5317
  779MPD2    C411545   2.236   0.169  13.901 -0.3148 -0.1310  0.1433
  779MPD2    C511546   2.200   0.052  13.848 -0.5071  0.7128 -0.0543
  779MPD2     H11547   2.543   0.081  14.007 -0.2114 -0.7135  0.2559
  779MPD2    H111548   2.157   0.244  13.913 -1.8352 -1.7608  0.3096
  779MPD2    H211549   2.249   4.591  13.791  0.7371 -1.6233  2.7364
  779MPD2    H311550   2.101   0.034  13.809 -0.8102  1.1533  0.5061
  779MPD2     N11551   2.404   0.297  14.027 -0.3940 -0.2512  0.1911
  779MPD2    H511552   2.502   0.301  14.053 -0.3415  0.5783 -0.1406
  779MPD2    N111553   2.504   4.577  13.901  0.7972 -0.0182 -0.1371
  779MPD2    H711554   2.582   4.574  13.966  0.5474  1.5201  0.2354
  780MPD2     C11555   1.948   4.032   0.838  0.0863  0.3308 -0.5993
  780MPD2    C111556   1.836   4.013   0.761  0.3669  0.5461  0.1996
  780MPD2    C211557   1.790   4.125   0.696  0.4192  0.5365  0.5541
  780MPD2    C311558   1.873   4.242   0.685  0.5885 -0.5213 -0.4439
  780MPD2    C411559   1.992   4.251   0.760  0.0588 -0.4663 -0.0160
  780MPD2    C511560   2.023   4.143   0.839  0.7525 -0.3321  0.3984
  780MPD2     H11561   1.697   4.123   0.640  1.2728 -0.2294 -0.8379
  780MPD2    H111562   2.059   4.336   0.754 -1.8794  1.1417  1.4623
  780MPD2    H211563   1.992   3.950   0.894 -1.0451  0.3064  0.2511
  780MPD2    H311564   2.114   4.135   0.897  0.7916 -2.0391  0.0970
  780MPD2     N11565   1.830   4.346   0.600  0.1864  0.9772 -0.2969
  780MPD2    H511566   1.750   4.328   0.540  1.6855  1.8318 -2.5539
  780MPD2    N111567   1.789   3.879   0.746  0.0067 -0.2281  0.8399
  780MPD2    H711568   1.833   3.804   0.799  0.2269 -1.7541 -1.4993
  781MPD2     C11569   4.017   2.552  12.110  0.3202  0.5085 -0.6693
  781MPD2    C111570   3.984   2.424  12.097 -0.2590  0.1840  0.6510
  781MPD2    C211571   4.040   2.351  11.996 -0.6538 -0.1030 -0.3477
  781MPD2    C311572   4.128   2.407  11.900  0.1439  0.2731  0.3047
  781MPD2    C411573   4.164   2.539  11.925  0.5678  0.5519  0.2676
  781MPD2    C511574   4.103   2.605  12.026 -0.2126 -0.3884 -0.2038
  781MPD2     H11575   4.013   2.247  11.986 -0.1629 -0.1360 -1.3758
  781MPD2    H111576   4.234   2.594  11.863 -2.6822  1.8484 -2.2757
  781MPD2    H211577   3.971   2.617  12.183  1.4847  2.3497 -1.5798
  781MPD2    H311578   4.123   2.710  12.043 -0.7142 -0.2506 -0.4703
  781MPD2     N11579   4.193   2.331  11.799  0.4431  1.0112  0.2025
  781MPD2    H511580   4.248   2.381  11.730 -1.2758 -0.2925 -2.1275
  781MPD2    N111581   3.891   2.361  12.185  0.0837 -0.7647 -0.4167
  781MPD2    H711582   3.859   2.267  12.161  3.3305 -2.1473  0.7235
  782MPD2     C11583   1.720   2.998  10.521 -0.0644  0.1934 -0.0263
  782MPD2    C111584   1.842   2.976  10.575 -0.2003  0.1320  0.1188
  782MPD2    C211585   1.897   3.084  10.643 -0.4777 -0.1977 -0.4505
  782MPD2    C311586   1.828   3.197  10.676 -0.2738  0.6807 -0.0184
  782MPD2    C411587   1.704   3.219  10.620  0.4519 -0.7187  0.8956
  782MPD2    C511588   1.650   3.118  10.534  0.6987 -0.0688  0.1915
  782MPD2     H11589   1.989   3.071  10.700 -0.3543  1.1165 -0.3587
  782MPD2    H111590   1.671   3.322  10.624 -2.7787 -1.7644  1.8012
  782MPD2    H211591   1.664   2.928  10.461  0.7131  0.6404 -1.2670
  782MPD2    H311592   1.557   3.144  10.485  0.2567 -0.9981  0.5410
  782MPD2     N11593   1.900   3.287  10.760 -0.2174  0.1949  0.2069
  782MPD2    H511594   1.998   3.266  10.779 -0.1085 -0.3495 -0.9053
  782MPD2    N111595   1.909   2.858  10.539 -0.0690  0.0616 -0.1442
  782MPD2    H711596   1.865   2.777  10.498 -1.9514  1.1318 -0.2011
  783MPD2     C11597   1.882   2.328  11.253  0.7816 -0.1911 -0.9965
  783MPD2    C111598   1.816   2.436  11.202  0.2742 -0.1387 -0.2725
  783MPD2    C211599   1.865   2.506  11.093 -0.7695  0.6047 -0.3591
  783MPD2    C311600   1.983   2.464  11.034  0.4829  0.2097 -0.4701
  783MPD2    C411601   2.054   2.360  11.091  0.2718  0.4565 -0.3377
  783MPD2    C511602   2.002   2.287  11.198  0.3523 -0.8349  0.4843
  783MPD2     H11603   1.816   2.593  11.050  0.7208  0.6551 -1.9613
  783MPD2    H111604   2.149   2.333  11.048 -1.5079 -2.8445 -2.2411
  783MPD2    H211605   1.836   2.276  11.336 -0.7034  2.0269 -0.4134
  783MPD2    H311606   2.051   2.197  11.233 -0.8974 -1.3026  1.0637
  783MPD2     N11607   2.031   2.535  10.917  0.4963 -0.1477  0.3927
  783MPD2    H511608   1.978   2.618  10.892  0.0965 -1.0502 -1.7523
  783MPD2    N111609   1.692   2.475  11.262 -0.5594 -0.6412 -0.7037
  783MPD2    H711610   1.651   2.420  11.338  0.3060 -0.1985  0.0825
  784MPD2     C11611   3.894   2.573   0.524  0.0856  0.2960 -0.2544
  784MPD2    C111612   3.905   2.680   0.607  0.0564  0.7686 -0.3088
  784MPD2    C211613   3.852   2.799   0.568  0.0322  0.7831 -0.2146
  784MPD2    C311614   3.775   2.809   0.456  0.4432  0.1438  0.7607
  784MPD2    C411615   3.765   2.704   0.377  1.1440 -0.7917 -0.1710
  784MPD2    C511616   3.824   2.585   0.410  0.1642  0.7211 -0.1722
  784MPD2     H11617   3.876   2.893   0.617  0.1543 -0.3500  1.8979
  784MPD2    H111618   3.712   2.708   0.283  0.7304 -0.9416  0.0530
  784MPD2    H211619   3.941   2.478   0.547  0.0537  0.1869 -0.6337
  784MPD2    H311620   3.818   2.498   0.346 -0.3575  0.0960  0.7225
  784MPD2     N11621   3.707   2.923   0.427  0.0862 -0.4546  0.3131
  784MPD2    H511622   3.698   2.999   0.494  2.6195 -0.4099  0.5927
  784MPD2    N111623   3.958   2.665   0.735 -0.3807  0.8362 -0.8170
  784MPD2    H711624   3.963   2.753   0.785  1.1517  0.0876  0.3216
  785MPD2     C11625   4.676   0.830  11.058  0.6597  0.8362 -0.2257
  785MPD2    C111626   4.576   0.902  10.991  0.6279 -0.4273 -0.4464
  785MPD2    C211627   4.570   0.906  10.856 -0.1545  0.3376  0.3183
  785MPD2    C311628   4.647   0.812  10.792  0.7993 -0.3042 -0.5399
  785MPD2    C411629   0.009   0.737  10.857 -0.4120 -0.2589 -0.0038
  785MPD2    C511630   0.028   0.749  10.990 -0.0894  0.3422 -0.7480
  785MPD2     H11631   4.493   0.958  10.800 -0.5648 -1.4198 -0.7399
  785MPD2    H111632   0.067   0.658  10.812 -0.3346 -1.1515  1.6582
  785MPD2    H211633   4.695   0.837  11.164  1.4090  0.5260 -0.3420
  785MPD2    H311634   0.099   0.682  11.038 -1.2382 -0.3594 -0.0300
  785MPD2     N11635   4.616   0.788  10.657  0.9722 -0.6007 -0.2737
  785MPD2    H511636   4.550   0.853  10.615  0.4803 -0.2940  0.9680
  785MPD2    N111637   4.482   0.967  11.077  0.5260 -0.2299 -0.0506
  785MPD2    H711638   4.474   0.944  11.175 -1.4252  0.6227 -0.0072
  786MPD2     C11639   3.300   4.345  14.727 -0.0853  0.2058  0.4852
  786MPD2    C111640   3.375   4.230  14.730 -0.2093  0.6312 -0.9352
  786MPD2    C211641   3.470   4.211  14.835 -0.1851 -0.0532  0.3338
  786MPD2    C311642   3.481   4.313  14.926  0.1068  0.7962  0.2215
  786MPD2    C411643   3.403   4.431  14.921 -0.8674  0.7559  0.1290
  786MPD2    C511644   3.306   4.444  14.826  0.3974 -0.1008 -0.5697
  786MPD2     H11645   3.540   4.128  14.830 -1.7631 -1.3434 -0.2518
  786MPD2    H111646   3.413   4.509  14.996 -0.1443 -1.2032  2.0584
  786MPD2    H211647   3.225   4.350  14.649 -0.1555  0.2014  0.5525
  786MPD2    H311648   3.233   4.525  14.825  0.7322  0.2200  1.3544
  786MPD2     N11649   3.581   4.315  15.024 -0.0822  0.2940 -0.1486
  786MPD2    H511650   3.593   4.397  15.082 -1.2405  1.1669 -1.1639
  786MPD2    N111651   3.357   4.125  14.637  0.3442 -0.0949  0.3448
  786MPD2    H711652   3.417   4.045  14.655  1.8939  0.6357 -1.6484
  787MPD2     C11653   3.187   3.646  14.931  0.0820 -0.6437 -0.2430
  787MPD2    C111654   3.205   3.598  14.802  0.1367 -0.1341  0.4944
  787MPD2    C211655   3.226   3.462  14.786 -0.2225 -0.4100  0.2216
  787MPD2    C311656   3.244   3.377  14.892  0.4002  0.4716  0.1744
  787MPD2    C411657   3.228   3.425  15.020 -0.5389  0.1992  0.6452
  787MPD2    C511658   3.196   3.561  15.037  1.1040 -0.6971  0.2710
  787MPD2     H11659   3.243   3.412  14.692 -1.3076 -0.9531  0.3214
  787MPD2    H111660   3.252   3.372  15.111 -0.4037 -0.0917  0.4389
  787MPD2    H211661   3.163   3.751  14.948  1.3857 -0.5857  1.2982
  787MPD2    H311662   3.180   3.603  15.135  2.5399  1.4661 -0.4098
  787MPD2     N11663   3.296   3.246  14.868  0.7134  0.1532  0.1719
  787MPD2    H511664   3.321   3.227  14.772 -0.3302 -2.5543  0.4082
  787MPD2    N111665   3.190   3.696  14.693 -0.4741 -0.9885 -0.4490
  787MPD2    H711666   3.192   3.794  14.720  0.2021 -1.2419  0.4276
  788MPD2     C11667   0.606   2.485   0.849 -0.4722  0.8710  0.1364
  788MPD2    C111668   0.634   2.411   0.736  0.3161 -0.0144 -0.2174
  788MPD2    C211669   0.642   2.479   0.615 -0.2638 -0.1312 -0.1989
  788MPD2    C311670   0.612   2.614   0.601 -0.1890  0.1828 -0.5623
  788MPD2    C411671   0.586   2.689   0.717  0.2012 -0.4603 -0.4088
  788MPD2    C511672   0.583   2.625   0.838 -0.3841  0.2529  0.6816
  788MPD2     H11673   0.668   2.419   0.528 -1.2002 -1.1281  0.2191
  788MPD2    H111674   0.574   2.796   0.703 -1.1536 -0.9187 -2.7249
  788MPD2    H211675   0.599   2.435   0.945  0.3754  2.1604  0.8724
  788MPD2    H311676   0.563   2.685   0.926  1.7930  1.3476  0.4268
  788MPD2     N11677   0.607   2.683   0.478 -0.7114 -0.4415 -0.7958
  788MPD2    H511678   0.580   2.780   0.484  2.2738  0.3885 -0.8921
  788MPD2    N111679   0.639   2.268   0.742 -0.2516  0.4424 -0.1910
  788MPD2    H711680   0.684   2.216   0.667 -1.6246 -1.4245  0.2767
  789MPD2     C11681   0.695   1.845  16.909 -0.7947  0.1795  0.9621
  789MPD2    C111682   0.609   1.834  16.801  0.6379  0.0772 -0.2231
  789MPD2    C211683   0.491   1.903  16.806  0.7579 -0.5268 -0.5620
  789MPD2    C311684   0.463   1.988  16.913 -0.5244  0.2043 -0.5318
  789MPD2    C411685   0.556   2.008  17.012  0.1092  0.5678 -0.1424
  789MPD2    C511686   0.681   1.943  17.003  0.4707 -0.0240  0.3454
  789MPD2     H11687   0.417   1.895  16.727 -2.0898 -0.5361  2.1141
  789MPD2    H111688   0.545   2.076  17.096  0.5534 -0.5455  0.8152
  789MPD2    H211689   0.777   1.775  16.925  1.4826  3.0572  1.9415
  789MPD2    H311690   0.752   1.964  17.082  0.7169  3.7520 -0.8949
  789MPD2     N11691   0.339   2.058  16.926  0.1264  0.3206  0.2495
  789MPD2    H511692   0.339   2.118  17.008  1.0687  3.2300 -1.8775
  789MPD2    N111693   0.631   1.748  16.694 -0.6570 -0.6333 -0.7788
  789MPD2    H711694   0.564   1.765  16.620 -0.8629  1.3429 -0.1288
  790MPD2     C11695   1.898   3.678  13.404  0.4040  0.0906 -0.0791
  790MPD2    C111696   1.824   3.564  13.388  0.4605  0.6018 -0.3906
  790MPD2    C211697   1.749   3.549  13.270 -0.0711  0.5032 -0.6433
  790MPD2    C311698   1.759   3.646  13.170 -0.8826  0.1024  0.0755
  790MPD2    C411699   1.840   3.754  13.187  0.1500 -0.4528 -0.9239
  790MPD2    C511700   1.899   3.777  13.313 -0.1981 -0.5643 -0.4524
  790MPD2     H11701   1.693   3.462  13.241 -0.5450  0.0975  1.4457
  790MPD2    H111702   1.851   3.828  13.109 -2.8737 -0.5635 -1.4679
  790MPD2    H211703   1.968   3.682  13.487  0.4669  0.3677 -0.1456
  790MPD2    H311704   1.958   3.867  13.330  0.9380 -0.6009 -4.1623
  790MPD2     N11705   1.682   3.621  13.052 -0.3031 -0.2143 -0.2146
  790MPD2    H511706   1.610   3.552  13.068  0.4325 -1.1002 -0.7381
  790MPD2    N111707   1.839   3.460  13.481 -0.0853  0.1782 -0.1871
  790MPD2    H711708   1.906   3.480  13.554 -0.4680 -0.2920  0.2917
  791MPD2     C11709   1.018   3.726  12.586 -0.1616 -0.2145  0.2165
  791MPD2    C111710   1.074   3.626  12.667  0.2105 -0.0850  0.4355
  791MPD2    C211711   0.992   3.558  12.759  0.0857 -0.0782  0.1314
  791MPD2    C311712   0.853   3.577  12.756  0.0250 -0.1030  0.0725
  791MPD2    C411713   0.803   3.677  12.678 -0.0958  0.3057  0.0826
  791MPD2    C511714   0.881   3.757  12.597 -0.4787  0.0753 -0.1383
  791MPD2     H11715   1.045   3.491  12.826 -0.3863 -0.0809  0.5025
  791MPD2    H111716   0.696   3.692  12.679 -0.2266 -0.6497 -0.4768
  791MPD2    H211717   1.079   3.777  12.512 -0.0026 -2.1427 -0.9815
  791MPD2    H311718   0.849   3.828  12.521 -0.2488 -0.6887 -0.9383
  791MPD2     N11719   0.777   3.486  12.835 -0.4353 -0.0120 -0.2089
  791MPD2    H511720   0.828   3.411  12.880  1.3005  0.2268 -1.7663
  791MPD2    N111721   1.217   3.618  12.659  0.1078  0.2879  1.1887
  791MPD2    H711722   1.264   3.688  12.602  1.0917 -0.6716  0.8127
  792MPD2     C11723   2.019   3.748  11.649  0.5955  0.3057 -0.2189
  792MPD2    C111724   1.945   3.850  11.596 -0.1258 -0.3578  0.3939
  792MPD2    C211725   1.809   3.834  11.571 -0.2697  0.4759  0.0366
  792MPD2    C311726   1.750   3.714  11.603  0.7902 -0.0135 -0.1436
  792MPD2    C411727   1.834   3.613  11.654  0.1363 -0.4222  0.3358
  792MPD2    C511728   1.967   3.629  11.676  0.2515  0.9088 -0.5218
  792MPD2     H11729   1.760   3.911  11.514  0.1231 -0.3015 -1.3523
  792MPD2    H111730   1.782   3.519  11.669  0.7596 -0.2851  3.2254
  792MPD2    H211731   2.125   3.754  11.674 -0.3752  1.2444  3.7911
  792MPD2    H311732   2.026   3.549  11.719 -0.5342 -0.3015 -1.7051
  792MPD2     N11733   1.612   3.687  11.575 -1.4447  0.2840  0.1317
  792MPD2    H511734   1.588   3.590  11.593 -0.6020 -0.0427 -0.4780
  792MPD2    N111735   2.024   3.957  11.548  0.3104 -0.1764  0.1984
  792MPD2    H711736   2.124   3.945  11.558  0.1597 -0.6750  1.0397
  793MPD2     C11737   1.095   3.915  10.790  0.5494 -0.2964  0.2386
  793MPD2    C111738   1.218   3.874  10.835  0.3100 -0.0297 -0.4693
  793MPD2    C211739   1.251   3.825  10.962  0.4841 -0.1443  0.3755
  793MPD2    C311740   1.149   3.814  11.049  0.0088  0.0867  0.1872
  793MPD2    C411741   1.017   3.850  11.009  0.6008 -0.2048  0.4417
  793MPD2    C511742   0.996   3.902  10.890 -0.0348 -1.1055 -0.2229
  793MPD2     H11743   1.354   3.801  10.986  0.4452 -0.6701  0.0196
  793MPD2    H111744   0.933   3.834  11.075  1.8356  0.2543  2.1296
  793MPD2    H211745   1.079   3.955  10.690  1.7687  1.9739  0.9474
  793MPD2    H311746   0.898   3.929  10.853  0.5717  0.6623 -0.5228
  793MPD2     N11747   1.184   3.766  11.178 -0.0071 -0.0041  0.2015
  793MPD2    H511748   1.281   3.739  11.192 -0.0592 -1.0171 -1.3875
  793MPD2    N111749   1.337   3.887  10.756  0.9288  0.0396 -0.6605
  793MPD2    H711750   1.419   3.838  10.791 -0.3630  0.7943  3.4436
  794MPD2     C11751   1.085   2.895  17.282  0.1331 -0.0159  0.5670
  794MPD2    C111752   1.148   2.793  17.217 -0.2896 -0.9597 -0.1427
  794MPD2    C211753   1.114   2.769  17.083  0.0996  0.1224 -0.3703
  794MPD2    C311754   1.018   2.848  17.022  0.0191 -0.4751 -0.9003
  794MPD2    C411755   0.956   2.948  17.094  0.0191  0.2043  0.2036
  794MPD2    C511756   0.988   2.969  17.223  0.3469 -0.1461 -0.3619
  794MPD2     H11757   1.159   2.688  17.026  2.5594  0.9615  0.3825
  794MPD2    H111758   0.872   3.005  17.058 -0.1651  0.5889  1.2359
  794MPD2    H211759   1.114   2.928  17.382 -1.4580  1.0090  0.6791
  794MPD2    H311760   0.930   3.037  17.285  2.0475 -0.5527  1.6802
  794MPD2     N11761   0.963   2.815  16.893  0.0870  0.6066 -0.6341
  794MPD2    H511762   0.885   2.875  16.871 -0.8776 -0.4874 -0.2421
  794MPD2    N111763   1.245   2.710  17.276 -0.1233 -0.0168  0.7974
  794MPD2    H711764   1.301   2.644  17.223  0.4328 -0.1827  1.5938
  795MPD2     C11765   3.492   0.675  13.368  0.0751 -0.2907 -0.1301
  795MPD2    C111766   3.451   0.584  13.467  0.4036  0.0068  0.5499
  795MPD2    C211767   3.527   0.472  13.501 -0.2413  0.1241  0.2705
  795MPD2    C311768   3.653   0.458  13.443  0.1726  0.0507 -0.4637
  795MPD2    C411769   3.698   0.554  13.353 -0.8254 -0.7160  0.4971
  795MPD2    C511770   3.613   0.650  13.316 -0.2294  0.6235  0.0307
  795MPD2     H11771   3.492   0.400  13.573  1.1370  0.9338  1.7470
  795MPD2    H111772   3.791   0.540  13.300 -0.4297 -0.2273  1.0535
  795MPD2    H211773   3.440   0.759  13.323 -1.3929 -0.7188  0.7983
  795MPD2    H311774   3.643   0.702  13.225 -1.3887  0.3995 -0.4685
  795MPD2     N11775   3.722   0.336  13.472 -0.1238 -0.6103  0.0290
  795MPD2    H511776   3.679   0.279  13.544  0.4853 -2.4308 -1.0751
  795MPD2    N111777   3.323   0.591  13.538  0.4120 -0.2931 -0.2798
  795MPD2    H711778   3.304   0.524  13.612 -0.1235 -0.5751 -0.6676
  796MPD2     C11779   2.967   1.448  15.901  0.5153 -1.0708  0.8528
  796MPD2    C111780   3.055   1.503  15.990 -0.3757  0.4057 -0.0246
  796MPD2    C211781   3.048   1.641  16.009  0.1728 -0.1148 -0.6849
  796MPD2    C311782   2.958   1.718  15.940 -0.1212  0.5734 -0.4431
  796MPD2    C411783   2.878   1.666  15.840 -0.1934 -0.1782 -0.3303
  796MPD2    C511784   2.882   1.532  15.830  0.4915  0.1849 -0.4605
  796MPD2     H11785   3.111   1.697  16.079  0.9206 -0.7744 -0.8319
  796MPD2    H111786   2.810   1.721  15.776  1.7758  1.1159 -1.3327
  796MPD2    H211787   2.959   1.341  15.881  0.9271 -0.6631 -1.4353
  796MPD2    H311788   2.826   1.487  15.749  0.4023 -1.1843  0.3519
  796MPD2     N11789   2.959   1.857  15.960 -0.3871  0.3816 -0.3241
  796MPD2    H511790   3.034   1.886  16.022 -0.5126  1.2894 -0.5915
  796MPD2    N111791   3.128   1.420  16.079  0.1227 -0.7512  0.5447
  796MPD2    H711792   3.121   1.321  16.062 -0.5452 -0.7222  0.6747
  797MPD2     C11793   4.254   1.052  17.423  1.3707  0.2818  0.0566
  797MPD2    C111794   4.200   1.158  17.497  0.3518 -0.2145 -0.3086
  797MPD2    C211795   4.062   1.164  17.511 -0.6063 -0.0421  0.2624
  797MPD2    C311796   3.984   1.072  17.452  0.1808 -0.6311 -0.0734
  797MPD2    C411797   4.039   0.965  17.383  0.1103 -0.2023 -0.7945
  797MPD2    C511798   4.175   0.954  17.372  0.0007  0.2030 -0.0518
  797MPD2     H11799   4.026   1.242  17.577 -0.8833 -0.7758  0.9761
  797MPD2    H111800   3.980   0.888  17.336  0.2400 -0.1975 -0.9634
  797MPD2    H211801   4.362   1.044  17.421  1.2999 -1.2326  1.5486
  797MPD2    H311802   4.214   0.870  17.317 -0.1271  0.9273 -1.2682
  797MPD2     N11803   3.847   1.096  17.469  0.8302  0.2348  0.2550
  797MPD2    H511804   3.828   1.173  17.531 -2.3324  0.4353 -0.9772
  797MPD2    N111805   4.282   1.270  17.547 -0.0080 -0.1350  1.3110
  797MPD2    H711806   4.222   1.347  17.573  2.4749  1.0696  3.4876
  798MPD2     C11807   3.676   1.645   0.126  0.1655 -0.6716  0.8282
  798MPD2    C111808   3.727   1.549   0.039 -0.9218  0.3286  0.0990
  798MPD2    C211809   3.867   1.542   0.011 -0.6343  0.7009 -0.4878
  798MPD2    C311810   3.957   1.622   0.089 -0.2194  0.2654  0.4486
  798MPD2    C411811   3.904   1.706   0.185 -0.3883  0.5915  0.2157
  798MPD2    C511812   3.768   1.721   0.202  0.1221  0.5088 -0.6920
  798MPD2     H11813   3.901   1.476  17.675 -0.5231 -1.3839  1.2959
  798MPD2    H111814   3.975   1.762   0.246  0.5488  0.2733 -0.5799
  798MPD2    H211815   3.569   1.658   0.138  0.0248 -1.5488  0.5514
  798MPD2    H311816   3.731   1.793   0.274 -1.3386 -0.7733 -0.1548
  798MPD2     N11817   4.101   1.610   0.076 -0.1262 -0.2327 -0.2285
  798MPD2    H511818   4.157   1.683   0.117  2.5928 -3.3861  1.6675
  798MPD2    N111819   3.632   1.467  17.716 -0.6982 -0.0472 -0.4395
  798MPD2    H711820   3.531   1.481  17.721 -0.2010  1.8774  3.5248
  799MPD2     C11821   3.162   3.126  14.462 -0.8550  0.2345  0.1835
  799MPD2    C111822   3.155   3.036  14.363  0.0661  0.1658  0.4402
  799MPD2    C211823   3.119   3.081  14.240 -0.3310  0.3019  0.1465
  799MPD2    C311824   3.093   3.213  14.208 -0.0464 -0.2947 -0.2343
  799MPD2    C411825   3.095   3.296  14.312  0.8739 -0.1914  0.4282
  799MPD2    C511826   3.133   3.255  14.437 -0.8206 -0.0610 -1.0098
  799MPD2     H11827   3.137   3.007  14.162  0.7781 -0.0026  0.6796
  799MPD2    H111828   3.073   3.402  14.307  2.8553  0.1642 -0.8822
  799MPD2    H211829   3.178   3.109  14.567 -2.7441  0.3650  0.4928
  799MPD2    H311830   3.122   3.321  14.522  0.6486 -0.7577 -0.2855
  799MPD2     N11831   3.076   3.267  14.082  0.2241  0.5503 -0.0422
  799MPD2    H511832   3.071   3.368  14.078 -3.2551  0.4087  0.8909
  799MPD2    N111833   3.182   2.892  14.384 -0.3189 -0.4249  0.1622
  799MPD2    H711834   3.177   2.828  14.306  1.6269 -5.0367  3.7986
  800MPD2     C11835   3.286   4.108  13.660  0.2771 -0.1228 -0.2316
  800MPD2    C111836   3.344   4.215  13.599 -1.1428 -0.3926  0.0505
  800MPD2    C211837   3.360   4.211  13.466  0.1851  0.0160  0.8312
  800MPD2    C311838   3.351   4.088  13.401 -0.0126 -0.1467  0.0520
  800MPD2    C411839   3.296   3.971  13.463  0.8722 -0.7138  0.2848
  800MPD2    C511840   3.277   3.987  13.599 -0.4797  0.2205 -0.6728
  800MPD2     H11841   3.392   4.296  13.407 -1.1850 -0.1944 -0.2095
  800MPD2    H111842   3.293   3.873  13.417  3.8250 -0.5151 -0.3531
  800MPD2    H211843   3.252   4.112  13.763 -2.4353 -1.3588 -1.0892
  800MPD2    H311844   3.233   3.906  13.656 -0.2445  0.2400 -0.4632
  800MPD2     N11845   3.401   4.080  13.265 -0.0581 -0.6595  0.2913
  800MPD2    H511846   3.434   4.165  13.220  2.1684 -0.6330  1.9479
  800MPD2    N111847   3.368   4.328  13.674 -0.4447  0.2181  0.1063
  800MPD2    H711848   3.333   4.338  13.769  0.0963  0.4285  0.2792
  801MPD2     C11849   3.729   0.390  13.818 -0.6026  0.2595 -0.0048
  801MPD2    C111850   3.650   0.324  13.909 -0.2883 -0.3481  0.3849
  801MPD2    C211851   3.640   0.367  14.039  0.0516  0.0450  0.3338
  801MPD2    C311852   3.721   0.475  14.078 -0.5049  1.0059  0.7144
  801MPD2    C411853   3.815   0.530  13.995 -0.5794 -0.6116 -1.0230
  801MPD2    C511854   3.810   0.498  13.858 -0.7285 -0.1282  0.0906
  801MPD2     H11855   3.574   0.311  14.105  1.0787 -0.9698  0.4934
  801MPD2    H111856   3.880   0.608  14.033 -2.0480  0.7890 -1.3451
  801MPD2    H211857   3.736   0.366  13.713 -2.9665  0.4748 -0.2048
  801MPD2    H311858   3.867   0.558  13.787 -0.1355 -0.7207  0.0658
  801MPD2     N11859   3.704   0.514  14.212  0.8669 -0.2459  0.2720
  801MPD2    H511860   3.626   0.467  14.259  1.8532 -2.0719  0.0852
  801MPD2    N111861   3.578   0.206  13.891  0.1435 -0.1103  0.1572
  801MPD2    H711862   3.542   0.157  13.972 -0.4725  0.0058 -0.0484
  802MPD2     C11863   3.030   0.506   0.645 -0.0265 -0.5345 -1.1496
  802MPD2    C111864   2.918   0.439   0.609 -0.1339  0.5099  0.4430
  802MPD2    C211865   2.927   0.343   0.512  0.2045 -0.0477 -0.3168
  802MPD2    C311866   3.045   0.326   0.443  0.3449  0.1171 -0.1106
  802MPD2    C411867   3.157   0.394   0.484  1.3043  0.7133 -0.1797
  802MPD2    C511868   3.142   0.489   0.580  0.7009 -0.3017  0.0311
  802MPD2     H11869   2.839   0.295   0.471  0.5332  0.1943 -1.3181
  802MPD2    H111870   3.256   0.375   0.446  1.5817 -1.5577  1.6684
  802MPD2    H211871   3.028   0.582   0.723  0.1169 -3.1244  1.3798
  802MPD2    H311872   3.229   0.550   0.601  0.2542  1.0730 -2.0507
  802MPD2     N11873   3.041   0.239   0.326  0.6708  0.0257  0.1393
  802MPD2    H511874   2.956   0.189   0.303  0.3142  0.3919  0.6497
  802MPD2    N111875   2.785   0.470   0.654  0.4347 -0.0274  0.5701
  802MPD2    H711876   2.713   0.438   0.590  0.9523  0.3646 -0.2076
  803MPD2     C11877   4.493   3.773  11.843 -0.1343 -0.2462 -0.0387
  803MPD2    C111878   4.514   3.821  11.974 -0.0050  0.3021 -0.5716
  803MPD2    C211879   4.472   3.737  12.075  0.3711  0.2069 -0.1128
  803MPD2    C311880   4.384   3.630  12.055  0.1036  0.0178 -0.8688
  803MPD2    C411881   4.363   3.591  11.926  0.2569 -0.0266 -0.3161
  803MPD2    C511882   4.412   3.661  11.820 -0.0271  0.3911 -0.2325
  803MPD2     H11883   4.479   3.766  12.179  2.3450  1.2920 -0.5495
  803MPD2    H111884   4.322   3.492  11.911  0.8071 -0.1583 -0.9187
  803MPD2    H211885   4.530   3.824  11.755 -0.5605 -2.9148 -1.7632
  803MPD2    H311886   4.370   3.632  11.724  1.3037 -1.2765 -0.3201
  803MPD2     N11887   4.327   3.555  12.165 -0.2783  0.1322 -0.0674
  803MPD2    H511888   4.250   3.491  12.145 -0.7749  0.1773  1.6607
  803MPD2    N111889   4.596   3.932  12.014  0.3914  0.0226 -0.3408
  803MPD2    H711890   4.616   3.940  12.113  2.7411 -1.3914 -0.6788
  804MPD2     C11891   3.990   0.215  16.881 -0.2308 -0.3922  0.5603
  804MPD2    C111892   3.940   0.178  16.998  0.4530  0.1032 -0.0494
  804MPD2    C211893   3.991   0.239  17.113 -0.8383 -0.2454  0.3014
  804MPD2    C311894   4.094   0.329  17.099  0.2779 -0.7611 -0.8534
  804MPD2    C411895   4.147   0.356  16.977  0.0566  0.0493  0.1390
  804MPD2    C511896   4.099   0.294  16.866 -0.3685 -0.4431  0.1177
  804MPD2     H11897   3.963   0.202  17.211 -1.0965 -0.9878 -0.0516
  804MPD2    H111898   4.229   0.424  16.953  0.3625 -0.5366 -0.4759
  804MPD2    H211899   3.952   0.171  16.789 -1.0378  1.1611  0.1560
  804MPD2    H311900   4.142   0.322  16.771  1.2053  0.5970  1.1235
  804MPD2     N11901   4.149   0.382  17.219 -0.1048 -0.9288  0.3691
  804MPD2    H511902   4.100   0.360  17.305 -2.2454  0.1093 -0.5865
  804MPD2    N111903   3.832   0.089  17.012 -0.6649 -0.1824  0.7429
  804MPD2    H711904   3.808   0.076  17.110 -0.3321 -2.5696  0.4878
  805MPD2     C11905   2.615   2.676  15.506  0.0876  0.0954  0.8224
  805MPD2    C111906   2.711   2.750  15.440  0.5046  0.3756 -0.6148
  805MPD2    C211907   2.834   2.776  15.504  0.0176 -0.4110 -0.1129
  805MPD2    C311908   2.862   2.727  15.630  0.3800  1.5659 -0.8130
  805MPD2    C411909   2.762   2.662  15.698  0.1097 -0.5581  0.2039
  805MPD2    C511910   2.644   2.641  15.639 -0.9558 -0.1882 -0.3265
  805MPD2     H11911   2.911   2.827  15.447  1.6967 -1.4325  1.2476
  805MPD2    H111912   2.764   2.628  15.801 -1.0402  1.1106  0.7870
  805MPD2    H211913   2.518   2.653  15.463  1.3477 -1.4225 -1.1845
  805MPD2    H311914   2.554   2.611  15.691 -0.3972 -0.1944  0.6252
  805MPD2     N11915   2.984   2.747  15.691  0.4755 -0.4304  0.8463
  805MPD2    H511916   3.048   2.806  15.639  0.9301 -1.2458  0.4732
  805MPD2    N111917   2.683   2.800  15.312  0.5090 -0.3685 -0.5455
  805MPD2    H711918   2.761   2.838  15.259  0.9469 -1.5057 -0.7194
  806MPD2     C11919   2.915   2.014   0.859 -0.2849 -0.0371 -0.6947
  806MPD2    C111920   3.032   2.075   0.818  0.3252 -0.3531  0.1054
  806MPD2    C211921   3.097   2.027   0.713  0.0507 -0.0721  0.2622
  806MPD2    C311922   3.051   1.921   0.632  0.1216  0.4398 -0.1003
  806MPD2    C411923   2.944   1.857   0.679 -0.0177 -0.1608  0.3262
  806MPD2    C511924   2.874   1.903   0.790  0.2102  0.1514 -0.8601
  806MPD2     H11925   3.184   2.076   0.670  0.4288 -0.2501  0.8361
  806MPD2    H111926   2.896   1.779   0.622 -2.4503  1.1114  0.6084
  806MPD2    H211927   2.852   2.053   0.938  0.5748 -0.8837  0.4072
  806MPD2    H311928   2.787   1.849   0.826  0.8112  0.3900  0.9558
  806MPD2     N11929   3.109   1.891   0.502 -0.5593  0.4714  0.7731
  806MPD2    H511930   3.188   1.941   0.464  0.7977 -1.4984  1.0300
  806MPD2    N111931   3.075   2.191   0.886 -0.0810  0.4297 -0.5219
  806MPD2    H711932   3.008   2.214   0.960 -0.2348 -3.5885  0.5873
  807MPD2     C11933   3.231   2.667   1.547 -0.4397 -0.1208 -0.1106
  807MPD2    C111934   3.230   2.565   1.459  0.1069 -0.0876  0.2511
  807MPD2    C211935   3.310   2.456   1.473  0.0073 -0.9160 -0.0205
  807MPD2    C311936   3.378   2.444   1.591 -0.0775 -0.4020 -0.8289
  807MPD2    C411937   3.371   2.542   1.684  0.7367 -0.2305 -0.0039
  807MPD2    C511938   3.297   2.651   1.666  0.2500 -0.2009 -0.0992
  807MPD2     H11939   3.322   2.381   1.396 -2.1844 -0.1016 -1.1373
  807MPD2    H111940   3.432   2.537   1.774 -0.6155  3.8424  1.1830
  807MPD2    H211941   3.174   2.756   1.524 -1.5736 -0.6737  0.5664
  807MPD2    H311942   3.312   2.725   1.744 -2.9965  0.3345  0.0097
  807MPD2     N11943   3.470   2.339   1.626  0.3856  0.5099 -0.7917
  807MPD2    H511944   3.545   2.354   1.692 -0.5180 -1.2033  0.6040
  807MPD2    N111945   3.158   2.589   1.339  0.4758 -0.1726 -0.0808
  807MPD2    H711946   3.113   2.678   1.322  0.4918  0.4172  2.9252
  808MPD2     C11947   4.273   4.533  10.086  0.7876  0.2656  0.1420
  808MPD2    C111948   4.185   4.621  10.149  0.4240 -0.3528 -1.0624
  808MPD2    C211949   4.220   0.015  10.162 -0.4380  0.4994 -0.3066
  808MPD2    C311950   4.338   0.067  10.098 -0.0644  0.1447 -0.3218
  808MPD2    C411951   4.426   4.709  10.038 -0.7764 -0.2418  0.1356
  808MPD2    C511952   4.398   4.579  10.042 -0.5180 -0.0250 -0.9167
  808MPD2     H11953   4.157   0.084  10.215  0.5074  0.1416  1.3017
  808MPD2    H111954   4.523   0.009  10.008  0.4360 -4.3154 -0.7554
  808MPD2    H211955   4.264   4.425  10.085  0.9975  0.2409  0.7453
  808MPD2    H311956   4.475   4.512  10.006  0.4627  0.5019  0.1992
  808MPD2     N11957   4.384   0.201  10.109  0.0621 -0.8953 -0.4231
  808MPD2    H511958   4.471   0.223  10.061 -0.0704 -1.1737 -0.7909
  808MPD2    N111959   4.069   4.576  10.210 -0.1201  0.4769 -0.0153
  808MPD2    H711960   4.024   4.646  10.269 -0.6756 -1.1834  1.5158
  809MPD2     C11961   4.627   0.828   9.575  0.0698  0.0583 -0.6970
  809MPD2    C111962   4.732   0.752   9.623 -0.9198 -0.1075 -0.4585
  809MPD2    C211963   4.706   0.672   9.738 -0.4605  0.6905 -0.2722
  809MPD2    C311964   4.588   0.687   9.809  0.2869  0.5457 -0.0337
  809MPD2    C411965   4.495   0.771   9.764  0.0126  0.0316  0.1972
  809MPD2    C511966   4.509   0.839   9.648 -0.2029  0.0891  0.0543
  809MPD2     H11967   0.054   0.616   9.777 -1.1220 -1.8648 -2.5229
  809MPD2    H111968   4.396   0.772   9.809 -0.0541 -0.6558  0.0632
  809MPD2    H211969   4.630   0.875   9.477 -2.2254  1.0218 -0.3014
  809MPD2    H311970   4.421   0.892   9.615 -0.5021 -0.0411  0.6418
  809MPD2     N11971   4.562   0.624   9.932 -0.1427 -0.0238 -0.0931
  809MPD2    H511972   4.466   0.600   9.952 -0.7413  2.7779  0.3766
  809MPD2    N111973   0.118   0.730   9.564  0.2202  0.0912  0.5061
  809MPD2    H711974   0.182   0.669   9.613  0.6901  0.7225  0.6867
  810MPD2     C11975   3.574   4.024  11.146  0.4487 -0.1179  0.4497
  810MPD2    C111976   3.581   4.109  11.041  0.4854  0.0252  0.5354
  810MPD2    C211977   3.575   4.243  11.067 -0.0846  0.1957  0.1720
  810MPD2    C311978   3.553   4.291  11.195 -0.6013  0.2977  0.2721
  810MPD2    C411979   3.538   4.203  11.299  0.0604 -0.3425 -0.6706
  810MPD2    C511980   3.558   4.061  11.277 -0.3271 -0.4487 -0.1875
  810MPD2     H11981   3.579   4.309  10.981 -1.0116  1.3512  1.0025
  810MPD2    H111982   3.539   4.241  11.401 -0.7563 -1.0918 -0.3872
  810MPD2    H211983   3.571   3.919  11.120 -1.8032  0.6538 -2.4685
  810MPD2    H311984   3.572   3.991  11.359 -0.0797 -0.7420 -0.4817
  810MPD2     N11985   3.538   4.431  11.220 -0.3256 -0.3123 -1.0697
  810MPD2    H511986   3.538   4.469  11.314  1.5484  1.0751 -1.6299
  810MPD2    N111987   3.579   4.049  10.914  0.4571 -0.1076  0.1030
  810MPD2    H711988   3.577   3.948  10.900 -1.6449  0.1166 -1.2366
  811MPD2     C11989   3.163   4.169  10.096  0.4473 -0.2394  0.1362
  811MPD2    C111990   3.231   4.228  10.200 -0.0458  0.2861  0.9574
  811MPD2    C211991   3.255   4.365  10.198 -0.2272 -0.3570 -0.7494
  811MPD2    C311992   3.200   4.442  10.099 -0.1045 -0.4882 -0.3410
  811MPD2    C411993   3.117   4.382  10.002  0.1030 -0.1264 -0.3182
  811MPD2    C511994   3.107   4.249  10.003  0.1291  0.0946  0.5902
  811MPD2     H11995   3.301   4.415  10.283  0.8092 -0.5546 -1.1850
  811MPD2    H111996   3.073   4.425   9.913  1.5184 -0.3824 -1.1394
  811MPD2    H211997   3.141   4.063  10.089  1.3291 -0.4937  1.3768
  811MPD2    H311998   3.047   4.211   9.921 -0.7452  1.4816  0.5928
  811MPD2     N11999   3.226   4.581  10.103 -0.1570  0.7950 -0.1587
  811MPD2    H512000   3.311   4.605  10.153 -0.6920 -0.1286  1.2084
  811MPD2    N112001   3.285   4.148  10.301  0.5357  0.1629  0.5496
  811MPD2    H712002   3.253   4.051  10.303 -1.9385  0.9120 -2.9369
  812MPD2     C12003   1.593   3.394  12.191 -0.6785  1.0251  0.3962
  812MPD2    C112004   1.692   3.492  12.167 -0.3885 -0.2907 -0.1043
  812MPD2    C212005   1.804   3.477  12.242  0.0569 -0.2636 -0.5449
  812MPD2    C312006   1.821   3.385  12.338  0.5986  0.1379  0.0737
  812MPD2    C412007   1.718   3.300  12.360 -0.2601  0.0887 -0.3930
  812MPD2    C512008   1.617   3.287  12.273  0.3641 -0.5153  0.6127
  812MPD2     H12009   1.874   3.557  12.223 -0.7105 -0.0937 -2.7332
  812MPD2    H112010   1.728   3.229  12.442 -0.2157  0.4951 -0.0466
  812MPD2    H212011   1.506   3.399  12.127 -0.2176  0.3315 -0.2958
  812MPD2    H312012   1.520   3.241  12.287  0.8726 -1.5628  0.7118
  812MPD2     N12013   1.947   3.383  12.411  0.0400  0.2869 -0.3220
  812MPD2    H512014   2.019   3.448  12.383  0.6469 -0.5090 -0.5964
  812MPD2    N112015   1.665   3.595  12.083  0.2268  0.0996  0.1873
  812MPD2    H712016   1.571   3.598  12.047 -0.0468 -1.7472  0.7398
  813MPD2     C12017   1.498   0.420  13.122 -0.6325  0.3478  0.3061
  813MPD2    C112018   1.444   0.533  13.182  0.4438 -0.8735 -0.1074
  813MPD2    C212019   1.314   0.565  13.164 -0.3974 -0.4198 -0.1429
  813MPD2    C312020   1.233   0.471  13.104 -0.7169 -0.4537  0.1949
  813MPD2    C412021   1.289   0.362  13.035 -0.0267 -0.1817 -1.0346
  813MPD2    C512022   1.419   0.339  13.045  0.3411 -0.3426  0.6932
  813MPD2     H12023   1.272   0.658  13.201 -1.6793 -1.6688  1.5432
  813MPD2    H112024   1.226   0.294  12.979  0.0941 -0.6925 -0.5608
  813MPD2    H212025   1.603   0.398  13.138 -0.8757 -1.4608 -0.5199
  813MPD2    H312026   1.450   0.247  12.997  0.4790  0.3476 -0.5484
  813MPD2     N12027   1.090   0.489  13.111  0.1352  0.8698 -0.0643
  813MPD2    H512028   1.059   0.554  13.182  2.7701  1.8190  0.2141
  813MPD2    N112029   1.533   0.590  13.276  0.3636  0.6515 -0.0307
  813MPD2    H712030   1.619   0.537  13.287  0.3069 -0.2407 -3.7546
  814MPD2     C12031   1.773   2.014  12.413 -0.7208 -0.4528 -0.3469
  814MPD2    C112032   1.838   2.120  12.345  0.3066  0.7947  0.1810
  814MPD2    C212033   1.957   2.180  12.391  0.0452 -1.2885 -0.3707
  814MPD2    C312034   2.017   2.126  12.508  0.2320  0.5568 -0.6769
  814MPD2    C412035   1.949   2.025  12.576 -0.0804  0.4070  0.3120
  814MPD2    C512036   1.831   1.971  12.529  0.2127  0.1132  0.1249
  814MPD2     H12037   2.000   2.264  12.338  0.0359 -1.3182 -0.4259
  814MPD2    H112038   1.972   1.991  12.676 -0.6810  0.5119  0.4891
  814MPD2    H212039   1.683   1.961  12.385 -0.4940 -0.4970 -0.9733
  814MPD2    H312040   1.786   1.899  12.596 -0.7707 -0.5262 -1.2334
  814MPD2     N12041   2.138   2.169  12.571  0.3727  0.5589 -0.0259
  814MPD2    H512042   2.160   2.126  12.661 -1.8776  2.1587  1.3004
  814MPD2    N112043   1.780   2.173  12.227  0.1336 -0.0725 -0.2646
  814MPD2    H712044   1.842   2.213  12.157  1.6232 -1.0289  0.5309
  815MPD2     C12045   2.454   0.497  11.997 -0.2106 -0.7695  0.3467
  815MPD2    C112046   2.375   0.492  11.889 -0.2144  0.0153 -0.1902
  815MPD2    C212047   2.252   0.423  11.901  0.6050  0.2891 -0.9751
  815MPD2    C312048   2.218   0.368  12.025 -0.7087  0.1099 -0.1952
  815MPD2    C412049   2.300   0.381  12.135 -0.1996  0.0367  0.0411
  815MPD2    C512050   2.422   0.446  12.122  0.0287 -0.0394  0.2771
  815MPD2     H12051   2.182   0.410  11.820 -1.8553  0.6800  1.0782
  815MPD2    H112052   2.271   0.340  12.231 -1.9579 -1.2135 -1.0078
  815MPD2    H212053   2.548   0.547  11.977 -1.3759  0.6804 -1.4498
  815MPD2    H312054   2.478   0.462  12.214 -1.3096  0.2107  1.0522
  815MPD2     N12055   2.094   0.290  12.025  0.3140  0.5286  0.6971
  815MPD2    H512056   2.054   0.286  11.932  2.2650 -0.9640 -0.0809
  815MPD2    N112057   2.418   0.550  11.770 -0.3164 -0.4366 -0.0654
  815MPD2    H712058   2.503   0.604  11.783 -1.8662  1.4572  2.2202
  816MPD2     C12059   2.562   4.273  17.484  0.1382 -0.7425 -0.3545
  816MPD2    C112060   2.478   4.248  17.372  0.0786 -0.2968 -0.6433
  816MPD2    C212061   2.525   4.211  17.250 -0.0638 -0.0584 -0.5477
  816MPD2    C312062   2.660   4.200  17.229  0.0388 -0.5710 -0.1588
  816MPD2    C412063   2.748   4.235  17.332  0.0293 -0.2633  0.2911
  816MPD2    C512064   2.698   4.255  17.462 -0.0226 -0.4949 -0.2603
  816MPD2     H12065   2.458   4.189  17.169 -1.7204  3.4114 -0.1012
  816MPD2    H112066   2.853   4.252  17.316 -0.1168  1.9688  1.6710
  816MPD2    H212067   2.529   4.305  17.583  2.0853  1.3575 -0.3770
  816MPD2    H312068   2.777   4.287  17.529  0.4936 -0.6901 -0.7695
  816MPD2     N12069   2.695   4.159  17.100 -0.2217  0.3814  0.3926
  816MPD2    H512070   2.619   4.159  17.033  0.1291 -0.1171 -0.0076
  816MPD2    N112071   2.334   4.275  17.394  0.6060  0.6797 -0.0365
  816MPD2    H712072   2.315   4.298  17.491 -0.5238  1.6841 -0.4968
  817MPD2     C12073   2.307   2.013   9.547  0.3464 -0.7332 -0.9994
  817MPD2    C112074   2.214   1.913   9.522 -0.5637 -0.0671 -0.4182
  817MPD2    C212075   2.086   1.953   9.491  0.4739  0.0426 -0.0509
  817MPD2    C312076   2.047   2.084   9.495  0.5009 -0.6544  0.0547
  817MPD2    C412077   2.148   2.185   9.518  0.6268 -0.2742  1.2248
  817MPD2    C512078   2.274   2.147   9.545  1.0094  0.2706  0.0817
  817MPD2     H12079   2.012   1.880   9.462  0.7389  0.0335 -0.6969
  817MPD2    H112080   2.125   2.291   9.520  0.6360 -0.2468 -0.2740
  817MPD2    H212081   2.410   1.989   9.570  0.4905  0.7480 -0.1121
  817MPD2    H312082   2.345   2.226   9.567  0.7839  1.4473 -3.3414
  817MPD2     N12083   1.921   2.109   9.452 -0.2218  0.4109 -0.2215
  817MPD2    H512084   1.872   2.036   9.401  1.3805  0.0823 -1.2956
  817MPD2    N112085   2.245   1.776   9.496 -0.2637 -0.2151  0.3105
  817MPD2    H712086   2.169   1.727   9.449  0.0468 -0.1048 -0.3125
  818MPD2     C12087   0.955   1.502   9.749 -0.9487 -0.1157 -0.4489
  818MPD2    C112088   0.899   1.403   9.821  0.0136 -1.1324 -0.5009
  818MPD2    C212089   0.949   1.275   9.818 -0.4322  0.5945  0.4885
  818MPD2    C312090   1.053   1.246   9.739 -0.0895 -0.3199  0.0817
  818MPD2    C412091   1.102   1.341   9.654  0.2631 -0.2632 -0.0780
  818MPD2    C512092   1.036   1.460   9.650 -0.4390  0.4010 -0.2189
  818MPD2     H12093   0.903   1.207   9.889 -0.8837  0.1258 -0.2591
  818MPD2    H112094   1.181   1.320   9.583 -0.2156  0.4131 -0.8038
  818MPD2    H212095   0.915   1.602   9.754 -0.2508  0.1898 -1.0319
  818MPD2    H312096   1.066   1.539   9.582 -1.3358  0.0700 -1.0011
  818MPD2     N12097   1.106   1.121   9.726 -0.6598  0.3122  0.3697
  818MPD2    H512098   1.182   1.120   9.659 -0.8366  1.9839  0.1511
  818MPD2    N112099   0.801   1.424   9.911 -0.3768  0.2662 -0.6941
  818MPD2    H712100   0.778   1.345   9.969  0.8291  1.8312  1.9485
  819MPD2     C12101   3.529   2.738  15.786  0.0638  0.6466 -0.5512
  819MPD2    C112102   3.488   2.608  15.791 -0.8481  0.7029 -0.2653
  819MPD2    C212103   3.556   2.526  15.881  0.0757  0.0326  0.4708
  819MPD2    C312104   3.667   2.571  15.951  0.1870  0.0131 -0.0674
  819MPD2    C412105   3.698   2.698  15.947  0.3062  0.5042  0.3433
  819MPD2    C512106   3.629   2.791  15.866 -0.5211  0.4591  0.3629
  819MPD2     H12107   3.536   2.419  15.885 -1.0529  0.2219 -0.0413
  819MPD2    H112108   3.781   2.739  16.003 -0.6156  2.3088  0.4044
  819MPD2    H212109   3.467   2.811  15.735 -1.8072 -0.0100  0.7727
  819MPD2    H312110   3.661   2.894  15.861 -2.5157  1.1329  1.3902
  819MPD2     N12111   3.733   2.473  16.032  0.0965  0.2983  0.0308
  819MPD2    H512112   3.688   2.383  16.037  0.8692 -0.0151  1.2521
  819MPD2    N112113   3.376   2.572  15.716 -0.5785  0.5102  0.2939
  819MPD2    H712114   3.348   2.641  15.647  1.2567  0.0594 -0.9037
  820MPD2     C12115   3.074   2.536  14.801 -0.3147  0.1609 -0.5741
  820MPD2    C112116   3.015   2.600  14.913 -0.0891  0.4600 -0.1411
  820MPD2    C212117   3.058   2.567  15.037  0.3352  0.1657  0.1599
  820MPD2    C312118   3.151   2.467  15.053 -0.2250  1.1311  0.5346
  820MPD2    C412119   3.222   2.415  14.948  0.3045  0.1772 -0.0990
  820MPD2    C512120   3.181   2.452  14.817 -0.2271 -0.7666  0.1693
  820MPD2     H12121   3.001   2.591  15.125  0.2479  1.0564 -0.1463
  820MPD2    H112122   3.300   2.341  14.964  1.5207  0.9673 -2.4462
  820MPD2    H212123   3.037   2.550  14.700 -2.3137  0.5639  0.2011
  820MPD2    H312124   3.216   2.395  14.732 -0.1928 -2.2555  1.1547
  820MPD2     N12125   3.183   2.427  15.179 -0.0682  0.0808 -0.3201
  820MPD2    H512126   3.223   2.335  15.194 -0.8772 -0.1405  0.4505
  820MPD2    N112127   2.906   2.687  14.905 -0.6759 -0.1769  0.7509
  820MPD2    H712128   2.867   2.704  14.813 -1.0623  3.0171  1.5000
  821MPD2     C12129   3.551   4.632  13.033 -0.1736 -0.3075  0.3681
  821MPD2    C112130   3.670   4.559  13.022 -0.8885 -0.2543  0.4231
  821MPD2    C212131   3.788   4.628  13.048 -0.1707  0.2275 -0.0606
  821MPD2    C312132   3.795   0.019  13.099 -0.7617 -0.0367  0.3360
  821MPD2    C412133   3.677   0.086  13.123  0.5388 -0.3496  0.5602
  821MPD2    C512134   3.560   0.024  13.085 -0.5090  0.5681 -0.1252
  821MPD2     H12135   3.878   4.571  13.029 -0.6816  0.0527 -1.9490
  821MPD2    H112136   3.680   0.185  13.167 -2.5483  0.5327 -1.2136
  821MPD2    H212137   3.451   4.591  13.026  0.4369 -1.5746 -1.0133
  821MPD2    H312138   3.467   0.074  13.108  0.3592  2.1496 -0.0470
  821MPD2     N12139   3.914   0.072  13.145 -0.4583 -0.0915  0.0118
  821MPD2    H512140   3.915   0.167  13.182  0.5270  0.2504 -0.9077
  821MPD2    N112141   3.674   4.421  12.997  0.3015 -0.3329 -0.6838
  821MPD2    H712142   3.771   4.388  12.997  0.2625 -0.4513 -0.9411
  822MPD2     C12143   4.193   3.889  15.749 -0.3800  0.0303 -0.9626
  822MPD2    C112144   4.178   3.866  15.885  0.0866  0.5179  0.3025
  822MPD2    C212145   4.131   3.975  15.956 -0.2718 -0.6991 -0.4929
  822MPD2    C312146   4.085   4.091  15.897 -0.3230 -0.2899  0.3027
  822MPD2    C412147   4.093   4.105  15.760  0.0504  0.2720  0.6369
  822MPD2    C512148   4.143   4.001  15.682  0.2290  1.0706 -0.5484
  822MPD2     H12149   4.127   3.964  16.063 -3.4440  1.4879 -0.3971
  822MPD2    H112150   4.064   4.195  15.706  0.8367  1.1071  1.6120
  822MPD2    H212151   4.237   3.807  15.693  1.7736  1.1284 -0.8727
  822MPD2    H312152   4.148   3.997  15.574  1.7852  0.1935 -0.4494
  822MPD2     N12153   4.032   4.195  15.987 -0.1785  0.3337  0.2175
  822MPD2    H512154   4.027   4.165  16.084 -0.5023 -0.4406 -0.0394
  822MPD2    N112155   4.226   3.759  15.958  0.2780  0.6165 -0.0186
  822MPD2    H712156   4.216   3.779  16.057 -2.5295 -0.5746 -0.0412
  823MPD2     C12157   3.835   4.421  16.762  0.1713 -0.0529  0.5075
  823MPD2    C112158   3.831   4.340  16.657  0.5919  0.0021  0.8841
  823MPD2    C212159   3.807   4.204  16.672 -0.0731 -0.1838 -0.1056
  823MPD2    C312160   3.768   4.153  16.794  1.0100 -0.0107 -0.8288
  823MPD2    C412161   3.767   4.240  16.905  0.5690 -0.7143 -0.8882
  823MPD2    C512162   3.808   4.370  16.888 -0.7199  0.4202  0.3439
  823MPD2     H12163   3.793   4.136  16.588 -2.0467  0.5093 -0.3225
  823MPD2    H112164   3.758   4.210  17.008 -1.4735  1.5224 -0.4242
  823MPD2    H212165   3.851   4.527  16.749 -1.3816  0.4485  2.7434
  823MPD2    H312166   3.819   4.430  16.978 -2.6258  1.6057 -0.2077
  823MPD2     N12167   3.739   4.017  16.818 -0.0909 -0.4914 -0.3669
  823MPD2    H512168   3.690   3.993  16.904  0.2570  0.6184  0.1457
  823MPD2    N112169   3.858   4.403  16.531 -0.0643  0.0915 -0.0945
  823MPD2    H712170   3.864   4.504  16.526  0.4623  0.1460  1.5225
  824MPD2     C12171   4.534   2.946  15.886  1.0068  0.0138  0.3279
  824MPD2    C112172   4.594   3.071  15.886  0.3954  0.1678 -0.3908
  824MPD2    C212173   4.719   3.094  15.820  0.7269 -0.8219  0.2922
  824MPD2    C312174   0.049   2.978  15.777  0.6367 -0.1570 -0.1790
  824MPD2    C412175   4.721   2.853  15.772  0.5032 -0.0784 -0.2546
  824MPD2    C512176   4.593   2.841  15.820  0.1087 -0.0146  0.1497
  824MPD2     H12177   0.040   3.183  15.844  1.7009 -1.1232 -0.9028
  824MPD2    H112178   0.038   2.767  15.734  1.3807  0.1993  0.3573
  824MPD2    H212179   4.437   2.932  15.932  0.7487 -3.0624 -1.1642
  824MPD2    H312180   4.552   2.740  15.821  0.6599 -0.2174  1.4988
  824MPD2     N12181   0.187   2.988  15.745  0.2695 -0.4115  0.5985
  824MPD2    H512182   0.224   3.082  15.734 -1.3013  0.0048 -1.2443
  824MPD2    N112183   4.532   3.187  15.952 -0.5547 -0.1264  0.3456
  824MPD2    H712184   4.581   3.272  15.928  0.8240 -0.9109  0.3471
  825MPD2     C12185   0.887   3.278  15.330  0.0745  0.3121 -0.1982
  825MPD2    C112186   0.749   3.279  15.342  0.3757  0.2975  0.0745
  825MPD2    C212187   0.672   3.386  15.292  0.1047 -0.2971  0.2677
  825MPD2    C312188   0.731   3.495  15.225  0.4321  0.8320  0.4598
  825MPD2    C412189   0.868   3.495  15.225 -0.3855  1.1303 -0.1820
  825MPD2    C512190   0.944   3.394  15.274  0.0728  0.8443  0.6301
  825MPD2     H12191   0.564   3.374  15.292  0.1505 -0.6940 -0.3296
  825MPD2    H112192   0.922   3.572  15.171 -0.2788  0.3711 -1.1662
  825MPD2    H212193   0.951   3.205  15.378 -0.2801 -0.8373 -1.4906
  825MPD2    H312194   1.052   3.399  15.276  0.1460 -1.2621  3.5240
  825MPD2     N12195   0.660   3.609  15.182  0.3553 -0.2760  0.2661
  825MPD2    H512196   0.704   3.699  15.162  0.3900 -0.2068  0.6612
  825MPD2    N112197   0.692   3.170  15.417 -0.1386  0.6693 -0.0021
  825MPD2    H712198   0.757   3.111  15.468  1.8479  2.1771 -0.8034
  826MPD2     C12199   0.190   3.425  13.970  0.1701  0.1948 -0.1114
  826MPD2    C112200   0.189   3.467  13.842  0.3899 -0.4094 -0.5070
  826MPD2    C212201   0.081   3.545  13.795 -0.3080  0.2462 -0.0793
  826MPD2    C312202   4.724   3.596  13.885  0.6335  0.6996 -0.0390
  826MPD2    C412203   4.731   3.552  14.014  0.1906 -0.4584  0.0601
  826MPD2    C512204   0.088   3.467  14.052 -0.0445  0.7934 -0.0571
  826MPD2     H12205   0.089   3.578  13.692 -1.2159 -1.6737 -0.7509
  826MPD2    H112206   4.645   3.564  14.078 -0.4930 -0.2563 -0.9042
  826MPD2    H212207   0.266   3.368  14.022 -3.1590 -4.1376 -0.0551
  826MPD2    H312208   0.089   3.433  14.155 -1.1614  0.6230 -0.1095
  826MPD2     N12209   4.615   3.681  13.850  0.3691  0.3816  0.8323
  826MPD2    H512210   4.544   3.705  13.919  0.9461  1.5757  0.9974
  826MPD2    N112211   0.297   3.422  13.767  0.1282 -0.1202 -0.0667
  826MPD2    H712212   0.364   3.360  13.811  0.1954 -0.4767 -0.6654
  827MPD2     C12213   1.537   0.337   9.714 -0.9633  0.1324  0.2975
  827MPD2    C112214   1.550   0.216   9.784 -0.6866 -0.2386  0.3206
  827MPD2    C212215   1.527   0.097   9.720  0.0664 -0.0657 -0.0217
  827MPD2    C312216   1.507   0.094   9.581  0.2583  0.3608  0.2975
  827MPD2    C412217   1.492   0.213   9.512 -0.3583 -0.5642 -0.7854
  827MPD2    C512218   1.506   0.333   9.582 -0.2817 -0.3887  0.2067
  827MPD2     H12219   1.536   0.003   9.773  0.6541  0.1780  0.3121
  827MPD2    H112220   1.472   0.215   9.406 -0.0557 -1.1899 -0.8524
  827MPD2    H212221   1.552   0.433   9.763 -3.6194  0.8274 -0.2537
  827MPD2    H312222   1.499   0.429   9.533  0.6257  0.0832  0.9937
  827MPD2     N12223   1.495   4.702   9.519 -0.2815  0.3981 -0.7563
  827MPD2    H512224   1.474   4.623   9.579  0.7823 -0.9633 -2.1515
  827MPD2    N112225   1.586   0.229   9.920 -1.4394  0.3622  0.0219
  827MPD2    H712226   1.587   0.326   9.950  0.5161  0.3782 -0.1189
  828MPD2     C12227   3.971   4.596  12.762 -0.0485  0.0911  0.7074
  828MPD2    C112228   3.990   4.730  12.760  0.1439 -0.9742 -0.1159
  828MPD2    C212229   4.107   0.054  12.802 -0.1319  0.0382 -0.4826
  828MPD2    C312230   4.210   4.707  12.853  0.1393  0.0146 -0.2198
  828MPD2    C412231   4.191   4.570  12.845  1.1914 -0.1950 -0.3428
  828MPD2    C512232   4.074   4.513  12.798 -0.0093 -0.1699  0.3129
  828MPD2     H12233   4.118   0.162  12.795  1.0055  0.0740  2.0558
  828MPD2    H112234   4.272   4.500  12.866  1.7388  0.1440 -1.3117
  828MPD2    H212235   3.874   4.550  12.746 -0.1545  0.3403  0.6322
  828MPD2    H312236   4.059   4.406  12.805  2.3946 -0.4275  1.6231
  828MPD2     N12237   4.333   0.023  12.895 -0.4336 -0.4664 -0.6688
  828MPD2    H512238   4.397   4.685  12.921  2.2208  2.0402 -0.0216
  828MPD2    N112239   3.888   0.083  12.729  0.0446  0.2325  0.3092
  828MPD2    H712240   3.914   0.181  12.718  0.4181  0.1489  0.4467
  829MPD2     C12241   4.105   0.811  12.421 -0.5101 -0.7576 -0.1170
  829MPD2    C112242   3.983   0.794  12.355  0.2913 -0.6514  0.1003
  829MPD2    C212243   3.896   0.695  12.392  0.7376  0.2244 -0.1730
  829MPD2    C312244   3.926   0.613  12.497  0.4579  0.6326  0.1024
  829MPD2    C412245   4.059   0.621  12.553  0.6736  0.0534 -0.5930
  829MPD2    C512246   4.144   0.724  12.522 -0.8057  1.3061 -0.2165
  829MPD2     H12247   3.807   0.672  12.335 -0.0300  2.5571  0.0836
  829MPD2    H112248   4.088   0.553  12.632  1.1520  0.0302 -0.7931
  829MPD2    H212249   4.165   0.894  12.387 -0.4916 -0.4355  0.6817
  829MPD2    H312250   4.227   0.741  12.589 -1.3377 -0.6402  0.9446
  829MPD2     N12251   3.843   0.510  12.547 -0.0762  0.2541 -0.1231
  829MPD2    H512252   3.893   0.447  12.609 -0.5901 -0.0683 -0.0350
  829MPD2    N112253   3.966   0.872  12.237  0.2285  0.2180 -0.2010
  829MPD2    H712254   4.049   0.923  12.207  1.7705 -2.2155 -0.1147
  830MPD2     C12255   4.002   1.898  15.779  0.4786  0.7201  0.3077
  830MPD2    C112256   3.974   2.032  15.785 -0.0822 -1.0281 -0.1896
  830MPD2    C212257   3.969   2.116  15.677 -0.7385 -0.5928 -0.1724
  830MPD2    C312258   3.981   2.059  15.551 -0.3870 -0.9212 -0.3412
  830MPD2    C412259   3.997   1.923  15.545  0.5441 -0.1514  0.0121
  830MPD2    C512260   4.013   1.840  15.654  0.9770  0.0795 -0.2149
  830MPD2     H12261   3.956   2.222  15.697 -0.1407  0.0101 -3.0626
  830MPD2    H112262   4.011   1.878  15.447  2.9284  1.4703 -0.4215
  830MPD2    H212263   3.997   1.827  15.861  0.5314  1.0322  0.5776
  830MPD2    H312264   4.037   1.734  15.648  1.4047  0.2591 -1.4721
  830MPD2     N12265   3.966   2.130  15.427  0.1298 -0.5693 -0.5962
  830MPD2    H512266   3.975   2.082  15.338 -0.7740 -1.8583 -0.0011
  830MPD2    N112267   3.951   2.090  15.910  0.1273  0.5435 -0.4094
  830MPD2    H712268   3.919   2.186  15.904 -0.3052  0.4241 -0.0598
  831MPD2     C12269   4.326   4.246  16.321 -0.1591  0.5785 -0.4797
  831MPD2    C112270   4.340   4.119  16.271 -0.0410  0.0980  0.3049
  831MPD2    C212271   4.245   4.019  16.290 -0.9182  0.0600 -0.1804
  831MPD2    C312272   4.135   4.050  16.362 -0.4991 -0.6189 -0.5085
  831MPD2    C412273   4.137   4.171  16.431 -0.2462  0.2053 -0.0959
  831MPD2    C512274   4.229   4.270  16.414  0.3911  0.4706 -0.3148
  831MPD2     H12275   4.251   3.918  16.250  0.2128  0.2685 -0.5250
  831MPD2    H112276   4.055   4.195  16.497  0.1888 -1.2200  0.9665
  831MPD2    H212277   4.405   4.314  16.292 -0.2603  0.3733 -1.2465
  831MPD2    H312278   4.231   4.358  16.477  0.4475 -0.1807  0.5955
  831MPD2     N12279   4.020   3.977  16.359 -0.0012  0.0329  0.5639
  831MPD2    H512280   3.945   4.012  16.418  1.0638  0.7223  1.5085
  831MPD2    N112281   4.440   4.100  16.180  0.4640  0.2677  0.0460
  831MPD2    H712282   4.493   4.181  16.150  0.1478  0.1382 -0.8635
  832MPD2     C12283   2.835   0.331  17.423  0.1789 -1.2002  0.2436
  832MPD2    C112284   2.828   0.440  17.348  0.1136 -0.2155  0.2154
  832MPD2    C212285   2.733   0.442  17.247 -0.4714 -0.4764  0.0657
  832MPD2    C312286   2.640   0.342  17.227  0.3946 -0.5149  0.6099
  832MPD2    C412287   2.650   0.232  17.306 -0.4824  1.1646  0.7356
  832MPD2    C512288   2.746   0.226  17.402  0.1843 -0.2543  0.1113
  832MPD2     H12289   2.715   0.532  17.188  1.1036 -1.2372 -1.5808
  832MPD2    H112290   2.587   0.146  17.286 -1.3031  1.6176  1.3670
  832MPD2    H212291   2.910   0.317  17.500  0.9441  0.0188 -0.2808
  832MPD2    H312292   2.756   0.147  17.476  0.9594  1.3706  1.7551
  832MPD2     N12293   2.534   0.345  17.141  0.1625 -0.3038 -0.5351
  832MPD2    H512294   2.479   0.260  17.139  0.2125 -0.4117  2.6105
  832MPD2    N112295   2.919   0.545  17.367 -0.6441  0.5773  0.3624
  832MPD2    H712296   2.974   0.544  17.451 -1.7653 -1.2988  1.0626
  833MPD2     C12297   4.702   2.191  12.394 -0.3935 -0.0864 -0.1120
  833MPD2    C112298   0.034   2.308  12.423 -0.2801 -0.5070 -0.1834
  833MPD2    C212299   0.140   2.330  12.345  0.6314 -0.0825  0.4202
  833MPD2    C312300   0.185   2.247  12.245  0.3584 -0.3324 -0.7328
  833MPD2    C412301   0.103   2.138  12.207  0.2823  0.1749 -0.6343
  833MPD2    C512302   4.732   2.108  12.289  0.2341  0.2671 -0.2660
  833MPD2     H12303   0.201   2.417  12.366  1.0437  0.4889 -3.0422
  833MPD2    H112304   0.122   2.067  12.127 -0.2883 -0.7806  0.0665
  833MPD2    H212305   4.613   2.168  12.451  0.4837 -0.0503  1.2644
  833MPD2    H312306   4.665   2.027  12.264  0.6149  0.0968 -0.7252
  833MPD2     N12307   0.297   2.291  12.170 -1.1224  0.5450  0.5328
  833MPD2    H512308   0.336   2.379  12.204  1.1432  0.5193 -2.0009
  833MPD2    N112309   4.736   2.409  12.516  0.0651  0.0323 -0.3844
  833MPD2    H712310   0.059   2.491  12.514  0.3369 -0.1691 -0.5117
  834MPD2     C12311   0.452   2.317  11.204  0.0046 -0.4863 -0.3267
  834MPD2    C112312   0.411   2.210  11.282 -0.2966  0.1052  0.6822
  834MPD2    C212313   0.410   2.228  11.416 -0.1306 -0.1014 -0.2295
  834MPD2    C312314   0.444   2.350  11.481 -0.2116  0.4271 -0.8068
  834MPD2    C412315   0.490   2.455  11.404  0.0949 -0.2783  0.4180
  834MPD2    C512316   0.487   2.431  11.268 -0.2486  0.5017  0.2252
  834MPD2     H12317   0.385   2.144  11.480 -0.9029  0.0619 -0.3157
  834MPD2    H112318   0.526   2.552  11.437 -0.2410 -0.5856  1.6873
  834MPD2    H212319   0.444   2.333  11.097  1.8496 -0.5027 -0.4677
  834MPD2    H312320   0.502   2.509  11.194  1.2283 -1.1727 -1.2245
  834MPD2     N12321   0.445   2.349  11.623 -0.2077  0.1818 -0.2907
  834MPD2    H512322   0.416   2.260  11.662 -1.7025  0.2033 -1.3782
  834MPD2    N112323   0.368   2.092  11.214 -0.3674 -0.2092  0.4933
  834MPD2    H712324   0.386   2.079  11.115 -0.5687  0.2113  0.4043
  835MPD2     C12325   4.710   0.068  11.466  0.1976 -0.9806  0.4521
  835MPD2    C112326   4.679   0.200  11.438  0.7355  0.7682  0.0790
  835MPD2    C212327   4.721   0.296  11.522 -0.6981 -0.0427 -0.8975
  835MPD2    C312328   0.062   0.268  11.636  0.1746  0.4806 -0.7019
  835MPD2    C412329   0.077   0.137  11.668  0.6117  0.4339 -1.2392
  835MPD2    C512330   0.036   0.036  11.584 -0.0566  0.0543  0.1759
  835MPD2     H12331   4.691   0.397  11.496 -0.0981  0.2525 -0.4402
  835MPD2    H112332   0.141   0.109  11.750 -2.1067 -0.2332  0.6742
  835MPD2    H212333   4.689   4.725  11.395  2.7182 -1.6248  0.4135
  835MPD2    H312334   0.047   4.670  11.618 -0.9080  0.0298  0.3823
  835MPD2     N12335   0.118   0.368  11.712  0.5629 -0.1264 -0.6819
  835MPD2    H512336   0.173   0.334  11.790 -0.3918  0.0996  0.0992
  835MPD2    N112337   4.614   0.245  11.325 -0.5600  0.3339 -0.4267
  835MPD2    H712338   4.621   0.343  11.299  0.9260  0.3156 -0.0928
  836MPD2     C12339   0.355   1.037  12.271  1.2797  0.1853 -0.2591
  836MPD2    C112340   0.247   0.976  12.209 -0.1246 -0.3670 -0.0335
  836MPD2    C212341   0.122   0.987  12.268 -0.0341 -0.5606  0.1142
  836MPD2    C312342   0.108   1.061  12.388  0.4118  0.1251  1.0080
  836MPD2    C412343   0.216   1.125  12.443 -0.3473  0.5079  0.3135
  836MPD2    C512344   0.335   1.114  12.377  0.0538 -0.8342  0.1483
  836MPD2     H12345   0.034   0.943  12.224  1.1212 -0.3541 -2.3763
  836MPD2    H112346   0.209   1.201  12.520  0.3943 -0.4571  1.3358
  836MPD2    H212347   0.451   1.031  12.221  1.2936  1.6433 -0.3889
  836MPD2    H312348   0.421   1.156  12.429  0.1789  0.3813 -1.0182
  836MPD2     N12349   4.726   1.064  12.457 -0.5824  0.2057 -0.6475
  836MPD2    H512350   4.733   1.083  12.556  1.5857 -1.2882 -0.5213
  836MPD2    N112351   0.274   0.887  12.099  0.1424 -0.0001  0.4856
  836MPD2    H712352   0.370   0.867  12.073 -0.3292  1.0466 -2.1330
  837MPD2     C12353   3.730   0.408   9.940 -0.8527  0.1694  0.1289
  837MPD2    C112354   3.630   0.450  10.019  0.0477 -0.1110 -0.4960
  837MPD2    C212355   3.627   0.583  10.057 -0.4899 -0.3202  0.2323
  837MPD2    C312356   3.705   0.681  10.006 -0.3243  0.6805  0.0485
  837MPD2    C412357   3.806   0.642   9.916  0.5167 -0.4350  0.0571
  837MPD2    C512358   3.815   0.507   9.889 -0.0206 -0.3604  0.1385
  837MPD2     H12359   3.541   0.614  10.115 -1.6835  0.2798 -1.8567
  837MPD2    H112360   3.877   0.714   9.877  0.7252 -0.3375  0.6168
  837MPD2    H212361   3.739   0.303   9.912  0.3304  0.6779 -1.4102
  837MPD2    H312362   3.894   0.480   9.820 -0.1427 -0.6242  0.1053
  837MPD2     N12363   3.679   0.809  10.047  0.1265  0.0085 -0.2366
  837MPD2    H512364   3.601   0.806  10.112 -0.9141 -0.4764 -1.5006
  837MPD2    N112365   3.532   0.366  10.065  0.3988  0.3116 -0.2621
  837MPD2    H712366   3.459   0.399  10.127  1.5898 -0.9661  1.8494
  838MPD2     C12367   2.166   2.737  12.314  0.4759  1.2246 -0.0747
  838MPD2    C112368   2.061   2.659  12.264  0.5648 -0.4095 -0.5711
  838MPD2    C212369   2.005   2.569  12.350 -0.5868 -0.2394  0.7299
  838MPD2    C312370   2.042   2.555  12.482  0.4899  0.1689  0.2058
  838MPD2    C412371   2.139   2.635  12.529  0.3526  0.1190  0.0117
  838MPD2    C512372   2.204   2.722  12.444  0.4005  0.6135 -0.0735
  838MPD2     H12373   1.913   2.514  12.335 -0.3887 -0.3896  0.0667
  838MPD2    H112374   2.167   2.641  12.634 -1.3248 -0.1162  0.4664
  838MPD2    H212375   2.222   2.814  12.261 -0.7614  0.2991 -2.6815
  838MPD2    H312376   2.289   2.779  12.482  0.8884 -1.0542  1.3212
  838MPD2     N12377   1.960   2.468  12.560  0.6296 -0.1968 -0.2639
  838MPD2    H512378   1.890   2.413  12.511  0.1965 -0.0575  0.1987
  838MPD2    N112379   2.011   2.678  12.135 -0.0137 -0.3245 -0.2012
  838MPD2    H712380   1.933   2.618  12.110  0.4588 -0.3420 -1.6281
  839MPD2     C12381   1.278   2.353  11.853 -0.4246  0.5553 -0.3375
  839MPD2    C112382   1.355   2.354  11.734  0.1086 -0.2887 -0.3291
  839MPD2    C212383   1.473   2.428  11.730 -0.3397 -0.3351 -0.0062
  839MPD2    C312384   1.521   2.488  11.849 -0.2240  0.4258 -0.4120
  839MPD2    C412385   1.446   2.477  11.968  0.1842  0.7296  0.1028
  839MPD2    C512386   1.323   2.420  11.964  0.3637  0.6006 -0.4654
  839MPD2     H12387   1.527   2.435  11.636 -0.9777 -0.6152 -0.3969
  839MPD2    H112388   1.485   2.520  12.060  0.4950  1.9242 -0.5862
  839MPD2    H212389   1.184   2.301  11.862 -1.0328  1.3148 -2.2690
  839MPD2    H312390   1.261   2.415  12.053  0.3391 -1.0418 -0.5676
  839MPD2     N12391   1.632   2.582  11.855 -0.5612  0.0469 -0.1972
  839MPD2    H512392   1.661   2.620  11.944 -0.4710  0.6443 -0.4775
  839MPD2    N112393   1.324   2.283  11.619  0.1612 -0.0843 -0.5481
  839MPD2    H712394   1.397   2.270  11.550  0.9295  0.5519  0.1465
  840MPD2     C12395   2.025   0.617  10.105  0.4472 -0.5590  0.3562
  840MPD2    C112396   1.956   0.589  10.221  0.2265  0.1237 -0.1307
  840MPD2    C212397   2.001   0.646  10.335 -0.5511 -0.3094  0.0607
  840MPD2    C312398   2.097   0.747  10.341  0.1573  0.0091 -0.3115
  840MPD2    C412399   2.152   0.786  10.223  0.1104 -0.0687  0.5517
  840MPD2    C512400   2.122   0.711  10.110 -0.1245 -0.2941  0.7375
  840MPD2     H12401   1.957   0.612  10.428  0.1375  0.9882  0.8508
  840MPD2    H112402   2.232   0.859  10.224 -0.7158  0.8231  1.4835
  840MPD2    H212403   2.006   0.561  10.015 -1.5688 -0.1600  0.5345
  840MPD2    H312404   2.173   0.722  10.015 -0.3931 -1.7491  0.4158
  840MPD2     N12405   2.144   0.809  10.456  0.4365 -0.6113 -0.2087
  840MPD2    H512406   2.210   0.886  10.447 -0.0803  0.1843  2.7382
  840MPD2    N112407   1.875   0.474  10.208 -0.1225  0.1791 -0.6280
  840MPD2    H712408   1.876   0.422  10.121 -2.8952 -1.8334  0.5598
  841MPD2     C12409   1.959   4.041  14.262 -0.2779  0.4664 -0.1085
  841MPD2    C112410   1.946   4.006  14.396 -0.0662 -0.1468 -0.0895
  841MPD2    C212411   1.938   4.114  14.484 -0.4582 -0.1867 -1.0071
  841MPD2    C312412   1.952   4.246  14.452 -0.3603  0.2478  0.1333
  841MPD2    C412413   1.958   4.275  14.318 -0.0429 -0.7857  0.3341
  841MPD2    C512414   1.968   4.177  14.223  0.2508  0.2767  0.1263
  841MPD2     H12415   1.924   4.099  14.590 -1.4066  0.2291 -1.0684
  841MPD2    H112416   1.957   4.375  14.277 -1.8933 -0.8972  0.0900
  841MPD2    H212417   1.953   3.964  14.186  0.6467  0.0243  0.2697
  841MPD2    H312418   1.978   4.205  14.119  0.1925 -1.7273 -0.4193
  841MPD2     N12419   1.975   4.338  14.561  0.9365  0.1217 -0.4087
  841MPD2    H512420   1.992   4.299  14.653 -0.8514 -0.9656 -0.5238
  841MPD2    N112421   1.949   3.875  14.447  0.5241  0.2166 -0.7425
  841MPD2    H712422   1.938   3.870  14.547 -0.3907  1.6287 -0.7680
  842MPD2     C12423   2.187   0.539  17.209 -0.2332 -0.1979 -0.3252
  842MPD2    C112424   2.058   0.490  17.198  1.1700 -0.3135 -0.2087
  842MPD2    C212425   2.022   0.394  17.286  0.0574 -0.9119  0.1760
  842MPD2    C312426   2.103   0.345  17.388 -0.1083 -0.1523 -0.0689
  842MPD2    C412427   2.222   0.406  17.412 -0.3677  0.6989 -0.9015
  842MPD2    C512428   2.262   0.496  17.315  0.3380 -0.4802 -0.0839
  842MPD2     H12429   1.919   0.360  17.280 -0.7943  1.2224  2.2656
  842MPD2    H112430   2.292   0.380  17.491 -0.7394 -0.6137 -1.0080
  842MPD2    H212431   2.232   0.601  17.133  1.1901 -1.2203 -0.3188
  842MPD2    H312432   2.360   0.540  17.329 -0.6918  0.8505  3.0362
  842MPD2     N12433   2.053   0.256  17.488 -0.4974 -0.4671 -0.2718
  842MPD2    H512434   2.113   0.239  17.569  0.7602  0.5747 -0.9771
  842MPD2    N112435   1.967   0.537  17.095 -0.1896  0.5364 -0.0133
  842MPD2    H712436   2.010   0.601  17.030 -1.9110 -0.5242 -2.2095
  843MPD2     C12437   0.167   2.278   0.770  0.5539 -0.2431 -0.6265
  843MPD2    C112438   0.052   2.250   0.695  0.4786  0.6469  0.0396
  843MPD2    C212439   4.676   2.335   0.703  0.0622  0.5588 -0.5578
  843MPD2    C312440   4.670   2.447   0.786  0.9299 -0.9825 -0.7639
  843MPD2    C412441   0.038   2.461   0.875 -0.0095 -0.0106 -0.1841
  843MPD2    C512442   0.156   2.379   0.859 -0.5302 -0.1894  0.0284
  843MPD2     H12443   4.593   2.305   0.640  0.3489 -0.7648 -0.3230
  843MPD2    H112444   0.054   2.543   0.944 -1.2525  0.6244 -0.6532
  843MPD2    H212445   0.260   2.230   0.743  0.3697 -1.4731  0.9202
  843MPD2    H312446   0.241   2.417   0.914 -0.9339  2.4196 -1.1612
  843MPD2     N12447   4.560   2.540   0.800 -0.7812 -0.1984  0.0011
  843MPD2    H512448   4.563   2.604   0.878 -2.2840 -1.2751  0.9522
  843MPD2    N112449   0.032   2.136   0.612  0.5368  0.5204  0.4001
  843MPD2    H712450   4.676   2.132   0.569 -0.3955  0.6110  2.3905
  844MPD2     C12451   2.212   4.658  16.524 -0.1526 -0.5211 -0.0484
  844MPD2    C112452   2.304   4.714  16.434 -0.3903 -0.7076 -0.1378
  844MPD2    C212453   2.397   0.070  16.477  0.5320  0.2814 -0.0511
  844MPD2    C312454   2.416   0.088  16.611  0.1115 -0.2792 -0.1555
  844MPD2    C412455   2.334   0.019  16.700 -0.0211  0.3520  1.0552
  844MPD2    C512456   2.231   4.677  16.657 -0.1265 -0.1641 -0.2334
  844MPD2     H12457   2.472   0.113  16.410 -0.3149 -1.2748 -2.0128
  844MPD2    H112458   2.348   0.022  16.808  0.4389  1.7329  0.9569
  844MPD2    H212459   2.129   4.594  16.496  0.0410 -1.2065  0.9572
  844MPD2    H312460   2.164   4.642  16.735 -0.6055 -0.7101 -0.8880
  844MPD2     N12461   2.522   0.174  16.654  0.1202 -0.2969  0.4831
  844MPD2    H512462   2.552   0.240  16.584  1.8883 -1.4979  0.1076
  844MPD2    N112463   2.304   4.688  16.295  0.0809 -0.0234  0.1645
  844MPD2    H712464   2.378   0.001  16.246 -1.1101 -1.4945 -3.1619
  845MPD2     C12465   2.727   1.117  16.868 -0.7238  0.3109 -0.0202
  845MPD2    C112466   2.757   1.042  16.987  0.0388  0.4092  0.3037
  845MPD2    C212467   2.770   0.904  16.977 -0.0839 -0.2452 -0.2923
  845MPD2    C312468   2.754   0.838  16.857 -0.2078  0.2911  1.3994
  845MPD2    C412469   2.723   0.912  16.747  0.2552 -0.7392 -0.4821
  845MPD2    C512470   2.715   1.052  16.749 -0.3034  0.1999 -0.0442
  845MPD2     H12471   2.793   0.846  17.066 -0.5515 -1.2033 -0.8037
  845MPD2    H112472   2.718   0.867  16.648 -0.9477  0.6557 -1.0556
  845MPD2    H212473   2.722   1.226  16.867 -0.8575  0.3082  0.4093
  845MPD2    H312474   2.697   1.102  16.654 -0.1738 -1.3974 -0.9094
  845MPD2     N12475   2.784   0.700  16.846  0.1759 -0.7436 -0.0360
  845MPD2    H512476   2.805   0.659  16.936 -0.0734 -2.7454 -0.8869
  845MPD2    N112477   2.791   1.113  17.099 -0.1290 -0.3891 -0.1294
  845MPD2    H712478   2.771   1.212  17.087  0.2363 -0.4800 -1.4236
  846MPD2     C12479   3.982   2.421  14.011 -0.0158  0.2097  0.0522
  846MPD2    C112480   3.964   2.292  13.972 -0.2659 -0.0722 -0.8512
  846MPD2    C212481   3.902   2.200  14.054  0.6122 -0.4291 -0.7024
  846MPD2    C312482   3.876   2.243  14.185 -0.6103  0.4488  0.1751
  846MPD2    C412483   3.902   2.375  14.218  0.5541  0.4161  1.0551
  846MPD2    C512484   3.948   2.468  14.134 -0.5579  0.1180  0.0812
  846MPD2     H12485   3.887   2.097  14.024  3.2310 -0.7382 -0.9582
  846MPD2    H112486   3.883   2.415  14.317 -0.5437 -0.4249  1.1895
  846MPD2    H212487   4.031   2.495  13.949  1.4262 -1.2483 -0.5480
  846MPD2    H312488   3.973   2.570  14.162  0.1413 -0.6022  2.0794
  846MPD2     N12489   3.807   2.152  14.278  0.2973 -0.5308  0.0151
  846MPD2    H512490   3.800   2.054  14.255  1.0749 -0.7765  0.8206
  846MPD2    N112491   4.008   2.243  13.849  0.2058  0.0961 -0.1516
  846MPD2    H712492   3.976   2.150  13.824  1.5242 -0.7795  1.4304
  847MPD2     C12493   0.017   2.545  14.301  0.0172  0.4585  0.1169
  847MPD2    C112494   0.043   2.635  14.400 -0.1465 -0.2028  0.8226
  847MPD2    C212495   0.107   2.592  14.516 -0.0713 -0.5949  0.5335
  847MPD2    C312496   0.150   2.460  14.523  0.0813  0.2464  0.1757
  847MPD2    C412497   0.127   2.366  14.418  0.6437  0.2141  1.0110
  847MPD2    C512498   0.057   2.413  14.315 -0.2989  0.7596 -0.0424
  847MPD2     H12499   0.129   2.655  14.602 -1.5572  1.1389 -0.3515
  847MPD2    H112500   0.152   2.261  14.421  0.4107  0.1719  1.4047
  847MPD2    H212501   4.703   2.581  14.213  1.2436  0.9057 -0.3924
  847MPD2    H312502   0.054   2.348  14.228 -1.2259 -0.1707  0.6826
  847MPD2     N12503   0.215   2.426  14.643  0.0774 -0.3089  0.4534
  847MPD2    H512504   0.216   2.506  14.705 -1.2249  1.3568 -1.6639
  847MPD2    N112505   4.731   2.769  14.395 -0.0693  0.1505 -0.2790
  847MPD2    H712506   0.027   2.827  14.472  2.2111  1.9748 -2.6323
  848MPD2     C12507   2.320   0.696  16.393 -1.0004 -0.3595 -0.8482
  848MPD2    C112508   2.310   0.739  16.522 -0.4571 -0.5800 -0.9113
  848MPD2    C212509   2.305   0.878  16.542 -0.0647 -0.1350 -0.9488
  848MPD2    C312510   2.299   0.973  16.431  0.1610  0.2251  0.3650
  848MPD2    C412511   2.303   0.917  16.303  0.1010 -0.0243  0.7763
  848MPD2    C512512   2.312   0.782  16.287 -0.5048  0.2869  0.1194
  848MPD2     H12513   2.322   0.914  16.643 -0.6532  0.8806 -1.2135
  848MPD2    H112514   2.317   0.973  16.211  1.2355  0.5871  1.3131
  848MPD2    H212515   2.323   0.591  16.364 -0.4017 -0.1611 -1.5083
  848MPD2    H312516   2.324   0.743  16.186  2.3322  1.7378 -0.1154
  848MPD2     N12517   2.293   1.108  16.445  0.6247  0.1580 -0.5151
  848MPD2    H512518   2.284   1.153  16.354 -0.1264 -0.9565 -0.9957
  848MPD2    N112519   2.316   0.654  16.632 -0.0889 -0.1388 -0.3241
  848MPD2    H712520   2.328   0.701  16.722 -0.8173 -0.5128 -0.0338
  849MPD2     C12521   1.463   0.180  14.893 -0.4980 -0.0745  0.1235
  849MPD2    C112522   1.434   0.299  14.825  0.3034 -0.4213  0.4745
  849MPD2    C212523   1.523   0.399  14.820 -0.0274  0.4608 -0.8242
  849MPD2    C312524   1.647   0.377  14.877 -0.1783 -0.2321  0.4867
  849MPD2    C412525   1.675   0.270  14.960  0.4907  0.1589 -0.0872
  849MPD2    C512526   1.580   0.171  14.971 -0.0809  1.2906 -0.2407
  849MPD2     H12527   1.492   0.487  14.764 -1.1312  0.8394  0.3997
  849MPD2    H112528   1.772   0.240  14.997 -0.7457 -1.4623  1.7793
  849MPD2    H212529   1.383   0.109  14.911 -0.6019 -0.0586 -0.2870
  849MPD2    H312530   1.605   0.080  15.024 -2.7654  1.6643  1.6469
  849MPD2     N12531   1.745   0.468  14.844 -0.1257  0.3068 -0.0096
  849MPD2    H512532   1.721   0.520  14.760 -0.6177 -1.3159 -0.8684
  849MPD2    N112533   1.322   0.305  14.739 -0.5208 -0.2661  0.0591
  849MPD2    H712534   1.304   0.393  14.692 -2.3252  1.1920  3.4455
  850MPD2     C12535   4.232   3.384  14.509 -0.5305  0.6178 -0.4222
  850MPD2    C112536   4.198   3.374  14.640  0.1207 -0.3393  0.3772
  850MPD2    C212537   4.291   3.402  14.738 -0.1209 -0.0599  0.5708
  850MPD2    C312538   4.423   3.408  14.702 -0.2272 -0.3070  0.1519
  850MPD2    C412539   4.457   3.401  14.570 -0.2802 -0.0760 -0.3990
  850MPD2    C512540   4.359   3.386  14.473 -0.7703 -0.2407  0.0353
  850MPD2     H12541   4.274   3.421  14.843  0.4497 -0.9584  0.8237
  850MPD2    H112542   4.561   3.392  14.540 -0.1038 -0.7851  0.4280
  850MPD2    H212543   4.161   3.390  14.428 -1.8535  3.5664  0.9487
  850MPD2    H312544   4.393   3.380  14.371  0.2178 -3.3799  0.5558
  850MPD2     N12545   4.530   3.415  14.794 -0.3310 -0.5633 -0.3114
  850MPD2    H512546   4.621   3.437  14.755  0.4650 -2.6934  0.3342
  850MPD2    N112547   4.062   3.347  14.673 -0.0135 -0.3681 -0.0962
  850MPD2    H712548   4.001   3.347  14.592  0.2108  2.9779 -0.2334
  851MPD2     C12549   4.416   2.753  14.944 -0.4743  0.0476  0.1057
  851MPD2    C112550   4.295   2.800  14.995  0.2203  0.3633 -0.0048
  851MPD2    C212551   4.192   2.713  15.022 -0.0781 -0.3014  0.8508
  851MPD2    C312552   4.218   2.579  15.003  0.3303  1.1202  0.5141
  851MPD2    C412553   4.342   2.530  14.966  1.0612 -0.1110 -0.2685
  851MPD2    C512554   4.435   2.619  14.925  0.1110 -0.1194 -0.8865
  851MPD2     H12555   4.092   2.749  15.044  0.4131  1.6047  0.0015
  851MPD2    H112556   4.349   2.424  14.942  2.2318 -0.0651 -0.1357
  851MPD2    H212557   4.494   2.823  14.919 -0.2661 -1.4902 -3.7191
  851MPD2    H312558   4.530   2.577  14.894  0.6840  0.0262  0.6557
  851MPD2     N12559   4.108   2.505  15.015 -0.2208 -0.1534  0.3787
  851MPD2    H512560   4.025   2.562  15.031  0.3735  0.8816 -0.2559
  851MPD2    N112561   4.276   2.942  15.009 -0.1953  0.3729 -0.0434
  851MPD2    H712562   4.329   2.995  14.942 -1.6418  0.3361 -1.2060
  852MPD2     C12563   0.107   1.206  10.134  0.3900  0.6244 -0.4283
  852MPD2    C112564   0.008   1.216  10.224 -0.2461 -0.1792  0.9083
  852MPD2    C212565   4.720   1.340  10.284 -0.4819  0.2055 -0.0067
  852MPD2    C312566   0.043   1.456  10.240  0.7522  0.8778  0.1257
  852MPD2    C412567   0.138   1.449  10.142  0.4307  0.1048  0.1180
  852MPD2    C512568   0.164   1.325  10.085  0.5724 -0.0383 -0.3356
  852MPD2     H12569   4.652   1.339  10.369  2.1313  1.4489  2.0755
  852MPD2    H112570   0.179   1.538  10.095 -0.7640  0.5046 -0.1619
  852MPD2    H212571   0.125   1.118  10.073 -1.8034  0.6157 -1.0502
  852MPD2    H312572   0.229   1.306  10.000  0.8047  0.7092 -0.3229
  852MPD2     N12573   0.000   1.571  10.304 -0.4496 -0.0718 -0.8885
  852MPD2    H512574   4.679   1.556  10.386  2.0462 -1.6342  0.5888
  852MPD2    N112575   4.665   1.104  10.263  0.5996  0.0245 -0.2895
  852MPD2    H712576   4.602   1.118  10.342  0.7376  3.6211 -0.7767
  853MPD2     C12577   0.652   1.829  12.277 -0.3834  0.2208 -0.0500
  853MPD2    C112578   0.717   1.713  12.309 -0.3994  0.1091  0.5578
  853MPD2    C212579   0.747   1.626  12.205 -0.2856  0.3963 -0.3829
  853MPD2    C312580   0.719   1.649  12.068  0.3534  0.0377  0.7585
  853MPD2    C412581   0.641   1.759  12.040 -0.7182 -0.3253 -0.4487
  853MPD2    C512582   0.610   1.846  12.147 -0.0567 -0.1391 -0.4079
  853MPD2     H12583   0.788   1.528  12.223 -2.0723  0.0986  2.0301
  853MPD2    H112584   0.590   1.774  11.945 -0.0244  0.8412 -0.6319
  853MPD2    H212585   0.637   1.909  12.348  0.1044 -1.2746  1.7425
  853MPD2    H312586   0.560   1.941  12.129 -0.6404  0.1164  2.5169
  853MPD2     N12587   0.753   1.556  11.964  0.1419  0.2489  0.2320
  853MPD2    H512588   0.704   1.573  11.877  0.5111 -1.4879 -0.3143
  853MPD2    N112589   0.756   1.689  12.447  0.1054 -0.6608  0.0594
  853MPD2    H712590   0.728   1.760  12.514  0.9865  1.2304 -1.5836
  854MPD2     C12591   3.023   1.693  13.513 -0.3780  0.3686 -0.5304
  854MPD2    C112592   3.005   1.665  13.382  0.0478 -0.2713  0.3696
  854MPD2    C212593   3.095   1.576  13.315 -0.5798 -0.5727  0.4457
  854MPD2    C312594   3.187   1.514  13.391 -0.5350  0.2454  0.7871
  854MPD2    C412595   3.212   1.549  13.521 -1.1323  0.9159  0.2808
  854MPD2    C512596   3.128   1.644  13.587 -0.6873 -0.7777  0.7777
  854MPD2     H12597   3.081   1.553  13.210  0.7763  0.8988 -0.0396
  854MPD2    H112598   3.297   1.512  13.578 -0.6429  1.4538 -0.1054
  854MPD2    H212599   2.963   1.760  13.573 -0.1109 -0.6516  0.8970
  854MPD2    H312600   3.160   1.681  13.684 -0.1080 -1.4665  0.8536
  854MPD2     N12601   3.279   1.413  13.340  0.3332 -0.5681  0.1234
  854MPD2    H512602   3.346   1.378  13.408  2.5453 -1.0190 -2.3105
  854MPD2    N112603   2.896   1.731  13.325 -0.4397 -0.5080 -0.3077
  854MPD2    H712604   2.845   1.800  13.378  1.1222 -1.2492  2.1718
  855MPD2     C12605   3.897   0.813  13.709  0.4634  0.3001  0.5503
  855MPD2    C112606   3.771   0.861  13.725  0.4235  0.3229 -0.0928
  855MPD2    C212607   3.701   0.903  13.622 -0.2893  0.0668  0.0965
  855MPD2    C312608   3.763   0.907  13.497 -0.6433  0.0556  0.0677
  855MPD2    C412609   3.893   0.861  13.479  0.6733 -0.4115 -0.1364
  855MPD2    C512610   3.962   0.815  13.587 -0.2951  0.2919 -0.0575
  855MPD2     H12611   3.595   0.928  13.629 -0.6621 -0.8494 -2.0935
  855MPD2    H112612   3.948   0.875  13.387 -0.0118 -0.8288 -0.6132
  855MPD2    H212613   3.950   0.760  13.788 -0.0879  1.3792  1.6568
  855MPD2    H312614   4.065   0.782  13.587 -0.7774 -1.2290  1.6728
  855MPD2     N12615   3.705   0.980  13.392  0.2525 -0.1220 -0.5291
  855MPD2    H512616   3.754   0.961  13.305  0.3229 -2.5967  0.0451
  855MPD2    N112617   3.702   0.865  13.850  0.1951 -0.3045  0.1133
  855MPD2    H712618   3.601   0.876  13.845  0.1102 -0.6718  1.1230
  856MPD2     C12619   0.375   2.106  13.790  0.1815  0.0098 -0.4284
  856MPD2    C112620   0.454   2.222  13.807  0.1138 -0.0711  0.4025
  856MPD2    C212621   0.412   2.336  13.745 -0.0990  0.4888 -0.0523
  856MPD2    C312622   0.304   2.340  13.661 -0.0669 -0.6652 -0.0381
  856MPD2    C412623   0.228   2.223  13.638  0.5427  0.3889  0.2983
  856MPD2    C512624   0.262   2.111  13.708 -0.4682  0.0811  1.6082
  856MPD2     H12625   0.471   2.425  13.765 -0.7619  1.1565 -1.0846
  856MPD2    H112626   0.141   2.226  13.574 -0.7581 -0.7012  2.0145
  856MPD2    H212627   0.406   2.011  13.832 -1.5262 -0.0650  0.6220
  856MPD2    H312628   0.206   2.019  13.699 -0.5931  0.3243 -0.1437
  856MPD2     N12629   0.256   2.457  13.603  0.0283 -0.2876 -0.0054
  856MPD2    H512630   0.170   2.452  13.549  0.3916 -0.3585 -0.5644
  856MPD2    N112631   0.554   2.240  13.909  0.3549  0.3194  0.1586
  856MPD2    H712632   0.582   2.337  13.925  1.4669  0.0983 -0.3895
  857MPD2     C12633   1.809   4.696  12.770 -0.2421 -0.4913  0.2441
  857MPD2    C112634   1.943   4.677  12.791  0.3663 -0.4617 -0.0319
  857MPD2    C212635   1.995   4.727  12.908  0.3426 -0.0669  0.1297
  857MPD2    C312636   1.927   0.076  12.986  0.0687  0.4170  0.5725
  857MPD2    C412637   1.793   0.099  12.954  0.0272 -0.2279 -0.2595
  857MPD2    C512638   1.732   0.039  12.855 -0.3183 -0.0009 -0.0641
  857MPD2     H12639   2.098   4.714  12.941  0.5605  0.2497 -0.4125
  857MPD2    H112640   1.724   0.155  13.015  1.0330 -0.1899  0.8370
  857MPD2    H212641   1.766   4.639  12.689  2.3231 -3.0946  0.7196
  857MPD2    H312642   1.625   0.035  12.840 -0.4156 -0.7732  0.7482
  857MPD2     N12643   1.986   0.117  13.113 -0.4614  0.2755  0.1979
  857MPD2    H512644   2.085   0.101  13.130 -0.1501  0.9590 -0.9707
  857MPD2    N112645   2.016   4.613  12.691  0.9356 -0.2822  0.6533
  857MPD2    H712646   1.973   4.576  12.607  1.4320 -0.9983  0.7205
  858MPD2     C12647   2.327   2.880  16.748  0.0825  0.8111 -0.3463
  858MPD2    C112648   2.415   2.930  16.662  0.2711 -0.6811  0.1015
  858MPD2    C212649   2.433   3.065  16.650  0.4355  0.2987 -0.1673
  858MPD2    C312650   2.361   3.148  16.723 -0.1950 -0.1060 -0.4679
  858MPD2    C412651   2.262   3.100  16.806  0.4458 -0.2991 -0.4917
  858MPD2    C512652   2.243   2.964  16.819  0.8117  0.4829 -0.4620
  858MPD2     H12653   2.497   3.118  16.581 -1.0503  3.0514  0.5516
  858MPD2    H112654   2.189   3.161  16.857  2.6180 -1.0291  3.4240
  858MPD2    H212655   2.325   2.773  16.766 -3.6741  0.8466 -0.6591
  858MPD2    H312656   2.179   2.927  16.899 -0.6141  0.3412 -1.6621
  858MPD2     N12657   2.367   3.286  16.702  0.3710  0.2326  0.0981
  858MPD2    H512658   2.296   3.337  16.754  0.1296  1.4738 -1.4531
  858MPD2    N112659   2.502   2.838  16.593  0.0432 -0.5998  0.7788
  858MPD2    H712660   2.485   2.739  16.603  0.9169 -0.6356  1.9346
  859MPD2     C12661   1.555   0.211  16.084  0.1275  0.1746  0.3508
  859MPD2    C112662   1.601   0.189  15.953 -0.5034  0.4276  0.7857
  859MPD2    C212663   1.632   0.057  15.917 -0.0201  0.4826  0.1615
  859MPD2    C312664   1.617   4.684  16.003  0.0325  0.1084  0.0367
  859MPD2    C412665   1.569   4.712  16.130 -0.4247 -0.4663  0.2709
  859MPD2    C512666   1.543   0.108  16.167  0.4874 -0.1362  0.3004
  859MPD2     H12667   1.655   0.043  15.812 -1.3898  2.3971 -0.4013
  859MPD2    H112668   1.538   4.641  16.206  0.4182 -1.7140 -0.5602
  859MPD2    H212669   1.539   0.313  16.117  0.6703  0.9170 -1.7115
  859MPD2    H312670   1.515   0.117  16.271  0.4753  3.7563 -0.0741
  859MPD2     N12671   1.636   4.548  15.964 -0.8054  0.6097 -0.6981
  859MPD2    H512672   1.605   4.470  16.020 -1.0647  1.3322  0.1684
  859MPD2    N112673   1.626   0.303  15.876 -0.5328 -0.6424  1.2199
  859MPD2    H712674   1.624   0.388  15.931 -1.2638 -0.6767  1.2534
  860MPD2     C12675   3.714   1.319  11.614 -0.7741  0.3995  0.3813
  860MPD2    C112676   3.738   1.388  11.729  0.2447  0.1901  0.4907
  860MPD2    C212677   3.629   1.393  11.813  0.0773 -0.0629 -0.3664
  860MPD2    C312678   3.511   1.326  11.790  0.3313 -0.0081  0.1811
  860MPD2    C412679   3.491   1.267  11.673 -0.1244 -0.1209 -0.3613
  860MPD2    C512680   3.593   1.257  11.588  0.0469  0.2964  0.0934
  860MPD2     H12681   3.645   1.448  11.905 -0.5436  0.9284 -0.8635
  860MPD2    H112682   3.405   1.205  11.650 -0.8282  0.9720 -0.6622
  860MPD2    H212683   3.794   1.298  11.544 -1.1847  0.0163  0.0265
  860MPD2    H312684   3.579   1.193  11.502  1.0936 -0.5868  0.5748
  860MPD2     N12685   3.404   1.337  11.887  0.6469  0.3411  0.0461
  860MPD2    H512686   3.440   1.355  11.980 -0.4038  0.5703  0.4058
  860MPD2    N112687   3.860   1.454  11.757  0.0799  0.0705 -0.2114
  860MPD2    H712688   3.863   1.517  11.836  1.4402 -0.4187  0.1427
  861MPD2     C12689   3.174   4.313  11.320 -0.0082  0.3914 -0.6843
  861MPD2    C112690   3.160   4.449  11.341 -0.0308 -0.0578  0.2319
  861MPD2    C212691   3.125   4.525  11.229  0.7634 -0.2978 -0.9896
  861MPD2    C312692   3.102   4.474  11.106 -0.1724 -0.4847  0.7257
  861MPD2    C412693   3.117   4.336  11.095 -0.5694 -0.2318 -0.7091
  861MPD2    C512694   3.155   4.260  11.200  0.6000  0.8471 -0.5052
  861MPD2     H12695   3.119   4.631  11.249 -0.5388 -0.4037 -0.8078
  861MPD2    H112696   3.094   4.282  11.004  0.8020  2.0635 -2.3978
  861MPD2    H212697   3.209   4.248  11.399 -0.5775  1.3486  0.3558
  861MPD2    H312698   3.156   4.153  11.180  0.6467  0.5834  0.9055
  861MPD2     N12699   3.056   4.547  10.996 -0.1826  0.5522 -0.3601
  861MPD2    H512700   3.043   4.490  10.913  0.3055  2.1002 -1.5038
  861MPD2    N112701   3.175   4.513  11.465 -0.4095 -0.3938  0.8495
  861MPD2    H712702   3.179   4.614  11.462  1.0534 -0.4217  1.7651
  862MPD2     C12703   2.583   4.302  10.569 -0.3898  0.3945 -0.0884
  862MPD2    C112704   2.637   4.329  10.695 -0.2540 -0.1487 -0.3845
  862MPD2    C212705   2.627   4.238  10.797 -0.4018 -0.2122  0.4017
  862MPD2    C312706   2.571   4.118  10.783 -0.0661  0.2513  0.2484
  862MPD2    C412707   2.514   4.097  10.660 -0.2955 -0.1103  0.2834
  862MPD2    C512708   2.523   4.182  10.553  0.6358  0.5928  0.5736
  862MPD2     H12709   2.666   4.278  10.889 -0.3979 -2.3755  1.3487
  862MPD2    H112710   2.471   3.999  10.641 -3.5188  1.3641 -0.0519
  862MPD2    H212711   2.592   4.365  10.481 -0.9859 -1.2428 -1.3211
  862MPD2    H312712   2.489   4.148  10.456  2.4988 -0.7427  0.3803
  862MPD2     N12713   2.568   4.018  10.883  0.1115 -0.1085 -0.0326
  862MPD2    H512714   2.507   3.938  10.868  1.1971 -0.7636 -1.0582
  862MPD2    N112715   2.705   4.449  10.731 -0.2143  0.0951 -0.1907
  862MPD2    H712716   2.733   4.460  10.828  1.2438  1.0925 -0.7148
  863MPD2     C12717   1.063   1.512  16.979  0.5565  0.2651  0.3796
  863MPD2    C112718   1.108   1.646  16.985  0.2175  0.3773  0.4261
  863MPD2    C212719   1.208   1.680  17.074 -0.3296 -0.4362  0.2325
  863MPD2    C312720   1.262   1.581  17.159 -0.2485 -0.3331  0.1800
  863MPD2    C412721   1.215   1.452  17.150 -0.2960 -0.0400  0.1844
  863MPD2    C512722   1.125   1.421  17.059 -0.1609  0.1567 -0.7988
  863MPD2     H12723   1.244   1.782  17.079  0.7184 -0.9173  2.7001
  863MPD2    H112724   1.252   1.379  17.221  0.6335  0.9479  0.7180
  863MPD2    H212725   0.980   1.478  16.918  0.7693  0.5566 -0.0610
  863MPD2    H312726   1.089   1.319  17.057  0.4844 -0.0593 -1.5442
  863MPD2     N12727   1.363   1.609  17.258 -0.0916  0.8833  0.0301
  863MPD2    H512728   1.389   1.537  17.324  0.4528 -0.3041 -1.4530
  863MPD2    N112729   1.055   1.737  16.891  0.6362  0.2646 -0.5756
  863MPD2    H712730   0.992   1.688  16.828 -1.4677  1.7318  0.3860
  864MPD2     C12731   1.429   3.793  17.054 -0.2628  0.3169 -0.0175
  864MPD2    C112732   1.495   3.697  16.982  0.0302 -0.0435 -0.3001
  864MPD2    C212733   1.582   3.744  16.887 -0.6129  0.0284 -0.4415
  864MPD2    C312734   1.607   3.883  16.868 -0.2587  0.5271 -0.5623
  864MPD2    C412735   1.540   3.973  16.942 -0.7026  0.4251 -0.1339
  864MPD2    C512736   1.453   3.928  17.036  0.5285 -0.3959  0.6284
  864MPD2     H12737   1.632   3.680  16.815  2.2403  1.0674  0.6189
  864MPD2    H112738   1.551   4.080  16.926  0.7390  0.3432  0.2477
  864MPD2    H212739   1.355   3.763  17.128  0.6249 -1.1053  0.3098
  864MPD2    H312740   1.384   3.994  17.087 -2.4547 -0.9611 -2.6982
  864MPD2     N12741   1.701   3.933  16.775 -0.4384 -0.1145 -0.4808
  864MPD2    H512742   1.714   4.031  16.752  0.3679 -0.1869 -0.3463
  864MPD2    N112743   1.457   3.566  16.991  0.2872  0.0636  0.1623
  864MPD2    H712744   1.379   3.553  17.055 -0.9627 -0.1623 -1.4310
  865MPD2     C12745   1.985   3.835  15.877 -0.8429  0.3854 -0.2088
  865MPD2    C112746   1.950   3.769  15.993 -0.0003 -0.5394 -0.7806
  865MPD2    C212747   1.923   3.850  16.101 -0.1197 -0.4770  0.4258
  865MPD2    C312748   1.922   3.989  16.092 -0.2133  0.2093  0.0536
  865MPD2    C412749   1.958   4.052  15.976  0.3909 -0.1336 -0.0857
  865MPD2    C512750   1.994   3.969  15.873 -0.7149  0.1531  0.9021
  865MPD2     H12751   1.898   3.805  16.196  0.4383  0.3261  0.9588
  865MPD2    H112752   1.950   4.160  15.971 -0.7876 -0.2189 -0.0415
  865MPD2    H212753   2.017   3.777  15.790 -1.6110 -1.2919  0.6189
  865MPD2    H312754   2.024   4.010  15.777 -1.5557 -1.9357 -0.2353
  865MPD2     N12755   1.891   4.074  16.198 -0.4189 -0.7595 -0.8038
  865MPD2    H512756   1.938   4.164  16.201  0.4865 -1.2423 -0.4204
  865MPD2    N112757   1.968   3.628  15.996 -0.0574  0.7094  0.1457
  865MPD2    H712758   2.015   3.587  15.916 -0.9139  0.6743 -0.3403
  866MPD2     C12759   3.693   0.160  11.507 -0.0540  0.2875 -0.3386
  866MPD2    C112760   3.611   0.054  11.488 -0.1306 -0.1739  0.5726
  866MPD2    C212761   3.482   0.075  11.447  0.4246 -0.0591  0.2424
  866MPD2    C312762   3.443   0.203  11.408 -0.0413  0.1519 -0.1106
  866MPD2    C412763   3.535   0.310  11.409 -0.1613  0.0772 -0.3040
  866MPD2    C512764   3.657   0.285  11.464 -0.4025  0.3993 -0.0376
  866MPD2     H12765   3.411   4.733  11.419  0.4052  0.3610 -0.8754
  866MPD2    H112766   3.527   0.412  11.372 -2.7200  0.5213  1.4426
  866MPD2    H212767   3.789   0.140  11.554 -0.4457  1.2792  0.8790
  866MPD2    H312768   3.734   0.361  11.466 -0.5452  0.5019  1.5734
  866MPD2     N12769   3.319   0.245  11.360 -0.0653 -0.0376  0.2825
  866MPD2    H512770   3.298   0.343  11.343  0.1191  0.1738  1.2356
  866MPD2    N112771   3.660   4.669  11.535 -0.6162 -0.0908  0.7116
  866MPD2    H712772   3.759   4.671  11.557 -0.3762 -0.8813 -0.3129
  867MPD2     C12773   0.268   2.910  16.831  1.0547 -0.0582 -0.2929
  867MPD2    C112774   0.403   2.942  16.840  0.3441  0.2932  0.2471
  867MPD2    C212775   0.454   3.023  16.940 -0.1314  0.0759  0.4041
  867MPD2    C312776   0.369   3.057  17.042  0.0258  0.2412  0.0398
  867MPD2    C412777   0.233   3.029  17.025 -0.1110 -0.3990 -0.3722
  867MPD2    C512778   0.182   2.957  16.921 -0.3182  0.7121  0.3107
  867MPD2     H12779   0.557   3.057  16.946 -0.0951  0.1368 -0.5855
  867MPD2    H112780   0.160   3.060  17.099  0.0571  1.4443 -0.9737
  867MPD2    H212781   0.229   2.846  16.752 -0.4913  1.9101 -1.1190
  867MPD2    H312782   0.076   2.937  16.910  0.3404 -2.4876 -0.0487
  867MPD2     N12783   0.411   3.144  17.150 -0.6319 -0.4492 -0.6975
  867MPD2    H512784   0.340   3.192  17.204 -0.7707  0.0044 -1.2941
  867MPD2    N112785   0.491   2.895  16.739 -0.1883 -0.3225 -0.0973
  867MPD2    H712786   0.451   2.855  16.654  2.3909  0.2562 -1.5777
  868MPD2     C12787   2.265   2.856  13.454  0.4725 -0.2342 -0.5619
  868MPD2    C112788   2.325   2.805  13.566  0.9471 -0.1733  0.1088
  868MPD2    C212789   2.241   2.759  13.660 -0.1594 -0.3547  0.2893
  868MPD2    C312790   2.097   2.763  13.648  0.0927 -0.0005 -0.6325
  868MPD2    C412791   2.043   2.828  13.545 -0.6948  1.0473  0.3196
  868MPD2    C512792   2.130   2.879  13.447  0.1090 -0.1144  0.0054
  868MPD2     H12793   2.277   2.724  13.756 -1.4700  0.5554  1.1115
  868MPD2    H112794   1.940   2.862  13.549 -1.1320 -0.3157  0.6450
  868MPD2    H212795   2.325   2.890  13.369  0.0051 -0.8162 -1.1237
  868MPD2    H312796   2.092   2.951  13.376  1.7261  0.7262 -0.0183
  868MPD2     N12797   2.025   2.711  13.751  0.5414 -0.3741 -0.2541
  868MPD2    H512798   2.071   2.666  13.830 -2.9638  0.2072  2.1376
  868MPD2    N112799   2.463   2.821  13.571 -0.5662  0.0085  0.0207
  868MPD2    H712800   2.514   2.854  13.490  0.3818  0.7740  0.9212
  869MPD2     C12801   3.797   1.249   1.801  0.3938 -0.0384  0.3006
  869MPD2    C112802   3.793   1.193   1.677 -0.4148 -0.4481  0.0114
  869MPD2    C212803   3.879   1.239   1.575 -0.3190  0.3881 -0.4340
  869MPD2    C312804   3.962   1.344   1.598  0.4108  0.0961  1.1024
  869MPD2    C412805   3.972   1.394   1.723  0.5419 -0.1627  0.2934
  869MPD2    C512806   3.891   1.339   1.824  0.0460  0.0585  0.6230
  869MPD2     H12807   3.877   1.205   1.473  0.7348 -0.0574 -0.3115
  869MPD2    H112808   4.043   1.471   1.750  0.3314  1.1073 -2.8217
  869MPD2    H212809   3.733   1.211   1.881  1.7646  0.9962  1.8757
  869MPD2    H312810   3.904   1.382   1.923 -0.2426  1.2480  0.1488
  869MPD2     N12811   4.043   1.399   1.493  0.3031  0.0361  0.6784
  869MPD2    H512812   4.089   1.484   1.525  0.3703  0.1375  0.3118
  869MPD2    N112813   3.686   1.107   1.653  0.6796 -0.2814 -0.3326
  869MPD2    H712814   3.633   1.089   1.737  1.9132 -1.8374  0.1093
  870MPD2     C12815   2.507   4.030   1.507  0.3775  0.0300 -0.5957
  870MPD2    C112816   2.625   4.093   1.469 -0.1435  0.2764 -0.6274
  870MPD2    C212817   2.627   4.168   1.359 -0.1675  0.2127  0.1937
  870MPD2    C312818   2.507   4.196   1.291 -0.1037  0.2669  0.0876
  870MPD2    C412819   2.388   4.153   1.339 -0.3556  0.3342 -0.2083
  870MPD2    C512820   2.390   4.069   1.445  0.0561  0.4509  0.2252
  870MPD2     H12821   2.721   4.205   1.318 -0.8782  0.5262 -1.1446
  870MPD2    H112822   2.290   4.186   1.305  1.1997  1.3945 -3.6237
  870MPD2    H212823   2.498   3.960   1.588  0.8276  0.0577 -0.5233
  870MPD2    H312824   2.297   4.035   1.488  0.5461 -1.2520 -0.0780
  870MPD2     N12825   2.510   4.282   1.176 -0.2696  0.3818 -0.2183
  870MPD2    H512826   2.598   4.328   1.155 -0.5408  0.2383 -1.6820
  870MPD2    N112827   2.739   4.075   1.548 -0.2250  0.5289 -0.1072
  870MPD2    H712828   2.728   4.005   1.620  1.1515  1.1395  0.7017
  871MPD2     C12829   3.922   3.411  16.354  0.0772 -0.3464  0.7643
  871MPD2    C112830   3.902   3.369  16.483 -0.6112 -0.1199 -0.2822
  871MPD2    C212831   3.971   3.258  16.528  0.1311  0.3662  0.2471
  871MPD2    C312832   4.069   3.195  16.452  0.2362  0.5870  0.3183
  871MPD2    C412833   4.082   3.229  16.323 -0.8371 -0.0634  1.1154
  871MPD2    C512834   4.008   3.338  16.274  0.0403  1.0605 -0.3075
  871MPD2     H12835   3.952   3.220  16.627  1.0148 -2.6495 -0.7543
  871MPD2    H112836   4.127   3.167  16.246  1.8994 -0.5048  3.0578
  871MPD2    H212837   3.855   3.480  16.303  3.4253  2.7112  0.5443
  871MPD2    H312838   4.006   3.363  16.169  1.6571  1.6953 -0.1837
  871MPD2     N12839   4.139   3.084  16.508 -0.5074  0.2113  0.2940
  871MPD2    H512840   4.111   3.048  16.599 -0.6877 -2.5402 -0.8419
  871MPD2    N112841   3.816   3.457  16.558  0.7223  0.2444  0.0433
  871MPD2    H712842   3.776   3.537  16.509  1.4310  0.2256 -0.5757
  872MPD2     C12843   0.587   1.171  13.896  0.4497  0.3690 -0.1111
  872MPD2    C112844   0.576   1.289  13.958 -0.5155 -0.0904  0.1699
  872MPD2    C212845   0.452   1.337  13.989  0.0641  0.3590 -0.0639
  872MPD2    C312846   0.338   1.254  13.997  0.0189  0.3168  0.1705
  872MPD2    C412847   0.360   1.122  13.966 -0.2777 -0.2498  0.5870
  872MPD2    C512848   0.478   1.084  13.904 -0.3614 -0.3380 -0.1958
  872MPD2     H12849   0.452   1.439  14.026 -1.7405  0.3708 -0.1000
  872MPD2    H112850   0.297   1.036  13.985 -0.7008 -0.2470 -0.8308
  872MPD2    H212851   0.679   1.125  13.862  0.6000  1.5070 -1.2072
  872MPD2    H312852   0.504   0.979  13.894  1.3629  0.1416 -0.8012
  872MPD2     N12853   0.239   1.294  14.083  0.2120  0.4677  0.1380
  872MPD2    H512854   0.238   1.390  14.115 -1.5029 -0.0861  1.7559
  872MPD2    N112855   0.689   1.360  13.993 -0.2815  0.4695  0.1627
  872MPD2    H712856   0.674   1.434  14.060  1.4688 -0.3814  1.5090
  873MPD2     C12857   1.656   1.597   1.023 -0.3839  0.3115  0.5689
  873MPD2    C112858   1.768   1.542   1.076 -0.4718 -0.1216  0.1018
  873MPD2    C212859   1.809   1.413   1.035  0.4357 -0.1659  0.1189
  873MPD2    C312860   1.736   1.345   0.935  0.4358  0.0739  0.0961
  873MPD2    C412861   1.629   1.412   0.880 -0.0654 -0.0798  0.2014
  873MPD2    C512862   1.585   1.531   0.930 -0.5480 -0.8833 -0.4144
  873MPD2     H12863   1.896   1.371   1.084 -0.3050  0.4429  1.9350
  873MPD2    H112864   1.563   1.356   0.815 -0.1099  0.6473 -0.3826
  873MPD2    H212865   1.620   1.698   1.040  0.2654  0.6064  0.2063
  873MPD2    H312866   1.493   1.575   0.892 -0.7294 -0.1699  0.8503
  873MPD2     N12867   1.769   1.213   0.883  0.0830 -0.9966 -0.1823
  873MPD2    H512868   1.711   1.177   0.808 -0.8593 -0.0615  0.0900
  873MPD2    N112869   1.834   1.618   1.180  0.2854  0.0167  0.2378
  873MPD2    H712870   1.789   1.703   1.213 -1.3191 -0.7593  0.0367
  874MPD2     C12871   1.536   1.117  16.580  0.8578 -0.8092 -0.0435
  874MPD2    C112872   1.645   1.072  16.651  0.4605 -0.1918 -0.0615
  874MPD2    C212873   1.764   1.143  16.646  0.1451  0.5081  0.0213
  874MPD2    C312874   1.768   1.274  16.588  0.1552  0.4282  0.5066
  874MPD2    C412875   1.658   1.319  16.520  0.2127  0.3898  0.5147
  874MPD2    C512876   1.547   1.235  16.514 -0.1643 -0.0035 -0.0065
  874MPD2     H12877   1.856   1.102  16.686  0.7740  1.4253 -0.4948
  874MPD2    H112878   1.660   1.407  16.457 -1.0854  0.3155  0.3695
  874MPD2    H212879   1.441   1.066  16.570  0.4544  0.0101 -0.3893
  874MPD2    H312880   1.473   1.276  16.446  0.5315  0.7015 -0.3485
  874MPD2     N12881   1.892   1.330  16.565 -0.3804  0.3700 -0.3602
  874MPD2    H512882   1.964   1.286  16.620 -0.3805 -0.9575 -1.4247
  874MPD2    N112883   1.642   0.942  16.711 -0.6923 -0.2537 -0.6699
  874MPD2    H712884   1.564   0.878  16.694 -1.2040  1.1134 -3.5313
  875MPD2     C12885   2.767   3.891  14.344  0.0752 -1.0703 -0.1333
  875MPD2    C112886   2.775   4.025  14.314  0.1964 -0.0906  0.3293
  875MPD2    C212887   2.810   4.116  14.416  0.0729 -0.1501 -0.4022
  875MPD2    C312888   2.840   4.070  14.546 -0.6212  0.5534  0.2753
  875MPD2    C412889   2.834   3.937  14.575 -0.3321 -0.4327  0.5507
  875MPD2    C512890   2.811   3.854  14.469 -0.1064  0.8188 -0.3244
  875MPD2     H12891   2.814   4.224  14.403 -0.4327 -0.3094 -1.9095
  875MPD2    H112892   2.876   3.902  14.668  0.2150 -0.7517  0.1883
  875MPD2    H212893   2.734   3.821  14.268  1.0627  0.5479 -2.0323
  875MPD2    H312894   2.812   3.746  14.474 -3.2751  0.8626  1.7441
  875MPD2     N12895   2.863   4.165  14.652  0.0521 -0.3786  0.1227
  875MPD2    H512896   2.883   4.125  14.743 -0.7995  0.1742  0.5481
  875MPD2    N112897   2.707   4.071  14.198 -0.5217  0.0343 -0.5665
  875MPD2    H712898   2.672   3.997  14.138  0.4020 -0.8291 -0.0240
  876MPD2     C12899   1.462   0.720  16.459 -0.6788 -0.3268 -0.4351
  876MPD2    C112900   1.590   0.724  16.432  0.7017 -0.7405  0.2065
  876MPD2    C212901   1.660   0.608  16.458  0.1158 -0.2183  0.3928
  876MPD2    C312902   1.601   0.495  16.517  0.5626 -0.1509  0.2177
  876MPD2    C412903   1.466   0.505  16.557  0.0585  0.0796  0.2288
  876MPD2    C512904   1.397   0.612  16.517 -0.1919  0.1586  0.5733
  876MPD2     H12905   1.766   0.615  16.436  0.4103 -3.1861  0.7849
  876MPD2    H112906   1.409   0.425  16.604  0.0882 -0.4454 -0.6267
  876MPD2    H212907   1.412   0.816  16.452  0.6333  0.2838 -1.3596
  876MPD2    H312908   1.290   0.616  16.534 -0.4392 -0.6706 -0.8519
  876MPD2     N12909   1.674   0.369  16.532  0.6128 -0.1994 -0.5440
  876MPD2    H512910   1.772   0.372  16.508  0.2848  0.6590 -1.7981
  876MPD2    N112911   1.642   0.843  16.388  0.5122  0.3938  0.5972
  876MPD2    H712912   1.576   0.920  16.375 -0.0230  0.2585  2.5084
  877MPD2     C12913   1.562   1.046  15.757  0.2926  0.5610 -0.3172
  877MPD2    C112914   1.666   1.134  15.787  0.2575  0.3635 -0.7665
  877MPD2    C212915   1.725   1.199  15.682 -0.3445  0.3036  0.4947
  877MPD2    C312916   1.681   1.189  15.552  0.2071  0.5100 -0.3021
  877MPD2    C412917   1.577   1.099  15.529  0.3761 -0.0942 -0.3578
  877MPD2    C512918   1.518   1.027  15.627 -0.0339 -0.2516 -0.1785
  877MPD2     H12919   1.806   1.261  15.716 -1.0572  2.0679 -1.0431
  877MPD2    H112920   1.541   1.087  15.427 -3.1524  0.8078  0.7934
  877MPD2    H212921   1.525   0.979  15.834 -0.4840  0.5254 -0.7143
  877MPD2    H312922   1.435   0.960  15.604  0.0535 -0.7194  0.8796
  877MPD2     N12923   1.729   1.266  15.449  0.4582  0.0933  0.2035
  877MPD2    H512924   1.675   1.260  15.363 -0.4396  1.2775  0.6890
  877MPD2    N112925   1.715   1.157  15.916  0.2993 -0.3806  0.0594
  877MPD2    H712926   1.797   1.216  15.927  0.3350 -0.3627 -0.2947
  878MPD2     C12927   1.313   0.244  13.755  0.5771  0.9361 -0.0437
  878MPD2    C112928   1.355   0.356  13.830 -0.4336  0.3098  0.2988
  878MPD2    C212929   1.326   0.362  13.963 -0.0238  0.3844  0.5058
  878MPD2    C312930   1.248   0.260  14.022 -0.0979  0.2888  0.2745
  878MPD2    C412931   1.195   0.155  13.952  0.1097 -0.3862 -0.0937
  878MPD2    C512932   1.238   0.150  13.819 -0.3550  0.2391 -0.5589
  878MPD2     H12933   1.373   0.440  14.022 -1.4692  1.8410 -0.3021
  878MPD2    H112934   1.162   0.065  14.003 -0.1786  0.0452  0.4834
  878MPD2    H212935   1.330   0.221  13.650 -1.5328 -2.4752  0.3880
  878MPD2    H312936   1.206   0.064  13.761  1.1988 -0.9924  0.4241
  878MPD2     N12937   1.233   0.271  14.162 -0.3219  0.0936 -0.2116
  878MPD2    H512938   1.289   0.351  14.190 -0.4905 -0.0330  0.4910
  878MPD2    N112939   1.432   0.445  13.757 -0.8615 -0.0213  0.1003
  878MPD2    H712940   1.459   0.419  13.663  1.6139  1.0306  0.5190
  879MPD2     C12941   2.347   1.188  17.247 -0.1873 -0.4621  0.3026
  879MPD2    C112942   2.253   1.289  17.242 -0.2677  1.0380  0.1172
  879MPD2    C212943   2.132   1.267  17.178  0.3271 -0.6721 -0.1978
  879MPD2    C312944   2.084   1.137  17.146  0.5764  0.5932  0.9432
  879MPD2    C412945   2.175   1.038  17.148  0.0859 -0.1795 -0.4866
  879MPD2    C512946   2.299   1.067  17.197  0.8226 -0.8766 -0.5565
  879MPD2     H12947   2.060   1.347  17.168  1.2995  0.2208  0.0004
  879MPD2    H112948   2.140   0.941  17.117 -1.8701  0.7464 -1.2056
  879MPD2    H212949   2.447   1.195  17.288  0.3827 -0.5252 -1.0835
  879MPD2    H312950   2.359   0.978  17.212  0.1072 -1.1065  0.9542
  879MPD2     N12951   1.945   1.108  17.118 -0.1572 -0.1148 -0.1871
  879MPD2    H512952   1.917   1.020  17.075 -0.3058 -0.7423  1.1799
  879MPD2    N112953   2.290   1.411  17.303 -0.4135 -0.0922  0.3153
  879MPD2    H712954   2.378   1.403  17.353  0.7359  0.2319 -1.6461
  880MPD2     C12955   3.232   3.732  17.627 -0.6497 -0.0717  0.5605
  880MPD2    C112956   3.262   3.766   0.015  0.2387 -0.2468  0.5722
  880MPD2    C212957   3.296   3.663   0.107  0.2766 -0.1426  0.4282
  880MPD2    C312958   3.301   3.536   0.053  0.8883  0.0671 -0.4875
  880MPD2    C412959   3.270   3.504  17.671 -0.4703 -0.7297  0.2641
  880MPD2    C512960   3.234   3.600  17.587 -0.0904 -0.1106 -0.3266
  880MPD2     H12961   3.331   3.686   0.207  1.9499  0.2970 -0.2509
  880MPD2    H112962   3.275   3.401  17.637  1.1107 -1.2263  2.0419
  880MPD2    H212963   3.212   3.802  17.547  1.1013  0.4838  0.6134
  880MPD2    H312964   3.201   3.571  17.488  0.8549 -0.9271 -0.3934
  880MPD2     N12965   3.344   3.434   0.142 -0.0250 -0.4533  0.0012
  880MPD2    H512966   3.384   3.468   0.229  2.3597 -0.7991 -0.9544
  880MPD2    N112967   3.270   3.907   0.050 -0.3150 -0.1372  0.6183
  880MPD2    H712968   3.249   3.977  17.723  3.7933 -0.9675 -1.4311
  881MPD2     C12969   3.565   0.118  17.567 -0.1165  0.2705 -0.5058
  881MPD2    C112970   3.522   0.006  17.499 -0.2256 -0.3812  0.0311
  881MPD2    C212971   3.450   4.643  17.572 -0.5445 -0.2092 -0.2831
  881MPD2    C312972   3.433   4.652  17.715  0.3465  0.3096  0.5612
  881MPD2    C412973   3.473   0.033   0.023  0.1546  0.2476 -0.0732
  881MPD2    C512974   3.538   0.134  17.701  0.1526  0.1227 -0.4447
  881MPD2     H12975   3.421   4.550  17.525  0.5884 -0.5803 -0.2531
  881MPD2    H112976   3.472   0.048   0.131  0.9979  1.2247 -0.1927
  881MPD2    H212977   3.611   0.207  17.526  0.1994  0.5052  0.3555
  881MPD2    H312978   3.585   0.215   0.012 -0.6892 -0.1396  0.6779
  881MPD2     N12979   3.387   4.549   0.051 -0.4423 -0.2079  0.3079
  881MPD2    H512980   3.390   4.557   0.152 -1.0558 -1.3770  0.4067
  881MPD2    N112981   3.500   0.020  17.356  0.1177  1.0295  0.5241
  881MPD2    H712982   3.542   0.097  17.306  0.4196 -0.3449 -1.3119
  882MPD2     C12983   1.840   1.328  14.670 -0.0162 -0.3702  0.6790
  882MPD2    C112984   1.779   1.290  14.794  0.5601 -0.5116 -0.7668
  882MPD2    C212985   1.712   1.164  14.805 -0.6710 -0.1624 -0.9517
  882MPD2    C312986   1.699   1.084  14.689  0.1644  0.0595 -0.4738
  882MPD2    C412987   1.752   1.121  14.570 -0.5256  0.8211 -0.2303
  882MPD2    C512988   1.829   1.237  14.566 -0.0479  0.2194  0.1057
  882MPD2     H12989   1.672   1.127  14.898  0.9326  1.2604  0.3066
  882MPD2    H112990   1.738   1.061  14.481  1.1972 -0.3394  0.2850
  882MPD2    H212991   1.874   1.429  14.646 -0.0653 -0.3676  0.6206
  882MPD2    H312992   1.852   1.265  14.464  1.5648 -1.1735  0.0815
  882MPD2     N12993   1.623   0.966  14.684  0.1569 -0.8017 -0.3571
  882MPD2    H512994   1.588   0.935  14.594 -0.0386 -0.6358 -0.3362
  882MPD2    N112995   1.801   1.372  14.907  0.0466  0.1762  0.2425
  882MPD2    H712996   1.875   1.441  14.900 -0.5604  0.9810  1.7093
  883MPD2     C12997   3.808   1.371  16.634 -0.3845 -0.2356 -0.0985
  883MPD2    C112998   3.923   1.385  16.556 -0.7772  0.5434 -1.1216
  883MPD2    C212999   4.043   1.421  16.617 -0.1416  0.2912 -0.0579
  883MPD2    C313000   4.053   1.437  16.752  0.2174 -0.3019 -0.2892
  883MPD2    C413001   3.944   1.431  16.823 -0.2422  0.7943  0.1166
  883MPD2    C513002   3.828   1.401  16.766  0.0597 -0.0550 -0.1068
  883MPD2     H13003   4.127   1.422  16.548  0.9522  1.8888  1.3125
  883MPD2    H113004   3.949   1.432  16.932 -1.4986  1.4097  0.1690
  883MPD2    H213005   3.711   1.360  16.586 -0.9733  2.4078  0.4916
  883MPD2    H313006   3.742   1.382  16.829 -1.4108  0.0797 -2.1017
  883MPD2     N13007   4.184   1.467  16.799 -0.7163 -0.2124 -0.1063
  883MPD2    H513008   4.262   1.456  16.736 -1.4416  1.2968 -1.2653
  883MPD2    N113009   3.915   1.357  16.420  0.1568 -0.1685  0.0177
  883MPD2    H713010   3.989   1.389  16.357 -0.2546 -2.2217 -1.4919
  884MPD2     C13011   1.078   1.881  15.448  0.5907  0.2632 -0.2402
  884MPD2    C113012   1.044   2.007  15.440 -0.3709  0.6121  0.0536
  884MPD2    C213013   0.916   2.037  15.426  0.3789 -0.6494 -0.3032
  884MPD2    C313014   0.818   1.936  15.421 -0.4682 -0.1016 -0.8616
  884MPD2    C413015   0.856   1.802  15.427  0.8577  0.1895  0.2767
  884MPD2    C513016   0.990   1.777  15.434  0.2600 -0.2482  0.3985
  884MPD2     H13017   0.880   2.139  15.425 -1.2537 -1.2198 -0.1803
  884MPD2    H113018   0.782   1.722  15.426  1.1357 -0.0377 -1.2286
  884MPD2    H213019   1.181   1.849  15.451  0.4709 -0.2625 -1.6429
  884MPD2    H313020   1.033   1.677  15.434 -2.0975 -1.2659  0.4047
  884MPD2     N13021   0.682   1.977  15.408  0.7081 -0.0540 -0.3478
  884MPD2    H513022   0.662   2.075  15.390  3.0141  0.8487  1.9214
  884MPD2    N113023   1.146   2.110  15.436 -0.0735  0.4470 -0.4800
  884MPD2    H713024   1.127   2.198  15.389  0.9799  1.0724  0.2739
  885MPD2     C13025   3.831   1.970   0.536  0.0695  0.4408  0.4594
  885MPD2    C113026   3.940   2.055   0.542 -0.6095 -0.0485  0.3006
  885MPD2    C213027   3.963   2.152   0.445  0.3674 -0.4277  0.1695
  885MPD2    C313028   3.868   2.161   0.340  0.0684 -0.3201 -0.3187
  885MPD2    C413029   3.753   2.084   0.343 -0.2401 -0.4376 -0.0446
  885MPD2    C513030   3.736   1.984   0.437  0.2691  0.2469  0.3667
  885MPD2     H13031   4.053   2.212   0.443 -0.6607  1.0057 -2.8797
  885MPD2    H113032   3.683   2.074   0.261 -0.5022 -0.6173  0.2014
  885MPD2    H213033   3.815   1.896   0.613  0.1151 -0.1832 -0.1203
  885MPD2    H313034   3.651   1.917   0.434 -0.9926  1.7746  2.4711
  885MPD2     N13035   3.904   2.240   0.232  0.0556  0.1283 -0.5346
  885MPD2    H513036   3.993   2.288   0.233 -0.2362  0.7062 -1.7457
  885MPD2    N113037   4.023   2.034   0.660  0.4710 -0.3088  0.3813
  885MPD2    H713038   3.997   1.976   0.738 -1.7427 -1.3570 -1.1531
  886MPD2     C13039   0.319   0.375  15.480  0.4253  1.1313 -0.0070
  886MPD2    C113040   0.453   0.388  15.526  0.3253  0.1158  0.0667
  886MPD2    C213041   0.539   0.458  15.449  0.4120 -0.1930  0.0084
  886MPD2    C313042   0.501   0.517  15.328 -0.2296 -0.7750  0.0696
  886MPD2    C413043   0.371   0.509  15.285  0.3801  0.2931 -0.6874
  886MPD2    C513044   0.286   0.432  15.362 -0.4005 -0.0648 -0.8039
  886MPD2     H13045   0.642   0.451  15.482 -0.5352 -1.7303  2.6195
  886MPD2    H113046   0.329   0.546  15.193 -1.7789 -1.8084 -0.5617
  886MPD2    H213047   0.243   0.307  15.517  0.8057  1.7571  1.9567
  886MPD2    H313048   0.185   0.404  15.336 -0.2783  0.2635 -1.6291
  886MPD2     N13049   0.599   0.590  15.252 -0.2587 -0.1183 -0.7773
  886MPD2    H513050   0.691   0.571  15.292 -0.8071  1.9472  1.4381
  886MPD2    N113051   0.496   0.322  15.643  0.0574 -0.3041  0.7564
  886MPD2    H713052   0.594   0.316  15.670  1.0160  0.0496 -2.6540
  887MPD2     C13053   1.120   0.291  15.952 -0.4111  0.4415 -0.5591
  887MPD2    C113054   1.004   0.378  15.938 -0.5163  0.0548  0.0422
  887MPD2    C213055   1.026   0.513  15.928 -0.1882 -0.1986 -0.4915
  887MPD2    C313056   1.157   0.563  15.929  0.0621  0.3913 -0.4288
  887MPD2    C413057   1.270   0.481  15.937 -0.9706  0.3462 -0.3603
  887MPD2    C513058   1.248   0.343  15.945 -0.6959 -0.5023  0.0104
  887MPD2     H13059   0.945   0.585  15.926  1.1308  1.2977  0.7254
  887MPD2    H113060   1.372   0.515  15.926 -0.6572 -0.7223 -0.7103
  887MPD2    H213061   1.117   0.183  15.966  0.1916  0.2719 -1.7697
  887MPD2    H313062   1.329   0.270  15.940 -2.1097 -2.1237  0.5920
  887MPD2     N13063   1.168   0.707  15.918 -0.2842 -0.1250  0.6439
  887MPD2    H513064   1.085   0.756  15.886 -0.9765 -2.5571 -1.3190
  887MPD2    N113065   0.868   0.340  15.960  0.1322 -0.2573  0.1087
  887MPD2    H713066   0.795   0.409  15.951  0.2030  0.1828  2.7376
  888MPD2     C13067   2.726   0.667  14.876  0.1029  0.5342 -0.9404
  888MPD2    C113068   2.721   0.693  15.018  0.6177 -0.7761  0.2055
  888MPD2    C213069   2.752   0.819  15.072 -0.0558  0.0595  0.8654
  888MPD2    C313070   2.800   0.913  14.986  0.3299 -0.2422  0.5967
  888MPD2    C413071   2.805   0.901  14.848  0.2466 -0.0875  0.0021
  888MPD2    C513072   2.761   0.775  14.796 -0.5860  0.0982 -0.4415
  888MPD2     H13073   2.741   0.840  15.178 -1.5744 -0.9004  0.8908
  888MPD2    H113074   2.832   0.981  14.780 -1.4413 -1.0306 -1.7603
  888MPD2    H213075   2.691   0.574  14.832  2.9819 -1.2787  0.6774
  888MPD2    H313076   2.760   0.773  14.687  0.1019 -0.9651 -0.4336
  888MPD2     N13077   2.827   1.036  15.045  0.2697 -0.6974  0.8846
  888MPD2    H513078   2.803   1.052  15.143  0.9137  2.8079  0.4810
  888MPD2    N113079   2.681   0.594  15.109  0.5108  0.0647  0.7709
  888MPD2    H713080   2.709   0.623  15.203  0.3160  0.5176  0.6909
  889MPD2     C13081   1.779   0.471  13.886  0.1628 -0.0042 -0.5874
  889MPD2    C113082   1.906   0.494  13.834 -0.2982  0.4316 -0.1670
  889MPD2    C213083   1.954   0.624  13.846  0.5213 -0.1097  0.2273
  889MPD2    C313084   1.897   0.723  13.922  0.3469 -0.6531 -0.5453
  889MPD2    C413085   1.785   0.686  13.993  0.0892  0.7153 -0.7423
  889MPD2    C513086   1.732   0.563  13.982 -0.5334  0.2617  0.1284
  889MPD2     H13087   2.028   0.666  13.779 -2.2122  2.1751 -1.3439
  889MPD2    H113088   1.738   0.754  14.064 -0.7067 -1.8885  1.2116
  889MPD2    H213089   1.738   0.371  13.877  0.5066 -0.3519  1.7025
  889MPD2    H313090   1.638   0.538  14.030  0.4928  2.4651  3.3104
  889MPD2     N13091   1.948   0.852  13.910  0.5253 -0.1569  0.0586
  889MPD2    H513092   2.037   0.865  13.865  0.4104 -0.7097 -0.3212
  889MPD2    N113093   1.962   0.410  13.728 -0.2593 -0.0084  0.1438
  889MPD2    H713094   2.050   0.443  13.689 -2.0348  3.1090 -1.2181
  890MPD2     C13095   1.330   2.080  15.015 -0.0153 -0.9939 -0.5523
  890MPD2    C113096   1.468   2.081  14.993  0.2654 -0.2535  0.9131
  890MPD2    C213097   1.549   2.011  15.075  0.0855 -0.2608  0.2227
  890MPD2    C313098   1.501   1.945  15.186  0.0200 -1.1017 -0.0423
  890MPD2    C413099   1.368   1.940  15.207 -0.2249  0.3451  0.3967
  890MPD2    C513100   1.281   2.012  15.124 -0.7824  0.6925 -0.2241
  890MPD2     H13101   1.657   2.005  15.063  0.1569  2.3930 -0.4096
  890MPD2    H113102   1.333   1.883  15.292  0.1402  2.1140  1.7227
  890MPD2    H213103   1.256   2.120  14.947 -2.2692 -1.7862  1.4482
  890MPD2    H313104   1.175   2.013  15.145 -1.5739  1.5237 -4.2697
  890MPD2     N13105   1.593   1.888  15.280  0.5249 -0.4188 -0.4018
  890MPD2    H513106   1.689   1.913  15.260  1.0690 -2.3316 -0.1270
  890MPD2    N113107   1.514   2.146  14.880 -0.5185  0.4844 -0.1093
  890MPD2    H713108   1.446   2.193  14.821  1.2899  0.8057 -1.9159
  891MPD2     C13109   0.287   0.794  16.668 -0.3675  0.0710  0.3953
  891MPD2    C113110   0.201   0.759  16.771 -0.3605 -0.8403 -0.3818
  891MPD2    C213111   0.247   0.766  16.900 -0.6711  0.3463  0.2455
  891MPD2    C313112   0.375   0.801  16.933  0.0969 -0.6454  0.4801
  891MPD2    C413113   0.465   0.833  16.836 -0.0714 -0.3432  0.1651
  891MPD2    C513114   0.418   0.824  16.703 -0.0985 -0.2457  0.0260
  891MPD2     H13115   0.181   0.743  16.983 -0.6562  3.0402  0.9931
  891MPD2    H113116   0.570   0.856  16.849 -0.1657  0.5362 -0.6164
  891MPD2    H213117   0.269   0.793  16.561  2.8672 -1.0260 -0.1332
  891MPD2    H313118   0.489   0.848  16.624 -0.1282  2.5435  0.8346
  891MPD2     N13119   0.413   0.788  17.066  0.3066  1.0189 -0.4365
  891MPD2    H513120   0.341   0.770  17.135 -0.9125  0.2313 -1.9343
  891MPD2    N113121   0.063   0.741  16.741 -0.0413 -0.0592  0.2597
  891MPD2    H713122   0.051   0.719  16.642 -2.0366 -0.2245  0.5250
  892MPD2     C13123   1.236   1.545  14.722  0.8375 -0.0405 -0.9195
  892MPD2    C113124   1.139   1.466  14.783 -0.2050 -0.3515  0.0626
  892MPD2    C213125   1.160   1.329  14.800  0.0072 -0.0425 -0.4122
  892MPD2    C313126   1.276   1.274  14.748  0.0454  0.5245  0.1034
  892MPD2    C413127   1.371   1.354  14.686 -0.1781 -0.1172 -0.2367
  892MPD2    C513128   1.347   1.489  14.671  0.4432  0.6400 -0.1290
  892MPD2     H13129   1.079   1.269  14.838  0.2397 -0.1807 -0.1342
  892MPD2    H113130   1.459   1.308  14.645  0.5541  1.2722 -0.2305
  892MPD2    H213131   1.212   1.642  14.680 -0.4936  0.1189  0.2024
  892MPD2    H313132   1.421   1.548  14.618  0.3694 -1.1518 -2.2117
  892MPD2     N13133   1.289   1.133  14.741  0.2529  0.1900  0.0771
  892MPD2    H513134   1.375   1.106  14.694 -0.5534 -0.7688 -0.8291
  892MPD2    N113135   1.012   1.523  14.804 -0.2905 -0.3882 -0.9231
  892MPD2    H713136   0.954   1.454  14.850  1.1614 -0.9803  0.0398
  893MPD2     C13137   2.236   0.566   2.244 -0.0945  0.0631 -0.2834
  893MPD2    C113138   2.181   0.507   2.133 -0.0504  0.1255  0.3799
  893MPD2    C213139   2.044   0.510   2.105  0.0997 -0.4279 -0.9108
  893MPD2    C313140   1.959   0.577   2.197 -0.1171 -0.6846 -0.0711
  893MPD2    C413141   2.015   0.629   2.310  0.0369  0.1019 -0.3643
  893MPD2    C513142   2.150   0.621   2.336  0.0512 -0.1590  0.1033
  893MPD2     H13143   1.992   0.458   2.025 -1.0702  0.0622 -0.4693
  893MPD2    H113144   1.959   0.675   2.391 -2.0070  1.4873 -2.5829
  893MPD2    H213145   2.342   0.555   2.266  0.1657  0.5752 -1.3044
  893MPD2    H313146   2.198   0.669   2.420  0.7075 -2.4287  1.0266
  893MPD2     N13147   1.818   0.583   2.182 -0.1388  0.5351  0.4681
  893MPD2    H513148   1.777   0.631   2.261 -0.4142  3.3381 -1.3761
  893MPD2    N113149   2.268   0.444   2.048 -0.4988  0.1010  0.2901
  893MPD2    H713150   2.364   0.441   2.081 -0.8179 -0.3228  1.1712
  894MPD2     C13151   0.639   1.867   1.198  0.4604  0.3605 -0.7014
  894MPD2    C113152   0.537   1.953   1.225  0.4140 -0.1777 -0.6661
  894MPD2    C213153   0.570   2.096   1.239 -0.0368  0.5245  0.2398
  894MPD2    C313154   0.688   2.146   1.195 -0.1125 -0.2438  0.6025
  894MPD2    C413155   0.781   2.060   1.136  0.3041  0.3942  0.0972
  894MPD2    C513156   0.756   1.919   1.146 -0.1551  0.0712 -0.3754
  894MPD2     H13157   0.486   2.156   1.272 -0.5480 -1.1603  1.9829
  894MPD2    H113158   0.874   2.090   1.088  0.0549  1.7836  0.4899
  894MPD2    H213159   0.631   1.760   1.186  1.1446  0.2200  0.1555
  894MPD2    H313160   0.837   1.865   1.099 -0.0849  0.2969 -0.5135
  894MPD2     N13161   0.712   2.282   1.220 -0.1374  0.0275  0.3695
  894MPD2    H513162   0.647   2.329   1.282  1.4803  0.7639  1.4841
  894MPD2    N113163   0.412   1.899   1.262 -0.0004 -0.3883 -0.0361
  894MPD2    H713164   0.413   1.798   1.278 -1.0613 -0.3145  0.4855
  895MPD2     C13165   4.546   1.392  13.849  0.2374 -0.5437  0.1809
  895MPD2    C113166   4.486   1.270  13.833  0.0525 -0.2873  0.1398
  895MPD2    C213167   4.559   1.152  13.827  0.1862 -0.0965 -0.3109
  895MPD2    C313168   4.696   1.164  13.787 -0.0420 -0.1821 -0.0380
  895MPD2    C413169   0.020   1.284  13.794 -0.0022  0.1521  0.7105
  895MPD2    C513170   4.683   1.391  13.827 -0.1994  0.1416  0.0043
  895MPD2     H13171   4.510   1.055  13.829 -1.4459  0.7543  0.7318
  895MPD2    H113172   0.122   1.292  13.757 -0.2657 -1.3234 -0.3378
  895MPD2    H213173   4.491   1.485  13.857  1.4431  0.3994 -2.2726
  895MPD2    H313174   4.724   1.491  13.829 -0.1871  0.1750 -2.6580
  895MPD2     N13175   0.035   1.051  13.743  0.2082 -0.6369  0.1657
  895MPD2    H513176   0.120   1.070  13.690 -0.3011  0.5237 -0.2236
  895MPD2    N113177   4.347   1.252  13.826 -0.1593  0.2071  0.5722
  895MPD2    H713178   4.306   1.161  13.846  1.2855 -0.2409  1.4556
  896MPD2     C13179   2.427   2.969   1.660 -0.0873  0.3967  0.1051
  896MPD2    C113180   2.419   2.959   1.517 -0.5845 -0.3125  0.2982
  896MPD2    C213181   2.302   2.910   1.459 -0.0088 -0.0985 -0.0833
  896MPD2    C313182   2.190   2.884   1.535 -0.5800  0.4329 -0.2322
  896MPD2    C413183   2.199   2.897   1.674  0.2472  0.2987  0.1891
  896MPD2    C513184   2.319   2.945   1.728 -1.1069 -0.2265 -0.0318
  896MPD2     H13185   2.298   2.895   1.352 -2.0813 -1.2465  0.1677
  896MPD2    H113186   2.114   2.876   1.736 -1.2412 -1.3786 -2.4218
  896MPD2    H213187   2.517   3.010   1.703  1.1627 -1.8864 -0.3518
  896MPD2    H313188   2.321   2.950   1.836 -1.1100 -0.7744 -0.0050
  896MPD2     N13189   2.067   2.858   1.465 -0.1791 -0.0103  0.5587
  896MPD2    H513190   2.069   2.854   1.364  2.1115  2.1792  0.5042
  896MPD2    N113191   2.530   3.008   1.444  0.3919  0.3827  0.6548
  896MPD2    H713192   2.611   3.040   1.495 -0.4861 -1.2185  3.0774
  897MPD2     C13193   3.727   0.404  10.525  0.7850  0.0018 -0.6351
  897MPD2    C113194   3.723   0.540  10.497 -0.3778  0.3947  0.1397
  897MPD2    C213195   3.632   0.619  10.568  0.3313  0.5203 -0.2979
  897MPD2    C313196   3.553   0.567  10.667 -0.0214  0.1227 -0.6199
  897MPD2    C413197   3.560   0.431  10.698  0.5817  0.0759  0.4261
  897MPD2    C513198   3.641   0.350  10.623 -0.0665 -0.4113  0.0228
  897MPD2     H13199   3.632   0.727  10.557  0.7923  0.7377  1.6632
  897MPD2    H113200   3.499   0.392  10.779  1.3244  1.2531  1.5516
  897MPD2    H213201   3.782   0.332  10.466 -2.0248 -1.2272 -1.7760
  897MPD2    H313202   3.644   0.244  10.647 -0.9557 -1.2727 -3.5599
  897MPD2     N13203   3.465   0.660  10.731 -0.0885  0.0764  0.6080
  897MPD2    H513204   3.449   0.748  10.684 -1.3631  0.2740  1.3894
  897MPD2    N113205   3.805   0.599  10.392  0.4015  0.1890 -0.8562
  897MPD2    H713206   3.881   0.544  10.351  1.3470 -0.8588  2.3289
  898MPD2     C13207   0.596   1.015   0.879  0.1340  0.6747 -0.1066
  898MPD2    C113208   0.715   1.000   0.812 -0.8302 -0.1212  0.5804
  898MPD2    C213209   0.738   1.080   0.704  0.2515 -0.6916 -0.2369
  898MPD2    C313210   0.641   1.176   0.666  0.0008  0.6285  0.3251
  898MPD2    C413211   0.519   1.185   0.734  0.7578  0.2847 -0.5314
  898MPD2    C513212   0.498   1.103   0.840  0.0373 -0.2415  0.3277
  898MPD2     H13213   0.831   1.072   0.650 -0.4410 -0.0279 -1.5289
  898MPD2    H113214   0.445   1.254   0.693 -2.1320 -1.3469  1.9765
  898MPD2    H213215   0.576   0.956   0.968 -1.3516 -0.4237 -1.1662
  898MPD2    H313216   0.412   1.114   0.905  0.0556 -0.2371  0.3512
  898MPD2     N13217   0.666   1.264   0.558  0.4781 -0.2003 -0.2873
  898MPD2    H513218   0.751   1.242   0.506 -0.6464 -2.3695 -1.2210
  898MPD2    N113219   0.810   0.903   0.848 -0.5155 -0.0361  0.0011
  898MPD2    H713220   0.868   0.875   0.769 -1.2572 -2.0619  0.1823
  899MPD2     C13221   1.529   1.193  17.584  0.4634  0.1751 -0.3639
  899MPD2    C113222   1.546   1.301  17.667 -0.4725  0.2927  0.1420
  899MPD2    C213223   1.512   1.286   0.056 -0.4419 -0.0045  0.5050
  899MPD2    C313224   1.442   1.183   0.102  0.5594 -0.1306  0.5087
  899MPD2    C413225   1.422   1.077   0.020  0.1937 -0.0895  0.3213
  899MPD2    C513226   1.473   1.080  17.633  0.2326 -0.0271  0.1277
  899MPD2     H13227   1.531   1.366   0.127 -1.9064  2.1541 -1.5050
  899MPD2    H113228   1.360   0.993   0.050  0.9864 -0.7777  0.0315
  899MPD2    H213229   1.558   1.193  17.479 -2.0817 -0.6967 -1.0917
  899MPD2    H313230   1.456   0.996  17.566  0.9223  0.0365 -0.1278
  899MPD2     N13231   1.379   1.164   0.226 -0.7874 -0.4219 -0.1336
  899MPD2    H513232   1.354   1.066   0.239 -1.3892 -0.1559  0.7412
  899MPD2    N113233   1.601   1.414  17.610 -0.0311  0.2142  0.0925
  899MPD2    H713234   1.638   1.402  17.516 -1.3828  0.1542 -0.4353
  900MPD2     C13235   1.520   2.940  12.608  0.2848  0.0392  0.2823
  900MPD2    C113236   1.429   2.944  12.710  0.3757  0.5162  0.1713
  900MPD2    C213237   1.309   3.009  12.700  0.3344  0.0108  1.0906
  900MPD2    C313238   1.287   3.086  12.588  0.0028  0.0473 -0.5273
  900MPD2    C413239   1.381   3.090  12.488 -0.3810  0.2974  0.2816
  900MPD2    C513240   1.500   3.010  12.494  0.3085 -0.4571 -0.7778
  900MPD2     H13241   1.234   3.005  12.778 -1.2550 -1.2028 -0.4957
  900MPD2    H113242   1.370   3.148  12.397 -2.3108 -0.7620 -0.1373
  900MPD2    H213243   1.611   2.887  12.632 -0.1961 -0.2062  1.5954
  900MPD2    H313244   1.566   3.000  12.409  0.4438 -1.2735 -0.5797
  900MPD2     N13245   1.162   3.157  12.578 -0.1662 -0.2528 -0.2750
  900MPD2    H513246   1.093   3.147  12.651 -0.5739 -3.0610 -1.0679
  900MPD2    N113247   1.459   2.861  12.826  0.2860  0.3662 -0.6250
  900MPD2    H713248   1.535   2.793  12.817 -0.8460 -1.0638  0.6599
  901MPD2     C13249   1.185   2.188  13.587 -0.3363 -0.4835  0.5360
  901MPD2    C113250   1.321   2.191  13.585  0.6394 -0.3129 -0.5592
  901MPD2    C213251   1.386   2.296  13.520 -0.1687  0.1264 -0.0530
  901MPD2    C313252   1.309   2.399  13.469  0.3611  0.4713 -0.4617
  901MPD2    C413253   1.173   2.398  13.477  0.6227 -0.0108 -0.4306
  901MPD2    C513254   1.106   2.296  13.537  0.9110  0.2529 -0.3285
  901MPD2     H13255   1.494   2.302  13.518 -0.2510  1.3139 -1.3834
  901MPD2    H113256   1.107   2.477  13.443  1.6460  0.9708 -0.1205
  901MPD2    H213257   1.140   2.097  13.625  0.7658 -1.3435 -0.2633
  901MPD2    H313258   0.998   2.305  13.537  0.8664 -0.2854 -0.8158
  901MPD2     N13259   1.378   2.505  13.405  0.3517 -0.3040  0.0281
  901MPD2    H513260   1.478   2.494  13.415  0.4312  0.3801 -0.0021
  901MPD2    N113261   1.390   2.080  13.640 -0.5748 -0.3287 -0.3852
  901MPD2    H713262   1.329   2.006  13.673 -0.5592  0.7458  2.0246
  902MPD2     C13263   0.518   1.430  12.988  0.1667 -0.1102 -0.8918
  902MPD2    C113264   0.417   1.496  12.920 -0.1201 -0.3648 -0.1064
  902MPD2    C213265   0.421   1.491  12.778 -0.1032  0.9132 -0.3055
  902MPD2    C313266   0.506   1.414  12.705  0.2676  0.8354  0.3166
  902MPD2    C413267   0.610   1.347  12.777  0.0236 -0.4468 -0.2636
  902MPD2    C513268   0.612   1.361  12.916  0.4647  0.3937  0.2367
  902MPD2     H13269   0.342   1.545  12.726 -0.5890  0.7497  0.2509
  902MPD2    H113270   0.685   1.287  12.728  2.0186  2.4219 -0.7266
  902MPD2    H213271   0.514   1.424  13.096 -0.3847  1.2525 -0.8421
  902MPD2    H313272   0.693   1.314  12.970 -0.5024 -0.6928  0.7353
  902MPD2     N13273   0.522   1.410  12.562 -0.4418 -0.3429 -0.0487
  902MPD2    H513274   0.600   1.356  12.526 -0.3003  1.1980 -1.9911
  902MPD2    N113275   0.328   1.574  12.996 -0.7378 -0.0588  0.6216
  902MPD2    H713276   0.343   1.580  13.097  0.0480  2.6870  0.3424
  903MPD2     C13277   0.213   1.498  11.677  0.4804  0.3950  0.5604
  903MPD2    C113278   0.189   1.504  11.814 -0.0372  1.0163 -0.7421
  903MPD2    C213279   0.057   1.527  11.855  0.5932 -0.3407  0.2084
  903MPD2    C313280   4.690   1.516  11.761 -0.1011  0.4574  0.7599
  903MPD2    C413281   4.722   1.498  11.628  0.3950 -0.1270  0.1588
  903MPD2    C513282   0.113   1.492  11.582 -0.1301  0.9477 -0.5488
  903MPD2     H13283   0.032   1.549  11.958 -0.5683  1.5788 -0.4889
  903MPD2    H113284   4.652   1.491  11.546 -0.6890  0.3884  1.0474
  903MPD2    H213285   0.314   1.493  11.638  0.0965  0.3913 -0.4241
  903MPD2    H313286   0.141   1.470  11.480 -1.8173  1.6335 -1.1461
  903MPD2     N13287   4.559   1.524  11.805 -0.2400 -0.2716 -0.3938
  903MPD2    H513288   4.540   1.523  11.904  2.4292 -1.5453  0.1030
  903MPD2    N113289   0.289   1.500  11.908 -0.3900  0.2069 -0.0411
  903MPD2    H713290   0.382   1.493  11.867  0.3305 -0.0015  1.6308
  904MPD2     C13291   4.352   4.719  14.050 -0.0477 -0.0995 -0.8150
  904MPD2    C113292   4.463   0.063  14.053 -0.6981 -0.5146  0.4708
  904MPD2    C213293   4.587   0.013  14.064 -0.0297  0.3078  0.2518
  904MPD2    C313294   4.609   4.619  14.061 -0.4259 -0.7436  0.5952
  904MPD2    C413295   4.503   4.533  14.064 -0.0549  0.0127  0.3352
  904MPD2    C513296   4.373   4.584  14.054  0.3581  0.2214 -0.6646
  904MPD2     H13297   4.676   0.074  14.070  0.7819 -0.6302 -2.3965
  904MPD2    H113298   4.520   4.426  14.061  0.6787  0.1737 -1.8000
  904MPD2    H213299   4.255   0.028  14.036 -1.3622 -2.1055  1.8646
  904MPD2    H313300   4.287   4.519  14.050 -0.4217  1.0849  1.9751
  904MPD2     N13301   0.011   4.584  14.057  0.1157 -0.0078  0.1858
  904MPD2    H513302   0.076   4.659  14.077 -0.2678  0.7522 -1.3540
  904MPD2    N113303   4.452   0.203  14.063 -0.8023  0.4889 -0.1454
  904MPD2    H713304   4.538   0.256  14.067 -0.2080 -0.1952 -3.3972
  905MPD2     C13305   4.226   0.562  13.454 -0.6508  0.6544 -0.1519
  905MPD2    C113306   4.311   0.635  13.541  0.5123  0.0281 -0.8078
  905MPD2    C213307   4.406   0.724  13.488  0.1343 -0.0966  0.4379
  905MPD2    C313308   4.417   0.737  13.353  0.4340 -0.5995  1.3457
  905MPD2    C413309   4.315   0.687  13.269 -0.3031  0.1846 -0.2736
  905MPD2    C513310   4.224   0.600  13.319  0.1571  0.1711  0.1025
  905MPD2     H13311   4.482   0.773  13.547  0.1894  1.1191 -0.6292
  905MPD2    H113312   4.299   0.716  13.166  0.5539  0.5776 -0.2999
  905MPD2    H213313   4.151   0.489  13.482  0.6328 -0.8000 -0.5092
  905MPD2    H313314   4.152   0.560  13.249  0.9318  2.5308 -2.0227
  905MPD2     N13315   4.506   0.827  13.290 -0.2888 -0.2438  0.3278
  905MPD2    H513316   4.475   0.866  13.201 -3.1887 -1.2369  0.9338
  905MPD2    N113317   4.303   0.600  13.677  0.3829 -0.7588 -0.4253
  905MPD2    H713318   4.254   0.514  13.701  0.3481 -0.4222  0.7423
  906MPD2     C13319   2.135   0.860  11.326 -0.4779 -0.3086  0.7819
  906MPD2    C113320   2.081   0.796  11.219 -0.6668  0.1711  0.0028
  906MPD2    C213321   2.014   0.676  11.236  0.2773  0.0601  0.1395
  906MPD2    C313322   1.986   0.623  11.363 -0.7218 -0.7613 -0.2114
  906MPD2    C413323   2.047   0.695  11.470  0.3868  0.2063  0.4086
  906MPD2    C513324   2.117   0.816  11.455  0.4121 -0.1545 -0.1249
  906MPD2     H13325   1.985   0.616  11.151  0.0529  1.4601 -0.7636
  906MPD2    H113326   2.041   0.643  11.565 -0.2607  2.3497  1.5302
  906MPD2    H213327   2.203   0.942  11.307 -0.9491  0.1316  0.9709
  906MPD2    H313328   2.168   0.868  11.535 -0.4473 -0.1188  0.3932
  906MPD2     N13329   1.917   0.502  11.377 -0.3688  0.3185 -0.0372
  906MPD2    H513330   1.891   0.477  11.473 -2.1527  1.2358 -0.2684
  906MPD2    N113331   2.091   0.832  11.082  0.9601 -0.0642 -0.0753
  906MPD2    H713332   2.057   0.769  11.011 -0.4475 -1.0432  1.4775
  907MPD2     C13333   0.234   4.119  15.610  0.6177  0.1865  0.9083
  907MPD2    C113334   0.319   4.012  15.601  0.2455 -1.0243  0.5280
  907MPD2    C213335   0.371   3.964  15.716  0.2178 -0.3965 -0.0982
  907MPD2    C313336   0.341   4.010  15.838  0.0837  0.4313 -0.1331
  907MPD2    C413337   0.263   4.122  15.847  0.0938  0.3863 -0.6525
  907MPD2    C513338   0.211   4.173  15.732  0.4980  0.2908 -0.5500
  907MPD2     H13339   0.435   3.878  15.698 -0.3354 -0.4031 -2.0054
  907MPD2    H113340   0.236   4.167  15.942  1.7991 -1.3686  0.6473
  907MPD2    H213341   0.191   4.166  15.523  0.0008  0.5806  1.4236
  907MPD2    H313342   0.157   4.267  15.739  0.5785  0.1426  1.8573
  907MPD2     N13343   0.385   3.937  15.951 -0.2127  0.4107  0.2102
  907MPD2    H513344   0.445   3.858  15.930  3.6497  3.6090 -0.9478
  907MPD2    N113345   0.342   3.940  15.483  0.7357  0.2729  0.5871
  907MPD2    H713346   0.417   3.870  15.485 -0.6291 -1.2067 -0.8786
  908MPD2     C13347   4.239   0.256   9.716  0.3536  0.1318 -0.7085
  908MPD2    C113348   4.147   0.214   9.809 -0.0889 -0.5959 -0.1740
  908MPD2    C213349   4.114   0.302   9.915  0.7015  0.3740  0.2681
  908MPD2    C313350   4.163   0.429   9.921 -0.3027 -0.9214 -0.5808
  908MPD2    C413351   4.252   0.468   9.826  0.3156  0.1007 -0.0832
  908MPD2    C513352   4.288   0.380   9.726 -0.0356 -0.6631 -0.6757
  908MPD2     H13353   4.041   0.274   9.990 -0.9267 -1.4857 -1.9929
  908MPD2    H113354   4.293   0.566   9.807 -0.7256  0.8582  1.6204
  908MPD2    H213355   4.278   0.199   9.632 -0.8105 -1.8987  0.1215
  908MPD2    H313356   4.353   0.403   9.643  2.1765  1.0163  1.5344
  908MPD2     N13357   4.119   0.521  10.019  0.1189 -0.7647 -0.7065
  908MPD2    H513358   4.048   0.491  10.085 -0.6609  0.4883 -0.9730
  908MPD2    N113359   4.107   0.081   9.802  0.1652  0.4814 -0.0813
  908MPD2    H713360   4.143   0.023   9.727  3.7125  0.5923  1.5184
  909MPD2     C13361   4.190   3.291  11.722 -0.1097  0.6587  0.2493
  909MPD2    C113362   4.173   3.419  11.677  0.2436 -0.2446 -0.2597
  909MPD2    C213363   4.104   3.513  11.756  0.2564  0.5137  0.4621
  909MPD2    C313364   4.056   3.475  11.879  0.4005  0.5964  0.2719
  909MPD2    C413365   4.071   3.350  11.923  0.4094 -0.6774 -0.0168
  909MPD2    C513366   4.143   3.260  11.849  0.2506  0.2203  0.0486
  909MPD2     H13367   4.083   3.614  11.722 -1.2675  0.7221  1.9706
  909MPD2    H113368   4.039   3.328  12.024 -0.8582  0.8685 -0.0819
  909MPD2    H213369   4.245   3.217  11.665  1.5940  1.8228  0.4021
  909MPD2    H313370   4.158   3.159  11.885  1.1587 -0.1487 -1.3429
  909MPD2     N13371   3.992   3.572  11.956  0.1470  0.0628  0.5750
  909MPD2    H513372   3.994   3.667  11.919 -0.4449 -0.4783 -0.8519
  909MPD2    N113373   4.219   3.455  11.553 -0.4198 -0.4048 -0.5431
  909MPD2    H713374   4.190   3.545  11.516  0.1389 -0.2210 -0.5322
  910MPD2     C13375   0.195   0.085  16.500 -0.8637  0.0536 -0.4502
  910MPD2    C113376   0.168   4.698  16.444  0.0550 -0.2660 -0.3227
  910MPD2    C213377   0.135   4.687  16.307 -0.6056  0.4002  0.1565
  910MPD2    C313378   0.137   0.067  16.227  0.1009 -0.3763  0.3022
  910MPD2    C413379   0.164   0.187  16.291 -0.2244  0.5361 -0.8268
  910MPD2    C513380   0.189   0.193  16.423  0.0316  0.9169  0.2464
  910MPD2     H13381   0.113   4.592  16.259  1.2045 -0.8416  1.7606
  910MPD2    H113382   0.138   0.286  16.256  0.6989  0.7739 -0.8394
  910MPD2    H213383   0.217   0.102  16.605  0.3203  0.1655 -0.7113
  910MPD2    H313384   0.190   0.292  16.467 -0.6903  1.4122 -0.8781
  910MPD2     N13385   0.070   0.068  16.098 -0.3244 -0.3878 -1.1675
  910MPD2    H513386   0.074   0.153  16.042  0.8718  1.1709  1.2623
  910MPD2    N113387   0.192   4.581  16.519 -0.2832 -0.3296  0.0679
  910MPD2    H713388   0.196   4.492  16.469 -2.9995 -1.6427  2.2119
  911MPD2     C13389   2.982   0.123  16.544  0.9479 -0.5784 -0.3485
  911MPD2    C113390   3.035   0.241  16.585  0.9114  0.5287 -0.5453
  911MPD2    C213391   2.987   0.359  16.531  0.0789  0.9102  0.6235
  911MPD2    C313392   2.874   0.354  16.454 -0.5005 -0.5040 -0.0851
  911MPD2    C413393   2.817   0.234  16.419  0.6261  0.2251  0.2588
  911MPD2    C513394   2.874   0.119  16.463 -0.2398 -0.7624 -0.0772
  911MPD2     H13395   3.030   0.453  16.563 -0.5807  0.6163  2.3819
  911MPD2    H113396   2.723   0.227  16.366  1.4070 -1.3459 -0.9433
  911MPD2    H213397   3.027   0.032  16.582  1.5516  0.5224  1.5847
  911MPD2    H313398   2.828   0.025  16.436 -1.0735 -0.3398 -0.1550
  911MPD2     N13399   2.828   0.467  16.385  0.4529 -0.0020  0.2295
  911MPD2    H513400   2.743   0.461  16.331  1.9475  2.9194 -2.4795
  911MPD2    N113401   3.164   0.239  16.650 -0.0474  0.0841 -0.2283
  911MPD2    H713402   3.211   0.150  16.659  0.5716  0.4171 -0.1568
  912MPD2     C13403   2.424   0.546  15.775  0.1367 -0.9551  0.1308
  912MPD2    C113404   2.459   0.516  15.901 -0.5927  0.4866 -0.2096
  912MPD2    C213405   2.440   0.386  15.951 -0.2675  1.0457  0.1781
  912MPD2    C313406   2.394   0.290  15.861 -0.0862  0.1129 -0.8748
  912MPD2    C413407   2.351   0.328  15.732  0.4607 -0.1801 -0.3321
  912MPD2    C513408   2.368   0.455  15.689 -0.1748 -0.1683  0.2312
  912MPD2     H13409   2.468   0.349  16.049  0.5726  1.6205  0.1517
  912MPD2    H113410   2.301   0.258  15.666 -1.5266  0.7860  0.1263
  912MPD2    H213411   2.434   0.648  15.741  4.2878 -1.5501 -0.4024
  912MPD2    H313412   2.327   0.478  15.591  0.0589  1.7445  0.5817
  912MPD2     N13413   2.390   0.164  15.909  0.3392 -0.1152  0.2048
  912MPD2    H513414   2.411   0.150  16.007 -0.0218  0.3348  0.3440
  912MPD2    N113415   2.511   0.619  15.985 -0.6884 -0.0587 -0.4276
  912MPD2    H713416   2.532   0.703  15.932  0.2156 -0.6298 -0.9723
  913MPD2     C13417   3.278   2.093  10.394 -0.3213 -0.3612 -0.0171
  913MPD2    C113418   3.366   2.144  10.486  1.1178 -0.1622 -0.4489
  913MPD2    C213419   3.401   2.275  10.482  0.7359  0.5329  1.1345
  913MPD2    C313420   3.330   2.367  10.399 -0.3587  0.1430 -0.1828
  913MPD2    C413421   3.235   2.320  10.315 -0.1493 -0.2851 -0.3096
  913MPD2    C513422   3.210   2.182  10.318  0.3709  0.3897  0.6415
  913MPD2     H13423   3.475   2.304  10.556  2.0014  0.7702 -0.2346
  913MPD2    H113424   3.171   2.377  10.248  0.0775  1.1342  0.6768
  913MPD2    H213425   3.252   1.988  10.394 -0.2342 -0.3829  0.1034
  913MPD2    H313426   3.124   2.149  10.260  0.3329 -0.3953  1.1560
  913MPD2     N13427   3.343   2.501  10.390  0.3827  0.2944  0.2878
  913MPD2    H513428   3.299   2.549  10.312 -0.6026 -0.3244  0.4685
  913MPD2    N113429   3.430   2.049  10.565 -0.2414  0.1979  0.0187
  913MPD2    H713430   3.431   1.952  10.535  0.0310  0.2985 -0.2930
  914MPD2     C13431   2.081   1.877  13.110  0.3470 -0.3042 -0.2174
  914MPD2    C113432   1.959   1.946  13.120  0.7551  0.1727 -0.5093
  914MPD2    C213433   1.875   1.917  13.225  0.6497 -0.4339  0.3268
  914MPD2    C313434   1.895   1.813  13.310  0.2016 -0.4403 -0.0550
  914MPD2    C413435   2.009   1.739  13.291 -0.3322  0.3839  1.0135
  914MPD2    C513436   2.096   1.769  13.192  0.1044  0.4881 -0.1516
  914MPD2     H13437   1.779   1.966  13.237  0.0638 -1.3245 -0.7280
  914MPD2    H113438   2.039   1.661  13.360  0.4626  0.4291  0.7187
  914MPD2    H213439   2.154   1.898  13.032  0.3700 -0.1818 -0.1634
  914MPD2    H313440   2.189   1.715  13.181  0.1427  0.2609  1.2057
  914MPD2     N13441   1.804   1.799  13.411 -0.1773 -1.0723 -0.4922
  914MPD2    H513442   1.724   1.862  13.410 -0.7610 -1.8034  1.4015
  914MPD2    N113443   1.933   2.039  13.018  0.0399 -0.1682  0.0548
  914MPD2    H713444   2.006   2.053  12.950 -0.2177 -2.3923 -0.6638
  915MPD2     C13445   3.896   1.423  15.589 -0.3230  0.1496  0.5703
  915MPD2    C113446   3.812   1.529  15.557  1.3664  0.7205  1.0617
  915MPD2    C213447   3.757   1.610  15.653  0.1920 -0.3620 -0.1474
  915MPD2    C313448   3.789   1.596  15.791  0.3096 -0.8334 -0.0313
  915MPD2    C413449   3.883   1.503  15.819 -0.3043 -0.9201  0.4511
  915MPD2    C513450   3.932   1.420  15.722  0.7522 -0.6013 -0.3864
  915MPD2     H13451   3.694   1.690  15.616  0.7892  0.6080  0.9504
  915MPD2    H113452   3.939   1.507  15.912  0.6985  0.1645 -0.1873
  915MPD2    H213453   3.928   1.347  15.518 -0.7918  1.9475 -1.5892
  915MPD2    H313454   4.018   1.356  15.742  3.0190  3.0552  1.5083
  915MPD2     N13455   3.732   1.683  15.885  0.0174  0.2127  0.3873
  915MPD2    H513456   3.668   1.758  15.858  0.2559  0.3723  0.2607
  915MPD2    N113457   3.774   1.539  15.418  0.2527  0.4828 -0.1785
  915MPD2    H713458   3.802   1.460  15.360  0.5760 -1.7204  2.9692
  916MPD2     C13459   2.023   0.315  16.043  0.5335 -0.4555  0.2766
  916MPD2    C113460   1.986   0.185  16.061  0.6114 -0.1948  0.0427
  916MPD2    C213461   1.977   0.097  15.957  0.0355 -0.7375 -0.4921
  916MPD2    C313462   2.008   0.139  15.831 -0.3979  1.1612 -0.1879
  916MPD2    C413463   2.045   0.271  15.808  0.8665  0.6926 -0.1693
  916MPD2    C513464   2.043   0.356  15.916 -0.3136 -0.6852  0.3964
  916MPD2     H13465   1.959   4.727  15.974 -1.8960  0.4091  4.5464
  916MPD2    H113466   2.080   0.305  15.711  2.1374  0.0089  0.0454
  916MPD2    H213467   2.025   0.377  16.132 -1.0783  1.5586 -1.0916
  916MPD2    H313468   2.070   0.458  15.888  0.0189 -0.9991 -0.4154
  916MPD2     N13469   2.006   0.043  15.730 -0.9213 -0.0541  0.2835
  916MPD2    H513470   1.955   4.693  15.748 -0.8022  0.5789  3.6177
  916MPD2    N113471   1.942   0.159  16.197 -0.2866 -0.3827  1.1147
  916MPD2    H713472   1.931   0.234  16.264 -0.7619 -1.3313  2.0931
  917MPD2     C13473   3.193   2.676  12.013 -0.5136 -0.2194 -0.1779
  917MPD2    C113474   3.084   2.688  11.932  0.4273 -0.6066  0.5027
  917MPD2    C213475   3.104   2.726  11.805 -0.7146 -0.6074 -0.3416
  917MPD2    C313476   3.223   2.777  11.760 -0.9194 -0.4989  0.2275
  917MPD2    C413477   3.334   2.773  11.842  1.1176 -0.1168  0.7750
  917MPD2    C513478   3.314   2.715  11.965 -0.5945  0.0467 -0.0210
  917MPD2     H13479   3.022   2.723  11.733 -1.7456 -0.1545  0.8132
  917MPD2    H113480   3.431   2.803  11.806  1.4950 -2.5545 -0.2639
  917MPD2    H213481   3.196   2.634  12.113  2.0896  2.6062  0.9372
  917MPD2    H313482   3.398   2.711  12.034  0.5532 -0.4639 -1.4562
  917MPD2     N13483   3.241   2.825  11.625 -0.2036 -0.1750 -0.3132
  917MPD2    H513484   3.333   2.864  11.608  0.2812 -0.9112  0.5951
  917MPD2    N113485   2.953   2.672  11.981  0.1315  0.2539 -0.8924
  917MPD2    H713486   2.940   2.663  12.081  2.1244  0.0662 -0.6425
  918MPD2     C13487   2.830   3.185  12.598 -0.7397 -0.0096 -0.0126
  918MPD2    C113488   2.923   3.131  12.520  0.4951  0.4764 -0.2298
  918MPD2    C213489   2.883   3.046  12.425  0.0152  0.6224 -0.3040
  918MPD2    C313490   2.759   2.998  12.410  0.3703  0.1282 -0.3133
  918MPD2    C413491   2.661   3.058  12.487 -0.0312 -0.0633 -0.6138
  918MPD2    C513492   2.698   3.154  12.573  0.9163 -0.3757  1.1042
  918MPD2     H13493   2.963   2.991  12.376 -1.0988 -0.8243 -0.4737
  918MPD2    H113494   2.556   3.029  12.489 -0.1317  0.2764 -0.8854
  918MPD2    H213495   2.849   3.241  12.689  3.1160  0.4449 -1.0908
  918MPD2    H313496   2.630   3.196  12.645 -0.4124 -0.8058  0.0978
  918MPD2     N13497   2.723   2.900  12.311  0.2183  0.0203 -0.0386
  918MPD2    H513498   2.805   2.863  12.262 -0.8511 -0.8856 -1.1500
  918MPD2    N113499   3.064   3.141  12.541  0.1835 -0.7115 -0.6051
  918MPD2    H713500   3.125   3.093  12.475 -0.9617 -0.6191 -1.7269
  919MPD2     C13501   3.357   2.054  11.359  0.2275 -0.5989 -0.0272
  919MPD2    C113502   3.326   1.953  11.273 -0.1296  0.3382 -0.4383
  919MPD2    C213503   3.291   1.980  11.144 -0.2138  0.4647 -0.1800
  919MPD2    C313504   3.274   2.115  11.103  0.0095  0.4641  0.2117
  919MPD2    C413505   3.293   2.217  11.189  0.6054 -0.0453 -0.1646
  919MPD2    C513506   3.342   2.182  11.312 -0.0574  0.2517  0.2161
  919MPD2     H13507   3.282   1.898  11.073 -2.0415  0.7901 -0.3160
  919MPD2    H113508   3.267   2.318  11.159 -1.9528 -1.1180 -1.5838
  919MPD2    H213509   3.392   2.039  11.461  3.1241 -0.9391 -1.0770
  919MPD2    H313510   3.353   2.263  11.384  0.6610  1.1312 -0.8917
  919MPD2     N13511   3.229   2.151  10.974 -0.1453  0.5108  0.2769
  919MPD2    H513512   3.221   2.251  10.958  1.3947  0.2777 -2.0207
  919MPD2    N113513   3.356   1.817  11.301  0.0920 -0.2057 -0.3159
  919MPD2    H713514   3.345   1.746  11.229 -1.2623  0.7846 -1.0860
  920MPD2     C13515   2.887   2.917  10.508  0.8687  0.3082  0.7221
  920MPD2    C113516   2.801   2.825  10.451 -0.7589 -0.4313  0.4196
  920MPD2    C213517   2.840   2.687  10.450  0.0342 -0.2380  0.3416
  920MPD2    C313518   2.959   2.649  10.516 -0.6772 -0.6074  0.4903
  920MPD2    C413519   3.027   2.748  10.594 -0.3054 -0.7441 -0.6237
  920MPD2    C513520   3.004   2.876  10.567  0.1565  0.1201  0.0035
  920MPD2     H13521   2.774   2.610  10.412  0.6322  0.3201 -1.8290
  920MPD2    H113522   3.117   2.726  10.650 -0.2199 -0.6572 -0.7261
  920MPD2    H213523   2.876   3.022  10.484 -3.1471  0.2203  2.0873
  920MPD2    H313524   3.080   2.944  10.603  0.6506 -1.3674  1.7513
  920MPD2     N13525   2.986   2.512  10.535  0.4106  0.2555 -0.1659
  920MPD2    H513526   2.935   2.446  10.478 -1.5972  2.0674 -0.4613
  920MPD2    N113527   2.675   2.864  10.392  0.1294 -0.2187  0.0499
  920MPD2    H713528   2.611   2.787  10.371  1.6295 -1.2256 -0.8811
  921MPD2     C13529   4.055   0.695  17.121 -0.1412 -0.6337 -0.9039
  921MPD2    C113530   4.066   0.688  16.983 -0.0800 -0.0667 -0.4069
  921MPD2    C213531   3.964   0.617  16.921  0.6270  0.2416  1.2808
  921MPD2    C313532   3.851   0.575  16.987  0.3626 -0.2544  0.1505
  921MPD2    C413533   3.848   0.588  17.131 -0.5899 -0.2962 -0.6060
  921MPD2    C513534   3.948   0.652  17.191  0.2686  0.1817  0.0233
  921MPD2     H13535   3.968   0.584  16.818  0.6912  1.3306  0.9263
  921MPD2    H113536   3.769   0.546  17.192 -1.1186  0.8030 -0.5361
  921MPD2    H213537   4.126   0.745  17.185  0.8384 -1.7969 -1.0967
  921MPD2    H313538   3.929   0.685  17.293 -2.0530 -0.6000 -0.1450
  921MPD2     N13539   3.761   0.499  16.906 -0.1897 -0.2950 -0.0913
  921MPD2    H513540   3.795   0.485  16.812 -0.4391  0.6560 -0.3173
  921MPD2    N113541   4.185   0.737  16.920 -0.2409 -0.0159  0.1124
  921MPD2    H713542   4.252   0.790  16.975  1.1478 -1.1915 -0.4371
  922MPD2     C13543   4.551   3.308  17.143  0.1663  0.0249  0.7534
  922MPD2    C113544   4.529   3.318  17.272  0.0556 -0.7063 -0.1956
  922MPD2    C213545   4.457   3.218  17.339  0.7504 -0.5359 -0.4819
  922MPD2    C313546   4.413   3.113  17.270  0.0157  0.1047 -0.2501
  922MPD2    C413547   4.444   3.102  17.132  0.1486  0.1997 -0.9272
  922MPD2    C513548   4.510   3.196  17.070  0.6559  0.0416 -0.2500
  922MPD2     H13549   4.448   3.226  17.446 -0.6115  1.8433 -0.7900
  922MPD2    H113550   4.433   3.010  17.075  1.0260  0.5445 -1.6528
  922MPD2    H213551   4.594   3.389  17.084 -0.1627 -1.1022 -1.0296
  922MPD2    H313552   4.531   3.195  16.964  2.9661 -0.7815  0.2156
  922MPD2     N13553   4.336   3.013  17.341  0.0407 -0.6849 -0.0629
  922MPD2    H513554   4.321   3.033  17.439 -1.4399 -2.0173 -0.0184
  922MPD2    N113555   4.579   3.432  17.350 -0.0162  0.6710  1.0742
  922MPD2    H713556   4.571   3.422  17.451  0.7509 -0.9692  0.9657
  923MPD2     C13557   1.517   0.851   8.758  0.1931  0.3228 -0.3074
  923MPD2    C113558   1.564   0.945   8.839 -0.0533  0.4810  0.2292
  923MPD2    C213559   1.659   0.905   8.933 -0.2410 -0.7242 -0.0719
  923MPD2    C313560   1.706   0.771   8.941 -0.2844  0.0110 -0.7355
  923MPD2    C413561   1.644   0.672   8.864  0.0066 -0.4049 -0.1203
  923MPD2    C513562   1.551   0.717   8.774  0.4132  0.0069 -0.3306
  923MPD2     H13563   1.688   0.983   9.002  1.0273  1.2670 -2.8386
  923MPD2    H113564   1.664   0.566   8.871 -1.6655 -0.8577 -1.9834
  923MPD2    H213565   1.445   0.865   8.678 -1.2936 -0.7972  0.8242
  923MPD2    H313566   1.511   0.658   8.692  1.0721 -1.9641  0.7608
  923MPD2     N13567   1.811   0.725   9.026  0.2980  0.2943 -0.0996
  923MPD2    H513568   1.833   0.627   9.043  0.6887  0.3178 -0.4622
  923MPD2    N113569   1.515   1.074   8.832 -0.1272  0.0453 -0.0671
  923MPD2    H713570   1.428   1.090   8.782  0.4450  0.0694 -1.0654
  924MPD2     C13571   0.260   3.110  16.158 -0.1056  0.0004  0.6395
  924MPD2    C113572   0.277   3.191  16.268  0.1927  0.4728 -0.4763
  924MPD2    C213573   0.348   3.306  16.257 -0.8553  0.3060 -0.2592
  924MPD2    C313574   0.408   3.343  16.135  0.6058 -0.0842 -0.5228
  924MPD2    C413575   0.391   3.265  16.028 -0.7047  0.2396 -0.2327
  924MPD2    C513576   0.323   3.147  16.039 -0.1826  0.2785  0.6055
  924MPD2     H13577   0.349   3.377  16.339  0.8389  1.5490 -1.3474
  924MPD2    H113578   0.435   3.285  15.931  1.8632  1.9145  1.2736
  924MPD2    H213579   0.207   3.016  16.150  2.0446 -1.0741 -1.1888
  924MPD2    H313580   0.315   3.087  15.949 -1.6685  1.8542 -0.3357
  924MPD2     N13581   0.476   3.469  16.121  0.1576 -1.0418 -0.0849
  924MPD2    H513582   0.487   3.509  16.028  1.2094  0.5924  0.7495
  924MPD2    N113583   0.220   3.148  16.389  0.2391 -0.1243 -0.0281
  924MPD2    H713584   0.154   3.071  16.389 -1.2386  1.1137  2.4597
  925MPD2     C13585   0.357   1.249  14.862  0.5467 -0.1835  0.1840
  925MPD2    C113586   0.219   1.230  14.853  0.0420 -0.8636  0.2776
  925MPD2    C213587   0.144   1.195  14.968  0.1502 -0.4903 -0.6424
  925MPD2    C313588   0.202   1.179  15.095 -0.1826 -0.3730 -0.9979
  925MPD2    C413589   0.339   1.190  15.097  0.1493  0.3534 -0.6337
  925MPD2    C513590   0.414   1.213  14.984  0.4122  0.8036 -0.1032
  925MPD2     H13591   0.036   1.192  14.953  0.0886  0.1039 -0.3358
  925MPD2    H113592   0.391   1.188  15.191 -1.6329  2.0070  0.3758
  925MPD2    H213593   0.410   1.266  14.769  0.0147 -0.2688 -0.1360
  925MPD2    H313594   0.522   1.212  14.998  0.4696 -1.3435 -0.7569
  925MPD2     N13595   0.135   1.170  15.220 -0.2708 -0.1119 -0.2797
  925MPD2    H513596   0.201   1.191  15.295 -1.4753 -0.8548  0.9811
  925MPD2    N113597   0.145   1.232  14.725  0.5914  0.3685  0.0502
  925MPD2    H713598   0.044   1.228  14.721  0.8095 -2.3868 -2.4459
  926MPD2     C13599   3.147   4.623  13.591  0.0382 -0.0160 -0.7523
  926MPD2    C113600   3.144   0.012  13.636  1.4279 -0.6582 -0.1424
  926MPD2    C213601   3.164   0.116  13.546 -0.2058 -0.3201 -0.2757
  926MPD2    C313602   3.190   0.099  13.412  1.1091 -0.4882 -0.1974
  926MPD2    C413603   3.199   4.710  13.373 -0.2892 -0.2191  0.4209
  926MPD2    C513604   3.176   4.599  13.458  0.6707 -0.2491  0.0759
  926MPD2     H13605   3.177   0.216  13.588  0.6508 -0.8754  0.7752
  926MPD2    H113606   3.221   4.686  13.270 -0.9697  0.7045  0.0649
  926MPD2    H213607   3.120   4.541  13.656 -0.5918  0.7136 -0.0858
  926MPD2    H313608   3.180   4.499  13.415  0.4681 -0.6005  0.8729
  926MPD2     N13609   3.203   0.200  13.317  0.1668 -0.0262  0.0562
  926MPD2    H513610   3.237   0.183  13.223  0.9347 -2.4566  0.7724
  926MPD2    N113611   3.113   0.047  13.769 -0.9393  0.1807  0.3088
  926MPD2    H713612   3.084   0.143  13.788  1.1295  0.4135  2.3625
  927MPD2     C13613   3.014   1.308  17.684 -0.3736  0.1887  0.3997
  927MPD2    C113614   2.995   1.445  17.703 -0.1030 -0.4485  0.0217
  927MPD2    C213615   3.034   1.529  17.596 -0.1672  0.5484  0.2313
  927MPD2    C313616   3.097   1.483  17.482 -0.4969  0.4297  0.6797
  927MPD2    C413617   3.129   1.345  17.471  0.5817  0.3751  0.4953
  927MPD2    C513618   3.070   1.257  17.564  0.7579 -0.3064  0.7381
  927MPD2     H13619   3.021   1.637  17.599  1.1926  0.6384  2.4054
  927MPD2    H113620   3.163   1.304  17.376 -1.0656  2.9808 -1.2146
  927MPD2    H213621   2.974   1.233   0.008  1.6306 -0.9928  0.2493
  927MPD2    H313622   3.064   1.150  17.547  0.0176  0.0423 -1.1206
  927MPD2     N13623   3.124   1.580  17.383  0.3299 -0.2856 -0.3121
  927MPD2    H513624   3.111   1.671  17.425  0.5036  0.0577 -1.0046
  927MPD2    N113625   2.917   1.482   0.077  0.0223 -0.1085  0.3041
  927MPD2    H713626   2.908   1.405   0.142 -1.8506 -0.2576 -0.1467
  928MPD2     C13627   0.830   0.462   1.207 -0.7041 -0.4047  0.2014
  928MPD2    C113628   0.944   0.486   1.277 -0.3471  0.0990  0.5869
  928MPD2    C213629   1.063   0.427   1.239 -0.3848  0.2917  0.9650
  928MPD2    C313630   1.072   0.338   1.134 -0.1630 -0.2975 -0.0116
  928MPD2    C413631   0.951   0.310   1.069  0.3272 -0.2943 -0.1997
  928MPD2    C513632   0.837   0.371   1.103  0.2699  0.7430  0.0111
  928MPD2     H13633   1.149   0.448   1.301  0.1965  0.3641  0.1195
  928MPD2    H113634   0.939   0.243   0.985  1.2682 -0.1057 -0.4819
  928MPD2    H213635   0.739   0.518   1.226  0.1606  0.8371  0.6994
  928MPD2    H313636   0.751   0.345   1.044  2.3491 -1.0074 -2.2498
  928MPD2     N13637   1.195   0.280   1.084 -0.1323  0.2048 -0.1176
  928MPD2    H513638   1.186   0.219   1.003 -1.4110  0.7664 -0.4023
  928MPD2    N113639   0.942   0.568   1.394  0.0475  0.4304  0.0594
  928MPD2    H713640   0.869   0.639   1.400 -1.0893 -0.7767  0.5468
  929MPD2     C13641   1.777   1.007  10.031  0.4130  0.2126  0.0143
  929MPD2    C113642   1.713   0.884  10.023  0.0320 -0.3027 -0.2413
  929MPD2    C213643   1.655   0.831   9.912  1.0177  0.0245  0.5598
  929MPD2    C313644   1.634   0.912   9.804 -0.6069  0.0889 -0.6899
  929MPD2    C413645   1.707   1.034   9.800 -0.5027  0.0641 -0.2523
  929MPD2    C513646   1.779   1.078   9.913  0.0294 -0.3405  0.3583
  929MPD2     H13647   1.593   0.743   9.927  0.1771  0.8070  1.6111
  929MPD2    H113648   1.696   1.096   9.711  1.0780  0.0555 -0.4542
  929MPD2    H213649   1.811   1.052  10.124  1.4600 -0.1317 -0.2083
  929MPD2    H313650   1.817   1.180   9.911  2.0397 -1.0820  2.1867
  929MPD2     N13651   1.535   0.890   9.706 -0.1294 -0.5974  0.3315
  929MPD2    H513652   1.531   0.960   9.633 -0.4631 -1.0757 -0.1104
  929MPD2    N113653   1.677   0.811  10.145 -0.2620  0.3698  0.1670
  929MPD2    H713654   1.645   0.716  10.132  0.3531  0.3926 -1.5684
  930MPD2     C13655   3.591   2.277  13.960 -0.2240  0.4909  0.0744
  930MPD2    C113656   3.599   2.416  13.938 -0.0357  0.2581 -0.4551
  930MPD2    C213657   3.616   2.461  13.807 -0.1067 -0.8033  0.0149
  930MPD2    C313658   3.630   2.374  13.702 -0.0236  0.1913  0.2558
  930MPD2    C413659   3.618   2.241  13.732 -0.3853 -0.7754 -0.3403
  930MPD2    C513660   3.603   2.189  13.858 -1.2937  0.3449 -0.3783
  930MPD2     H13661   3.618   2.569  13.800  1.0628 -0.8388 -0.1759
  930MPD2    H113662   3.624   2.165  13.655 -0.9996 -2.7031  1.5308
  930MPD2    H213663   3.579   2.243  14.063 -1.0086 -2.4630 -0.9920
  930MPD2    H313664   3.602   2.082  13.874 -0.9361  0.7029  1.9458
  930MPD2     N13665   3.646   2.421  13.568 -0.3177 -0.3221 -0.0361
  930MPD2    H513666   3.649   2.352  13.494  1.1312 -0.2770 -0.0121
  930MPD2    N113667   3.581   2.524  14.030  0.4765 -0.7984  0.2588
  930MPD2    H713668   3.625   2.614  14.016 -2.3523  0.4296 -0.7147
  931MPD2     C13669   2.845   1.172   0.654 -0.6062 -0.3872  0.1316
  931MPD2    C113670   2.836   1.311   0.662 -0.1930 -0.1315  0.1172
  931MPD2    C213671   2.888   1.372   0.769 -0.0621  0.3201 -0.0653
  931MPD2    C313672   2.919   1.302   0.883 -0.6615 -0.6278 -1.0945
  931MPD2    C413673   2.917   1.161   0.881  0.0155  0.6194 -0.5102
  931MPD2    C513674   2.873   1.100   0.765  0.4295 -0.0546 -0.1367
  931MPD2     H13675   2.903   1.479   0.770 -0.4830  0.3620  3.6051
  931MPD2    H113676   2.946   1.090   0.958  1.3174  0.1106 -1.4641
  931MPD2    H213677   2.819   1.115   0.566  1.3016  1.1555 -1.4229
  931MPD2    H313678   2.876   0.992   0.765 -1.4454 -0.1086  0.2993
  931MPD2     N13679   2.950   1.376   0.994 -0.1687  0.3554  0.0756
  931MPD2    H513680   2.979   1.471   0.971 -0.3921  0.3513 -0.2172
  931MPD2    N113681   2.791   1.386   0.553 -0.1979  0.0903  0.3926
  931MPD2    H713682   2.778   1.331   0.469 -1.1600  1.3103 -0.2424
  932MPD2     C13683   4.616   1.353  11.274  0.2736  0.1323  0.6177
  932MPD2    C113684   0.020   1.342  11.232 -0.1238  0.9633 -0.4539
  932MPD2    C213685   0.077   1.221  11.242 -0.1406  0.3656  0.5060
  932MPD2    C313686   0.011   1.112  11.299 -0.0245  0.3696 -0.3198
  932MPD2    C413687   4.613   1.128  11.342  0.7420  1.1177 -0.3389
  932MPD2    C513688   4.550   1.249  11.330  0.1447 -0.2973  0.3934
  932MPD2     H13689   0.183   1.210  11.223 -0.3575 -0.1172 -0.4574
  932MPD2    H113690   4.555   1.049  11.387 -2.7075  1.6583 -3.8434
  932MPD2    H213691   4.567   1.449  11.262 -2.5695 -1.5256 -1.0882
  932MPD2    H313692   4.448   1.260  11.364  0.5597 -0.6955  1.7764
  932MPD2     N13693   0.082   0.995  11.330 -0.4245  0.1972 -0.0242
  932MPD2    H513694   0.041   0.932  11.399 -0.3431 -0.7461 -0.8443
  932MPD2    N113695   0.095   1.454  11.194  0.2120 -0.2945  0.4147
  932MPD2    H713696   0.193   1.439  11.169  0.4805  0.4845  1.0034
  933MPD2     C13697   0.679   1.139   1.319  0.6712 -0.2235  0.3350
  933MPD2    C113698   0.786   1.171   1.405  0.5104 -0.5171 -0.7245
  933MPD2    C213699   0.791   1.298   1.459 -0.4643 -0.2818 -1.1298
  933MPD2    C313700   0.697   1.393   1.425 -1.1382  0.7536 -0.9360
  933MPD2    C413701   0.592   1.354   1.339 -0.1850  0.3113 -0.4340
  933MPD2    C513702   0.583   1.230   1.283 -0.0097 -0.3519 -0.2149
  933MPD2     H13703   0.869   1.322   1.530 -4.9046  1.2814  3.1758
  933MPD2    H113704   0.522   1.430   1.306  1.2353  2.9665  2.6332
  933MPD2    H213705   0.669   1.037   1.285 -2.3374 -0.2356  1.2200
  933MPD2    H313706   0.499   1.195   1.224  0.4725 -0.8475 -0.6032
  933MPD2     N13707   0.702   1.522   1.483  0.0043 -0.1929 -0.0025
  933MPD2    H513708   0.786   1.543   1.535 -0.3289 -3.8331  2.0096
  933MPD2    N113709   0.859   1.054   1.453 -0.5315 -0.0324  0.0053
  933MPD2    H713710   0.823   0.963   1.424  1.3488 -1.2136  1.3324
  934MPD2     C13711   2.214   2.812   2.087 -0.1068  0.2799  0.4508
  934MPD2    C113712   2.275   2.712   2.020  0.2864 -0.0034  0.1777
  934MPD2    C213713   2.203   2.634   1.933  0.0319 -0.5309  0.3512
  934MPD2    C313714   2.077   2.666   1.901 -0.2458  0.4597  0.5774
  934MPD2    C413715   2.020   2.764   1.970 -0.4076  0.1610  0.1628
  934MPD2    C513716   2.084   2.833   2.062  0.3719 -0.0880  0.1179
  934MPD2     H13717   2.251   2.547   1.888 -0.9702 -0.4764 -0.8398
  934MPD2    H113718   1.920   2.794   1.942 -0.8052 -0.8368  0.5302
  934MPD2    H213719   2.251   2.869   2.172  1.3383  1.2504 -0.8491
  934MPD2    H313720   2.030   2.917   2.104  0.0416  0.2864 -1.0349
  934MPD2     N13721   2.002   2.599   1.802  0.2987 -0.1096 -0.0860
  934MPD2    H513722   1.902   2.614   1.794  0.3028  0.1733  0.3767
  934MPD2    N113723   2.413   2.692   2.040  0.0572  0.8394 -0.0097
  934MPD2    H713724   2.456   2.612   1.995  1.8868  1.9797 -0.2836
  935MPD2     C13725   2.370   1.856   1.331  0.1026 -0.7282  0.6027
  935MPD2    C113726   2.274   1.887   1.237  0.0978 -0.1991  1.0117
  935MPD2    C213727   2.184   1.990   1.261 -0.3983  0.4261  0.0112
  935MPD2    C313728   2.190   2.060   1.385  0.1685  0.3659  0.0687
  935MPD2    C413729   2.291   2.029   1.473 -0.6413 -0.0887 -0.4031
  935MPD2    C513730   2.377   1.929   1.441  0.7537 -0.1937  0.0727
  935MPD2     H13731   2.108   2.002   1.186 -0.8260 -3.5004 -0.2135
  935MPD2    H113732   2.309   2.082   1.566 -1.5605  0.9475 -0.8104
  935MPD2    H213733   2.447   1.779   1.325  1.8021  0.9663  0.6240
  935MPD2    H313734   2.451   1.902   1.515  0.8845 -1.0686 -0.3799
  935MPD2     N13735   2.095   2.158   1.422  0.9456  0.2241 -0.4165
  935MPD2    H513736   2.123   2.198   1.511  0.2716 -1.7141  0.6519
  935MPD2    N113737   2.254   1.818   1.119 -0.2573  0.3373 -0.1670
  935MPD2    H713738   2.185   1.859   1.057 -1.2010 -0.0019  0.6664
  936MPD2     C13739   0.012   4.652  12.220  0.1834 -0.3252 -0.2731
  936MPD2    C113740   0.119   4.656  12.304 -1.1810 -0.1521  0.7915
  936MPD2    C213741   0.244   4.693  12.250  0.0903 -0.0588 -0.7491
  936MPD2    C313742   0.257   4.692  12.113  0.5237 -0.4396  0.3414
  936MPD2    C413743   0.151   4.689  12.028  0.4880  0.0877 -0.3049
  936MPD2    C513744   0.028   4.667  12.085  0.2881  0.1895  1.0447
  936MPD2     H13745   0.323   4.701  12.323  1.1516 -1.0856 -1.7756
  936MPD2    H113746   0.150   4.679  11.920  0.2920 -1.2927 -0.1745
  936MPD2    H213747   4.652   4.625  12.263 -0.0328 -1.2279 -1.3036
  936MPD2    H313748   4.678   4.649  12.021  0.3924  1.5561  0.5335
  936MPD2     N13749   0.386   4.678  12.053 -0.2830  0.7178 -0.4770
  936MPD2    H513750   0.391   4.637  11.961  2.8014 -1.1370  0.5108
  936MPD2    N113751   0.108   4.619  12.438  0.1598  0.4456 -0.7425
  936MPD2    H713752   0.199   4.615  12.482 -0.2112 -1.1774 -0.1246
  937MPD2     C13753   3.579   1.270  10.950 -0.0000  0.2275 -0.0819
  937MPD2    C113754   3.627   1.371  11.027  0.6813 -0.6013 -0.4132
  937MPD2    C213755   3.722   1.458  10.975  0.1574  0.0832 -0.7250
  937MPD2    C313756   3.766   1.444  10.848 -0.2687  0.4503  0.7496
  937MPD2    C413757   3.710   1.346  10.768 -0.0742  0.5364  0.1231
  937MPD2    C513758   3.621   1.257  10.820  0.5164  0.1545 -0.2011
  937MPD2     H13759   3.765   1.540  11.032  0.7028 -0.1910 -0.7441
  937MPD2    H113760   3.728   1.335  10.662  1.1782 -0.7323  0.4675
  937MPD2    H213761   3.510   1.195  10.986  0.4088  0.3921  1.0414
  937MPD2    H313762   3.576   1.183  10.755  1.7658 -0.5908 -0.2190
  937MPD2     N13763   3.848   1.546  10.799  0.3574 -0.0157  0.1836
  937MPD2    H513764   3.906   1.595  10.867 -2.1444  0.4508  1.9683
  937MPD2    N113765   3.566   1.409  11.150  0.0819  0.2970 -0.4871
  937MPD2    H713766   3.610   1.489  11.195  2.2720 -1.6117  0.7136
  938MPD2     C13767   1.145   1.794   0.991  0.2827  0.2537  0.2409
  938MPD2    C113768   1.161   1.931   1.005  0.4546  0.2301 -0.0417
  938MPD2    C213769   1.172   1.982   1.131 -0.2015  0.6065  0.6020
  938MPD2    C313770   1.153   1.904   1.247 -0.1062  0.3311 -0.3851
  938MPD2    C413771   1.137   1.768   1.229  0.6563 -1.0272 -0.3036
  938MPD2    C513772   1.140   1.717   1.104 -0.6847 -0.1713 -0.6389
  938MPD2     H13773   1.195   2.088   1.131  2.0152  0.1359  0.7705
  938MPD2    H113774   1.133   1.700   1.314  0.2953 -1.7611 -0.9093
  938MPD2    H213775   1.139   1.750   0.892  0.7641  2.2998 -0.7017
  938MPD2    H313776   1.131   1.609   1.102  0.2785 -0.2811  1.2488
  938MPD2     N13777   1.182   1.948   1.377 -0.5503  0.1148  0.8954
  938MPD2    H513778   1.204   1.874   1.442 -0.1067  0.6122  1.3112
  938MPD2    N113779   1.176   2.015   0.892 -0.2762  0.1818  0.0616
  938MPD2    H713780   1.189   2.111   0.923 -1.6091  0.6065 -0.6817
  939MPD2     C13781   2.934   2.752   0.281  0.3486 -0.0906 -0.6661
  939MPD2    C113782   2.864   2.863   0.238 -0.1115  0.1687 -0.6844
  939MPD2    C213783   2.889   2.908   0.109  0.0193 -0.4969  0.8030
  939MPD2    C313784   2.984   2.848   0.028  0.2763  0.2106 -0.0923
  939MPD2    C413785   3.037   2.727   0.065  0.2327  0.8133  0.0959
  939MPD2    C513786   3.008   2.685   0.190  0.9568  0.4953  0.1335
  939MPD2     H13787   2.840   2.997   0.073  0.5270  0.1537  1.7317
  939MPD2    H113788   3.112   2.672   0.010  0.7927  0.6002  1.0668
  939MPD2    H213789   2.917   2.707   0.379  2.1868  1.2386  0.2635
  939MPD2    H313790   3.050   2.590   0.222 -3.6730 -1.3492  0.7261
  939MPD2     N13791   3.016   2.920  17.649  0.1345  0.2063 -0.6426
  939MPD2    H513792   2.980   3.015  17.646  1.6254  0.8466  1.4510
  939MPD2    N113793   2.766   2.914   0.328  0.4433 -0.1046  0.0995
  939MPD2    H713794   2.776   2.873   0.420  3.5717 -1.6097 -0.8740
  940MPD2     C13795   1.204   3.795  13.093  0.1574 -0.1544 -0.4636
  940MPD2    C113796   1.332   3.831  13.095 -0.0400  0.3691 -0.3540
  940MPD2    C213797   1.390   3.899  12.987  0.2486 -0.3515 -0.6349
  940MPD2    C313798   1.318   3.912  12.870  0.6376 -0.5024  0.4360
  940MPD2    C413799   1.189   3.867  12.868 -0.0674 -0.1768 -0.9384
  940MPD2    C513800   1.130   3.805  12.977  0.4780  1.1923  0.4317
  940MPD2     H13801   1.497   3.917  12.989  0.5044 -2.2017  1.7686
  940MPD2    H113802   1.132   3.886  12.778 -0.5765 -2.4679 -1.0972
  940MPD2    H213803   1.140   3.758  13.172 -2.9685  0.5331 -2.6518
  940MPD2    H313804   1.026   3.777  12.974  1.0659 -1.1083  1.9513
  940MPD2     N13805   1.372   3.965  12.751 -0.7753 -0.3957  1.2371
  940MPD2    H513806   1.313   3.979  12.669 -0.4550 -0.0532  1.0636
  940MPD2    N113807   1.419   3.799  13.205 -0.2132 -0.4410 -0.0734
  940MPD2    H713808   1.511   3.842  13.201  0.6516 -2.4878 -1.8665
  941MPD2     C13809   1.249   3.564   9.471  0.2833  0.1418  0.1091
  941MPD2    C113810   1.170   3.635   9.564  0.3108 -0.8194 -0.4445
  941MPD2    C213811   1.049   3.586   9.593  0.5172 -1.1737  0.6924
  941MPD2    C313812   0.993   3.476   9.536 -0.2884  0.3194 -0.3827
  941MPD2    C413813   1.063   3.413   9.431  0.0692 -0.6418  0.7242
  941MPD2    C513814   1.192   3.458   9.408  0.4080  0.4572 -0.8122
  941MPD2     H13815   0.997   3.643   9.670 -0.6858 -1.9378  0.4289
  941MPD2    H113816   1.027   3.323   9.383  0.8174 -2.1169  2.9406
  941MPD2    H213817   1.347   3.595   9.438  0.5195  0.6403  1.2728
  941MPD2    H313818   1.255   3.403   9.338  0.9589  0.3499 -0.2309
  941MPD2     N13819   0.871   3.429   9.586 -0.4732 -0.2608 -0.4412
  941MPD2    H513820   0.836   3.348   9.535 -0.2779 -1.2576  1.0123
  941MPD2    N113821   1.208   3.756   9.630  0.3080 -0.2393 -0.0465
  941MPD2    H713822   1.139   3.803   9.688  1.7708  1.1074  0.6321
  942MPD2     C13823   0.679   1.252   8.864 -0.9172 -0.8837  0.1104
  942MPD2    C113824   0.640   1.115   8.870 -0.2816  0.3406 -0.2593
  942MPD2    C213825   0.744   1.018   8.887 -0.2369 -0.6239  0.3906
  942MPD2    C313826   0.874   1.057   8.889 -0.4308 -0.5579  0.6247
  942MPD2    C413827   0.910   1.190   8.873  0.6339  0.1112  0.5965
  942MPD2    C513828   0.812   1.286   8.861 -0.1708 -0.1150  0.1279
  942MPD2     H13829   0.712   0.915   8.898 -2.7643 -0.2132 -3.1508
  942MPD2    H113830   1.016   1.212   8.876  1.1575 -2.4283  0.8685
  942MPD2    H213831   0.610   1.333   8.845  0.2615 -0.2133 -1.2891
  942MPD2    H313832   0.836   1.389   8.840  1.8205 -0.8782 -1.3114
  942MPD2     N13833   0.982   0.964   8.904 -0.0728  0.3143  0.3648
  942MPD2    H513834   1.078   0.997   8.900  0.0917  0.1652  2.8822
  942MPD2    N113835   0.511   1.069   8.857  0.0813  0.8555  0.1299
  942MPD2    H713836   0.511   0.968   8.848  1.7530  1.0725 -2.6712
  943MPD2     C13837   4.466   4.024  10.623 -0.5708  0.0207  0.1665
  943MPD2    C113838   4.404   3.918  10.678  0.8575 -0.5509  0.5558
  943MPD2    C213839   4.330   3.944  10.793 -0.1342  0.0281 -0.0176
  943MPD2    C313840   4.314   4.070  10.849  0.4558  0.5789 -0.2260
  943MPD2    C413841   4.373   4.169  10.791  0.8099 -0.2598  0.8968
  943MPD2    C513842   4.446   4.150  10.672  0.7945  0.2010 -0.5730
  943MPD2     H13843   4.268   3.865  10.833  0.9526 -1.9816 -2.3195
  943MPD2    H113844   4.364   4.266  10.838  0.0181 -0.5537  1.3582
  943MPD2    H213845   4.507   4.003  10.525 -1.5456 -0.8564 -0.0501
  943MPD2    H313846   4.498   4.227  10.616  2.7252 -1.9698 -1.7864
  943MPD2     N13847   4.225   4.103  10.957 -0.3549 -0.3130  0.3613
  943MPD2    H513848   4.237   4.201  10.981 -1.3190 -0.3862  1.1223
  943MPD2    N113849   4.395   3.790  10.616  0.0277  0.2087 -0.7747
  943MPD2    H713850   4.439   3.781  10.525  0.0787  2.3543 -0.9478
  944MPD2     C13851   4.210   2.586  11.191 -0.1153 -0.5902 -0.2681
  944MPD2    C113852   4.089   2.521  11.173  0.4620  0.6344  0.3748
  944MPD2    C213853   4.010   2.508  11.282  0.6850 -0.3186 -0.2523
  944MPD2    C313854   4.041   2.555  11.408  0.7128 -0.1531 -0.2372
  944MPD2    C413855   4.166   2.611  11.422 -0.0039  0.1646 -1.0125
  944MPD2    C513856   4.240   2.636  11.309  0.1639  0.3446  0.0307
  944MPD2     H13857   3.918   2.451  11.275  0.4025  0.2139 -0.8496
  944MPD2    H113858   4.200   2.664  11.510  2.5783 -1.1079 -1.2521
  944MPD2    H213859   4.281   2.589  11.109 -3.6396  1.7573 -3.2042
  944MPD2    H313860   4.332   2.693  11.315 -0.0000  0.5723  0.3731
  944MPD2     N13861   3.951   2.548  11.518  0.4024 -0.2685 -0.2855
  944MPD2    H513862   3.862   2.504  11.496 -0.0350 -0.0417  1.0034
  944MPD2    N113863   4.050   2.465  11.044 -0.1229 -0.3303  0.1026
  944MPD2    H713864   3.955   2.432  11.036 -0.5373  0.9086 -0.1733
    1TMC1    C113865   2.442   3.902  14.615 -0.6120  0.2762  0.0026
    1TMC1    C213866   2.544   3.849  14.696 -0.0341 -0.6957 -0.4843
    1TMC1    C313867   2.508   3.740  14.766 -0.1510 -0.2730 -0.4991
    1TMC1    C413868   2.325   3.848  14.599  0.2332 -0.5063 -0.0516
    1TMC1    C513869   2.295   3.738  14.670  0.3766 -0.5162 -0.6764
    1TMC1    C613870   2.382   3.681  14.755 -0.7828  0.1886 -0.4411
    1TMC1     C13871   2.462   4.048  14.586 -0.2425 -0.0885 -0.5188
    1TMC1     O13872   2.513   4.117  14.673 -0.6349  0.7009 -0.3151
    1TMC1     H13873   2.639   3.900  14.709  0.4422 -0.8473 -3.3959
    1TMC1    H113874   2.255   3.892  14.530  1.6654 -0.7333 -1.6528
    1TMC1    H213875   2.357   3.589  14.807  1.2564  0.0991  0.3881
    1TMC1    C713876   2.157   3.699  14.689 -0.0372 -0.3438  0.2228
    1TMC1    C813877   2.616   3.677  14.844 -0.3729 -0.0154 -0.0110
    1TMC1    O113878   2.059   3.772  14.711  0.1658 -0.0276  0.6500
    1TMC1    O213879   2.739   3.680  14.812 -0.0476 -0.0176  0.4128
    1TMC1    O313880   2.151   3.573  14.635  0.5650 -1.1913 -0.1066
    1TMC1    H313881   2.241   3.540  14.613  1.1351  0.1274  0.1855
    1TMC1    O513882   2.566   3.675  14.966 -0.1124  0.1188 -0.1732
    1TMC1    H513883   2.475   3.709  14.976  0.1145  1.7598 -3.7283
    2MPD2     C13884   2.343   4.452  14.295  0.4834 -0.1878  0.1380
    2MPD2    C113885   2.320   4.336  14.222 -0.0455  0.3484  0.1819
    2MPD2    C213886   2.349   4.215  14.276  0.1849 -0.1741 -0.1506
    2MPD2    C313887   2.396   4.210  14.406  0.0396 -0.0038  0.5827
    2MPD2    C413888   2.430   4.331  14.469  0.5075  0.2354  0.0020
    2MPD2    C513889   2.396   4.455  14.417  0.0654  0.1554 -0.1192
    2MPD2     H13890   2.324   4.128  14.217  0.0214 -0.5731  0.5019
    2MPD2    H113891   2.492   4.332  14.558  0.5499  0.6010 -0.0305
    2MPD2    H213892   2.309   4.546  14.255  0.1973 -1.6221 -2.9756
    2MPD2    H313893   2.424   4.549  14.462  2.3265 -0.0067 -1.1738
    2MPD2     N13894   2.415   4.081  14.460 -0.1256 -0.5485 -0.6816
    2MPD2    H513895   2.397   3.998  14.405 -2.4701 -1.2989  1.1895
    2MPD2    N113896   2.262   4.356  14.097  0.0850  0.4345 -0.4386
    2MPD2    H713897   2.239   4.451  14.072  1.7301  0.2515 -2.6482
    3TMC2    C113898   2.156   4.296  13.892 -0.6911  0.2567 -0.5349
    3TMC2    C213899   2.087   4.414  13.904  0.1626  0.4846 -0.0792
    3TMC2    C313900   2.005   4.453  13.796 -0.2963 -0.9149 -0.4407
    3TMC2    C413901   2.157   4.222  13.778  0.0497  0.7845  0.2354
    3TMC2    C513902   2.081   4.272  13.674 -0.1782 -0.2697  0.2949
    3TMC2    C613903   2.002   4.386  13.679  0.1864  0.1797 -0.0396
    3TMC2     C13904   2.249   4.257  13.999  0.2508 -0.2826  1.0217
    3TMC2     O13905   2.303   4.148  13.990  0.8183 -0.4662  0.3253
    3TMC2     H13906   2.080   4.465  13.999 -1.2776  1.1085 -0.5157
    3TMC2    H113907   2.208   4.129  13.756 -2.7545 -0.4970 -0.8792
    3TMC2    H213908   1.940   4.423  13.599 -0.5934 -0.0014  0.4770
    3TMC2    C713909   2.105   4.223  13.542  0.3744  0.2903  0.2903
    3TMC2    C813910   1.896   4.546  13.825  0.8405 -0.1471 -0.7963
    3TMC2    O113911   2.224   4.194  13.516  0.4975  0.4329  0.2991
    3TMC2    O213912   1.890   4.616  13.925  0.4242 -0.3791  0.1928
    3TMC2    O513913   1.787   4.499  13.766  0.4447 -0.1267 -0.6699
    3TMC2    H513914   1.798   4.433  13.694  2.3090 -1.8529  1.2162
    4TMC2    C113915   1.190   4.226  13.164  0.0950 -0.4407 -0.3175
    4TMC2    C213916   1.185   4.276  13.037  0.1153  0.6358  0.5447
    4TMC2    C313917   1.297   4.290  12.972 -0.2019  0.0322 -0.6509
    4TMC2    C413918   1.314   4.196  13.223  0.0942  0.5907  0.7909
    4TMC2    C513919   1.427   4.199  13.140 -0.4679  0.2323  0.2779
    4TMC2    C613920   1.417   4.250  13.020  0.2063 -0.5621  0.7409
    4TMC2     C13921   1.078   4.236  13.255 -0.4631 -0.3783  0.6089
    4TMC2     O13922   1.066   4.164  13.355  0.2389 -0.0001  0.1540
    4TMC2     H13923   1.093   4.313  12.994  0.3989  0.4365 -0.2329
    4TMC2    H113924   1.315   4.175  13.329  2.8766 -0.7355  0.4920
    4TMC2    H213925   1.505   4.262  12.959  0.5662 -0.4215  1.2869
    4TMC2    C713926   1.554   4.183  13.212  0.3370  0.5581  0.3440
    4TMC2    C813927   1.287   4.340  12.840  0.3273 -0.1952  0.1248
    4TMC2    O113928   1.548   4.157  13.334 -0.8544  0.0968  0.1593
    4TMC2    O213929   1.186   4.333  12.771 -0.1642  0.3380  0.1294
    4TMC2    O513930   1.402   4.393  12.798  0.3072  0.0077  0.4362
    4TMC2    H513931   1.471   4.414  12.864  0.8502  0.4447 -0.2634
    5MPD2     C13932   0.715   4.551  13.435 -0.9325  0.0420  0.3918
    5MPD2    C113933   0.749   4.590  13.311 -1.1495  0.5472 -0.1023
    5MPD2    C213934   0.855   4.525  13.252 -0.4745 -0.7746  0.3034
    5MPD2    C313935   0.929   4.427  13.311 -0.0480  0.1959 -0.3465
    5MPD2    C413936   0.896   4.382  13.436 -0.5291 -0.2035 -0.0381
    5MPD2    C513937   0.792   4.451  13.500  0.0464 -0.3224 -0.2818
    5MPD2     H13938   0.869   4.549  13.148  0.4446  1.2011  0.8882
    5MPD2    H113939   0.931   4.293  13.488 -2.4488 -0.7487  0.3184
    5MPD2    H213940   0.630   4.596  13.485  0.0120  0.6983  1.4063
    5MPD2    H313941   0.759   4.414  13.596  0.0877 -1.7987 -0.8339
    5MPD2     N13942   1.012   4.354  13.228  0.5060 -0.3426 -0.4898
    5MPD2    H513943   1.038   4.405  13.143  2.1461  0.5303  0.5233
    5MPD2    N113944   0.679   4.688  13.251  0.1248  0.2981 -0.4256
    5MPD2    H713945   0.616   0.005  13.311  0.0699  1.4195 -1.4569
    6MPD1     C13946   4.434   1.485  12.799  0.1173  0.4990 -0.1223
    6MPD1    C113947   4.523   1.437  12.702 -0.8547 -0.1478 -0.4998
    6MPD1    C213948   4.633   1.360  12.741 -0.8076  0.5042 -0.4873
    6MPD1    C313949   4.665   1.362  12.878 -0.2140 -1.2094  0.5243
    6MPD1    C413950   4.577   1.417  12.965  0.3615  0.0554  0.3208
    6MPD1    C513951   4.464   1.476  12.933  0.3298  0.6473 -0.0136
    6MPD1     H13952   4.699   1.316  12.667 -1.3243  0.6016 -1.0064
    6MPD1    H113953   4.598   1.411  13.072  1.7259  2.4445  0.1945
    6MPD1    H213954   4.344   1.540  12.776 -0.2480  0.0581  0.2419
    6MPD1    H313955   4.405   1.519  13.013 -0.3035  0.9178 -0.6301
    6MPD1     N13956   0.041   1.293  12.931 -0.1512 -0.2501  0.3648
    6MPD1    H513957   0.055   1.309  13.030  0.0731 -0.0617  0.3049
    6MPD1    N113958   4.483   1.408  12.566  0.1513  0.2193  0.3736
    6MPD1    H613959   4.429   1.490  12.539 -0.8163  0.0179  1.6862
    6MPD1    H713960   4.569   1.423  12.514 -1.0437 -0.2074 -1.7201
    7MPD2     C13961   0.329   0.750  13.413 -0.2730 -0.0234  0.6207
    7MPD2    C113962   0.335   0.751  13.273  0.2891 -0.0614 -0.4937
    7MPD2    C213963   0.349   0.634  13.214 -0.9689 -0.3366 -0.0428
    7MPD2    C313964   0.337   0.513  13.285  0.2172  0.6544  0.7832
    7MPD2    C413965   0.315   0.519  13.422 -1.4268  0.4051  0.5682
    7MPD2    C513966   0.322   0.640  13.489 -0.4766  0.8616 -0.1746
    7MPD2     H13967   0.368   0.619  13.108  0.7531  0.9837  0.0796
    7MPD2    H113968   0.311   0.430  13.485  0.5886 -1.5156 -2.0056
    7MPD2    H213969   0.339   0.840  13.473 -1.4450  0.4183  0.1538
    7MPD2    H313970   0.331   0.650  13.597  2.5027 -0.4401 -0.3102
    7MPD2     N13971   0.360   0.388  13.222  0.0937  0.6059  0.3539
    7MPD2    H513972   0.400   0.408  13.131 -2.2942 -0.3059 -0.8830
    7MPD2    N113973   0.327   0.862  13.185 -0.2840  0.1219 -0.1967
    7MPD2    H713974   0.338   0.837  13.087  2.1673  0.9943 -0.1438
    8TMC3    C113975   0.358   0.174  13.136  0.1575  0.8301  0.0665
    8TMC3    C213976   0.465   0.095  13.171  0.1970 -0.5541 -0.2192
    8TMC3    C313977   0.577   0.093  13.094  0.8741  0.0485 -0.0579
    8TMC3    C413978   0.366   0.239  13.014 -0.4744 -0.0423 -0.5533
    8TMC3    C513979   0.492   0.253  12.959 -0.4326 -0.4314  0.5434
    8TMC3    C613980   0.593   0.170  12.989 -0.1262  0.5472  0.5743
    8TMC3     C13981   0.328   0.262  13.254  0.0536  0.8414 -0.2427
    8TMC3     O13982   0.271   0.218  13.351  0.5675  0.0511 -0.1765
    8TMC3     H13983   0.452   0.028  13.255  0.3590 -1.4980 -0.9514
    8TMC3    H113984   0.291   0.311  12.983  0.7310  0.2071 -2.9074
    8TMC3    H213985   0.672   0.149  12.918 -2.0490 -2.9321 -0.5192
    8TMC3    C713986   0.525   0.384  12.913 -0.1873 -0.0864  0.7192
    8TMC3    C813987   0.685   4.736  13.120  0.4155 -0.2005 -0.7503
    8TMC3    O113988   0.449   0.464  12.961 -0.3847 -0.1333 -0.0094
    8TMC3    O213989   0.738   4.689  13.016 -0.1710  0.3481 -1.0351
    9TMC3    C113990   0.258   1.172  12.935 -0.7030  0.2486 -0.2671
    9TMC3    C213991   0.349   1.128  12.843  0.0187 -0.6892  0.0873
    9TMC3    C313992   0.448   1.061  12.896  0.2062  0.0324  0.1757
    9TMC3    C413993   0.255   1.143  13.065 -0.0344  0.4831 -0.3856
    9TMC3    C513994   0.358   1.076  13.119  0.1478  0.4929 -0.1336
    9TMC3    C613995   0.458   1.034  13.035  0.1892 -0.1137  0.1163
    9TMC3     C13996   0.136   1.221  12.865 -0.7486  0.2839  0.3437
    9TMC3     O13997   0.116   1.169  12.759  0.3939 -0.5146  0.4416
    9TMC3     H13998   0.350   1.140  12.735 -0.1462 -1.7122 -0.0234
    9TMC3    H113999   0.161   1.148  13.119 -0.3513 -1.3729 -0.7582
    9TMC3    H214000   0.540   0.975  13.073 -1.1276  0.0681  3.1946
    9TMC3    C714001   0.315   0.992  13.222  0.6857  0.1910  1.3360
    9TMC3    C814002   0.536   0.991  12.798  0.1621  0.1955  0.7412
    9TMC3    O114003   0.274   1.044  13.326 -0.6083 -0.8962  0.8917
    9TMC3    O214004   0.560   1.037  12.689  0.3024  0.3348  0.1559
   10MPD2     C14005   0.731   0.536  12.654 -0.0691  0.2923  0.1888
   10MPD2    C114006   0.665   0.527  12.778  0.1888 -0.7219 -0.9490
   10MPD2    C214007   0.631   0.644  12.846  0.5676  0.7942 -0.5475
   10MPD2    C314008   0.641   0.768  12.787 -0.3270  0.8320 -0.1036
   10MPD2    C414009   0.704   0.783  12.665  0.0232  0.0281  0.5413
   10MPD2    C514010   0.755   0.666  12.600  0.4760  0.2190  0.0253
   10MPD2     H14011   0.592   0.641  12.947  0.0320  0.2296 -0.7671
   10MPD2    H114012   0.710   0.874  12.607 -5.5287  0.1607  0.1597
   10MPD2    H214013   0.750   0.450  12.590  1.1785  0.5847  0.1573
   10MPD2    H314014   0.803   0.667  12.503  2.2679  1.9555  0.9158
   10MPD2     N14015   0.571   0.870  12.854  0.0218  0.0727  0.2224
   10MPD2    H514016   0.521   0.852  12.940 -0.8963 -0.5208 -0.4377
   10MPD2    N114017   0.626   0.395  12.823  0.0004  0.5452 -0.4131
   10MPD2    H714018   0.659   0.316  12.769 -1.3942 -0.0789 -0.3530
   11MPD2     C14019   2.055   4.123  13.249 -1.1019 -0.0034 -0.2508
   11MPD2    C114020   1.960   4.179  13.336  0.2557  0.1903 -0.1826
   11MPD2    C214021   1.829   4.181  13.293 -0.4786  0.3741  0.5147
   11MPD2    C314022   1.795   4.135  13.172  0.0908 -0.0793  0.2587
   11MPD2    C414023   1.888   4.078  13.089 -0.3709 -0.1817  0.1596
   11MPD2    C514024   2.016   4.071  13.132 -0.3682 -0.2535  0.4655
   11MPD2     H14025   1.762   4.219  13.370 -0.1635  2.4742 -0.2363
   11MPD2    H114026   1.849   4.044  12.994  1.0866 -0.8432 -0.2080
   11MPD2    H214027   2.156   4.105  13.282 -0.1615  1.3330 -2.3725
   11MPD2    H314028   2.096   4.021  13.079 -0.6385  0.4355 -0.5833
   11MPD2     N14029   1.663   4.147  13.130 -0.2442  0.0725  0.2651
   11MPD2    H514030   1.654   4.140  13.029 -0.0860 -0.0760  0.2598
   11MPD2    N114031   1.988   4.228  13.467 -0.1445 -0.3736  0.3112
   11MPD2    H714032   1.904   4.257  13.518 -0.2261 -0.7747  0.4106
    1MPD1     C14033   4.073   1.885  17.453 -0.7836 -0.1733  0.4862
    1MPD1    C114034   3.985   1.799  17.511  0.0986  0.2573  0.1067
    1MPD1    C214035   3.947   1.680  17.452  0.0068  1.1694  0.2106
    1MPD1    C314036   4.012   1.641  17.334  0.4277 -0.2506 -0.1392
    1MPD1    C414037   4.116   1.723  17.288 -0.3845 -0.0979  0.0719
    1MPD1    C514038   4.153   1.834  17.357 -0.3734 -0.0304 -0.6532
    1MPD1     H14039   3.859   1.625  17.486  1.6826 -2.6368 -1.6322
    1MPD1    H114040   4.179   1.690  17.206  0.0110  0.3593  0.1941
    1MPD1    H214041   4.100   1.981  17.497 -0.5574  0.4430 -1.0045
    1MPD1    H314042   4.236   1.891  17.316  2.2912 -1.6141  2.5416
    1MPD1     N14043   4.010   1.514  17.268 -0.3290 -0.1476 -0.0948
    1MPD1    H514044   4.062   1.514  17.181  0.5892 -0.8319  0.4535
    1MPD1    N114045   3.925   1.848  17.628 -0.2982 -0.1554 -0.6756
    1MPD1    H614046   3.991   1.900  17.685 -0.2371 -0.1666 -0.7353
    1MPD1    H714047   3.873   1.779  17.681 -2.3796  1.4270 -0.6576
    2MPD1     C14048   4.526   1.182  16.591  0.5595 -0.6999  0.6138
    2MPD1    C114049   4.395   1.175  16.553  0.3626  0.0768 -0.3410
    2MPD1    C214050   4.297   1.160  16.654  0.0360 -0.1531  0.2098
    2MPD1    C314051   4.329   1.152  16.794 -0.0286  0.0627  0.2112
    2MPD1    C414052   4.466   1.150  16.828 -0.8564 -1.3834 -0.3763
    2MPD1    C514053   4.559   1.157  16.726 -0.5200 -0.1097 -0.5623
    2MPD1     H14054   4.194   1.171  16.623  0.3225 -1.1852 -1.1149
    2MPD1    H114055   4.502   1.137  16.929 -0.7047 -4.0565 -0.7810
    2MPD1    H214056   4.610   1.207  16.527  0.4568  0.3243  0.8705
    2MPD1    H314057   4.663   1.173  16.755 -2.0771  1.4986  4.0882
    2MPD1     N14058   4.219   1.148  16.890 -0.3082 -0.3353 -0.9539
    2MPD1    H514059   4.125   1.137  16.854 -1.1824 -1.3904  1.6282
    2MPD1    N114060   4.356   1.206  16.425  0.7166 -0.2675  0.0474
    2MPD1    H614061   4.431   1.194  16.356  1.0217 -0.0725  0.3443
    2MPD1    H714062   4.267   1.166  16.397  1.2826  1.4091 -4.2747
    3TMC3    C114063   4.103   1.165  17.084  0.5834  0.5244 -0.0907
    3TMC3    C214064   4.001   1.110  17.017  0.5023 -0.3026 -0.2992
    3TMC3    C314065   3.869   1.160  17.033 -0.0609  0.2522  0.8440
    3TMC3    C414066   4.079   1.262  17.174  0.7294  0.1898 -0.5322
    3TMC3    C514067   3.950   1.309  17.191 -0.9308  0.1019  0.2830
    3TMC3    C614068   3.844   1.264  17.123 -0.0832  0.7575 -0.2568
    3TMC3     C14069   4.236   1.158  17.019 -0.1959  0.0239 -0.8488
    3TMC3     O14070   4.338   1.196  17.072 -0.1157  0.1666  0.1731
    3TMC3     H14071   4.023   1.026  16.952 -1.5076 -2.5467  1.9452
    3TMC3    H114072   4.155   1.311  17.234  1.8415 -2.1415 -0.0114
    3TMC3    H214073   3.747   1.312  17.127  0.3557  1.4157  2.0823
    3TMC3    C714074   3.921   1.415  17.287 -0.3690 -0.2761 -0.0943
    3TMC3    C814075   3.753   1.098  16.979 -0.4772  0.5245 -0.9251
    3TMC3    O114076   3.814   1.413  17.343 -0.2516  0.4519  0.5185
    3TMC3    O214077   3.647   1.126  17.033 -0.7398 -0.0940 -0.3655
    4MPD1     C14078   3.492   0.757  16.678 -0.5719 -0.2569 -0.5958
    4MPD1    C114079   3.615   0.785  16.624 -0.7551  0.2519 -0.1062
    4MPD1    C214080   3.706   0.851  16.700  0.3991  0.1963 -0.2437
    4MPD1    C314081   3.671   0.927  16.815 -0.3481  0.7822 -0.1509
    4MPD1    C414082   3.542   0.916  16.855 -0.2497  0.7349  0.0981
    4MPD1    C514083   3.459   0.821  16.801  0.0286 -0.1658  0.4708
    4MPD1     H14084   3.805   0.856  16.659  0.0324 -2.5178 -1.4810
    4MPD1    H114085   3.513   0.969  16.945 -1.2315  3.2504 -1.6927
    4MPD1    H214086   3.422   0.691  16.628 -1.2852 -0.4257  0.6426
    4MPD1    H314087   3.362   0.802  16.846 -0.4395  0.5924 -0.2217
    4MPD1     N14088   3.768   1.006  16.876  0.8643 -0.6641  0.2764
    4MPD1    H514089   3.857   1.014  16.827 -0.0324  1.0537 -1.0282
    4MPD1    N114090   3.656   0.703  16.517  0.2907  0.3075  0.1090
    4MPD1    H614091   3.586   0.689  16.444 -0.9615 -0.3063  1.4292
    4MPD1    H714092   3.744   0.729  16.474  0.0886  2.4595  1.0022
    1TCq1    O114093   0.676   1.839  11.546 -0.5432  0.1080 -0.0890
    1TCq1    C114094   0.546   1.804  11.533  0.4539 -0.2478 -0.4965
    1TCq1    O214095   0.469   1.766  11.619 -0.4366  0.3472  0.0448
    1TCq1    C214096   0.539   1.733  11.406 -0.2094 -0.3945 -0.2143
    1TCq1    C314097   0.488   1.609  11.399  0.7921 -0.1624 -0.5878
    1TCq1    C414098   0.505   1.531  11.287 -0.2606  0.0036  0.3068
    1TCq1    C514099   0.520   1.599  11.168 -0.0163 -0.3129  0.5091
    1TCq1    C614100   0.564   1.727  11.176 -0.1574 -0.9229 -0.8274
    1TCq1    C714101   0.581   1.799  11.293 -0.2116 -0.5507 -0.1475
    1TCq1    C814102   0.588   1.809  11.056  0.5723  0.1054  0.0652
    1TCq1    O414103   0.626   1.923  11.067  0.1058  0.6203 -0.0849
    1TCq1    C914104   0.439   1.402  11.274 -0.4688  0.3644  0.6469
    1TCq1    O514105   0.375   1.389  11.169 -0.2660 -0.2756 -0.2938
    1TCq1    O614106   0.452   1.314  11.363  0.4521  0.0621 -0.4375
    1TCq1    H114107   0.722   1.799  11.470 -0.5500  0.0397 -0.0572
    1TCq1    H214108   0.459   1.562  11.492 -3.4776  1.9980 -0.8156
    1TCq1    H314109   0.505   1.555  11.070 -1.4930 -0.3913  0.7572
    1TCq1    H414110   0.594   1.906  11.286 -2.7604 -0.0965  1.9115
    2MPD1     C14111   0.686   1.849  10.549 -0.1747 -0.0617 -0.2887
    2MPD1    C114112   0.660   1.714  10.584 -0.0685 -0.2999  1.1876
    2MPD1    C214113   0.623   1.676  10.714  0.2821 -1.0654 -0.2857
    2MPD1    C314114   0.610   1.777  10.809 -0.4396  0.6389 -0.6333
    2MPD1    C414115   0.653   1.905  10.781  0.9600  0.3985 -0.1665
    2MPD1    C514116   0.680   1.942  10.648  0.6045  0.6021  0.4651
    2MPD1     H14117   0.604   1.572  10.737 -0.5866 -0.4614  1.7303
    2MPD1    H114118   0.657   1.989  10.849  0.0515 -0.6089  1.1345
    2MPD1    H214119   0.693   1.879  10.445  0.1704  0.5805 -0.0811
    2MPD1    H314120   0.690   2.047  10.623 -0.7877  0.2062 -1.7406
    2MPD1     N14121   0.572   1.736  10.937 -0.4310 -0.2156 -0.6849
    2MPD1    H514122   0.539   1.640  10.946 -0.4655 -0.0658  0.7969
    2MPD1    N114123   0.649   1.622  10.477  0.1376 -0.3093  0.2691
    2MPD1    H614124   0.652   1.528  10.517 -0.3285 -1.4618 -2.4149
    2MPD1    H714125   0.724   1.631  10.409  1.1014 -2.6115  1.0013
    1TMC1    C114126   3.253   1.671   0.882 -1.0935 -0.4989 -0.9478
    1TMC1    C214127   3.227   1.599   0.767  0.0801  0.2848  0.4083
    1TMC1    C314128   3.339   1.567   0.692 -0.2195  0.0189  0.1354
    1TMC1    C414129   3.380   1.726   0.901 -0.3439  0.0989  0.3120
    1TMC1    C514130   3.474   1.711   0.815  0.2692 -0.5143 -0.6749
    1TMC1    C614131   3.465   1.633   0.704 -0.5893 -0.2009  0.7414
    1TMC1     C14132   3.132   1.703   0.953 -0.2412 -0.5945  0.2026
    1TMC1     O14133   3.038   1.631   0.936  0.2994 -0.3069 -0.4542
    1TMC1     H14134   3.133   1.550   0.748  0.7581 -2.3098  3.7101
    1TMC1    H114135   3.393   1.777   0.996  0.6756  1.7844 -0.7424
    1TMC1    H214136   3.542   1.612   0.632 -1.5706  1.5484 -0.8118
    1TMC1    C714137   3.604   1.770   0.824  0.1597 -0.8443 -0.7751
    1TMC1    C814138   3.326   1.478   0.580 -0.0343  0.1965  0.5559
    1TMC1    O114139   3.707   1.730   0.774  0.3741  0.7768 -0.2755
    1TMC1    O214140   3.399   1.501   0.478  0.4333 -0.4402  0.2357
    1TMC1    O314141   3.585   1.899   0.854  0.6130  0.0208 -0.1951
    1TMC1    H314142   3.492   1.931   0.859  0.5324 -0.8324  3.3652
    1TMC1    O514143   3.223   1.395   0.585  0.0519 -0.2675 -0.3249
    1TMC1    H514144   3.193   1.397   0.678 -3.7772 -1.3101 -1.5136
    2MPD1     C14145   2.881   1.949   1.325 -0.1190 -0.7497  0.2583
    2MPD1    C114146   2.985   2.030   1.291  0.1967  0.3659 -0.6399
    2MPD1    C214147   3.075   1.975   1.195 -0.6193 -0.0083  0.0927
    2MPD1    C314148   3.044   1.859   1.122  0.3356  0.5536  0.5112
    2MPD1    C414149   2.930   1.789   1.153  0.4664  0.1066 -0.8477
    2MPD1    C514150   2.854   1.833   1.255  0.2470  0.0172 -0.3515
    2MPD1     H14151   3.159   2.038   1.168  0.8042 -1.0484  2.1375
    2MPD1    H114152   2.890   1.696   1.112  1.1703  0.3585 -2.0725
    2MPD1    H214153   2.812   1.980   1.403 -0.2030 -1.1093  0.3294
    2MPD1    H314154   2.770   1.773   1.287 -0.5404  0.9836 -0.6079
    2MPD1     N14155   3.136   1.820   1.025  0.0623  0.9290 -0.1450
    2MPD1    H514156   3.205   1.891   1.004  1.3870 -0.8006 -1.6440
    2MPD1    N114157   3.027   2.125   1.382  0.8165  0.1591  0.0510
    2MPD1    H614158   3.091   2.195   1.346  1.8642 -0.3303  0.9848
    2MPD1    H714159   2.956   2.175   1.435  2.8651  0.6350  2.3466
    1MPD1     C14160   1.907   1.091  10.553  0.6264 -0.2961 -0.1574
    1MPD1    C114161   1.812   1.117  10.649  0.2123 -0.0609 -0.2346
    1MPD1    C214162   1.851   1.157  10.772 -0.2058  0.5853 -0.1946
    1MPD1    C314163   1.985   1.197  10.788 -0.1984 -0.4060 -0.1992
    1MPD1    C414164   2.068   1.200  10.680  0.2624 -0.1475 -0.0122
    1MPD1    C514165   2.030   1.139  10.564 -0.0166 -0.7561 -0.6387
    1MPD1     H14166   1.777   1.172  10.851  1.5125 -1.9123  1.8814
    1MPD1    H114167   2.169   1.234  10.704 -0.0697  0.2754  0.7764
    1MPD1    H214168   1.884   1.045  10.458 -0.9738  1.5096 -0.6397
    1MPD1    H314169   2.099   1.122  10.482  0.2340 -0.4015 -0.5018
    1MPD1     N14170   2.022   1.233  10.924 -0.1143 -0.4707 -0.0012
    1MPD1    H514171   1.951   1.224  10.995 -1.2372 -3.7517 -1.5602
    1MPD1    N114172   1.690   1.067  10.622 -0.2078  0.7300 -0.1405
    1MPD1    H614173   1.618   1.120  10.671  2.1436  1.6446  2.2718
    1MPD1    H714174   1.674   1.053  10.522 -0.4980  0.9639 -0.1278
    2MPD1     C14175   1.541   2.520  10.865 -0.7319  0.3566  0.3758
    2MPD1    C114176   1.607   2.591  10.770 -0.0505 -0.1476  0.2675
    2MPD1    C214177   1.716   2.522  10.711  0.5290 -0.4213  0.0473
    2MPD1    C314178   1.739   2.385  10.734  0.0316 -0.4107  0.0050
    2MPD1    C414179   1.662   2.318  10.822  0.2200  0.2975 -0.5409
    2MPD1    C514180   1.568   2.388  10.889  0.2275 -0.3859 -0.3395
    2MPD1     H14181   1.775   2.569  10.634  2.3872 -1.2556  0.9683
    2MPD1    H114182   1.673   2.212  10.844 -1.7904  0.0338 -0.8266
    2MPD1    H214183   1.473   2.567  10.936 -0.4177 -0.5898  1.2901
    2MPD1    H314184   1.514   2.340  10.970  0.7868 -0.1141  0.1979
    2MPD1     N14185   1.837   2.311  10.664  0.2102 -0.4928 -0.6808
    2MPD1    H514186   1.862   2.218  10.695 -0.8189 -0.0530  1.5243
    2MPD1    N114187   1.579   2.733  10.756 -0.1326 -0.3781 -1.0080
    2MPD1    H614188   1.617   2.765  10.668  0.8004  1.4446  0.0647
    2MPD1    H714189   1.480   2.756  10.756  0.0283  0.2861 -3.2316
    3MPD1     C14190   2.252   1.439  10.404  0.5363 -0.1287  0.2893
    3MPD1    C114191   2.351   1.511  10.460  0.0009 -0.0460 -0.8374
    3MPD1    C214192   2.327   1.645  10.471 -0.6319 -0.1314  0.0441
    3MPD1    C314193   2.210   1.711  10.432  0.2913  0.4062  0.1085
    3MPD1    C414194   2.107   1.635  10.385 -0.0406  0.3234  0.7207
    3MPD1    C514195   2.141   1.508  10.362  0.0686  0.1897  0.0014
    3MPD1     H14196   2.401   1.709  10.517  0.1393 -0.0265 -1.3275
    3MPD1    H114197   2.009   1.667  10.353  0.6611  2.9749  1.1948
    3MPD1    H214198   2.258   1.332  10.385  1.2660 -0.2034  0.9166
    3MPD1    H314199   2.061   1.445  10.325  0.2201 -0.3117  0.5226
    3MPD1     N14200   2.197   1.851  10.469 -0.6589  0.6443 -0.4324
    3MPD1    H514201   2.275   1.892  10.520 -0.7032 -1.2637  1.1223
    3MPD1    N114202   2.459   1.439  10.511  0.1306  0.5915  0.3766
    3MPD1    H614203   2.471   1.342  10.482 -0.9722  0.5341  0.0973
    3MPD1    H714204   2.541   1.495  10.488 -0.9128  1.5559 -1.0670
    4MPD2     C14205   2.115   1.855  11.147  0.7593  1.0139 -0.0264
    4MPD2    C114206   2.200   1.779  11.224  0.2370 -0.1045  0.7188
    4MPD2    C214207   2.327   1.825  11.249  0.1518  0.1408  0.3022
    4MPD2    C314208   2.369   1.951  11.209  0.1864 -0.2105 -0.0868
    4MPD2    C414209   2.278   2.024  11.133  0.2952 -0.0494 -0.6297
    4MPD2    C514210   2.159   1.970  11.095 -0.3694 -0.0760 -0.4557
    4MPD2     H14211   2.381   1.757  11.314 -1.9526 -2.3844 -0.5899
    4MPD2    H114212   2.298   2.130  11.118 -1.5684  0.4397  0.3242
    4MPD2    H214213   2.015   1.821  11.126  1.0317  0.7641 -0.9284
    4MPD2    H314214   2.090   2.032  11.039 -1.0233 -0.2043  0.2011
    4MPD2     N14215   2.491   2.019  11.240 -0.4836  0.2940 -0.4779
    4MPD2    H514216   2.503   2.114  11.206  1.2851  0.1356 -0.2783
    4MPD2    N114217   2.159   1.650  11.267  0.2286  0.4767 -0.2624
    4MPD2    H714218   2.221   1.612  11.337  1.0502  2.2238 -0.0262
    5TMC3    C114219   2.057   1.445  11.274  0.1693 -0.0855  0.1123
    5TMC3    C214220   2.039   1.372  11.158  0.7866 -0.1821 -0.2721
    5TMC3    C314221   2.143   1.301  11.103 -0.2321 -0.4985  0.6382
    5TMC3    C414222   2.173   1.428  11.342 -0.2863  0.1849 -0.2570
    5TMC3    C514223   2.279   1.365  11.285 -0.2194 -0.4704 -0.1955
    5TMC3    C614224   2.268   1.305  11.164  0.0469 -0.4250 -0.0212
    5TMC3     C14225   2.041   1.586  11.239 -0.7636 -0.2658  0.0821
    5TMC3     O14226   1.964   1.608  11.147  0.1895  0.8074  0.2034
    5TMC3     H14227   1.953   1.391  11.095 -0.1498  1.1788  1.4182
    5TMC3    H114228   2.181   1.479  11.438  0.6825  0.2622 -0.3715
    5TMC3    H214229   2.353   1.256  11.118 -0.6461 -0.9489 -0.7432
    5TMC3    C714230   2.407   1.387  11.350  0.1062  0.2384 -0.6941
    5TMC3    C814231   2.138   1.288  10.964  0.6648 -0.5987 -0.7224
    5TMC3    O114232   2.406   1.488  11.422  0.6687  0.2175 -0.4143
    5TMC3    O214233   2.240   1.304  10.895  0.0797 -0.0077 -0.4792
    6TMC3    C114234   2.020   2.277  10.526  0.0839 -0.0369  0.5517
    6TMC3    C214235   1.991   2.139  10.516 -0.8839 -0.3112  0.7274
    6TMC3    C314236   2.097   2.064  10.486  0.0561 -0.5559 -0.2537
    6TMC3    C414237   2.136   2.330  10.481 -0.2393 -0.5235 -0.1710
    6TMC3    C514238   2.237   2.252  10.451 -0.4132  0.6498  0.2935
    6TMC3    C614239   2.225   2.113  10.451 -0.3039 -0.4925  0.5764
    6TMC3     C14240   1.912   2.362  10.557 -0.3577  0.1277 -0.6054
    6TMC3     O14241   1.900   2.460  10.490  0.0306 -0.0765  0.3383
    6TMC3     H14242   1.890   2.103  10.526 -1.1332  0.5566  1.3308
    6TMC3    H114243   2.137   2.439  10.480  3.3031 -0.5136  4.3946
    6TMC3    H214244   2.307   2.046  10.430 -0.4592 -0.1499 -1.1319
    6TMC3    C714245   2.363   2.314  10.466  0.6571  0.3379  0.1654
    6TMC3    C814246   2.079   1.921  10.456 -0.2288  0.3108 -0.2016
    6TMC3    O114247   2.369   2.419  10.406  0.4229  0.2425  0.6235
    6TMC3    O214248   1.972   1.895  10.407 -0.9487 -0.1041  0.1952
    7MPD2     C14249   2.899   1.411  11.235  0.3003  0.0886 -0.2885
    7MPD2    C114250   2.807   1.514  11.260 -0.1518  0.0266  0.1333
    7MPD2    C214251   2.682   1.477  11.298 -0.3524 -0.5208 -0.4578
    7MPD2    C314252   2.642   1.345  11.284  0.1156  0.3932  0.7249
    7MPD2    C414253   2.727   1.246  11.244 -1.1191  1.3123  0.6470
    7MPD2    C514254   2.855   1.280  11.227 -0.4895  0.4225 -0.3641
    7MPD2     H14255   2.615   1.548  11.345 -0.2641  0.4255 -1.7435
    7MPD2    H114256   2.686   1.151  11.213  0.4245  0.4181  1.3207
    7MPD2    H214257   3.000   1.432  11.202  1.2351 -1.6236  1.4900
    7MPD2    H314258   2.926   1.215  11.178  0.6077  0.4336  1.2120
    7MPD2     N14259   2.503   1.310  11.306 -0.7329 -0.3580 -0.0154
    7MPD2    H514260   2.472   1.221  11.268  0.9078 -2.2736  3.1462
    7MPD2    N114261   2.826   1.648  11.260  0.2567 -0.2663 -0.0649
    7MPD2    H714262   2.757   1.708  11.305 -0.5025 -0.7944 -0.5326
    8TMC3    C114263   2.875   1.857  11.186  0.2458 -0.2683  0.1523
    8TMC3    C214264   2.895   1.925  11.073  0.6682  0.1482 -0.2883
    8TMC3    C314265   2.822   2.037  11.061 -0.0867  0.2832 -0.1470
    8TMC3    C414266   2.811   1.906  11.295 -0.5490 -0.8282  0.1907
    8TMC3    C514267   2.723   2.011  11.271  0.5137 -0.4101 -0.6098
    8TMC3    C614268   2.730   2.075  11.153  0.6794  0.3099  0.0006
    8TMC3     C14269   2.912   1.713  11.180  0.9070 -0.4021 -0.2293
    8TMC3     O14270   3.010   1.669  11.118 -0.3397 -0.2323 -0.0529
    8TMC3     H14271   2.963   1.897  10.994  1.1633  1.1559 -0.2293
    8TMC3    H114272   2.823   1.862  11.393  0.5501  0.1562  0.4955
    8TMC3    H214273   2.689   2.175  11.146 -0.7866 -0.3151 -0.3744
    8TMC3    C714274   2.598   1.947  11.293  0.3013 -1.1254  1.2779
    8TMC3    C814275   2.791   2.084  10.925  0.2050 -0.5099 -0.0560
    8TMC3    O114276   2.613   1.830  11.328 -0.4933 -0.1271  0.5641
    8TMC3    O214277   2.767   1.997  10.845  0.4024  0.0714 -0.4279
    9MPD2     C14278   2.741   2.420  10.790 -0.7748 -0.0990 -0.4072
    9MPD2    C114279   2.708   2.286  10.804  0.6137 -1.0127  0.1365
    9MPD2    C214280   2.620   2.224  10.722 -0.4455  0.3433  0.4200
    9MPD2    C314281   2.562   2.302  10.623  0.4942 -0.2239  0.3609
    9MPD2    C414282   2.598   2.438  10.607  0.0453  0.1799 -0.4327
    9MPD2    C514283   2.689   2.492  10.687  0.2225  0.1911 -0.0539
    9MPD2     H14284   2.595   2.120  10.737 -1.9507  0.8290  1.2688
    9MPD2    H114285   2.549   2.503  10.535 -0.3925  1.1621  0.7637
    9MPD2    H214286   2.815   2.461  10.857 -0.5567 -1.2216  0.0404
    9MPD2    H314287   2.698   2.600  10.689  0.6797  0.1213  1.5177
    9MPD2     N14288   2.443   2.251  10.560 -0.1601  0.5257  0.3369
    9MPD2    H514289   2.413   2.162  10.598  0.7964  1.5256  3.3888
    9MPD2    N114290   2.774   2.214  10.908  0.1522  0.5222 -0.1629
    9MPD2    H714291   2.805   2.274  10.984 -0.1209 -0.3640  0.6339
    1MPD1     C14292   1.190   3.757  16.750 -0.8235 -0.2978  0.9367
    1MPD1    C114293   1.106   3.651  16.771 -0.0525  0.1254 -0.8012
    1MPD1    C214294   1.136   3.528  16.715 -0.2292  0.0248  0.2244
    1MPD1    C314295   1.248   3.513  16.636  0.4882  0.0811 -0.8757
    1MPD1    C414296   1.333   3.618  16.623 -0.3705 -0.3631  0.4061
    1MPD1    C514297   1.307   3.738  16.682  0.1458  0.6913  0.7346
    1MPD1     H14298   1.067   3.447  16.733 -1.1671  1.0194  1.1354
    1MPD1    H114299   1.426   3.611  16.567 -1.1476  2.8630 -1.2913
    1MPD1    H214300   1.168   3.861  16.770  1.4113  0.3712  0.0156
    1MPD1    H314301   1.374   3.823  16.684  2.2882 -0.9658 -0.0778
    1MPD1     N14302   1.281   3.402  16.558 -0.2268  0.2091  1.2118
    1MPD1    H514303   1.363   3.404  16.499 -0.6183 -1.7554  0.5807
    1MPD1    N114304   0.986   3.671  16.827  0.1817 -0.6794  0.3150
    1MPD1    H614305   0.908   3.624  16.782 -0.1812 -1.0589  1.3377
    1MPD1    H714306   0.963   3.770  16.813 -0.5006 -0.8111  0.4866
    2TMC2    C114307   1.343   3.148  16.234  0.9281 -0.0605  0.0697
    2TMC2    C214308   1.256   3.046  16.213  0.0003 -0.0939  0.2102
    2TMC2    C314309   1.160   3.036  16.303 -0.4471 -0.2099 -0.0086
    2TMC2    C414310   1.340   3.225  16.349 -0.2716  0.8037  0.2730
    2TMC2    C514311   1.245   3.193  16.448  0.2062  0.0300 -0.4484
    2TMC2    C614312   1.155   3.091  16.428  0.7321  0.3936 -0.1476
    2TMC2     C14313   1.441   3.175  16.127  0.6848  0.2592  0.1458
    2TMC2     O14314   1.439   3.084  16.041  0.9502  0.3364 -0.0132
    2TMC2     H14315   1.239   3.005  16.114  1.1479  1.6829 -0.7101
    2TMC2    H114316   1.416   3.301  16.365  1.0473  0.1457 -2.9391
    2TMC2    H214317   1.072   3.077  16.496  1.2906  0.3222  0.5254
    2TMC2    C714318   1.212   3.283  16.556 -0.0405 -0.7174  0.0056
    2TMC2    C814319   1.050   2.951  16.258  0.1784 -0.6505 -0.2219
    2TMC2    O114320   1.119   3.240  16.626 -0.3961 -0.1382 -0.3273
    2TMC2    O214321   1.011   2.930  16.140 -0.1536 -0.0491  0.0111
    2TMC2    O514322   1.005   2.873  16.357  0.0148  0.0127 -0.0825
    2TMC2    H514323   1.078   2.868  16.421  1.4156  1.5830 -1.5570
    3MPD1     C14324   1.727   3.412  15.812  0.7621  0.3638 -0.5200
    3MPD1    C114325   1.658   3.504  15.888  0.3546 -0.3132 -0.1164
    3MPD1    C214326   1.599   3.466  16.000  0.7284 -0.2055 -0.6919
    3MPD1    C314327   1.590   3.336  16.028 -0.7122 -0.6486  0.6142
    3MPD1    C414328   1.647   3.241  15.944  0.8365  0.3486 -0.3855
    3MPD1    C514329   1.722   3.282  15.841  0.0176 -0.1072 -0.0887
    3MPD1     H14330   1.541   3.535  16.059  0.6122 -0.2462 -0.7592
    3MPD1    H114331   1.649   3.134  15.962 -0.4405 -0.3794 -4.5637
    3MPD1    H214332   1.780   3.439  15.721  0.4825  0.8942 -0.5283
    3MPD1    H314333   1.781   3.208  15.787 -2.8288 -1.2327 -1.6571
    3MPD1     N14334   1.504   3.299  16.132  0.2311 -0.0996  0.2811
    3MPD1    H514335   1.452   3.374  16.177 -2.0452 -0.3333 -1.9227
    3MPD1    N114336   1.642   3.636  15.852  0.2941  0.0046 -0.2490
    3MPD1    H614337   1.648   3.689  15.939  0.3423 -0.8950  0.2913
    3MPD1    H714338   1.720   3.664  15.793 -1.0208 -0.2765 -2.1143
    1TMC1    C114339   4.418   3.887  12.975  0.0646  0.1769 -0.6991
    1TMC1    C214340   4.370   3.791  13.055  0.3900 -0.5138  0.1687
    1TMC1    C314341   4.237   3.789  13.091 -0.2569 -0.0402 -0.6732
    1TMC1    C414342   4.331   3.984  12.932  0.5000 -0.3576  0.0063
    1TMC1    C514343   4.200   3.986  12.971  0.4026  0.4252 -0.2014
    1TMC1    C614344   4.144   3.882  13.044  0.2435 -0.1894  0.0101
    1TMC1     C14345   4.548   3.929  12.999  0.0301  0.1616 -0.5895
    1TMC1     O14346   4.575   4.029  12.941  0.6488  0.3045  0.0511
    1TMC1     H14347   4.433   3.707  13.081 -0.3020 -1.5046 -1.3423
    1TMC1    H114348   4.371   4.076  12.890  1.7165  0.6960  3.4352
    1TMC1    H214349   4.038   3.865  13.060  0.5060 -0.0782  1.9105
    1TMC1    C714350   4.127   4.087  12.898 -0.4390 -0.2591  0.3599
    1TMC1    C814351   4.171   3.682  13.160 -0.3653  0.0455  0.1163
    1TMC1    O114352   4.178   4.190  12.851  0.1055 -0.0657  0.4806
    1TMC1    O214353   4.052   3.652  13.150 -0.5822 -0.6244  0.1917
    1TMC1    O314354   4.003   4.057  12.862 -0.3756  0.1942 -0.0149
    1TMC1    H314355   3.976   3.968  12.892  0.4220  0.1658  0.6074
    1TMC1    O514356   4.269   3.614  13.219 -0.1427 -0.5182  0.2653
    1TMC1    H514357   4.357   3.658  13.213 -1.1857  1.5839  0.3780
    2MPD2     C14358   0.070   4.032  13.102  0.2409 -0.1311  0.0301
    2MPD2    C114359   4.731   3.931  13.164  0.0563 -0.3113 -0.5463
    2MPD2    C214360   0.031   3.889  13.292 -0.3860  0.2232  0.1829
    2MPD2    C314361   0.151   3.927  13.351  0.7175  0.0701 -0.3704
    2MPD2    C414362   0.231   4.011  13.282  0.0296  0.1721  0.1523
    2MPD2    C514363   0.192   4.061  13.158  0.0934 -0.0003  0.7364
    2MPD2     H14364   4.704   3.822  13.349  0.3793  0.5987  1.4955
    2MPD2    H114365   0.328   4.043  13.319 -0.1320 -0.3578  1.0378
    2MPD2    H214366   0.045   4.075  13.006 -0.3073  0.1875  0.3187
    2MPD2    H314367   0.252   4.138  13.109 -1.6993  0.1739 -1.1592
    2MPD2     N14368   0.176   3.874  13.479 -0.1788 -0.6051  0.0241
    2MPD2    H514369   0.098   3.822  13.518  0.1484  1.0366  2.8825
    2MPD2    N114370   4.614   3.874  13.106  0.2474 -0.6702 -0.6503
    2MPD2    H714371   4.563   3.811  13.167  0.2126 -0.6186 -0.6263
    3TCq1    O114372   0.145   3.839  14.064  0.2457 -0.2395 -0.0589
    3TCq1    C114373   0.172   3.929  13.972 -0.2383  0.3950 -0.1438
    3TCq1    O214374   0.089   4.013  13.935  0.1764 -0.0987 -0.0550
    3TCq1    C214375   0.257   3.867  13.879 -0.4064  0.5981  0.5393
    3TCq1    C314376   0.372   3.806  13.922 -0.0175 -0.2543  0.2904
    3TCq1    C414377   0.457   3.749  13.831  0.1096  1.0017  0.7102
    3TCq1    C514378   0.437   3.771  13.695  0.2130 -0.4612  0.3200
    3TCq1    C614379   0.312   3.814  13.658 -0.2988  0.1100  0.7927
    3TCq1    C714380   0.219   3.866  13.746  0.0992  0.2590  0.2171
    3TCq1    C814381   0.305   3.864  13.526  0.1974  0.2320  0.5631
    3TCq1    O414382   0.410   3.888  13.467  0.1831  0.1071  0.0532
    3TCq1    C914383   0.571   3.674  13.876 -0.3650 -0.6000 -0.1489
    3TCq1    O514384   0.656   3.634  13.791  0.1638  0.5047 -0.0763
    3TCq1    O614385   0.595   3.679  14.000 -0.0763 -0.6070 -0.4290
    3TCq1    H114386   0.208   3.764  14.070  1.1340  0.4742 -0.3820
    3TCq1    H214387   0.402   3.812  14.026 -0.4535  1.2066  0.3249
    3TCq1    H314388   0.510   3.732  13.625  1.3737 -1.2306  1.9826
    3TCq1    H414389   0.134   3.919  13.705  0.5800  1.8909  1.3681
    1MPD2     C14390   3.970   4.528  14.947  0.3922  0.4371  1.0103
    1MPD2    C114391   3.913   4.445  14.852 -0.3313  0.1762  0.4950
    1MPD2    C214392   3.978   4.324  14.822  1.5541  0.9727  0.0780
    1MPD2    C314393   4.098   4.284  14.876 -0.5464 -0.4796 -0.1044
    1MPD2    C414394   4.147   4.365  14.970  0.4943 -0.6544  0.2142
    1MPD2    C514395   4.087   4.483  15.004 -0.0337  0.3349  0.3285
    1MPD2     H14396   3.930   4.254  14.754 -0.6844  3.7435 -1.1748
    1MPD2    H114397   4.229   4.334  15.034  0.6036  0.1321  0.4513
    1MPD2    H214398   3.921   4.620  14.976  1.2776  1.4063 -0.5112
    1MPD2    H314399   4.122   4.536  15.092  0.1861  0.6452  0.0541
    1MPD2     N14400   4.169   4.167  14.848 -0.2731  0.4463 -0.0165
    1MPD2    H514401   4.244   4.143  14.911 -0.6910 -0.3885  0.1616
    1MPD2    N114402   3.794   4.494  14.790 -0.9607  0.2354 -0.3099
    1MPD2    H714403   3.759   4.582  14.826 -3.7172  0.3756 -3.4201
    2TMC3    C114404   3.640   4.516  14.609 -0.6208  0.0511 -0.4012
    2TMC3    C214405   3.572   4.425  14.525  0.5333  0.2566 -0.0265
    2TMC3    C314406   3.565   4.447  14.388 -0.0099 -0.4572 -0.4089
    2TMC3    C414407   3.690   4.633  14.555  0.7683  0.3010 -0.1373
    2TMC3    C514408   3.679   4.654  14.422  0.1097 -0.2643 -0.0119
    2TMC3    C614409   3.610   4.563  14.337 -0.0655 -0.0019 -0.1436
    2TMC3     C14410   3.738   4.440  14.678 -0.3875 -0.7021  0.1221
    2TMC3     O14411   3.786   4.361  14.606  0.0575 -0.9723 -0.3053
    2TMC3     H14412   3.542   4.328  14.564  3.4428 -0.5356  0.2229
    2TMC3    H114413   3.747   4.702  14.616  1.8696 -1.4204  0.7812
    2TMC3    H214414   3.597   4.585  14.231  0.7751 -1.7679 -0.6171
    2TMC3    C714415   3.742   0.029  14.360 -0.0643 -0.0841 -0.6623
    2TMC3    C814416   3.573   4.328  14.310 -0.3097  0.0866  0.0427
    2TMC3    O114417   3.673   0.101  14.286  0.0574  0.0770  0.1676
    2TMC3    O214418   3.526   4.331  14.195  0.2089 -0.3908  0.6615
    3TCq1    O114419   4.639   0.587  14.828 -0.0950 -0.1306  0.2837
    3TCq1    C114420   4.671   0.466  14.868  0.0932 -0.5533  0.6756
    3TCq1    O214421   0.021   0.450  14.953  0.6113 -0.5797  0.3792
    3TCq1    C214422   4.583   0.373  14.811 -0.2904  0.0195  0.5439
    3TCq1    C314423   4.614   0.244  14.843  0.3005 -0.0168 -0.3186
    3TCq1    C414424   4.581   0.140  14.757  0.1998  0.2207 -0.7132
    3TCq1    C514425   4.509   0.169  14.642 -0.5887 -0.4049  0.5256
    3TCq1    C614426   4.476   0.298  14.620 -0.3257 -0.0482 -0.4884
    3TCq1    C714427   4.514   0.401  14.697  0.5779 -0.2306 -0.0524
    3TCq1    C814428   4.388   0.333  14.514  0.2784 -0.2268 -0.4920
    3TCq1    O414429   4.407   0.434  14.447 -0.6852  0.6489 -0.5223
    3TCq1    C914430   4.606   0.002  14.778 -0.5494 -0.0185  0.2291
    3TCq1    O514431   4.535   4.656  14.713 -0.8289  0.6404 -0.2020
    3TCq1    O614432   4.702   4.711  14.856 -0.0024 -0.4313  0.3336
    3TCq1    H114433   4.601   0.588  14.737  0.3227 -0.6952  0.1074
    3TCq1    H214434   4.666   0.229  14.937 -2.8469  0.0140  1.4234
    3TCq1    H314435   4.489   0.090  14.571  1.1850  0.9303 -1.4499
    3TCq1    H414436   4.467   0.497  14.681  0.3408 -0.6640 -2.0040
    4MPD2     C14437   4.147   0.341  14.335  0.3185  0.6268 -0.3202
    4MPD2    C114438   4.174   0.251  14.428  0.1348  0.1989 -0.1123
    4MPD2    C214439   4.084   0.147  14.449 -0.8363 -0.6495 -0.1664
    4MPD2    C314440   3.961   0.151  14.381 -0.5106 -0.0926 -0.7459
    4MPD2    C414441   3.938   0.246  14.282 -0.6382 -0.3124  0.8160
    4MPD2    C514442   4.034   0.339  14.265  0.6147 -0.4978  0.1831
    4MPD2     H14443   4.103   0.067  14.520  0.6478  1.2159  1.5678
    4MPD2    H114444   3.850   0.240  14.219  0.5666  3.0259 -1.1812
    4MPD2    H214445   4.221   0.417  14.311  1.0531  0.2358  0.7412
    4MPD2    H314446   4.017   0.416  14.191 -1.5274 -2.2240 -1.1291
    4MPD2     N14447   3.868   0.048  14.417 -0.2565  0.1227 -0.4055
    4MPD2    H514448   3.906   4.709  14.473 -0.2075  1.2563  1.0737
    4MPD2    N114449   4.289   0.239  14.505  1.0967 -0.4960  0.3607
    4MPD2    H714450   4.297   0.165  14.573  0.1579 -1.3909 -0.5139
    5TMC2    C114451   4.166   3.818  14.559 -0.8706 -0.3741 -0.5804
    5TMC2    C214452   4.125   3.733  14.652 -0.3195 -0.3463 -0.3201
    5TMC2    C314453   4.150   3.774  14.782 -0.8795 -0.0611 -0.3700
    5TMC2    C414454   4.233   3.935  14.586  0.7844  1.0149 -0.2018
    5TMC2    C514455   4.227   3.978  14.715  0.9012 -1.4489 -0.6697
    5TMC2    C614456   4.202   3.893  14.819 -0.2715 -1.0029 -0.6527
    5TMC2     C14457   4.064   3.816  14.452  0.1301  0.5103  0.0380
    5TMC2     O14458   4.044   3.708  14.399  0.1595  0.7458 -0.1244
    5TMC2     H14459   4.099   3.631  14.627  1.0896 -0.8108  0.0703
    5TMC2    H114460   4.244   4.007  14.506 -1.9928 -0.4808 -1.9133
    5TMC2    H214461   4.190   3.934  14.918  1.8097 -0.3888 -0.6515
    5TMC2    C714462   4.161   4.105  14.727  0.8320 -0.5387  0.2465
    5TMC2    C814463   4.090   3.692  14.886 -0.4373 -0.0586  0.4169
    5TMC2    O114464   4.088   4.137  14.636 -0.8411  0.7816  0.0204
    5TMC2    O214465   4.145   3.664  14.993 -0.1709 -0.3515 -0.5668
    5TMC2    O514466   3.976   3.646  14.838  0.4575  0.1521  0.0351
    5TMC2    H514467   3.932   3.700  14.769  0.6924  0.3930  0.0726
    6MPD2     C14468   3.675   4.053  14.203  0.0556 -0.3078 -0.0820
    6MPD2    C114469   3.722   4.127  14.313 -0.4082  0.4942 -0.4378
    6MPD2    C214470   3.825   4.091  14.394 -0.4711 -0.2952  0.2632
    6MPD2    C314471   3.885   3.966  14.372  0.4112 -0.5252 -0.0253
    6MPD2    C414472   3.831   3.884  14.269  0.4860  0.1362  0.8571
    6MPD2    C514473   3.740   3.932  14.182  0.5428  0.5315  0.6330
    6MPD2     H14474   3.852   4.155  14.478 -0.8988  0.5021 -0.2054
    6MPD2    H114475   3.892   3.799  14.241 -0.8044 -0.5342  0.0977
    6MPD2    H214476   3.604   4.100  14.136  0.3402 -1.5403 -1.2242
    6MPD2    H314477   3.725   3.871  14.094  1.0506 -1.5735  2.0314
    6MPD2     N14478   4.001   3.934  14.447 -0.3344  0.5427  0.1954
    6MPD2    H514479   4.036   3.998  14.517 -2.8381  2.0933  0.0423
    6MPD2    N114480   3.669   4.248  14.360  0.0292  0.2195 -0.0619
    6MPD2    H714481   3.709   4.284  14.446 -1.6748 -1.9404  1.6448
  945NH3     N114482   1.404   3.400  17.620  0.0228  0.3543  0.2147
  945NH3     H214483   1.325   3.462  17.612  0.3214  0.9176  1.7023
  945NH3     H314484   1.363   3.326  17.675  1.0525  0.8371  1.6237
  945NH3     H414485   1.408   3.357  17.528  1.0989 -0.4797  0.6508
  946SOD     NA14486   3.670   2.086  17.292  0.3354 -0.6796  0.2238
  947SOD     NA14487   0.736   3.573  14.138 -0.4967  0.1768  0.0280
  948SOD     NA14488   0.066   2.922   9.871  0.4848  0.5076  0.1856
  949SOD     NA14489   2.573   3.894  12.199  0.2632 -0.1176 -0.2061
  950SOD     NA14490   4.726   4.163  14.082 -0.2146 -0.1413  0.0583
  951SOD     NA14491   0.712   0.988  10.243  0.1109 -0.2768 -0.0435
  952SOD     NA14492   1.594   1.249  13.451  0.3958 -0.3258  0.1134
  953SOD     NA14493   3.435   2.547   3.075  0.0989 -0.3778 -0.4022
  954SOL     OW14494   0.232   0.362   4.826 -0.1468 -0.0821  0.3345
  954SOL    HW114495   0.212   0.331   4.915 -0.0151  2.5011  1.2536
  954SOL    HW214496   0.179   0.303   4.772 -0.7037  0.7101  0.0240
  955SOL     OW14497   0.435   1.320   9.118 -0.0282 -0.4155  0.5144
  955SOL    HW114498   0.522   1.357   9.106  0.0999 -0.4610  1.3173
  955SOL    HW214499   0.426   1.288   9.028  2.7566 -1.1045  0.4820
  956SOL     OW14500   0.989   0.579  12.340 -0.0098  0.0383  0.1026
  956SOL    HW114501   0.897   0.601  12.326  0.7587  3.7835  0.8053
  956SOL    HW214502   1.018   0.541  12.257  0.0897  0.5151 -0.0806
  957SOL     OW14503   1.352   3.171   0.278 -0.4826 -0.1006  0.2143
  957SOL    HW114504   1.307   3.180   0.194 -0.0409 -2.8532 -0.3156
  957SOL    HW214505   1.307   3.096   0.317 -2.0176  0.5635 -0.2649
  958SOL     OW14506   2.200   2.463   7.859 -0.2533  0.1502  0.4184
  958SOL    HW114507   2.208   2.545   7.810 -1.9132 -0.3628 -0.7415
  958SOL    HW214508   2.118   2.473   7.908 -1.8998 -1.6502 -1.9656
  959SOL     OW14509   3.168   1.825   1.917  0.0157  0.4061 -0.1997
  959SOL    HW114510   3.226   1.897   1.944  1.1210 -0.5745  0.0156
  959SOL    HW214511   3.127   1.862   1.839  2.4259  0.6594 -1.3381
  960SOL     OW14512   0.055   0.578   5.218 -0.2471 -0.0903 -0.3850
  960SOL    HW114513   0.123   0.639   5.191 -2.1914  1.2179 -2.3311
  960SOL    HW214514   4.735   0.584   5.141 -0.9857 -0.0803  0.1529
  961SOL     OW14515   1.080   3.466  10.582  0.1496  0.0525 -0.4995
  961SOL    HW114516   0.988   3.454  10.560  0.2889  0.5344 -1.3418
  961SOL    HW214517   1.065   3.527  10.655 -0.2500 -1.1526  0.4246
  962SOL     OW14518   0.455   4.633   8.844 -0.4009  0.1331  0.3239
  962SOL    HW114519   0.487   4.629   8.754  0.9239 -1.9313  0.8721
  962SOL    HW214520   0.499   4.556   8.881 -1.3563  0.1977  1.5787
  963SOL     OW14521   3.543   4.122   6.619  0.1108  0.0878  0.4809
  963SOL    HW114522   3.585   4.188   6.674  0.1998 -0.0368  0.5616
  963SOL    HW214523   3.497   4.177   6.556 -1.4811 -3.5425 -1.5107
  964SOL     OW14524   3.953   2.674   7.561 -0.0948  0.3209 -0.2391
  964SOL    HW114525   3.921   2.680   7.471 -0.2457 -0.3925 -0.2326
  964SOL    HW214526   3.956   2.767   7.584  0.3942  0.0107  0.9898
  965SOL     OW14527   1.928   4.149   8.005  0.7586  0.0436  0.5737
  965SOL    HW114528   1.989   4.223   7.997  1.6682 -0.7395  0.3412
  965SOL    HW214529   1.981   4.083   8.048  0.9594 -0.5012 -0.5049
  966SOL     OW14530   0.293   4.486   2.890  0.0413 -0.1605 -0.3595
  966SOL    HW114531   0.236   4.477   2.967  1.0832 -0.1516  0.4246
  966SOL    HW214532   0.305   4.394   2.866  2.2303  0.2460 -0.8545
  967SOL     OW14533   1.780   1.036  12.544  0.0973  0.3790 -0.0819
  967SOL    HW114534   1.857   0.982  12.564  0.4020  1.1291  0.7644
  967SOL    HW214535   1.725   1.011  12.618 -1.1006  0.5955 -0.9112
  968SOL     OW14536   4.158   2.856   2.984 -0.3684  0.0678 -0.0837
  968SOL    HW114537   4.130   2.879   3.072  0.9048  0.0219  0.3428
  968SOL    HW214538   4.070   2.830   2.958  0.1224 -0.6668 -1.0369
  969SOL     OW14539   0.383   0.519  12.300  0.7633 -0.5507  0.2279
  969SOL    HW114540   0.406   0.604  12.337  1.9416 -1.7468  2.2244
  969SOL    HW214541   0.364   0.469  12.379  0.4037  1.1411  1.2080
  970SOL     OW14542   3.120   1.055   1.353  0.7056  0.4056 -0.4278
  970SOL    HW114543   3.025   1.041   1.351  0.8114  0.2552 -3.5788
  970SOL    HW214544   3.129   1.116   1.426 -2.2056 -1.3525  1.3933
  971SOL     OW14545   3.922   2.837  11.234 -0.4850 -0.2293 -0.0916
  971SOL    HW114546   3.948   2.748  11.210 -1.5634  0.1248 -2.5731
  971SOL    HW214547   4.002   2.884  11.212 -0.7922 -1.6108 -4.1768
  972SOL     OW14548   2.456   0.236   6.541 -0.0652 -0.3776 -0.4267
  972SOL    HW114549   2.479   0.233   6.448  0.0342  1.0553 -0.4407
  972SOL    HW214550   2.534   0.193   6.578  0.8475  2.9532  1.4819
  973SOL     OW14551   0.266   2.527   2.288 -0.5970 -0.4296  0.3899
  973SOL    HW114552   0.284   2.619   2.304 -1.6053 -0.3325  0.9794
  973SOL    HW214553   0.289   2.488   2.373 -1.8059 -2.2713 -0.1152
  974SOL     OW14554   2.531   1.200   2.024 -0.1335 -0.1842  0.0453
  974SOL    HW114555   2.487   1.116   2.038  0.6672 -0.3480  1.5792
  974SOL    HW214556   2.546   1.206   1.930 -0.5479  0.2974  0.0103
  975SOL     OW14557   2.229   3.344   6.861 -0.1094 -0.3075  0.0357
  975SOL    HW114558   2.281   3.271   6.894 -0.7163 -0.1605  1.3398
  975SOL    HW214559   2.140   3.311   6.876 -0.3564  0.7022  0.7924
  976SOL     OW14560   1.161   3.683   5.507 -0.0006 -0.3724 -0.2279
  976SOL    HW114561   1.116   3.701   5.425  3.3832 -0.7022 -2.1745
  976SOL    HW214562   1.202   3.598   5.489  0.6667  0.3491 -2.0177
  977SOL     OW14563   0.500   0.759  12.387  0.0688  0.1077 -0.2467
  977SOL    HW114564   0.573   0.696  12.389  0.0920  0.0630 -1.9425
  977SOL    HW214565   0.551   0.835  12.358 -1.5732  1.3308  0.1268
  978SOL     OW14566   2.726   4.466   8.512  0.4955 -0.3400  0.2203
  978SOL    HW114567   2.719   4.545   8.567  0.7050 -0.0969 -0.1026
  978SOL    HW214568   2.665   4.409   8.558 -0.2499  0.0289 -0.2997
  979SOL     OW14569   3.305   1.141   6.861  0.2450  0.2561 -0.5215
  979SOL    HW114570   3.283   1.097   6.779 -1.3732 -0.5875  0.3689
  979SOL    HW214571   3.374   1.200   6.831  1.8922 -0.6423  1.4666
  980SOL     OW14572   3.216   3.569   3.245  0.6781 -0.2788  0.1931
  980SOL    HW114573   3.165   3.545   3.168 -0.0988  0.7152  0.3958
  980SOL    HW214574   3.147   3.585   3.310 -0.2635 -0.2833 -0.8132
  981SOL     OW14575   4.504   2.222   0.978 -0.0176  0.0661  0.5329
  981SOL    HW114576   4.441   2.281   1.020  1.0561  0.8223  1.0867
  981SOL    HW214577   4.527   2.275   0.901 -0.7246 -1.1682 -0.5225
  982SOL     OW14578   3.343   0.421  13.811  0.3118 -0.1001 -0.0522
  982SOL    HW114579   3.393   0.358  13.862  2.7383  0.7693 -1.3632
  982SOL    HW214580   3.345   0.488  13.879 -0.2220 -1.7318  1.5685
  983SOL     OW14581   1.256   2.311   3.603  0.6707  0.8094  0.7772
  983SOL    HW114582   1.199   2.376   3.645 -1.9804 -0.5181 -0.7617
  983SOL    HW214583   1.310   2.370   3.549  0.9572 -0.0404  0.1419
  984SOL     OW14584   1.274   0.313   5.771 -0.3491 -0.2523  0.2812
  984SOL    HW114585   1.204   0.251   5.751  0.2284 -1.0487  0.7519
  984SOL    HW214586   1.258   0.346   5.859  1.7091 -0.4356  0.7256
  985SOL     OW14587   0.355   1.521  13.297  0.3169 -0.1948 -0.6694
  985SOL    HW114588   0.343   1.540  13.390 -0.4097  5.2232 -1.8844
  985SOL    HW214589   0.415   1.446  13.298 -0.5271 -0.8847 -1.1883
  986SOL     OW14590   3.634   0.940   9.673  0.4428 -0.2923  0.0393
  986SOL    HW114591   3.723   0.919   9.703 -0.1402  0.0739  2.0604
  986SOL    HW214592   3.642   0.902   9.586 -1.7130  1.1569 -0.7802
  987SOL     OW14593   3.983   2.424   4.136 -0.3963 -0.1546 -0.2093
  987SOL    HW114594   3.949   2.508   4.169  0.1496 -0.1661  0.3691
  987SOL    HW214595   3.906   2.399   4.084 -0.1867 -1.3947  0.0973
  988SOL     OW14596   3.619   1.042   4.384 -0.1760  0.6299  0.2049
  988SOL    HW114597   3.701   1.002   4.413 -0.2502 -1.7482 -2.8276
  988SOL    HW214598   3.572   0.972   4.339 -1.4324  1.1656  0.6871
  989SOL     OW14599   2.381   1.670  12.454 -0.2872 -0.0787  0.3047
  989SOL    HW114600   2.411   1.677  12.545 -2.3344  1.2824  0.8770
  989SOL    HW214601   2.359   1.760  12.433  0.0210  0.0795  0.6624
  990SOL     OW14602   2.514   0.445  17.546 -0.5690 -0.8511  0.0895
  990SOL    HW114603   2.481   0.359  17.572 -0.5074 -0.8873  0.0477
  990SOL    HW214604   2.603   0.423  17.519 -0.5259 -1.8350  1.0418
  991SOL     OW14605   4.289   2.639   9.659 -0.1671  0.7021 -0.5206
  991SOL    HW114606   4.303   2.559   9.608 -1.9993  0.6666 -0.9683
  991SOL    HW214607   4.366   2.650   9.715  0.1013 -0.7782 -0.5842
  992SOL     OW14608   0.618   0.175   2.518 -0.2071  0.0186  0.2968
  992SOL    HW114609   0.653   0.170   2.429 -1.6838 -0.5797 -0.2369
  992SOL    HW214610   0.661   0.253   2.555  0.0995  0.0738 -0.1721
  993SOL     OW14611   2.085   3.513   9.782  0.2291 -0.2062 -0.4741
  993SOL    HW114612   2.018   3.561   9.830  2.1558 -0.0252  2.0284
  993SOL    HW214613   2.158   3.574   9.788  0.1535 -0.0774 -0.8161
  994SOL     OW14614   4.312   0.428   4.239  0.2451  0.4977  0.4582
  994SOL    HW114615   4.390   0.383   4.270  0.4858 -0.1447 -1.1188
  994SOL    HW214616   4.324   0.439   4.145 -1.4898  0.9034  0.2762
  995SOL     OW14617   4.131   2.033   6.278 -0.3735 -0.0473  0.5756
  995SOL    HW114618   4.057   2.058   6.334 -0.1550 -3.6063  2.4342
  995SOL    HW214619   4.095   1.955   6.237 -0.2201  1.1907 -1.8983
  996SOL     OW14620   0.833   0.018   3.836  0.8885  0.3678 -0.0861
  996SOL    HW114621   0.854   0.108   3.861 -1.2691  0.3153  1.9021
  996SOL    HW214622   0.890   4.715   3.903 -2.5257 -1.7713  1.5499
  997SOL     OW14623   2.324   3.775  11.817 -0.2934  0.7406 -0.3462
  997SOL    HW114624   2.405   3.729  11.793  0.7789  0.4995  3.7322
  997SOL    HW214625   2.311   3.826  11.737 -1.0247 -0.5584 -1.0672
  998SOL     OW14626   3.481   1.902  11.951  0.2661 -0.2585  0.3915
  998SOL    HW114627   3.550   1.869  12.009  2.5089  1.4945 -1.2640
  998SOL    HW214628   3.434   1.951  12.017 -2.7091 -0.1467 -1.8229
  999SOL     OW14629   2.802   1.054   3.721 -0.2699  0.0994 -0.1401
  999SOL    HW114630   2.791   1.003   3.641 -3.3457 -0.5677  0.7214
  999SOL    HW214631   2.852   0.991   3.774 -1.2594 -0.0851  0.5601
 1000SOL     OW14632   4.721   0.510   3.971  0.2269  0.5392  0.1430
 1000SOL    HW114633   4.661   0.457   4.024  1.6323 -0.3075  0.8968
 1000SOL    HW214634   0.062   0.513   4.027  0.1791  0.1545  0.2315
 1001SOL     OW14635   2.045   2.132   2.827  0.1818 -0.2771 -0.3556
 1001SOL    HW114636   2.139   2.117   2.835 -0.1342 -2.3433 -0.3004
 1001SOL    HW214637   2.024   2.110   2.918  0.1562  0.8430 -0.1004
 1002SOL     OW14638   0.160   4.108   2.808  0.2115 -0.2547  0.2929
 1002SOL    HW114639   0.197   4.174   2.867  0.5435  0.2690 -0.4958
 1002SOL    HW214640   0.113   4.046   2.865  2.8811 -1.1851  1.4668
 1003SOL     OW14641   2.043   3.020   2.446  0.5146  0.3317  0.1680
 1003SOL    HW114642   2.135   2.995   2.439  1.1025  2.3213  0.7294
 1003SOL    HW214643   2.003   2.935   2.463 -1.8130  1.5389  0.7503
 1004SOL     OW14644   2.401   2.608   5.471  0.0420  0.4264  0.6619
 1004SOL    HW114645   2.355   2.540   5.422 -0.3521  1.2016 -0.0458
 1004SOL    HW214646   2.405   2.671   5.398  2.9425  0.2355  0.6216
 1005SOL     OW14647   2.422   1.850   2.115  0.3583 -0.2206  0.4274
 1005SOL    HW114648   2.341   1.829   2.069  0.9537  2.1626 -1.7075
 1005SOL    HW214649   2.396   1.871   2.205 -0.2652  1.2616 -0.0953
 1006SOL     OW14650   1.963   0.807   0.139  0.1028  0.0736 -0.1621
 1006SOL    HW114651   2.033   0.858   0.178 -1.3072  0.8160  1.4240
 1006SOL    HW214652   2.003   0.728   0.103 -1.5743 -1.6413  1.6487
 1007SOL     OW14653   3.318   4.623   0.561 -0.4496 -0.1521  0.2092
 1007SOL    HW114654   3.329   4.624   0.656  0.0173 -0.8411  0.1650
 1007SOL    HW214655   3.257   4.552   0.546 -1.3632  1.1510 -2.2541
 1008SOL     OW14656   2.622   1.029   6.033  0.3058 -0.6176  0.0745
 1008SOL    HW114657   2.535   1.034   5.994  1.1005 -1.8858 -1.8579
 1008SOL    HW214658   2.655   1.113   6.000  1.1483 -0.8206  0.3946
 1009SOL     OW14659   2.056   3.864  13.627  0.1280 -0.0759  0.3585
 1009SOL    HW114660   1.985   3.908  13.674  0.5804 -1.2283  2.1012
 1009SOL    HW214661   2.050   3.773  13.655  2.2306 -1.2117 -2.8708
 1010SOL     OW14662   0.370   0.159   2.215 -0.6369  0.2276  0.0203
 1010SOL    HW114663   0.335   0.212   2.143  0.2744  2.0671  0.9307
 1010SOL    HW214664   0.431   0.097   2.175 -1.0260  0.4880 -0.9838
 1011SOL     OW14665   4.517   2.560   9.291  0.2790  0.4834 -0.3173
 1011SOL    HW114666   4.490   2.645   9.257  2.4983  1.7374  1.0251
 1011SOL    HW214667   4.470   2.503   9.230 -1.6900  1.7628  0.0083
 1012SOL     OW14668   0.642   3.207  16.322  0.5405  0.9431 -0.4098
 1012SOL    HW114669   0.734   3.211  16.298  0.5543 -2.5468 -1.0471
 1012SOL    HW214670   0.609   3.294  16.344  0.9393  0.3467  2.6097
 1013SOL     OW14671   3.797   0.938   2.218  0.1110  0.3029  0.8727
 1013SOL    HW114672   3.866   0.992   2.256 -0.5008  1.2637  0.6419
 1013SOL    HW214673   3.850   0.900   2.148 -0.9620 -0.2917  0.3656
 1014SOL     OW14674   1.615   4.437   1.230  0.3086 -0.0080 -0.6606
 1014SOL    HW114675   1.645   4.490   1.303  0.7723 -1.5354  0.2574
 1014SOL    HW214676   1.527   4.465   1.207 -0.6500 -2.6403 -0.1942
 1015SOL     OW14677   2.495   1.089   7.757  0.1635  0.2570  0.3700
 1015SOL    HW114678   2.408   1.126   7.744  1.1329  1.8095 -1.7056
 1015SOL    HW214679   2.528   1.167   7.802  0.5928  0.2729  0.0223
 1016SOL     OW14680   0.167   4.330   1.563  0.0886 -0.0094  0.0283
 1016SOL    HW114681   0.126   4.260   1.512 -0.4009  1.5336 -1.7100
 1016SOL    HW214682   0.114   4.316   1.641  0.3388 -1.7582 -0.1073
 1017SOL     OW14683   1.042   3.455   4.739  0.2632  0.1481  0.0049
 1017SOL    HW114684   1.108   3.501   4.687  1.5737  0.4482  1.9443
 1017SOL    HW214685   1.093   3.382   4.774 -0.0366 -1.3867 -2.7479
 1018SOL     OW14686   3.197   1.316   5.159  0.5182  0.0826 -0.1838
 1018SOL    HW114687   3.270   1.298   5.100  1.8304 -2.5278  2.2503
 1018SOL    HW214688   3.174   1.408   5.144  1.8047  0.2172 -1.3550
 1019SOL     OW14689   1.388   0.675   3.326  0.3640 -0.1174 -0.1176
 1019SOL    HW114690   1.390   0.728   3.246  1.6459 -0.6087 -0.4256
 1019SOL    HW214691   1.365   0.739   3.393 -0.6026 -0.4556 -0.1337
 1020SOL     OW14692   2.440   4.465  11.079 -0.7041  0.1054  0.9815
 1020SOL    HW114693   2.384   4.449  11.003 -1.3065  2.1544  0.9999
 1020SOL    HW214694   2.401   4.551  11.097 -0.2273 -0.0901  2.9539
 1021SOL     OW14695   3.174   1.979  11.612  0.3137  0.2028 -0.0131
 1021SOL    HW114696   3.095   1.927  11.601 -0.3589  0.8714  1.6705
 1021SOL    HW214697   3.232   1.905  11.590 -0.6980 -0.7177  0.4037
 1022SOL     OW14698   0.954   4.455   7.980  0.3461 -0.0362  0.1995
 1022SOL    HW114699   0.869   4.496   7.995  0.2115  0.3791 -1.6421
 1022SOL    HW214700   0.924   4.367   7.959  1.3244 -0.0646 -1.1329
 1023SOL     OW14701   0.491   3.279   5.498  0.1404  0.3720 -0.4938
 1023SOL    HW114702   0.525   3.364   5.468  3.0400 -0.5560  0.1641
 1023SOL    HW214703   0.500   3.290   5.592  1.9361 -0.3476 -0.5909
 1024SOL     OW14704   0.036   3.234   1.903  0.1119 -0.0866  0.5344
 1024SOL    HW114705   0.075   3.272   1.825  1.5429 -1.1936  0.6976
 1024SOL    HW214706   4.682   3.236   1.872  0.3782 -1.5689 -0.3474
 1025SOL     OW14707   2.189   0.096  14.326  0.6618  0.1857  0.4002
 1025SOL    HW114708   2.144   0.149  14.260 -0.4406  0.3430  1.2808
 1025SOL    HW214709   2.177   0.004  14.302 -0.7986 -0.2054  2.6178
 1026SOL     OW14710   3.967   1.874  11.813 -0.4505  0.2097 -0.2056
 1026SOL    HW114711   4.005   1.945  11.864 -0.9061  0.8003 -0.6902
 1026SOL    HW214712   3.898   1.833  11.865 -1.5569  1.2456 -0.8438
 1027SOL     OW14713   1.739   3.685   7.051 -0.4652  0.2425 -0.0253
 1027SOL    HW114714   1.822   3.705   7.009  0.3163  0.5391  1.6895
 1027SOL    HW214715   1.750   3.737   7.130 -1.0443  0.0896  0.1608
 1028SOL     OW14716   0.547   0.435   8.079 -0.1281 -0.0379  0.3348
 1028SOL    HW114717   0.598   0.354   8.070 -0.0914 -0.0232  0.4077
 1028SOL    HW214718   0.460   0.396   8.093 -1.5341  3.5792  1.6148
 1029SOL     OW14719   2.193   2.154  10.812  0.5455  0.1131 -0.0565
 1029SOL    HW114720   2.193   2.249  10.812  0.8834  0.1162  1.9544
 1029SOL    HW214721   2.105   2.136  10.843  1.2379 -1.1991  1.1953
 1030SOL     OW14722   2.898   4.304   7.452  0.3515  0.5025 -0.1079
 1030SOL    HW114723   2.943   4.352   7.522  0.2389 -0.3329  0.5354
 1030SOL    HW214724   2.810   4.296   7.487  1.7036  0.9889  3.4438
 1031SOL     OW14725   2.107   0.880   3.582 -0.0027  0.1070  0.3566
 1031SOL    HW114726   2.111   0.950   3.517  1.6437 -0.8487 -0.5900
 1031SOL    HW214727   2.199   0.854   3.589  0.0944  0.4638  0.4158
 1032SOL     OW14728   0.976   3.790  12.029 -0.1826  0.3080 -0.6885
 1032SOL    HW114729   1.048   3.728  12.038  0.7382  2.0841  3.9158
 1032SOL    HW214730   0.930   3.769  12.110  1.0515 -1.1583 -0.3702
 1033SOL     OW14731   0.682   2.709  12.993 -0.8183  0.1720 -0.4448
 1033SOL    HW114732   0.762   2.756  13.018 -0.4585 -0.7500  0.1413
 1033SOL    HW214733   0.663   2.752  12.910 -0.6010 -0.8244 -1.0032
 1034SOL     OW14734   3.124   4.579   8.849 -0.1481 -0.2804  0.4534
 1034SOL    HW114735   3.132   4.673   8.836  2.1569 -0.4170  0.8774
 1034SOL    HW214736   3.140   4.550   8.759  1.1526 -0.1610  0.6381
 1035SOL     OW14737   0.673   0.395   7.749  0.5253  0.2382 -0.1080
 1035SOL    HW114738   0.639   0.470   7.799  1.2490  0.8167 -0.4845
 1035SOL    HW214739   0.697   0.334   7.818  1.4619  0.1433 -0.5170
 1036SOL     OW14740   0.754   3.869   1.312  0.0966 -0.4570 -0.3104
 1036SOL    HW114741   0.794   3.881   1.398  0.8153  1.5576 -0.9231
 1036SOL    HW214742   0.834   3.827   1.281  1.5026  0.6854  1.7991
 1037SOL     OW14743   1.858   1.627   6.666 -0.4833  0.1560 -0.5536
 1037SOL    HW114744   1.948   1.623   6.700 -0.7492 -2.4355 -0.0865
 1037SOL    HW214745   1.824   1.541   6.692  0.0024  0.2025  0.2637
 1038SOL     OW14746   0.387   3.397   7.153 -0.2774  0.4188  0.4093
 1038SOL    HW114747   0.457   3.335   7.135 -0.8791 -0.1996  0.2123
 1038SOL    HW214748   0.371   3.431   7.065 -1.1961  0.6395  0.6637
 1039SOL     OW14749   4.531   2.258   7.063 -0.1177 -0.1815  0.2156
 1039SOL    HW114750   4.441   2.228   7.053 -0.2796  0.4200 -0.1149
 1039SOL    HW214751   4.532   2.344   7.021  3.1821 -1.3157 -2.0287
 1040SOL     OW14752   3.069   1.953  13.090  0.1124 -0.1324  0.5806
 1040SOL    HW114753   3.148   1.975  13.040 -0.4834  0.7582  0.0421
 1040SOL    HW214754   3.114   1.896  13.154 -1.1949 -1.5457  0.2397
 1041SOL     OW14755   0.755   4.130   7.319 -0.2661  0.4914  0.3121
 1041SOL    HW114756   0.660   4.135   7.333 -0.5650  0.9914 -1.9484
 1041SOL    HW214757   0.762   4.217   7.281  4.3437 -0.6658 -1.4667
 1042SOL     OW14758   0.756   3.929   1.817 -0.2856 -0.2950 -0.5306
 1042SOL    HW114759   0.806   4.000   1.858  0.1994  0.8381 -3.1141
 1042SOL    HW214760   0.784   3.935   1.726 -2.1621  0.1644 -1.0663
 1043SOL     OW14761   3.046   3.668   9.449  0.1314  0.1060 -0.7472
 1043SOL    HW114762   3.094   3.714   9.517  0.9348  1.4096 -2.2212
 1043SOL    HW214763   3.021   3.588   9.495 -0.7203 -0.4442 -2.1645
 1044SOL     OW14764   1.932   2.552  17.001 -0.3639 -0.5207 -0.1465
 1044SOL    HW114765   1.954   2.645  16.988 -0.6606 -0.4110  0.1404
 1044SOL    HW214766   1.841   2.565  17.028 -0.5374  0.1258 -1.0235
 1045SOL     OW14767   2.741   1.896   9.060  0.6672 -0.2599  0.5356
 1045SOL    HW114768   2.667   1.908   9.118  1.4384  0.7081  1.3293
 1045SOL    HW214769   2.784   1.981   9.048  1.2918 -0.2971  2.5156
 1046SOL     OW14770   4.324   1.553  16.407  0.4307  0.1346 -0.4465
 1046SOL    HW114771   4.367   1.638  16.415  0.1829  0.4263 -2.2962
 1046SOL    HW214772   4.379   1.503  16.468  0.7302  1.3817  0.3083
 1047SOL     OW14773   1.649   3.023  15.176 -0.5584  0.5609  0.2669
 1047SOL    HW114774   1.578   2.978  15.223 -0.2623 -0.0929  0.0852
 1047SOL    HW214775   1.712   2.960  15.210  0.1528  0.9495 -0.3342
 1048SOL     OW14776   3.938   2.928  15.418 -0.4075 -0.3746  0.0384
 1048SOL    HW114777   3.850   2.918  15.381 -0.0593 -1.6314 -0.4594
 1048SOL    HW214778   4.001   2.915  15.347 -1.5334 -1.5964 -0.7378
 1049SOL     OW14779   0.975   1.180   4.963 -0.4753  0.0023  0.2097
 1049SOL    HW114780   0.938   1.134   4.887 -1.5918  0.8863  0.2263
 1049SOL    HW214781   1.056   1.133   4.981 -0.2349  1.0333  1.7900
 1050SOL     OW14782   1.443   1.221   8.562 -0.7664  0.4981  0.2309
 1050SOL    HW114783   1.390   1.273   8.623  0.7516  1.0939  1.0465
 1050SOL    HW214784   1.389   1.228   8.484  1.6027 -1.7362 -1.5966
 1051SOL     OW14785   1.464   4.519  13.215 -0.0724 -0.1103 -0.0342
 1051SOL    HW114786   1.517   4.507  13.136 -0.5108  3.4452 -0.8583
 1051SOL    HW214787   1.417   4.598  13.189 -1.1859 -0.4467  0.9867
 1052SOL     OW14788   4.151   3.793  14.117  0.3633  0.1776  0.1355
 1052SOL    HW114789   4.073   3.754  14.080  0.7132  1.5157 -2.0590
 1052SOL    HW214790   4.155   3.748  14.201  1.9455 -0.7941 -0.4390
 1053SOL     OW14791   0.015   3.117   4.075 -0.4093  0.1339  0.0479
 1053SOL    HW114792   4.675   3.166   4.044 -0.5538 -1.0717 -1.5147
 1053SOL    HW214793   4.731   3.027   4.050 -0.1169  0.0925 -0.0347
 1054SOL     OW14794   4.120   1.779  14.763  0.3222 -0.3449  0.1056
 1054SOL    HW114795   4.182   1.706  14.756  0.6621 -0.1314  0.8651
 1054SOL    HW214796   4.048   1.768  14.701 -0.0719  1.7272  0.1906
 1055SOL     OW14797   4.104   3.877  11.632 -0.3714 -0.6363  0.0827
 1055SOL    HW114798   4.163   3.947  11.603 -0.7594 -0.7923 -1.1055
 1055SOL    HW214799   4.095   3.895  11.725 -0.8524 -0.4328  0.0001
 1056SOL     OW14800   4.223   3.930   2.435  0.1720  0.2479 -0.1422
 1056SOL    HW114801   4.275   4.008   2.417  0.9212  0.3109  2.3260
 1056SOL    HW214802   4.293   3.870   2.459  0.6780  0.2248 -1.6451
 1057SOL     OW14803   3.658   2.586   8.974  0.6699 -0.0868  0.0116
 1057SOL    HW114804   3.636   2.602   8.882  0.7245 -0.8646 -0.1334
 1057SOL    HW214805   3.618   2.665   9.011 -0.5616 -1.2778  1.2331
 1058SOL     OW14806   0.377   0.699   1.642 -0.1634  0.1029 -0.7481
 1058SOL    HW114807   0.452   0.699   1.701 -0.5319 -2.5085 -0.3053
 1058SOL    HW214808   0.365   0.793   1.657 -0.1479 -0.2731  1.6593
 1059SOL     OW14809   1.419   0.589  11.725  0.2036  0.1154  0.4006
 1059SOL    HW114810   1.468   0.671  11.734 -1.9117  1.1377  2.4824
 1059SOL    HW214811   1.477   0.543  11.664 -0.2883  0.8496 -0.6163
 1060SOL     OW14812   0.342   3.251   7.959  0.3288 -0.4134  0.2508
 1060SOL    HW114813   0.375   3.311   7.891  1.4030  0.5984  1.6670
 1060SOL    HW214814   0.347   3.164   7.918  0.2239 -0.7304  0.9194
 1061SOL     OW14815   3.912   0.243   2.650 -0.4873 -0.5439  0.3789
 1061SOL    HW114816   3.873   0.156   2.658 -0.4623 -0.5884  0.0021
 1061SOL    HW214817   4.006   0.232   2.667 -0.3862  1.0706  0.8786
 1062SOL     OW14818   4.715   4.039   8.034 -0.0690  0.1595 -0.1416
 1062SOL    HW114819   0.048   4.083   8.084  0.6526 -0.0649 -0.9288
 1062SOL    HW214820   4.644   4.103   8.033  1.3691  1.7391 -1.2607
 1063SOL     OW14821   2.560   1.501   4.368  0.2602  0.3538 -0.4590
 1063SOL    HW114822   2.629   1.469   4.309  0.4058  0.2878 -0.2538
 1063SOL    HW214823   2.624   1.541   4.426  0.8934 -1.5054  0.1458
 1064SOL     OW14824   1.368   2.021  17.022  0.4894 -1.0728 -0.1899
 1064SOL    HW114825   1.403   1.960  17.087  3.4884  1.2949  0.4818
 1064SOL    HW214826   1.289   1.979  16.989  0.8802  0.4900 -3.1207
 1065SOL     OW14827   0.520   3.203   7.380 -0.4527  0.1109 -0.2549
 1065SOL    HW114828   0.543   3.210   7.287 -2.8542 -0.1586 -0.8647
 1065SOL    HW214829   0.602   3.233   7.419 -1.1514  1.4607  0.1864
 1066SOL     OW14830   1.776   4.553  14.157 -0.2621 -0.1509 -0.4039
 1066SOL    HW114831   1.701   4.600  14.120 -1.2374 -2.0680 -0.8444
 1066SOL    HW214832   1.838   4.568  14.087  1.8744  0.2687  1.5884
 1067SOL     OW14833   0.037   3.597   3.373  0.2059 -0.7853  0.3248
 1067SOL    HW114834   0.099   3.532   3.339  0.5393  0.2880 -1.1248
 1067SOL    HW214835   0.057   3.601   3.466 -2.5842 -1.8551  0.9642
 1068SOL     OW14836   0.815   0.223  10.841 -0.4515  0.4201  0.0310
 1068SOL    HW114837   0.802   0.317  10.849  0.9823  0.4731  1.6666
 1068SOL    HW214838   0.829   0.185  10.928 -0.6599 -0.3780 -0.2839
 1069SOL     OW14839   4.651   4.583   2.155  0.0687  0.1817 -0.2028
 1069SOL    HW114840   4.569   4.594   2.203  0.5094  3.3195 -0.1755
 1069SOL    HW214841   4.691   4.500   2.184 -0.2350  1.5203  4.1181
 1070SOL     OW14842   1.198   3.286   1.191  0.6042 -0.0152  0.3453
 1070SOL    HW114843   1.228   3.281   1.282  0.4600  3.3179  0.5867
 1070SOL    HW214844   1.191   3.380   1.176  0.4171  0.2480  2.0890
 1071SOL     OW14845   0.678   3.804   9.704  0.3219  0.3514  0.2139
 1071SOL    HW114846   0.692   3.774   9.614 -0.5102 -1.4543  0.6920
 1071SOL    HW214847   0.739   3.735   9.729  0.2628  0.4077  0.5112
 1072SOL     OW14848   3.442   1.310   5.694 -0.0894  0.0856  0.7074
 1072SOL    HW114849   3.392   1.291   5.773 -0.5608 -0.2853  0.3273
 1072SOL    HW214850   3.391   1.253   5.637  0.7109  1.2878 -1.2321
 1073SOL     OW14851   1.201   2.876   0.751  0.2978  0.1345 -0.7551
 1073SOL    HW114852   1.243   2.809   0.805  1.7374  1.2786 -0.4406
 1073SOL    HW214853   1.233   2.961   0.783  2.7648 -0.7103 -1.0091
 1074SOL     OW14854   3.049   3.148  12.001  0.1171  0.5598 -0.2257
 1074SOL    HW114855   2.982   3.097  11.955  1.4417 -0.6716 -0.8003
 1074SOL    HW214856   3.003   3.228  12.024 -2.0773 -1.0367  0.9403
 1075SOL     OW14857   4.132   3.115   2.237  0.0146  0.7084  0.4888
 1075SOL    HW114858   4.095   3.108   2.149 -0.4304 -0.0054  0.7396
 1075SOL    HW214859   4.144   3.210   2.249 -0.4297  0.4243  3.2424
 1076SOL     OW14860   2.580   2.092   9.945 -0.0804  0.1890  0.0826
 1076SOL    HW114861   2.542   2.132  10.023 -1.7292 -1.9042  0.3272
 1076SOL    HW214862   2.520   2.023   9.916  0.8354 -0.1731 -0.9562
 1077SOL     OW14863   0.005   1.508   7.841  0.7306 -0.6717 -0.3863
 1077SOL    HW114864   4.669   1.496   7.779  0.8302 -1.4167 -0.3657
 1077SOL    HW214865   4.702   1.455   7.910 -2.7126 -0.8430 -2.4579
 1078SOL     OW14866   1.290   4.164  15.090 -0.1597 -0.8332  0.8080
 1078SOL    HW114867   1.288   4.181  14.995  2.4511  0.2490  0.9412
 1078SOL    HW214868   1.292   4.069  15.099 -3.6564 -0.8111  1.6497
 1079SOL     OW14869   1.822   1.623   5.021 -0.0508  0.2796 -0.5467
 1079SOL    HW114870   1.780   1.707   5.004 -2.0112 -0.7557 -0.8864
 1079SOL    HW214871   1.758   1.571   4.973 -0.7417  0.6812 -0.0757
 1080SOL     OW14872   2.803   3.019  11.892 -0.0409 -0.2085 -0.1486
 1080SOL    HW114873   2.754   3.098  11.873  1.5921  0.7290 -0.4972
 1080SOL    HW214874   2.800   2.975  11.807  2.7800 -1.6099  0.4695
 1081SOL     OW14875   0.436   4.437   4.914  0.2324  0.1711 -0.4015
 1081SOL    HW114876   0.399   4.483   4.838  1.1218  2.3119  0.4742
 1081SOL    HW214877   0.484   4.364   4.875  0.1235 -0.2223  0.2046
 1082SOL     OW14878   3.138   4.491  17.438 -0.3329  0.0807  0.7598
 1082SOL    HW114879   3.231   4.508  17.423 -0.3735  0.7671  1.2679
 1082SOL    HW214880   3.099   4.555  17.378  0.5783 -0.0599  0.0313
 1083SOL     OW14881   1.333   4.607   6.880 -0.0349  0.6279  0.2716
 1083SOL    HW114882   1.350   4.536   6.942  1.9717 -0.1094 -1.1184
 1083SOL    HW214883   1.416   4.613   6.832 -0.0608  0.6003  0.2236
 1084SOL     OW14884   0.437   4.044   0.622 -0.5563 -0.3499 -0.6425
 1084SOL    HW114885   0.358   4.088   0.653  1.5262  1.7831  1.5985
 1084SOL    HW214886   0.442   3.994   0.703  1.3524  1.1711  0.1747
 1085SOL     OW14887   2.181   4.657   5.077  0.2097  0.6615  0.0331
 1085SOL    HW114888   2.214   4.691   5.160  0.7536 -0.5413  0.3138
 1085SOL    HW214889   2.085   4.665   5.084 -0.0082 -0.4059 -1.9372
 1086SOL     OW14890   3.768   1.902   5.582 -0.5543  0.0572  0.4491
 1086SOL    HW114891   3.788   1.992   5.606  0.4531  0.1557 -0.7666
 1086SOL    HW214892   3.710   1.866   5.650 -0.5684  0.0296  0.4225
 1087SOL     OW14893   0.713   1.127  12.507 -0.3933  0.4088  0.1640
 1087SOL    HW114894   0.650   1.107  12.577 -0.8677  1.0267 -0.0821
 1087SOL    HW214895   0.701   1.059  12.441 -1.2622  0.5875  0.1254
 1088SOL     OW14896   3.412   3.427  11.654 -0.1780  0.3631 -0.7566
 1088SOL    HW114897   3.363   3.362  11.703  0.5249  0.2800 -0.1599
 1088SOL    HW214898   3.502   3.410  11.681 -0.3007 -1.6785 -1.7005
 1089SOL     OW14899   0.932   2.315   6.126 -0.1611  0.6912 -0.0127
 1089SOL    HW114900   0.996   2.262   6.174  0.3257  0.1327 -1.2847
 1089SOL    HW214901   0.975   2.396   6.154  0.3401  0.4362 -0.0588
 1090SOL     OW14902   0.342   0.342   1.555  0.5732  0.5949 -0.1417
 1090SOL    HW114903   0.342   0.408   1.625 -1.0431  0.1278  0.2975
 1090SOL    HW214904   0.282   0.278   1.592 -0.4491  2.1254  0.8655
 1091SOL     OW14905   0.672   4.444   2.789 -0.2041 -0.5616  1.0402
 1091SOL    HW114906   0.641   4.520   2.739 -0.8306 -1.3894  0.1637
 1091SOL    HW214907   0.757   4.427   2.748  0.2875  0.0058  1.8216
 1092SOL     OW14908   0.271   0.261  14.335 -0.5078 -0.3281 -0.1465
 1092SOL    HW114909   0.247   0.263  14.428  3.8915  2.6327  0.9188
 1092SOL    HW214910   0.365   0.282  14.332 -0.7514  1.1375  2.7844
 1093SOL     OW14911   2.826   2.665  11.042  0.3884 -0.2896 -0.2983
 1093SOL    HW114912   2.734   2.636  11.037  0.0666  0.9013 -1.3280
 1093SOL    HW214913   2.846   2.682  10.950  0.8321 -1.6317 -0.4451
 1094SOL     OW14914   1.332   4.361   6.978 -0.2829  0.0646 -0.0562
 1094SOL    HW114915   1.391   4.304   6.929  0.2365 -1.1767  2.0183
 1094SOL    HW214916   1.329   4.325   7.067 -1.4032 -0.2062 -0.1988
 1095SOL     OW14917   2.195   2.791   9.396 -0.4107 -0.1513 -0.8248
 1095SOL    HW114918   2.167   2.756   9.312  1.4762  0.6436 -1.8038
 1095SOL    HW214919   2.288   2.770   9.390 -0.2710  0.5730 -1.1619
 1096SOL     OW14920   1.598   3.406  16.599 -0.0319 -0.4753 -0.1515
 1096SOL    HW114921   1.627   3.463  16.670 -1.5434 -1.3594  1.1828
 1096SOL    HW214922   1.671   3.405  16.537  2.2643 -3.5321  2.5601
 1097SOL     OW14923   0.255   0.991   1.204 -0.1219 -0.2138 -0.0786
 1097SOL    HW114924   0.248   1.086   1.207  0.0446 -0.2280  0.6599
 1097SOL    HW214925   0.170   0.974   1.163  0.3747 -0.7186 -0.9013
 1098SOL     OW14926   0.758   2.936   9.240 -0.1336 -0.0635  0.5651
 1098SOL    HW114927   0.747   2.871   9.170  0.6633  1.1963 -0.7241
 1098SOL    HW214928   0.742   3.017   9.192 -1.7076 -0.5733  0.2024
 1099SOL     OW14929   2.745   2.313  13.994 -0.3897  0.3529  0.6718
 1099SOL    HW114930   2.765   2.405  14.012 -2.9551  0.8370  1.0313
 1099SOL    HW214931   2.656   2.322  13.960  0.2679  0.5671 -0.9775
 1100SOL     OW14932   3.827   3.929   4.896 -0.3952  0.0092  0.3857
 1100SOL    HW114933   3.802   4.008   4.849 -1.9581  0.2476  1.6066
 1100SOL    HW214934   3.783   3.862   4.842 -0.5319  1.7730 -1.6912
 1101SOL     OW14935   4.150   2.286   5.002  0.1994  0.7735  0.2605
 1101SOL    HW114936   4.232   2.299   5.049  1.1809  0.4912 -1.3714
 1101SOL    HW214937   4.131   2.369   4.959 -1.5914 -0.7085 -1.8689
 1102SOL     OW14938   4.689   1.427   9.867  0.4029  0.6730  0.4688
 1102SOL    HW114939   0.047   1.441   9.874  0.1187  1.7892  1.9733
 1102SOL    HW214940   4.682   1.333   9.847  3.2962  0.8383 -1.2221
 1103SOL     OW14941   3.384   1.211   4.316  0.4155 -0.4736  0.4889
 1103SOL    HW114942   3.383   1.184   4.224  0.8518 -0.0732  0.3647
 1103SOL    HW214943   3.460   1.163   4.348  1.4776  0.0879 -1.1697
 1104SOL     OW14944   2.704   2.067   4.904  0.0808 -0.8086  0.0302
 1104SOL    HW114945   2.728   2.105   4.820  0.3844  0.3289  0.6395
 1104SOL    HW214946   2.629   2.122   4.925  1.3815  1.9442 -2.6196
 1105SOL     OW14947   2.171   1.846   8.373  0.1824  0.4598  0.4316
 1105SOL    HW114948   2.199   1.916   8.432  2.5982  0.0423 -0.2579
 1105SOL    HW214949   2.247   1.831   8.317 -0.9946 -0.2776 -0.9801
 1106SOL     OW14950   3.263   3.267   6.668 -0.3797  0.1721  0.1035
 1106SOL    HW114951   3.211   3.205   6.617 -1.0922  1.5209 -0.8212
 1106SOL    HW214952   3.229   3.254   6.757 -1.4671  0.0223 -0.3361
 1107SOL     OW14953   1.787   0.013   9.139  0.0365 -0.1302  0.2222
 1107SOL    HW114954   1.831   0.032   9.222 -1.6199 -0.4382  1.1715
 1107SOL    HW214955   1.694   0.026   9.156  0.0082 -0.3872  0.2704
 1108SOL     OW14956   0.956   1.475   4.165 -0.5162  0.0819  0.0973
 1108SOL    HW114957   0.965   1.500   4.073 -0.2953  2.0696  0.6551
 1108SOL    HW214958   0.903   1.548   4.197 -1.0995 -1.7958  3.3874
 1109SOL     OW14959   0.240   0.640   4.388  0.4594  0.3348 -0.0123
 1109SOL    HW114960   0.229   0.610   4.478  0.4610  2.1062  0.5886
 1109SOL    HW214961   0.217   0.557   4.347 -1.0502  0.9235 -0.3618
 1110SOL     OW14962   1.385   3.278   3.409 -0.2825 -0.0686  0.6655
 1110SOL    HW114963   1.347   3.203   3.364  1.0390 -0.3157 -0.0122
 1110SOL    HW214964   1.449   3.302   3.343 -1.4804  0.8370 -0.1786
 1111SOL     OW14965   4.189   4.352   2.978 -0.0161  0.3413 -0.6436
 1111SOL    HW114966   4.235   4.429   2.945 -1.8845  1.3651 -0.8411
 1111SOL    HW214967   4.251   4.285   2.948 -0.5422 -0.1176 -0.7012
 1112SOL     OW14968   0.899   3.862   9.048  0.2433  0.7462  0.3025
 1112SOL    HW114969   0.882   3.822   8.963 -0.5212  2.1433 -0.1871
 1112SOL    HW214970   0.993   3.842   9.053  0.4625  2.4234  2.7404
 1113SOL     OW14971   3.107   0.484  16.125 -0.1154  0.3827  0.0917
 1113SOL    HW114972   3.119   0.525  16.211  1.6646 -0.3993  0.2145
 1113SOL    HW214973   3.103   0.394  16.157 -3.8437  1.6988  3.2988
 1114SOL     OW14974   3.836   0.221   9.625 -0.3522  1.0223  0.5879
 1114SOL    HW114975   3.791   0.218   9.541  2.0559 -3.4413 -0.4956
 1114SOL    HW214976   3.900   0.152   9.608 -1.3129  1.3131 -4.2143
 1115SOL     OW14977   3.770   1.883  14.213 -0.3632  0.1292  0.3362
 1115SOL    HW114978   3.721   1.801  14.217 -0.1208 -0.0920 -1.2868
 1115SOL    HW214979   3.848   1.862  14.162  0.7211  1.3706  1.4718
 1116SOL     OW14980   2.166   2.989   5.570 -0.0251  0.3865  0.3257
 1116SOL    HW114981   2.239   3.026   5.521 -0.0658  0.0780  0.0292
 1116SOL    HW214982   2.111   3.067   5.574 -0.0846  0.4177 -1.1283
 1117SOL     OW14983   4.127   2.402   9.775  0.4932 -0.7616  0.2420
 1117SOL    HW114984   4.091   2.450   9.701 -2.1724 -2.7031  0.2787
 1117SOL    HW214985   4.215   2.396   9.737  1.0233 -2.0215  1.6764
 1118SOL     OW14986   0.678   4.486  15.027  0.1919 -0.3163 -0.3264
 1118SOL    HW114987   0.596   4.484  14.977 -1.2305  2.9311  1.8948
 1118SOL    HW214988   0.674   4.394  15.054  1.2827  0.2273  1.7079
 1119SOL     OW14989   3.682   2.676   2.411 -0.0766  0.6329  0.5242
 1119SOL    HW114990   3.619   2.609   2.439  0.0053 -0.5169 -2.0707
 1119SOL    HW214991   3.631   2.721   2.344 -2.5453 -2.7064  0.1741
 1120SOL     OW14992   0.837   4.107  16.337  0.0355  0.2721 -0.1381
 1120SOL    HW114993   0.786   4.162  16.277  0.5175  2.1285  1.1453
 1120SOL    HW214994   0.923   4.130  16.303 -0.2240  1.0071 -0.3127
 1121SOL     OW14995   1.351   3.213   2.459 -0.4395  0.2570 -0.2944
 1121SOL    HW114996   1.350   3.199   2.365  4.3859  1.5560 -0.5488
 1121SOL    HW214997   1.402   3.138   2.491  1.7001  3.1029  3.0099
 1122SOL     OW14998   2.045   2.575   2.980  0.1606  0.4817  0.7346
 1122SOL    HW114999   2.016   2.537   2.897 -1.7582 -2.4091  2.7490
 1122SOL    HW215000   2.121   2.628   2.954 -0.6937  2.4073  2.1160
 1123SOL     OW15001   4.108   4.312   7.640 -0.0543  0.0165 -0.3458
 1123SOL    HW115002   4.029   4.356   7.671 -0.1562 -0.5023  0.1404
 1123SOL    HW215003   4.173   4.368   7.682 -0.0353 -0.1383 -0.1627
 1124SOL     OW15004   1.324   3.646  14.212  0.2124  0.4930  0.3047
 1124SOL    HW115005   1.261   3.710  14.179 -0.5077  0.4670  1.6597
 1124SOL    HW215006   1.267   3.570  14.220  0.1737  0.4963  0.0843
 1125SOL     OW15007   4.316   2.103  15.545 -0.9303  0.1198  0.0706
 1125SOL    HW115008   4.290   2.019  15.506  0.8766  0.3736 -1.6757
 1125SOL    HW215009   4.336   2.079  15.635 -1.1016 -1.9099 -0.4272
 1126SOL     OW15010   3.311   4.279   4.739 -0.1769  0.1123 -0.0351
 1126SOL    HW115011   3.309   4.223   4.816  0.8987 -0.0813 -0.1515
 1126SOL    HW215012   3.216   4.285   4.725 -0.6156 -0.2386  2.7350
 1127SOL     OW15013   1.058   4.700   6.082  0.3521 -0.3344  0.3128
 1127SOL    HW115014   1.071   4.619   6.131  0.9003 -1.2779 -1.4003
 1127SOL    HW215015   1.009   4.670   6.005  0.5875 -0.1182  0.0810
 1128SOL     OW15016   1.300   3.678   6.228  0.0279  0.1486  0.4492
 1128SOL    HW115017   1.227   3.687   6.166 -1.3814  0.2181  2.1344
 1128SOL    HW215018   1.273   3.601   6.278  0.0908 -0.6306 -0.6935
 1129SOL     OW15019   4.665   0.351  15.196  0.9448 -0.0373  0.1482
 1129SOL    HW115020   4.685   0.396  15.113 -0.2562 -2.1822 -1.3109
 1129SOL    HW215021   0.002   0.291  15.193 -0.2066 -1.3899 -1.2156
 1130SOL     OW15022   1.040   4.499   0.922  0.1969 -0.1335 -0.2171
 1130SOL    HW115023   0.989   4.568   0.964 -1.3099 -0.7924 -0.9780
 1130SOL    HW215024   0.968   4.438   0.908 -1.1572  1.3341  0.4382
 1131SOL     OW15025   1.655   1.716  12.348  0.5247 -0.4009  0.3241
 1131SOL    HW115026   1.619   1.787  12.295 -1.2759 -1.6942 -0.1995
 1131SOL    HW215027   1.598   1.724  12.424 -0.4417 -0.0389 -0.4318
 1132SOL     OW15028   1.087   0.688   4.018 -0.4374  0.4451  0.0883
 1132SOL    HW115029   1.125   0.623   3.960  2.1298  1.4010  0.6751
 1132SOL    HW215030   1.018   0.642   4.065  0.7357 -1.3509  0.0599
 1133SOL     OW15031   4.693   4.037   4.358 -0.6069  0.0680 -0.1649
 1133SOL    HW115032   4.697   3.942   4.349  0.2206  0.0679  0.2354
 1133SOL    HW215033   4.615   4.035   4.412  0.4482  2.0662  1.4216
 1134SOL     OW15034   1.761   2.196   2.243 -0.1204  0.1502  0.2781
 1134SOL    HW115035   1.785   2.205   2.151  1.1327 -0.4911  0.5461
 1134SOL    HW215036   1.666   2.187   2.253  0.2435 -1.9819  1.8644
 1135SOL     OW15037   3.483   4.296   8.249 -0.3777 -0.1570 -0.6230
 1135SOL    HW115038   3.507   4.306   8.157 -2.1162 -2.4066 -1.3095
 1135SOL    HW215039   3.437   4.212   8.242 -1.2700  0.2177  0.7925
 1136SOL     OW15040   1.360   1.567   3.697 -0.1986  0.0077 -0.4594
 1136SOL    HW115041   1.388   1.648   3.655 -1.3442  0.3736 -0.5172
 1136SOL    HW215042   1.433   1.508   3.682 -0.3751  0.2467 -2.1818
 1137SOL     OW15043   1.711   0.950   5.331 -0.1681 -0.0456 -0.0535
 1137SOL    HW115044   1.694   1.009   5.258 -1.6783  0.8080  0.9905
 1137SOL    HW215045   1.675   0.988   5.411 -1.2016 -0.6708 -0.2131
 1138SOL     OW15046   1.131   3.520   1.106 -0.1237  0.3279 -0.1755
 1138SOL    HW115047   1.140   3.615   1.116  0.8059  0.2825 -0.5805
 1138SOL    HW215048   1.074   3.511   1.029  1.3966  0.1591 -1.2790
 1139SOL     OW15049   4.634   0.021   7.443  0.5051 -0.2616 -0.4413
 1139SOL    HW115050   4.555   4.704   7.449  0.5647 -0.1867  1.1220
 1139SOL    HW215051   4.687   4.680   7.424  0.9873  0.2331 -1.1054
 1140SOL     OW15052   4.460   4.476  10.619 -0.9776 -0.1578 -0.3309
 1140SOL    HW115053   4.554   4.476  10.635 -1.1414 -1.2154  0.6147
 1140SOL    HW215054   4.424   4.493  10.706 -2.1510  0.9810 -1.0187
 1141SOL     OW15055   2.296   3.840  11.535 -0.7548  0.0828  0.2133
 1141SOL    HW115056   2.383   3.865  11.504  0.6273 -1.0014  3.2460
 1141SOL    HW215057   2.269   3.774  11.472  0.2579  1.0654 -1.2255
 1142SOL     OW15058   0.463   0.953   4.443 -0.4028  0.4416 -0.2374
 1142SOL    HW115059   0.550   0.992   4.457 -0.0683 -0.7872  1.1704
 1142SOL    HW215060   0.487   0.872   4.488 -1.2055  1.1507  1.4387
 1143SOL     OW15061   3.903   0.906   9.229 -0.1705  0.3134 -0.3970
 1143SOL    HW115062   3.957   0.843   9.181  1.8109  0.5850  1.4819
 1143SOL    HW215063   3.939   0.991   9.205 -2.1316  1.5229  0.9596
 1144SOL     OW15064   1.761   3.779  14.060 -0.3016 -0.3365  0.0255
 1144SOL    HW115065   1.771   3.690  14.092 -2.4620 -0.3819  0.6231
 1144SOL    HW215066   1.680   3.766  14.011  0.3229 -0.7822 -0.8806
 1145SOL     OW15067   2.138   1.733  15.050  0.0713  0.4466  0.1787
 1145SOL    HW115068   2.136   1.721  15.145 -3.6978  0.1822  0.0865
 1145SOL    HW215069   2.212   1.790  15.030  0.7662 -1.0042 -1.3171
 1146SOL     OW15070   3.481   4.241   1.006 -0.7301  0.3921 -0.4314
 1146SOL    HW115071   3.576   4.240   0.993 -0.6655 -0.8255  0.1166
 1146SOL    HW215072   3.458   4.149   0.993  0.1752 -0.0799  1.2766
 1147SOL     OW15073   3.690   1.199   5.621 -0.2749 -0.3566  0.4756
 1147SOL    HW115074   3.664   1.168   5.534 -1.5214  1.1706  0.2947
 1147SOL    HW215075   3.603   1.232   5.645 -0.3521  0.0820 -0.3790
 1148SOL     OW15076   0.732   3.374   1.558 -0.1515 -0.1546 -0.2574
 1148SOL    HW115077   0.736   3.437   1.630 -0.9441 -0.9723  0.4919
 1148SOL    HW215078   0.767   3.290   1.588 -2.9571 -0.7351  1.3254
 1149SOL     OW15079   0.352   3.795  13.008  0.1695 -0.3109  0.3831
 1149SOL    HW115080   0.332   3.849  12.931  1.2412  0.7207  0.8415
 1149SOL    HW215081   0.283   3.729  12.997  0.6807 -1.0630  1.6982
 1150SOL     OW15082   3.116   0.025   6.357  0.1419  0.1938 -0.3867
 1150SOL    HW115083   3.126   0.106   6.407  2.2105  0.6212 -1.4804
 1150SOL    HW215084   3.193   0.027   6.299 -0.1149  1.2591 -0.6902
 1151SOL     OW15085   2.662   0.881  12.077  0.4365 -0.4886  0.1921
 1151SOL    HW115086   2.670   0.884  12.173 -0.5442 -0.6643  0.2807
 1151SOL    HW215087   2.734   0.938  12.048  0.5336 -1.2084 -0.9652
 1152SOL     OW15088   0.872   4.053   3.826 -0.3933 -0.6361  0.1662
 1152SOL    HW115089   0.857   3.967   3.865  0.8204 -0.9619 -0.0974
 1152SOL    HW215090   0.801   4.065   3.763 -0.7191 -1.6170  0.3373
 1153SOL     OW15091   3.974   3.394   4.125  0.3292  0.5131 -0.4638
 1153SOL    HW115092   3.919   3.347   4.188  0.8021  0.0134 -0.4294
 1153SOL    HW215093   4.057   3.347   4.126 -0.1587 -0.3295  0.5317
 1154SOL     OW15094   2.378   3.826   7.712 -0.0236 -0.3021  0.4990
 1154SOL    HW115095   2.358   3.880   7.788  0.1540  2.5580 -1.4850
 1154SOL    HW215096   2.471   3.845   7.696  0.1399 -0.7337  0.9623
 1155SOL     OW15097   1.574   4.619   7.915  0.2882  1.0635  0.0314
 1155SOL    HW115098   1.486   4.622   7.953 -0.1804 -0.9536 -0.8634
 1155SOL    HW215099   1.597   4.710   7.928 -2.5034  1.9860 -1.4931
 1156SOL     OW15100   1.570   1.587   8.381  0.2326 -0.0442  0.5478
 1156SOL    HW115101   1.513   1.582   8.304 -0.8990  0.7705  1.3259
 1156SOL    HW215102   1.630   1.514   8.367  0.1076 -0.2371  0.9843
 1157SOL     OW15103   0.620   3.610   7.313 -0.0105 -0.3608 -0.4017
 1157SOL    HW115104   0.695   3.636   7.367 -0.3379  0.3281 -0.2764
 1157SOL    HW215105   0.594   3.518   7.324 -0.6070 -0.3336 -1.5359
 1158SOL     OW15106   4.111   1.512  16.273  0.7819 -0.7895 -0.3646
 1158SOL    HW115107   4.054   1.589  16.263  1.8346 -0.0306 -0.5466
 1158SOL    HW215108   4.184   1.550  16.322  0.3954 -1.2326  0.5651
 1159SOL     OW15109   4.457   1.277   3.964 -0.1022  0.4933 -0.2230
 1159SOL    HW115110   4.427   1.286   4.055 -0.3980 -1.1455 -0.1652
 1159SOL    HW215111   4.380   1.256   3.911 -0.9652 -0.6794  1.5006
 1160SOL     OW15112   1.441   3.047   5.015 -0.6823  0.3304  0.2479
 1160SOL    HW115113   1.413   3.125   5.062 -0.8389 -1.5630  3.2727
 1160SOL    HW215114   1.531   3.077   5.001 -1.3325  1.0911 -2.3444
 1161SOL     OW15115   4.084   3.673  10.924  0.3647  0.0139  0.1576
 1161SOL    HW115116   4.152   3.656  10.859  0.7629  1.7832  0.1152
 1161SOL    HW215117   4.108   3.761  10.952  2.3863 -0.3170 -0.5713
 1162SOL     OW15118   1.551   4.457   5.033 -0.3480  0.0885 -0.0948
 1162SOL    HW115119   1.521   4.502   4.955 -1.1066  1.0767  0.7822
 1162SOL    HW215120   1.468   4.464   5.079  0.2160  0.7529  0.8289
 1163SOL     OW15121   1.785   3.762   0.174  0.2282 -0.3236 -0.3519
 1163SOL    HW115122   1.745   3.705   0.109  0.5777  0.9298 -1.6605
 1163SOL    HW215123   1.707   3.787   0.223  1.5445  0.8906  1.1279
 1164SOL     OW15124   3.923   0.759   9.485  0.0427  0.1821  0.1740
 1164SOL    HW115125   3.912   0.722   9.397  1.0977  2.3232 -0.8485
 1164SOL    HW215126   3.922   0.677   9.534  1.2448  0.3753  0.5032
 1165SOL     OW15127   2.317   3.498   9.441 -0.3497  0.1815  0.5647
 1165SOL    HW115128   2.390   3.545   9.480 -0.3126 -1.6487  2.7417
 1165SOL    HW215129   2.275   3.571   9.397  0.5318 -0.3259 -1.0960
 1166SOL     OW15130   1.814   3.310   8.933  0.4665  0.8353  1.0532
 1166SOL    HW115131   1.870   3.236   8.958 -0.7754  0.2644  2.1110
 1166SOL    HW215132   1.873   3.383   8.951  1.7231  0.0180  0.3445
 1167SOL     OW15133   3.233   3.754   8.460  0.8170 -0.5567  0.7341
 1167SOL    HW115134   3.165   3.727   8.398 -0.1141 -0.1597  1.5994
 1167SOL    HW215135   3.185   3.829   8.496  3.1811  0.0974  2.4782
 1168SOL     OW15136   0.230   1.932   4.016 -0.0539 -0.5836 -0.4662
 1168SOL    HW115137   0.215   1.907   3.925  0.3406 -1.9905 -0.1340
 1168SOL    HW215138   0.305   1.879   4.043 -0.7952 -1.3970 -0.0344
 1169SOL     OW15139   3.681   3.646   9.880  0.0709  0.0603 -0.2822
 1169SOL    HW115140   3.635   3.579   9.930  1.3007 -1.5486 -1.2728
 1169SOL    HW215141   3.737   3.584   9.832  1.6948  1.6324 -0.4061
 1170SOL     OW15142   4.228   4.584  16.855  0.1848  0.1382  0.5255
 1170SOL    HW115143   4.200   4.617  16.770  0.6546  2.0848  1.1244
 1170SOL    HW215144   4.192   4.497  16.840 -1.0206  1.0397 -1.7822
 1171SOL     OW15145   2.820   0.582   8.622 -0.5935  0.0300 -0.4327
 1171SOL    HW115146   2.906   0.593   8.662 -0.1366 -0.2658 -1.3321
 1171SOL    HW215147   2.769   0.546   8.695  1.0625 -2.0038 -0.2523
 1172SOL     OW15148   1.938   1.042  15.223  0.6406 -0.5067 -0.0007
 1172SOL    HW115149   1.933   1.034  15.127  1.1624 -0.2027 -0.0521
 1172SOL    HW215150   2.001   1.113  15.233  1.3937 -1.4320  1.6557
 1173SOL     OW15151   2.775   0.681   2.798 -0.6100  0.5161 -0.1556
 1173SOL    HW115152   2.749   0.598   2.759 -0.4595  0.2754  0.2599
 1173SOL    HW215153   2.810   0.728   2.722 -0.2046 -0.3381 -0.4990
 1174SOL     OW15154   3.142   1.140   4.472 -0.6394  0.1507 -0.4316
 1174SOL    HW115155   3.075   1.106   4.414  1.6385  0.7628 -3.4258
 1174SOL    HW215156   3.210   1.158   4.407 -0.1093  1.5740  0.5131
 1175SOL     OW15157   0.115   3.256   2.660  0.0375  0.2922 -0.1733
 1175SOL    HW115158   0.089   3.347   2.678  3.4042  1.2425 -0.0976
 1175SOL    HW215159   0.036   3.230   2.612 -0.0081  0.4143 -0.1648
 1176SOL     OW15160   1.164   0.671   8.596  0.3122 -0.1149  0.0625
 1176SOL    HW115161   1.180   0.641   8.506 -2.0303 -3.0010  0.6203
 1176SOL    HW215162   1.184   0.763   8.584  0.5211 -0.2876 -0.9223
 1177SOL     OW15163   3.589   0.349   9.195  0.1052 -0.0429  0.5110
 1177SOL    HW115164   3.558   0.395   9.117  3.8734 -0.3133 -1.1414
 1177SOL    HW215165   3.530   0.387   9.261  3.5401  1.6111  2.6142
 1178SOL     OW15166   2.539   3.921  11.469 -0.4602 -0.5141 -0.3238
 1178SOL    HW115167   2.587   3.987  11.420 -1.8136  0.2163 -0.6519
 1178SOL    HW215168   2.558   3.938  11.561  1.0493 -2.4527 -0.2856
 1179SOL     OW15169   2.172   3.366   5.473  0.1453  0.3841 -0.0462
 1179SOL    HW115170   2.116   3.338   5.546 -1.2606  2.2035 -0.4443
 1179SOL    HW215171   2.246   3.412   5.515 -1.6635  0.2217  3.3267
 1180SOL     OW15172   1.556   2.526   8.442  0.5884 -0.5372  0.0611
 1180SOL    HW115173   1.503   2.475   8.381  0.8060 -0.1400 -0.4618
 1180SOL    HW215174   1.485   2.576   8.482 -2.4018 -3.8464 -1.2108
 1181SOL     OW15175   2.292   2.852  14.636 -0.3501 -0.3603 -0.3186
 1181SOL    HW115176   2.271   2.805  14.717  1.0252 -0.3579  0.0368
 1181SOL    HW215177   2.377   2.813  14.617 -0.8158 -1.1016 -0.8842
 1182SOL     OW15178   3.830   2.754   6.746 -0.2422  0.1293  0.2573
 1182SOL    HW115179   3.925   2.750   6.731 -0.3695 -0.3581 -0.4607
 1182SOL    HW215180   3.818   2.722   6.835  1.9988 -0.4433  0.3517
 1183SOL     OW15181   2.768   2.130  14.372  0.1570 -0.1356  0.0411
 1183SOL    HW115182   2.819   2.163  14.446  0.6761 -0.5255 -0.1456
 1183SOL    HW215183   2.763   2.203  14.310  1.5392 -0.8791 -0.9274
 1184SOL     OW15184   4.492   1.667   4.977 -0.6750  0.2201 -0.2764
 1184SOL    HW115185   4.524   1.589   5.023 -3.2021  0.0227  1.1581
 1184SOL    HW215186   4.397   1.664   4.992 -0.7038  3.4881  0.0764
 1185SOL     OW15187   3.417   3.430   9.509  0.0440 -0.1123 -0.2900
 1185SOL    HW115188   3.447   3.520   9.496 -0.2893  0.1464  0.7348
 1185SOL    HW215189   3.340   3.438   9.566 -0.0697 -0.7233 -0.3545
 1186SOL     OW15190   2.196   3.426  15.229 -0.4441 -0.4066 -0.4219
 1186SOL    HW115191   2.130   3.360  15.209 -1.4057 -0.1814  1.9229
 1186SOL    HW215192   2.139   3.501  15.249 -2.1955 -1.5496 -1.1396
 1187SOL     OW15193   4.082   1.531   7.073 -0.6356  0.4285 -0.0806
 1187SOL    HW115194   4.119   1.481   7.001  0.1978  1.3976 -0.3190
 1187SOL    HW215195   3.996   1.489   7.064 -0.7805  0.6503  0.2438
 1188SOL     OW15196   3.553   0.772   3.236 -0.4242 -0.0936 -0.4972
 1188SOL    HW115197   3.591   0.820   3.310 -0.7694 -2.1142  0.9929
 1188SOL    HW215198   3.499   0.836   3.190  0.8137 -0.0920 -1.9818
 1189SOL     OW15199   1.436   1.464   6.634 -0.1047 -0.3640  0.3411
 1189SOL    HW115200   1.455   1.539   6.690  0.5237 -0.3770  0.1454
 1189SOL    HW215201   1.458   1.503   6.549 -0.2225 -0.8864  0.0730
 1190SOL     OW15202   1.928   3.287   3.312 -0.2328  0.2322 -0.0859
 1190SOL    HW115203   1.896   3.336   3.388  0.3126 -0.7295  0.7655
 1190SOL    HW215204   1.947   3.199   3.344 -0.1544 -0.3079 -1.6043
 1191SOL     OW15205   3.827   1.769   3.420 -0.0124  0.2577  0.1881
 1191SOL    HW115206   3.907   1.815   3.447 -0.8662  1.8753  0.0174
 1191SOL    HW215207   3.784   1.836   3.366 -1.7297 -2.2555 -1.5729
 1192SOL     OW15208   3.795   3.781   2.089 -0.4566  0.2460 -0.4367
 1192SOL    HW115209   3.719   3.838   2.074 -0.3196  0.6747  0.5125
 1192SOL    HW215210   3.751   3.698   2.110  1.2477 -0.2373  1.1949
 1193SOL     OW15211   3.865   1.988   0.906 -0.4809 -0.3335 -0.1704
 1193SOL    HW115212   3.913   1.927   0.962 -3.1027 -0.3370  2.0444
 1193SOL    HW215213   3.776   1.963   0.929 -0.8103  2.1375  1.1974
 1194SOL     OW15214   1.669   2.642   4.316  0.0705 -0.0547  0.1119
 1194SOL    HW115215   1.692   2.549   4.318  0.0197 -0.0789 -0.4253
 1194SOL    HW215216   1.613   2.638   4.238 -0.3752  1.0632  0.3633
 1195SOL     OW15217   2.153   2.569   6.821 -0.2212  0.6070 -0.0660
 1195SOL    HW115218   2.100   2.643   6.794 -1.9067 -1.0523 -1.2821
 1195SOL    HW215219   2.170   2.516   6.743  3.3101  0.2878  0.9107
 1196SOL     OW15220   2.591   4.336   4.822 -0.0890 -0.1792 -0.8135
 1196SOL    HW115221   2.569   4.255   4.869  0.0553  1.4805  2.1076
 1196SOL    HW215222   2.519   4.370   4.768 -1.3883 -1.2094  0.2492
 1197SOL     OW15223   0.794   3.559   6.687  0.5976  0.0190  0.3245
 1197SOL    HW115224   0.748   3.507   6.621 -1.5671  1.4362  0.7307
 1197SOL    HW215225   0.734   3.573   6.760  1.8134 -0.2742  1.3853
 1198SOL     OW15226   3.777   2.963   4.314  0.2612  0.7619 -0.1078
 1198SOL    HW115227   3.686   2.963   4.282  0.3909  0.1612 -0.4722
 1198SOL    HW215228   3.791   2.872   4.339  3.7778  0.7048 -2.2801
 1199SOL     OW15229   2.815   0.695  12.232 -0.3837 -0.0794 -0.0646
 1199SOL    HW115230   2.799   0.736  12.147 -0.6457  0.5868  0.3054
 1199SOL    HW215231   2.906   0.720  12.251 -0.7136 -0.3262  1.9348
 1200SOL     OW15232   2.832   0.433   0.062  0.3396 -0.3757  0.5878
 1200SOL    HW115233   2.749   0.478   0.048 -0.0749 -2.1763 -2.5970
 1200SOL    HW215234   2.813   0.341   0.077 -2.6293  0.0408 -0.7040
 1201SOL     OW15235   4.705   2.483  15.318 -0.0102 -0.7319 -0.1751
 1201SOL    HW115236   0.043   2.437  15.357  0.0819  1.3949  2.1442
 1201SOL    HW215237   4.693   2.551  15.384 -2.6962 -0.9743 -0.4062
 1202SOL     OW15238   4.427   4.078   3.128  0.4721  0.8220 -0.4976
 1202SOL    HW115239   4.408   4.104   3.038  0.4919  0.4811 -0.5989
 1202SOL    HW215240   4.397   4.156   3.175  0.4936  0.3404  0.3175
 1203SOL     OW15241   4.256   1.629   8.431 -0.3285 -0.4772  0.4293
 1203SOL    HW115242   4.224   1.691   8.497  0.4262  0.7130 -0.3053
 1203SOL    HW215243   4.173   1.593   8.401 -1.0174  0.1744  1.5691
 1204SOL     OW15244   0.502   4.594   8.568 -0.1334 -0.2717  0.1594
 1204SOL    HW115245   0.529   4.685   8.551  0.8810 -0.7226 -0.6513
 1204SOL    HW215246   0.583   4.544   8.567 -0.5614 -0.9974  3.5207
 1205SOL     OW15247   1.675   2.179   8.651  0.2278 -0.4192  0.8878
 1205SOL    HW115248   1.669   2.148   8.561 -0.3959 -0.8673  1.0753
 1205SOL    HW215249   1.688   2.271   8.632  1.3078 -0.6395  0.6070
 1206SOL     OW15250   4.186   3.282   7.856  0.0979  0.0037  1.0091
 1206SOL    HW115251   4.199   3.369   7.818  1.9543 -1.3902 -1.5989
 1206SOL    HW215252   4.135   3.248   7.782 -1.1268  0.3645  1.6879
 1207SOL     OW15253   3.743   4.287   4.262  0.7510 -0.0989  0.0494
 1207SOL    HW115254   3.741   4.371   4.309 -2.6286  0.2309 -0.6590
 1207SOL    HW215255   3.748   4.323   4.174  1.9134  1.0517  0.5894
 1208SOL     OW15256   1.968   3.698   2.442  0.0918  0.0240 -0.3080
 1208SOL    HW115257   1.887   3.690   2.493 -0.6531  1.7199 -1.2330
 1208SOL    HW215258   2.024   3.737   2.510 -1.0254  0.8096  0.1712
 1209SOL     OW15259   3.659   4.435   5.700  0.6593 -0.7981 -0.3824
 1209SOL    HW115260   3.702   4.469   5.621  0.9378 -0.5737 -0.1348
 1209SOL    HW215261   3.650   4.506   5.763 -2.0380 -1.5133  0.0352
 1210SOL     OW15262   1.195   0.973   5.010 -0.3843 -0.3788 -0.8312
 1210SOL    HW115263   1.258   0.948   4.943 -0.4180 -0.3194 -0.8854
 1210SOL    HW215264   1.257   0.963   5.082 -1.1773 -3.1237 -0.5400
 1211SOL     OW15265   4.361   2.612   3.857  0.2994 -0.3551  0.0922
 1211SOL    HW115266   4.317   2.602   3.941 -1.6195  2.5500 -0.5482
 1211SOL    HW215267   4.450   2.618   3.891 -0.1457 -0.2384  1.2209
 1212SOL     OW15268   0.396   3.086   4.644  0.2455 -0.4970 -0.2816
 1212SOL    HW115269   0.488   3.090   4.618  0.4076 -0.7374  0.2560
 1212SOL    HW215270   0.398   3.071   4.738 -1.2759  0.2527 -0.1424
 1213SOL     OW15271   1.018   1.863   5.732  0.0935  0.4377  0.6383
 1213SOL    HW115272   1.089   1.913   5.773 -0.6369  2.1131 -0.1218
 1213SOL    HW215273   0.936   1.904   5.762  0.2744 -0.7259  2.6524
 1214SOL     OW15274   2.528   0.051   8.337 -0.2609 -0.4635  0.0094
 1214SOL    HW115275   2.459   4.722   8.348 -0.8960  0.5829  2.3389
 1214SOL    HW215276   2.568   0.018   8.257  1.2515 -1.3256  1.1295
 1215SOL     OW15277   1.933   2.279   2.423  0.0474  0.7205  0.4082
 1215SOL    HW115278   1.873   2.259   2.352  0.7181  0.9928 -0.2328
 1215SOL    HW215279   1.899   2.359   2.464  0.5280  1.3648 -0.4483
 1216SOL     OW15280   2.998   2.381   8.888 -0.4122 -0.0449  0.5413
 1216SOL    HW115281   3.068   2.423   8.938  0.6493 -2.2007  0.8705
 1216SOL    HW215282   3.041   2.310   8.839 -0.3236  0.6454 -0.3914
 1217SOL     OW15283   1.950   3.733   4.158 -0.2970 -0.4632 -0.5776
 1217SOL    HW115284   1.945   3.828   4.169  2.0341 -0.2424 -1.4026
 1217SOL    HW215285   2.042   3.724   4.133 -0.2099  0.1009 -0.4620
 1218SOL     OW15286   4.071   2.963   6.556  0.6149  0.2766 -0.6922
 1218SOL    HW115287   4.079   3.038   6.498  1.6056 -0.7510 -1.8932
 1218SOL    HW215288   3.977   2.958   6.574  1.1335 -2.1500  1.4087
 1219SOL     OW15289   1.904   3.971   6.191 -0.6442  0.2669 -0.4078
 1219SOL    HW115290   1.964   3.962   6.266 -1.9369  0.7034  0.6762
 1219SOL    HW215291   1.899   4.067   6.194  1.3869  0.3371  1.3336
 1220SOL     OW15292   4.124   0.554  11.511  0.6996 -0.0984  0.4620
 1220SOL    HW115293   4.131   0.638  11.558 -0.7366 -0.0533  0.6057
 1220SOL    HW215294   4.144   0.493  11.582 -0.9800 -2.5885 -1.2504
 1221SOL     OW15295   0.565   1.994  17.674  0.4592 -0.2966  0.0652
 1221SOL    HW115296   0.607   2.058  17.732 -0.1783  1.2855 -1.2180
 1221SOL    HW215297   0.570   1.915  17.727  0.5720 -0.9871 -0.9819
 1222SOL     OW15298   1.659   3.281   8.442  0.1242 -0.1602  0.2068
 1222SOL    HW115299   1.579   3.288   8.390 -0.5252 -0.0434  1.2024
 1222SOL    HW215300   1.725   3.257   8.377  0.4665  0.4434  0.3318
 1223SOL     OW15301   3.172   1.461   7.002  0.0382 -0.2797  0.0427
 1223SOL    HW115302   3.151   1.420   7.086 -0.3105  0.5896  0.3898
 1223SOL    HW215303   3.182   1.550   7.037 -2.2931 -0.2460  0.6050
 1224SOL     OW15304   1.886   4.515   5.588  0.5237  0.1494  0.2738
 1224SOL    HW115305   1.847   4.462   5.658  1.9784  2.1035  2.5600
 1224SOL    HW215306   1.880   4.604   5.623 -0.9779 -0.7626  2.3702
 1225SOL     OW15307   2.556   2.736   6.534  0.2811  0.3075  0.2604
 1225SOL    HW115308   2.590   2.725   6.622 -0.4953 -0.0840  0.5205
 1225SOL    HW215309   2.579   2.826   6.515  1.4955  0.4464  2.4959
 1226SOL     OW15310   2.714   4.098  11.393 -0.2361  0.3024 -0.6478
 1226SOL    HW115311   2.767   4.125  11.468  0.2754 -0.7808 -0.6236
 1226SOL    HW215312   2.742   4.142  11.312  0.7052  0.9108  0.0107
 1227SOL     OW15313   1.630   4.080   2.289  0.5383 -0.4773 -0.6551
 1227SOL    HW115314   1.717   4.078   2.327  0.3243  0.1656 -0.1461
 1227SOL    HW215315   1.594   4.001   2.331 -0.3429 -0.2987 -1.0559
 1228SOL     OW15316   4.379   4.494  10.876  0.4643 -0.0225 -0.1417
 1228SOL    HW115317   4.372   4.488  10.971 -2.4449  1.6658 -0.2539
 1228SOL    HW215318   4.292   4.460  10.854  2.0147 -4.2047  0.2087
 1229SOL     OW15319   2.741   2.045   2.270 -0.3927 -0.0217  0.6402
 1229SOL    HW115320   2.724   1.976   2.206 -0.8334 -0.3538  1.1157
 1229SOL    HW215321   2.836   2.039   2.273 -0.4179 -0.1922  1.0883
 1230SOL     OW15322   3.346   3.377   5.999  0.4396 -0.1669 -0.1958
 1230SOL    HW115323   3.398   3.297   5.998  2.3967  1.0993  1.6714
 1230SOL    HW215324   3.387   3.423   6.071  0.3102  1.4609 -1.1487
 1231SOL     OW15325   4.509   0.363   6.683 -0.4239 -0.1443 -0.2297
 1231SOL    HW115326   4.533   0.414   6.606 -0.6506 -0.8535 -0.7718
 1231SOL    HW215327   4.525   0.431   6.749  1.8353 -1.1094  0.2432
 1232SOL     OW15328   0.355   4.733  10.890  0.6952 -0.1372  0.2528
 1232SOL    HW115329   0.371   0.086  10.922 -0.2501  0.1615 -0.1029
 1232SOL    HW215330   0.390   4.734  10.801 -1.5753 -0.9758 -0.6485
 1233SOL     OW15331   3.835   2.182   8.179 -0.2151  0.1733  0.2176
 1233SOL    HW115332   3.921   2.157   8.214  0.3004  0.7805 -0.5954
 1233SOL    HW215333   3.808   2.247   8.243 -1.6069 -0.2178  0.0283
 1234SOL     OW15334   4.023   3.228  16.911 -0.0749  0.3118 -0.0189
 1234SOL    HW115335   4.092   3.293  16.898  0.2556 -0.2514 -1.1919
 1234SOL    HW215336   3.954   3.272  16.861  0.8205  0.2768 -1.3029
 1235SOL     OW15337   0.820   1.085  10.064  0.2153  0.0746 -0.2697
 1235SOL    HW115338   0.853   1.022  10.000 -0.0425 -0.7272  0.3918
 1235SOL    HW215339   0.902   1.095  10.113 -0.1628  1.8911  0.0186
 1236SOL     OW15340   1.759   1.005   4.445 -0.0377 -0.1535  0.0849
 1236SOL    HW115341   1.674   1.049   4.440  0.5211  1.0866  1.7420
 1236SOL    HW215342   1.771   1.019   4.539 -1.4556  0.4772  0.1683
 1237SOL     OW15343   0.670   4.469  17.700  0.1707  0.0476  0.0658
 1237SOL    HW115344   0.633   4.558  17.704  2.7727  1.0448  1.7989
 1237SOL    HW215345   0.591   4.427  17.666 -0.0563 -0.8789  1.7459
 1238SOL     OW15346   2.158   2.124   2.420 -0.7178  0.0145  0.0888
 1238SOL    HW115347   2.209   2.155   2.495  0.5699  1.5415 -1.3890
 1238SOL    HW215348   2.087   2.188   2.411 -1.4219 -0.4908  2.1503
 1239SOL     OW15349   1.712   0.316   2.353 -0.5175 -0.3932  0.1446
 1239SOL    HW115350   1.710   0.241   2.412  0.1361 -0.1165  0.5227
 1239SOL    HW215351   1.639   0.367   2.387  0.3092  0.4240  0.6936
 1240SOL     OW15352   1.632   3.687   3.275  0.0275  0.1797  0.2460
 1240SOL    HW115353   1.548   3.730   3.289  0.2487  1.1911 -1.4680
 1240SOL    HW215354   1.656   3.732   3.194 -0.3345  2.1596  1.2208
 1241SOL     OW15355   2.748   3.322  11.335  0.4929  0.8449  0.2967
 1241SOL    HW115356   2.738   3.416  11.319 -0.1901  0.4659 -1.5455
 1241SOL    HW215357   2.837   3.320  11.371 -0.1489  0.9036  1.8637
 1242SOL     OW15358   4.412   2.174  10.090 -0.6941  0.0851  0.2305
 1242SOL    HW115359   4.386   2.120  10.164 -1.2410  0.3968  0.2651
 1242SOL    HW215360   4.473   2.117  10.043 -1.1010  0.3627 -0.6355
 1243SOL     OW15361   0.556   1.308   2.773  0.2944 -0.3118 -0.1633
 1243SOL    HW115362   0.647   1.320   2.746  0.6367  0.0892  1.1546
 1243SOL    HW215363   0.512   1.359   2.705  0.1173 -0.1768  0.0539
 1244SOL     OW15364   0.762   0.059   1.411 -0.2179 -0.2370 -0.9867
 1244SOL    HW115365   0.836   0.109   1.446 -1.1796  1.0786 -0.7950
 1244SOL    HW215366   0.689   0.121   1.417  1.2324  1.3480  0.4023
 1245SOL     OW15367   1.211   0.770   6.791 -0.1098  0.0084 -0.3573
 1245SOL    HW115368   1.298   0.732   6.797  1.2021  2.8476 -1.5271
 1245SOL    HW215369   1.159   0.710   6.845  0.1251 -1.0026 -1.2660
 1246SOL     OW15370   4.569   0.970   3.332 -0.2579  0.2701  0.4723
 1246SOL    HW115371   4.648   1.001   3.377  0.6384 -1.4582  0.0972
 1246SOL    HW215372   4.587   0.877   3.348  3.2550  1.0322  1.1050
 1247SOL     OW15373   4.534   0.641   5.095 -0.1168  0.0140 -0.6856
 1247SOL    HW115374   4.458   0.607   5.143  1.5605 -1.2982  1.0025
 1247SOL    HW215375   4.552   0.564   5.040 -0.4969  0.3605 -1.3067
 1248SOL     OW15376   4.584   0.403   4.902  0.1674 -0.6616 -0.3731
 1248SOL    HW115377   4.608   0.482   4.853 -1.2716  0.9472  1.5312
 1248SOL    HW215378   4.532   0.360   4.835 -0.1874  0.3496 -0.7513
 1249SOL     OW15379   1.171   2.206  13.117  0.5365  0.0728 -0.0641
 1249SOL    HW115380   1.097   2.258  13.149  1.5041  1.0185  0.6446
 1249SOL    HW215381   1.199   2.160  13.196 -0.7596  0.9582  0.9137
 1250SOL     OW15382   4.688   4.297   7.584 -0.1106 -0.1240  0.0883
 1250SOL    HW115383   4.715   4.230   7.648 -0.5276  0.1970  0.5992
 1250SOL    HW215384   4.653   4.242   7.513  2.3081 -1.6634  0.0679
 1251SOL     OW15385   4.520   1.158  10.515  0.2960  0.2680 -0.5747
 1251SOL    HW115386   4.524   1.219  10.589  0.9578  0.3733 -0.6956
 1251SOL    HW215387   4.454   1.101  10.554 -0.1798 -1.1075 -3.3773
 1252SOL     OW15388   3.563   1.222   3.432  0.6484 -0.5201 -0.1132
 1252SOL    HW115389   3.630   1.177   3.483  0.6219  0.4814  0.7937
 1252SOL    HW215390   3.531   1.291   3.490  0.2600 -0.7989  0.0084
 1253SOL     OW15391   4.545   1.084  17.245 -0.2428  0.3715 -0.0793
 1253SOL    HW115392   4.480   1.133  17.196  1.2800  2.5054  0.0122
 1253SOL    HW215393   4.526   1.096  17.338  0.4217 -1.7448  0.3432
 1254SOL     OW15394   4.591   4.587   3.652 -0.3198  0.1865  0.4483
 1254SOL    HW115395   4.553   4.618   3.570  2.2431  0.4616 -0.6437
 1254SOL    HW215396   4.676   4.560   3.616 -0.6750 -3.7200  2.5698
 1255SOL     OW15397   1.926   1.790   7.124  0.3174  0.3771  0.2822
 1255SOL    HW115398   1.885   1.874   7.145 -0.3055  0.1446 -0.0077
 1255SOL    HW215399   1.874   1.726   7.172 -0.4179  0.8124  0.0644
 1256SOL     OW15400   4.324   3.052   5.919  0.1430  0.5172  0.2177
 1256SOL    HW115401   4.402   3.082   5.873 -0.7275  0.8963 -1.0105
 1256SOL    HW215402   4.331   2.958   5.908  0.8507  0.6845 -0.7961
 1257SOL     OW15403   2.635   4.227   7.502 -0.4835  0.5526 -0.1153
 1257SOL    HW115404   2.565   4.228   7.567  0.9934  2.7683  1.4491
 1257SOL    HW215405   2.583   4.263   7.431 -1.5043  0.9897  0.8479
 1258SOL     OW15406   0.057   2.562   8.009 -0.1919 -0.3362 -0.7326
 1258SOL    HW115407   0.015   2.601   7.931  1.0503 -1.2471 -1.8568
 1258SOL    HW215408   0.150   2.572   7.987  0.1508  0.4434  1.1484
 1259SOL     OW15409   1.297   1.187   6.587 -0.6567  0.0195  0.4899
 1259SOL    HW115410   1.349   1.266   6.575 -1.0698 -0.3319 -3.6020
 1259SOL    HW215411   1.357   1.123   6.626 -0.2250 -1.1039 -2.0120
 1260SOL     OW15412   1.107   2.436  10.817 -0.0923  1.1660 -0.3329
 1260SOL    HW115413   1.177   2.389  10.862  0.4859  0.8007 -1.6175
 1260SOL    HW215414   1.035   2.388  10.857  0.2846  2.5149  1.9525
 1261SOL     OW15415   2.432   1.395   6.185  0.2079 -0.2792 -0.4176
 1261SOL    HW115416   2.346   1.358   6.168 -0.4748  0.8252  0.6023
 1261SOL    HW215417   2.415   1.489   6.193  0.8764 -0.0540 -1.6916
 1262SOL     OW15418   3.367   3.670   3.671 -0.0292 -0.0667 -0.1685
 1262SOL    HW115419   3.388   3.626   3.589  1.3542  1.6439 -0.7166
 1262SOL    HW215420   3.447   3.716   3.695 -0.6224  0.2936  1.1323
 1263SOL     OW15421   2.219   3.444   8.036  0.7081  0.1887 -0.2627
 1263SOL    HW115422   2.270   3.476   7.962  0.7157  0.5782 -0.0919
 1263SOL    HW215423   2.149   3.397   7.991 -0.3249  0.3867  1.1486
 1264SOL     OW15424   3.801   2.227   0.765 -0.5503  0.1212  0.0283
 1264SOL    HW115425   3.781   2.146   0.812  0.5985 -1.3236 -1.9702
 1264SOL    HW215426   3.855   2.188   0.697 -2.2218 -2.3763  0.1537
 1265SOL     OW15427   1.127   0.227   3.265 -0.2741  0.3521 -0.0491
 1265SOL    HW115428   1.164   0.171   3.333 -0.2944  0.1226 -0.2266
 1265SOL    HW215429   1.070   0.172   3.211 -0.1862 -0.9945  1.2382
 1266SOL     OW15430   0.584   3.662   2.408 -0.3705 -0.4377  0.9322
 1266SOL    HW115431   0.677   3.679   2.392  0.1751 -0.5620  3.9612
 1266SOL    HW215432   0.548   3.700   2.328  1.3933  0.3432  0.5113
 1267SOL     OW15433   1.386   0.750   3.068 -0.0920  0.5028 -0.5169
 1267SOL    HW115434   1.302   0.745   3.024  0.0482  1.7843 -0.9220
 1267SOL    HW215435   1.419   0.661   3.074 -0.8638  0.3946  2.1815
 1268SOL     OW15436   4.674   2.867   3.317  0.1272  0.1698  0.1735
 1268SOL    HW115437   4.632   2.806   3.378 -1.3709  2.0674  1.0466
 1268SOL    HW215438   4.602   2.909   3.271  1.1367 -0.7783 -2.3022
 1269SOL     OW15439   0.867   4.292   3.950  0.5625  0.2094  0.5048
 1269SOL    HW115440   0.860   4.213   3.896  0.4004  1.3061 -1.0624
 1269SOL    HW215441   0.874   4.359   3.883 -0.3714 -0.3034 -0.1029
 1270SOL     OW15442   4.318   4.261   3.313  0.1826  0.2767  0.1012
 1270SOL    HW115443   4.297   4.204   3.387  0.4064 -0.3064 -0.2804
 1270SOL    HW215444   4.242   4.319   3.305  0.1368 -0.0957 -2.2755
 1271SOL     OW15445   2.389   3.429  17.014 -0.2503 -0.1485  0.3961
 1271SOL    HW115446   2.411   3.519  17.040 -2.3886  0.6845 -0.6725
 1271SOL    HW215447   2.297   3.440  16.988  0.2586  1.6624 -0.7017
 1272SOL     OW15448   4.683   4.464  17.341 -0.5679 -0.0377  1.0400
 1272SOL    HW115449   4.598   4.498  17.314 -1.4691 -2.2857  1.0320
 1272SOL    HW215450   4.681   4.370  17.326 -0.7041  0.4138 -1.7194
 1273SOL     OW15451   4.061   2.275   3.062 -0.5314 -0.0753  0.4264
 1273SOL    HW115452   4.097   2.364   3.068 -1.0065  0.2966 -2.3495
 1273SOL    HW215453   3.970   2.299   3.043  0.0890  2.7912  1.0029
 1274SOL     OW15454   1.598   4.729   7.159  0.2410  0.2145  0.2234
 1274SOL    HW115455   1.565   0.072   7.200 -0.4420  0.6361 -1.1540
 1274SOL    HW215456   1.534   4.700   7.094  0.3175 -0.5864  0.4999
 1275SOL     OW15457   1.754   2.927  17.714  0.4954  0.1459 -0.3037
 1275SOL    HW115458   1.725   2.837  17.727  1.6174  0.0434  1.6281
 1275SOL    HW215459   1.849   2.913  17.720  0.8006  2.3942 -0.0067
 1276SOL     OW15460   1.035   4.087   6.538  0.2508  0.0938 -0.3933
 1276SOL    HW115461   1.036   4.183   6.543  0.5264 -0.0681  2.9198
 1276SOL    HW215462   1.026   4.082   6.443 -0.0115  0.2241 -0.3773
 1277SOL     OW15463   0.037   3.937   6.129  0.2462 -0.4165  0.0634
 1277SOL    HW115464   0.033   3.896   6.216 -3.4486 -1.4678 -0.6137
 1277SOL    HW215465   0.030   3.867   6.064 -0.1456  0.8695 -1.2831
 1278SOL     OW15466   0.708   2.495   2.364 -0.2625 -0.5150  0.8576
 1278SOL    HW115467   0.787   2.542   2.390 -1.2198  1.7048 -0.3243
 1278SOL    HW215468   0.673   2.552   2.295 -0.2454 -2.0366 -0.4131
 1279SOL     OW15469   2.593   3.330   3.267  0.4061 -0.0277  0.1152
 1279SOL    HW115470   2.523   3.392   3.287 -0.0182 -0.6972  0.6794
 1279SOL    HW215471   2.555   3.268   3.206  1.3830  0.5998 -1.1374
 1280SOL     OW15472   3.178   0.223  14.157  0.1224 -0.4306  0.2855
 1280SOL    HW115473   3.172   0.277  14.236 -0.8369 -0.0927 -0.0152
 1280SOL    HW215474   3.273   0.225  14.144  0.3429 -0.9920  1.7999
 1281SOL     OW15475   3.614   0.069   5.587 -0.0033  0.1584  0.3707
 1281SOL    HW115476   3.581   0.148   5.545  2.0872  0.0787 -1.3688
 1281SOL    HW215477   3.561   0.003   5.541 -0.8614  0.1834  1.3120
 1282SOL     OW15478   0.553   2.170   6.779 -0.4515  0.4748  0.3960
 1282SOL    HW115479   0.599   2.254   6.791 -3.1344  1.4479  3.7219
 1282SOL    HW215480   0.485   2.167   6.846 -1.7988  0.4980 -0.9803
 1283SOL     OW15481   3.523   2.560   2.871  0.2879 -0.3710  0.2337
 1283SOL    HW115482   3.509   2.471   2.838 -0.3002  0.3080 -1.3212
 1283SOL    HW215483   3.594   2.591   2.815 -0.1342 -1.3096 -0.8231
 1284SOL     OW15484   1.773   4.173   5.570 -0.5021  0.7891  0.3281
 1284SOL    HW115485   1.864   4.179   5.597 -0.4541 -1.7203  0.6562
 1284SOL    HW215486   1.763   4.085   5.534 -1.6255  0.3817  1.6209
 1285SOL     OW15487   4.628   4.359   2.914 -0.2663  0.2720 -0.6612
 1285SOL    HW115488   4.602   4.293   2.850 -1.4669  0.4537 -0.3579
 1285SOL    HW215489   4.713   4.331   2.947 -0.9339  1.2979  1.9057
 1286SOL     OW15490   0.314   4.103   0.394 -0.6501  0.0407 -0.0207
 1286SOL    HW115491   0.248   4.035   0.380 -1.7336  0.7816  1.5175
 1286SOL    HW215492   0.349   4.081   0.480  0.5335 -0.4241 -0.6188
 1287SOL     OW15493   1.636   2.801  12.111 -0.2485 -0.5181  0.1066
 1287SOL    HW115494   1.541   2.811  12.105 -0.1032  1.5944  1.1152
 1287SOL    HW215495   1.676   2.887  12.127  0.0136 -0.5322 -0.4440
 1288SOL     OW15496   1.765   4.637   3.863  0.0622  0.5009 -0.1736
 1288SOL    HW115497   1.777   4.732   3.860 -0.5995  0.5512 -1.1793
 1288SOL    HW215498   1.850   4.594   3.859 -0.3086 -0.3072  0.7495
 1289SOL     OW15499   4.615   3.872   9.885 -0.0996 -0.1476 -0.3726
 1289SOL    HW115500   4.623   3.948   9.828  2.4478  0.6242  1.0158
 1289SOL    HW215501   4.680   3.887   9.953  0.5120  2.0424 -1.4442
 1290SOL     OW15502   4.062   1.993   0.078  0.4001 -0.4107  0.6214
 1290SOL    HW115503   3.997   2.037   0.132  0.9527  1.1464 -0.0060
 1290SOL    HW215504   4.117   1.958   0.149 -0.7053  1.5182  2.4317
 1291SOL     OW15505   4.663   0.638   1.338  0.1834  0.3324  0.5685
 1291SOL    HW115506   4.644   0.732   1.347 -0.6449  0.6426 -4.3471
 1291SOL    HW215507   4.585   0.597   1.300 -1.1672  1.2325  2.3509
 1292SOL     OW15508   4.494   0.205   3.740 -0.1829 -0.2303 -0.1912
 1292SOL    HW115509   4.468   0.137   3.678 -1.9640  0.7935 -0.5598
 1292SOL    HW215510   4.422   0.201   3.803  0.2067 -0.1906  0.2563
 1293SOL     OW15511   4.631   3.462  12.606  1.0052 -0.1518  0.6109
 1293SOL    HW115512   4.713   3.510  12.600 -0.0226  1.4694 -0.7809
 1293SOL    HW215513   4.570   3.536  12.613  0.1792 -0.8379  0.7514
 1294SOL     OW15514   4.471   3.566   7.416  0.3874 -0.2070 -0.2644
 1294SOL    HW115515   4.448   3.474   7.401  0.6879 -0.1814 -0.8548
 1294SOL    HW215516   4.381   3.597   7.413  0.0430 -0.8814  2.8695
 1295SOL     OW15517   1.496   0.176   3.214  0.5490  0.2493  0.0931
 1295SOL    HW115518   1.578   0.134   3.190  1.2185  0.6406  1.6698
 1295SOL    HW215519   1.443   0.146   3.140  3.5996  0.6822 -2.2387
 1296SOL     OW15520   2.953   2.053   9.813  0.0934 -0.1183  0.5046
 1296SOL    HW115521   2.922   2.144   9.821  1.1724  0.4143 -1.4805
 1296SOL    HW215522   2.960   2.029   9.906  1.1951  1.1950  0.7694
 1297SOL     OW15523   3.121   0.095   2.104  0.1852  0.1831 -0.0137
 1297SOL    HW115524   3.215   0.102   2.120  0.0930 -1.1795  1.0888
 1297SOL    HW215525   3.098   0.013   2.147 -0.4613 -0.0006 -0.7040
 1298SOL     OW15526   2.503   2.552   4.499 -0.9363 -0.0025  0.0424
 1298SOL    HW115527   2.433   2.601   4.457 -0.8747 -0.2655 -0.3700
 1298SOL    HW215528   2.566   2.528   4.431 -1.0282  0.8150 -0.3314
 1299SOL     OW15529   3.044   3.694   6.711  0.0987 -0.3863 -0.3561
 1299SOL    HW115530   3.120   3.721   6.762  0.7332  0.7953 -1.9010
 1299SOL    HW215531   2.999   3.639   6.775 -1.6316  1.1108 -0.2827
 1300SOL     OW15532   2.641   0.591   2.518  0.0017 -0.1916  0.2772
 1300SOL    HW115533   2.649   0.609   2.425  0.5011 -0.6268  0.2321
 1300SOL    HW215534   2.683   0.505   2.519  0.2826 -0.0604 -0.2831
 1301SOL     OW15535   0.359   0.543   8.816  0.6060  0.2207 -0.0593
 1301SOL    HW115536   0.403   0.472   8.863 -0.2511  0.5361  1.2162
 1301SOL    HW215537   0.324   0.590   8.891 -0.1035 -0.3954  0.0052
 1302SOL     OW15538   2.143   2.510   4.349  0.4677  0.2003 -0.0200
 1302SOL    HW115539   2.076   2.578   4.349 -0.7266 -1.0000 -0.7620
 1302SOL    HW215540   2.126   2.459   4.429 -2.7801  0.3174 -0.6387
 1303SOL     OW15541   2.526   1.430  16.291 -0.1282  0.2879  0.5839
 1303SOL    HW115542   2.599   1.471  16.244 -1.0718 -1.0822 -2.0822
 1303SOL    HW215543   2.569   1.377  16.358  0.6014 -0.9989 -0.9032
 1304SOL     OW15544   0.964   4.082   1.936  0.2588 -0.3204 -0.0314
 1304SOL    HW115545   0.967   4.160   1.992  1.2629 -0.5683  0.2530
 1304SOL    HW215546   1.034   4.106   1.877 -0.9291  2.6605 -0.2294
 1305SOL     OW15547   3.765   4.151   5.362  0.0850  0.0741 -0.0139
 1305SOL    HW115548   3.814   4.111   5.434 -1.3229 -1.1033  0.3039
 1305SOL    HW215549   3.817   4.123   5.287  0.5287 -2.1242  1.0955
 1306SOL     OW15550   1.455   1.701  12.658  0.4035 -0.4884  0.1019
 1306SOL    HW115551   1.475   1.609  12.639 -1.7199 -0.8074 -0.6649
 1306SOL    HW215552   1.540   1.730  12.690 -0.7807  2.6313  0.3714
 1307SOL     OW15553   1.419   3.591  15.033  0.0298  0.4913  0.4569
 1307SOL    HW115554   1.392   3.605  14.942  0.0988  1.7187  0.6283
 1307SOL    HW215555   1.454   3.502  15.028 -0.8994  0.0677  1.6453
 1308SOL     OW15556   0.660   3.672   0.458  0.6518 -0.3056  0.1879
 1308SOL    HW115557   0.702   3.626   0.386 -1.4926 -0.9035 -0.7023
 1308SOL    HW215558   0.713   3.750   0.470 -1.0915  0.8993  0.1422
 1309SOL     OW15559   2.483   3.803   0.847  0.5438 -0.3696  0.3550
 1309SOL    HW115560   2.574   3.774   0.849  1.3814  2.4543  2.7249
 1309SOL    HW215561   2.479   3.883   0.899 -0.8989 -1.0808  1.3466
 1310SOL     OW15562   2.010   2.440   9.274 -0.4121 -0.2343  0.2176
 1310SOL    HW115563   2.003   2.437   9.370 -2.7523 -0.8488  0.0313
 1310SOL    HW215564   2.078   2.380   9.244 -0.1501 -0.1065  0.5557
 1311SOL     OW15565   2.190   1.800   2.009  0.2886 -0.4299 -0.2646
 1311SOL    HW115566   2.148   1.825   2.091 -0.8526  1.7491 -1.5183
 1311SOL    HW215567   2.142   1.723   1.981  0.0202 -0.3622  0.0155
 1312SOL     OW15568   2.182   3.166   1.250  0.2255  0.1410 -0.2660
 1312SOL    HW115569   2.274   3.164   1.225  0.4131 -1.0629  0.5269
 1312SOL    HW215570   2.147   3.091   1.201 -1.1869  0.2596  0.5702
 1313SOL     OW15571   4.335   0.214   7.845 -0.5398 -0.7635  0.4149
 1313SOL    HW115572   4.288   0.256   7.918  2.1226  6.4849 -2.0211
 1313SOL    HW215573   4.292   0.263   7.775  0.0990 -1.9120 -0.7805
 1314SOL     OW15574   0.337   3.900   4.330 -0.2365 -0.0489  0.1796
 1314SOL    HW115575   0.413   3.926   4.382  0.0790 -1.1761  0.2838
 1314SOL    HW215576   0.295   3.851   4.401 -1.4750 -0.4297 -0.8159
 1315SOL     OW15577   2.944   0.550   7.067 -0.3338  0.3324  0.1681
 1315SOL    HW115578   2.964   0.643   7.065 -1.2797  0.5487  0.7118
 1315SOL    HW215579   2.848   0.549   7.072 -0.3808  0.0688 -0.7411
 1316SOL     OW15580   3.626   1.442   2.530 -0.4706  0.1108  0.1381
 1316SOL    HW115581   3.531   1.456   2.538 -0.5238  0.3883 -0.9107
 1316SOL    HW215582   3.660   1.531   2.536  0.5617 -0.4086  1.8299
 1317SOL     OW15583   0.371   0.554   3.315 -0.5756  0.4595  0.0522
 1317SOL    HW115584   0.349   0.461   3.318  0.3731  0.2865  1.4309
 1317SOL    HW215585   0.381   0.564   3.220 -0.8776 -0.9200 -0.1165
 1318SOL     OW15586   3.829   1.158   4.078  0.3474  0.7765 -0.3215
 1318SOL    HW115587   3.775   1.105   4.019  0.0295  0.8757 -0.1210
 1318SOL    HW215588   3.918   1.132   4.054  0.2921  1.8156 -1.6368
 1319SOL     OW15589   1.131   3.966   3.708 -0.1405 -0.0140 -0.7289
 1319SOL    HW115590   1.044   4.001   3.724  0.1698 -0.5463  2.1167
 1319SOL    HW215591   1.177   4.037   3.662  2.2216 -0.6984  0.5688
 1320SOL     OW15592   0.217   4.701  14.749 -0.0662  0.5509 -0.2306
 1320SOL    HW115593   0.215   4.619  14.700 -1.0251  0.1698  0.4285
 1320SOL    HW215594   0.127   4.705  14.783  0.1131  2.2320  0.0680
 1321SOL     OW15595   3.679   4.037  13.492 -0.2188 -0.0672 -0.6398
 1321SOL    HW115596   3.734   4.014  13.416  1.0679 -1.0423  0.5858
 1321SOL    HW215597   3.593   4.047  13.452  0.1429 -3.0143 -2.1256
 1322SOL     OW15598   2.540   3.443  11.969  0.2859  0.4771  0.3142
 1322SOL    HW115599   2.494   3.395  12.037 -1.0316  1.0532 -0.1515
 1322SOL    HW215600   2.545   3.378  11.898 -2.1001  1.0509 -0.3778
 1323SOL     OW15601   0.085   3.809  11.684 -0.1621  0.1150  0.1210
 1323SOL    HW115602   0.078   3.895  11.725 -2.0474 -0.7564  1.6120
 1323SOL    HW215603   0.125   3.769  11.761  1.2444  0.7332 -0.2832
 1324SOL     OW15604   4.310   0.013   3.740  0.0432 -0.0588 -0.2994
 1324SOL    HW115605   4.256   4.733   3.817  0.4088  0.2714  0.0266
 1324SOL    HW215606   4.295   4.669   3.689 -1.7628 -1.1094  1.9179
 1325SOL     OW15607   0.056   3.238   1.203 -0.1638 -0.2376  0.1990
 1325SOL    HW115608   0.137   3.193   1.229  0.6046  1.6274  1.0199
 1325SOL    HW215609   0.091   3.275   1.121 -0.6010  2.9715  1.4820
 1326SOL     OW15610   4.233   1.455   5.543  0.4400 -0.2900  0.6046
 1326SOL    HW115611   4.204   1.420   5.459 -0.1431  0.8472  0.3335
 1326SOL    HW215612   4.317   1.495   5.523  0.3311 -0.2053  0.3314
 1327SOL     OW15613   0.598   1.106  11.414  0.1080 -0.0279  0.0623
 1327SOL    HW115614   0.561   1.078  11.498  0.4931  0.4292  0.3827
 1327SOL    HW215615   0.530   1.164  11.378  0.7646  0.7812  0.1213
 1328SOL     OW15616   3.355   4.392  15.322 -0.0986  0.1402 -0.2665
 1328SOL    HW115617   3.280   4.387  15.262 -2.5217  1.4232  2.6091
 1328SOL    HW215618   3.413   4.446  15.270  1.9503 -1.5620  0.2722
 1329SOL     OW15619   3.823   2.634   7.034  0.4561 -0.1520  0.6966
 1329SOL    HW115620   3.875   2.577   7.090  2.4710  0.5124 -0.4959
 1329SOL    HW215621   3.740   2.634   7.081 -0.3179  0.6891 -0.6847
 1330SOL     OW15622   2.567   2.743   3.801 -0.2825 -0.1218 -0.3473
 1330SOL    HW115623   2.493   2.800   3.824  0.9888  2.2965 -2.1377
 1330SOL    HW215624   2.591   2.777   3.714  0.2358 -0.0067 -0.1600
 1331SOL     OW15625   4.524   0.148  12.561 -0.2646  0.3994  0.4626
 1331SOL    HW115626   4.555   0.058  12.548 -1.8422 -0.1195  0.3433
 1331SOL    HW215627   4.460   0.128  12.494  0.8140  0.5200 -0.6046
 1332SOL     OW15628   4.711   2.993  15.480 -0.0126 -0.3271 -0.2791
 1332SOL    HW115629   0.059   3.019  15.442  0.0817 -0.5841 -0.2473
 1332SOL    HW215630   4.679   3.080  15.501 -0.9728 -1.6110  3.5103
 1333SOL     OW15631   4.277   3.763   8.375  0.3433  0.5917 -0.3487
 1333SOL    HW115632   4.361   3.800   8.347  1.4070 -0.9794  0.7472
 1333SOL    HW215633   4.225   3.760   8.295  2.6209 -0.0744 -1.7887
 1334SOL     OW15634   4.332   1.031   7.876 -0.1739 -0.5170  0.0298
 1334SOL    HW115635   4.320   0.946   7.918  1.4140 -0.5633  0.3972
 1334SOL    HW215636   4.415   1.063   7.911 -0.7726  1.7151 -0.5728
 1335SOL     OW15637   3.274   2.595   6.693 -0.3805 -0.3774 -0.2374
 1335SOL    HW115638   3.283   2.628   6.604  0.6269  0.3467  0.1281
 1335SOL    HW215639   3.186   2.625   6.717 -0.2128  0.2634 -0.4115
 1336SOL     OW15640   0.734   2.878   2.468  0.8832 -0.2586  0.1518
 1336SOL    HW115641   0.760   2.789   2.445  0.0373 -1.2457  2.9100
 1336SOL    HW215642   0.782   2.942   2.416 -0.6545 -0.9482 -2.1094
 1337SOL     OW15643   4.456   0.829   5.943 -0.0524  0.6009  0.8228
 1337SOL    HW115644   4.420   0.811   5.856  0.0371 -3.8065  1.7140
 1337SOL    HW215645   4.445   0.743   5.984 -0.9235 -0.0491 -0.7822
 1338SOL     OW15646   3.260   1.343   2.109  0.0000 -0.1785  0.3056
 1338SOL    HW115647   3.240   1.328   2.201  0.9306  0.7860  0.6590
 1338SOL    HW215648   3.270   1.251   2.084  2.3815 -0.1459  1.1834
 1339SOL     OW15649   3.982   1.517   3.272 -0.1930 -0.5921  0.1727
 1339SOL    HW115650   4.037   1.594   3.285 -1.3602  0.3876 -0.8201
 1339SOL    HW215651   3.918   1.536   3.205  0.0366 -0.1843  0.0681
 1340SOL     OW15652   3.025   3.797  12.121 -0.2819 -0.1342 -0.0141
 1340SOL    HW115653   2.999   3.880  12.160 -2.5281 -0.2299 -1.2758
 1340SOL    HW215654   2.949   3.747  12.153  0.0012 -0.0837  0.7313
 1341SOL     OW15655   2.395   1.941   6.749 -0.1359 -0.1580 -0.2030
 1341SOL    HW115656   2.437   1.966   6.666 -0.9249  0.6875 -0.3408
 1341SOL    HW215657   2.307   1.977   6.735  0.4172  1.3511  0.1847
 1342SOL     OW15658   3.467   1.407   8.845  0.0574 -0.1576  0.0645
 1342SOL    HW115659   3.473   1.450   8.760  1.3018 -0.2897  0.0932
 1342SOL    HW215660   3.378   1.442   8.858  0.2284  0.2142  0.2348
 1343SOL     OW15661   2.287   0.711   3.959  0.9903  0.0050  0.1276
 1343SOL    HW115662   2.363   0.664   3.994  1.2538  1.3437  1.3562
 1343SOL    HW215663   2.273   0.783   4.020 -0.6251 -0.7425  0.6222
 1344SOL     OW15664   3.957   1.210   6.546 -0.1583 -0.3696  0.4620
 1344SOL    HW115665   3.952   1.122   6.508 -1.4143 -0.7918  1.5937
 1344SOL    HW215666   4.042   1.199   6.589  0.7283 -0.9157 -1.3852
 1345SOL     OW15667   3.112   2.187   6.186 -0.5588  0.3156  0.1090
 1345SOL    HW115668   3.055   2.242   6.240  1.0151  1.6208  0.4312
 1345SOL    HW215669   3.116   2.114   6.249  0.7750 -1.0992 -1.6405
 1346SOL     OW15670   0.155   3.740   0.646 -0.0193 -0.5682  0.7701
 1346SOL    HW115671   0.127   3.831   0.654  1.2993 -0.1398  0.5323
 1346SOL    HW215672   0.166   3.730   0.552 -0.4282 -0.6492  0.7326
 1347SOL     OW15673   2.790   0.471   5.808  0.2548 -0.3895 -0.0736
 1347SOL    HW115674   2.751   0.531   5.872 -0.8299 -1.2992  0.1321
 1347SOL    HW215675   2.781   0.522   5.728  0.9536 -1.3882 -0.7818
 1348SOL     OW15676   2.624   2.278   7.512  0.0464  0.0632 -0.5648
 1348SOL    HW115677   2.672   2.259   7.593 -0.1198 -1.4413 -0.8217
 1348SOL    HW215678   2.680   2.258   7.437  0.6278  1.0660 -0.3923
 1349SOL     OW15679   2.063   1.795   6.888 -0.6447 -1.0170  0.4357
 1349SOL    HW115680   2.019   1.779   6.972 -2.1949  0.6676 -0.0447
 1349SOL    HW215681   2.089   1.885   6.908  0.1261 -1.0894 -0.2209
 1350SOL     OW15682   1.318   1.712  15.657 -0.3611  0.1858  0.2006
 1350SOL    HW115683   1.329   1.762  15.577  0.1133 -0.5396 -0.1872
 1350SOL    HW215684   1.294   1.788  15.710 -0.9679  1.1943 -1.5397
 1351SOL     OW15685   2.315   2.906  14.008 -0.2313 -0.0645  0.2599
 1351SOL    HW115686   2.286   2.996  14.022 -0.2194 -0.0219  0.0148
 1351SOL    HW215687   2.408   2.905  13.985 -0.9114  0.6564 -2.5152
 1352SOL     OW15688   3.842   1.379   8.783 -0.2792 -0.1490  0.1405
 1352SOL    HW115689   3.842   1.419   8.696  3.8741  1.2913  0.7881
 1352SOL    HW215690   3.925   1.402   8.825 -0.3022  1.7853 -0.8848
 1353SOL     OW15691   0.834   1.593   6.536 -0.3482  0.0017  0.1240
 1353SOL    HW115692   0.879   1.575   6.453  0.9499 -2.8335  1.4562
 1353SOL    HW215693   0.915   1.588   6.585 -0.2243  0.0799 -0.0707
 1354SOL     OW15694   3.543   1.070  12.184 -0.1314  0.3275  0.2354
 1354SOL    HW115695   3.606   0.997  12.193 -0.4369  0.3484  2.4233
 1354SOL    HW215696   3.490   1.033  12.113 -1.0966  1.0083  0.6095
 1355SOL     OW15697   3.515   1.588   9.054 -0.1049  0.2784  0.4629
 1355SOL    HW115698   3.578   1.616   8.988  0.6156 -0.8279  0.6875
 1355SOL    HW215699   3.487   1.507   9.011  0.3489  0.6194 -0.4834
 1356SOL     OW15700   4.000   1.655  11.015 -0.2747 -0.7642  0.3358
 1356SOL    HW115701   4.035   1.743  11.005  0.4321 -1.1605 -0.7143
 1356SOL    HW215702   4.023   1.638  11.107 -3.5202 -1.2010  1.0582
 1357SOL     OW15703   4.668   4.409   5.147 -0.4889  0.3959  0.9627
 1357SOL    HW115704   4.676   4.448   5.060  0.1701 -0.9780  0.4241
 1357SOL    HW215705   4.605   4.470   5.185 -0.7686 -0.9263  2.6210
 1358SOL     OW15706   3.014   2.429   6.852  0.0028  0.3700  0.5458
 1358SOL    HW115707   2.950   2.411   6.784  0.3239 -0.6752  0.5341
 1358SOL    HW215708   3.036   2.520   6.828 -0.8854  0.2460 -0.7093
 1359SOL     OW15709   4.582   2.277   6.326 -0.2719 -0.1140  0.3133
 1359SOL    HW115710   4.500   2.228   6.319 -0.0391 -0.1878 -2.1102
 1359SOL    HW215711   4.628   2.201   6.361  0.2744 -0.5352 -1.3183
 1360SOL     OW15712   3.173   1.834   8.970 -0.6437 -0.0970 -0.0679
 1360SOL    HW115713   3.221   1.913   8.948 -0.2647 -0.8597 -1.9951
 1360SOL    HW215714   3.088   1.860   8.934 -0.9644  2.5845  2.6817
 1361SOL     OW15715   3.194   2.316   1.858 -0.2062 -0.1290  0.3752
 1361SOL    HW115716   3.277   2.288   1.898 -1.5293 -2.7411  1.3461
 1361SOL    HW215717   3.223   2.383   1.796 -0.1979 -0.9789 -0.5427
 1362SOL     OW15718   0.577   0.354   4.527 -0.9704 -0.1808  0.1217
 1362SOL    HW115719   0.576   0.445   4.556 -0.1214 -0.1935  0.2004
 1362SOL    HW215720   0.552   0.308   4.608 -1.2760  0.8003  0.5766
 1363SOL     OW15721   1.425   3.453   5.902 -0.8065  0.4462 -0.0591
 1363SOL    HW115722   1.469   3.511   5.963  1.4417  0.2727 -1.5156
 1363SOL    HW215723   1.480   3.376   5.888 -0.1897  1.3373 -2.5849
 1364SOL     OW15724   1.584   1.601   6.431  0.4321 -0.0918 -0.0135
 1364SOL    HW115725   1.533   1.682   6.440 -0.6374 -0.7567 -0.0426
 1364SOL    HW215726   1.667   1.643   6.410  0.3743 -0.2718 -0.5993
 1365SOL     OW15727   1.594   3.006  13.318 -0.2343 -0.8044  0.2654
 1365SOL    HW115728   1.626   2.944  13.383  0.7191  0.7334  1.2709
 1365SOL    HW215729   1.502   3.014  13.346  0.5458 -0.9066  2.8047
 1366SOL     OW15730   1.431   2.447   2.099  0.2921 -0.4611  0.2998
 1366SOL    HW115731   1.335   2.449   2.110  0.0175  0.5293 -2.4286
 1366SOL    HW215732   1.433   2.352   2.116  1.0160 -0.4877  0.0478
 1367SOL     OW15733   3.883   2.126   7.464  0.0089  0.2711  0.5671
 1367SOL    HW115734   3.874   2.035   7.438  0.3664  0.4363 -0.1393
 1367SOL    HW215735   3.934   2.106   7.543 -1.9077  1.0538  2.0022
 1368SOL     OW15736   0.347   1.127   6.668 -0.2300 -0.1604  0.4435
 1368SOL    HW115737   0.433   1.086   6.683 -0.9248 -1.8293 -0.1156
 1368SOL    HW215738   0.286   1.054   6.675  0.1164 -0.5464 -0.5411
 1369SOL     OW15739   1.432   4.060  15.493  0.0588 -0.2373  0.5174
 1369SOL    HW115740   1.450   3.974  15.531  0.5489  0.2280  1.3439
 1369SOL    HW215741   1.510   4.081  15.442 -0.4674  0.6086  0.0748
 1370SOL     OW15742   0.162   3.775   0.369  0.2130  0.3029 -0.3647
 1370SOL    HW115743   0.130   3.837   0.304  0.3675  0.4233 -0.3265
 1370SOL    HW215744   0.115   3.696   0.343  3.0987 -1.2038 -1.0611
 1371SOL     OW15745   4.644   3.954  15.323  0.5015 -0.3745 -0.0294
 1371SOL    HW115746   4.623   4.030  15.378  0.6232  0.5520 -1.2841
 1371SOL    HW215747   0.001   3.974  15.320  0.6385 -0.8388  0.9912
 1372SOL     OW15748   3.714   3.226   3.205  0.5875 -0.0702 -0.1442
 1372SOL    HW115749   3.734   3.306   3.253 -0.5562 -0.6703  1.3613
 1372SOL    HW215750   3.717   3.157   3.272  0.2139 -0.7697 -0.8372
 1373SOL     OW15751   4.597   4.246   8.295  0.1855  0.7005  0.3228
 1373SOL    HW115752   4.688   4.219   8.296  0.0598  0.1779 -1.5664
 1373SOL    HW215753   4.566   4.222   8.382  2.1677  0.9895  1.0933
 1374SOL     OW15754   0.010   1.523   0.135  0.0797 -0.1341 -0.4278
 1374SOL    HW115755   0.058   1.441   0.145 -0.6477 -0.2861  1.9164
 1374SOL    HW215756   0.024   1.560   0.048 -1.1484 -0.5197 -0.8024
 1375SOL     OW15757   1.308   3.608   3.099  0.3526  0.0159  0.7850
 1375SOL    HW115758   1.259   3.625   3.179  0.3328  3.8118 -0.0798
 1375SOL    HW215759   1.305   3.692   3.054  0.5321 -1.0701 -1.2547
 1376SOL     OW15760   2.622   3.212   6.330  0.8574  0.3734 -0.2238
 1376SOL    HW115761   2.608   3.300   6.365 -0.9977 -0.6719  1.6099
 1376SOL    HW215762   2.709   3.222   6.291  1.1795 -0.9988  0.1427
 1377SOL     OW15763   2.661   1.953   6.032 -0.1301 -0.1390  0.1797
 1377SOL    HW115764   2.668   1.873   5.980  0.9372 -0.0618  0.2020
 1377SOL    HW215765   2.681   2.019   5.966 -0.4935 -0.9321 -0.7116
 1378SOL     OW15766   3.206   1.566   1.918 -0.0346  0.2115 -0.2637
 1378SOL    HW115767   3.301   1.562   1.911 -0.0869  0.6227 -1.1898
 1378SOL    HW215768   3.181   1.658   1.907  0.4357  0.2384 -1.0963
 1379SOL     OW15769   3.724   3.541   7.945 -0.2270  0.3102  0.4335
 1379SOL    HW115770   3.740   3.448   7.933  0.5273  0.4865  0.0862
 1379SOL    HW215771   3.748   3.539   8.038 -1.0082  1.1210  0.6497
 1380SOL     OW15772   4.585   4.299   9.913  0.6095  0.7128 -0.2332
 1380SOL    HW115773   4.532   4.260   9.983  2.0352  1.4537  1.2427
 1380SOL    HW215774   4.672   4.264   9.929  0.0591 -0.2713  0.6096
 1381SOL     OW15775   2.962   0.724   9.423 -0.1696  0.8443 -0.0817
 1381SOL    HW115776   2.908   0.646   9.437 -0.7908  0.8209 -2.5344
 1381SOL    HW215777   2.987   0.743   9.513 -0.4009  3.1531 -0.5201
 1382SOL     OW15778   0.031   2.576   4.172 -0.0422  0.1851  0.1233
 1382SOL    HW115779   0.126   2.567   4.158  0.0707  0.9826  0.3197
 1382SOL    HW215780   0.041   2.592   4.266  1.5067 -2.5168  0.4226
 1383SOL     OW15781   3.477   1.138   4.787 -0.2866  0.3060  0.3246
 1383SOL    HW115782   3.572   1.144   4.799 -0.7733  3.5567  2.4768
 1383SOL    HW215783   3.464   1.044   4.774  1.1684  0.3625 -1.5171
 1384SOL     OW15784   1.746   4.185  14.839 -0.2188  0.3155  0.3804
 1384SOL    HW115785   1.782   4.101  14.809  0.3663  1.6100 -2.5430
 1384SOL    HW215786   1.694   4.224  14.769  0.4888  2.2764  0.9543
 1385SOL     OW15787   0.256   2.469   5.990  0.5118  0.2024 -0.4470
 1385SOL    HW115788   0.246   2.398   6.054 -2.7329  0.1670 -0.9695
 1385SOL    HW215789   0.253   2.546   6.046  2.5987  0.5713 -0.8592
 1386SOL     OW15790   0.696   2.213   5.287  0.1561  0.3457  0.1057
 1386SOL    HW115791   0.728   2.264   5.362 -2.7432  3.5291 -0.7797
 1386SOL    HW215792   0.779   2.183   5.251  0.9571  1.2607  1.1937
 1387SOL     OW15793   1.521   4.229   3.683 -0.4932  0.4109  0.0484
 1387SOL    HW115794   1.545   4.319   3.663  0.8826 -0.6278 -2.9681
 1387SOL    HW215795   1.540   4.227   3.776 -2.1450 -1.1697  0.3607
 1388SOL     OW15796   2.450   4.266   1.798 -1.1443 -0.0151 -0.6017
 1388SOL    HW115797   2.469   4.179   1.834  0.9427  0.1254 -1.3540
 1388SOL    HW215798   2.403   4.303   1.872 -0.1222 -0.4632  0.2691
 1389SOL     OW15799   2.937   1.020   8.716  0.6429  0.3414  0.2231
 1389SOL    HW115800   2.856   1.052   8.678  1.4140  1.9025 -0.1299
 1389SOL    HW215801   2.951   1.082   8.788  1.1382  0.7887 -0.2617
 1390SOL     OW15802   2.379   1.696   6.852 -0.8983 -0.3487 -0.3771
 1390SOL    HW115803   2.398   1.785   6.824  0.4075 -0.4344  0.2301
 1390SOL    HW215804   2.285   1.697   6.870 -1.1858  1.0476 -1.9790
 1391SOL     OW15805   1.290   4.435   2.748  0.0663  0.4033 -0.4825
 1391SOL    HW115806   1.232   4.360   2.734  0.1220  0.3704 -0.5322
 1391SOL    HW215807   1.375   4.401   2.724  0.6943  0.2384  1.9476
 1392SOL     OW15808   3.527   4.707   4.030  0.3153 -0.4222 -0.1788
 1392SOL    HW115809   3.468   4.663   3.970 -0.7995  1.5132 -0.5174
 1392SOL    HW215810   3.600   0.001   3.975 -0.3342  0.0253 -0.8032
 1393SOL     OW15811   4.139   4.020   6.838 -0.1873  0.1722  0.4332
 1393SOL    HW115812   4.073   4.087   6.857 -0.4639 -0.4438  1.6660
 1393SOL    HW215813   4.151   4.023   6.743 -1.5074  0.8500  0.2986
 1394SOL     OW15814   1.006   2.186   3.822  0.2535  0.1856  0.3482
 1394SOL    HW115815   1.065   2.115   3.847 -1.3358 -1.5844 -0.9560
 1394SOL    HW215816   1.046   2.232   3.748  1.8029 -1.0557  0.4357
 1395SOL     OW15817   1.388   0.095  15.693  0.4085  0.5431 -1.2427
 1395SOL    HW115818   1.332   0.169  15.671 -2.1122 -1.3782 -1.3502
 1395SOL    HW215819   1.477   0.125  15.673  0.2008  1.8010 -0.2898
 1396SOL     OW15820   3.870   1.339  15.245  0.3808 -0.3047 -0.3212
 1396SOL    HW115821   3.932   1.279  15.287  0.5673 -0.8777 -1.4127
 1396SOL    HW215822   3.811   1.271  15.213 -0.6580  0.8978 -0.9606
 1397SOL     OW15823   2.806   4.467   3.204 -0.1034 -0.9512  0.4353
 1397SOL    HW115824   2.900   4.484   3.196  0.0494 -1.5395  0.9438
 1397SOL    HW215825   2.780   4.470   3.296 -1.2666  1.8721  0.0075
 1398SOL     OW15826   4.587   1.994  10.006  0.2665  0.5273  0.1527
 1398SOL    HW115827   4.619   1.968   9.920  0.5802 -0.2554  0.5075
 1398SOL    HW215828   4.534   1.920  10.037  0.1467  1.1828  1.5029
 1399SOL     OW15829   1.545   3.687  10.885  0.3159  0.0294 -0.1870
 1399SOL    HW115830   1.544   3.597  10.852  0.3667 -0.1159  0.2009
 1399SOL    HW215831   1.516   3.659  10.972 -1.1076  1.0270 -0.3377
 1400SOL     OW15832   2.987   4.606  15.391 -0.2184 -0.3970  0.0547
 1400SOL    HW115833   2.998   4.514  15.415 -1.9010 -0.2682  1.3325
 1400SOL    HW215834   2.898   4.614  15.355  0.3540  1.4107 -0.9817
 1401SOL     OW15835   2.117   0.415   4.150  0.4548 -0.7213 -0.2783
 1401SOL    HW115836   2.151   0.381   4.233  0.5634  1.4765  0.5693
 1401SOL    HW215837   2.119   0.510   4.164 -1.0539 -0.9421  1.4830
 1402SOL     OW15838   2.160   1.536   2.729  0.2682 -0.0689 -0.2901
 1402SOL    HW115839   2.242   1.516   2.774 -0.3668 -0.2159  0.8134
 1402SOL    HW215840   2.148   1.453   2.683 -0.8363 -0.5209  0.8206
 1403SOL     OW15841   3.383   0.393   2.617 -0.0833 -0.1764  0.1030
 1403SOL    HW115842   3.442   0.335   2.666 -1.7054 -0.0148  2.2215
 1403SOL    HW215843   3.302   0.345   2.629  0.0196 -0.4501 -0.2919
 1404SOL     OW15844   4.203   3.572   5.626 -0.5364  1.1322  0.3147
 1404SOL    HW115845   4.114   3.580   5.592 -0.2042  0.6417 -0.6640
 1404SOL    HW215846   4.227   3.664   5.620 -0.4606  1.1198  0.4210
 1405SOL     OW15847   1.410   0.413   9.275  0.3895 -0.4685 -0.1947
 1405SOL    HW115848   1.358   0.343   9.236 -1.5019  0.7235  0.1726
 1405SOL    HW215849   1.344   0.478   9.300  0.6811  0.0348 -0.7309
 1406SOL     OW15850   3.285   2.746  13.605  0.2106 -0.2503 -0.4333
 1406SOL    HW115851   3.363   2.689  13.610  0.9814  0.8148 -0.3798
 1406SOL    HW215852   3.320   2.835  13.613 -0.2006 -0.1612  0.3541
 1407SOL     OW15853   0.048   0.119   3.280 -0.5698  0.4711  0.1450
 1407SOL    HW115854   4.701   0.095   3.238 -0.9433 -1.2527  1.8665
 1407SOL    HW215855   0.038   0.096   3.373  0.8180  2.0245  0.6926
 1408SOL     OW15856   1.597   1.435   8.617 -0.3499  0.1789  0.2377
 1408SOL    HW115857   1.564   1.347   8.601  1.9527 -0.8387  1.2387
 1408SOL    HW215858   1.687   1.434   8.584 -0.5012 -1.6152 -0.0969
 1409SOL     OW15859   2.535   1.542   4.932 -0.4609 -0.3600  0.0333
 1409SOL    HW115860   2.590   1.592   4.991 -0.6738 -0.7251  0.5394
 1409SOL    HW215861   2.462   1.598   4.905 -1.3932 -0.7005  1.8475
 1410SOL     OW15862   2.286   3.243   2.224  0.3378  0.2831  0.1154
 1410SOL    HW115863   2.263   3.318   2.280  0.4936 -0.2143  0.8323
 1410SOL    HW215864   2.197   3.210   2.213  0.4280  0.1807 -0.2938
 1411SOL     OW15865   3.576   0.808   3.534 -0.5166 -0.4702 -0.2078
 1411SOL    HW115866   3.618   0.735   3.580 -0.9803  0.6199  1.9328
 1411SOL    HW215867   3.548   0.870   3.601  1.6394 -0.2535  0.5178
 1412SOL     OW15868   4.172   1.036   1.947  0.5779 -0.2669  0.0876
 1412SOL    HW115869   4.235   0.976   1.905  1.8152 -0.5057  2.3065
 1412SOL    HW215870   4.100   0.979   1.974  1.3550 -1.5361 -0.4924
 1413SOL     OW15871   0.832   4.366   3.424 -0.6369  0.0391 -0.8456
 1413SOL    HW115872   0.776   4.418   3.367  1.1589  2.7202 -0.1458
 1413SOL    HW215873   0.917   4.409   3.420 -0.7294  0.2995  0.0520
 1414SOL     OW15874   3.015   0.360   5.130 -0.3640 -0.0013  0.2758
 1414SOL    HW115875   2.984   0.276   5.165 -0.3149 -0.6857 -1.2854
 1414SOL    HW215876   2.928   0.392   5.104  0.6133  1.1862 -1.5184
 1415SOL     OW15877   2.248   4.569   8.594 -0.8252  0.2039  0.5805
 1415SOL    HW115878   2.155   4.573   8.574 -1.0440 -0.5514  1.4108
 1415SOL    HW215879   2.270   4.662   8.589  3.3547 -0.9270 -1.5750
 1416SOL     OW15880   1.988   2.712   3.922 -0.1817  0.1065 -0.2163
 1416SOL    HW115881   2.070   2.667   3.897 -0.0424 -0.3737  1.0793
 1416SOL    HW215882   1.920   2.645   3.914  1.7943 -1.9278 -0.3214
 1417SOL     OW15883   3.403   3.058   9.190  0.4376  0.7643 -0.1038
 1417SOL    HW115884   3.353   3.008   9.254  1.7273 -0.2762  0.0948
 1417SOL    HW215885   3.483   3.085   9.236  0.9048 -0.2476 -0.3210
 1418SOL     OW15886   4.226   3.192   8.690  0.3341  0.7003  0.1118
 1418SOL    HW115887   4.288   3.219   8.622  1.0953 -1.0677  0.1140
 1418SOL    HW215888   4.204   3.276   8.730 -1.7863  0.4217 -0.4965
 1419SOL     OW15889   4.001   2.323  16.786 -0.3218  0.2346  0.0638
 1419SOL    HW115890   3.964   2.343  16.872 -1.2789  2.6472 -0.8883
 1419SOL    HW215891   4.032   2.410  16.759 -1.9192  0.7494 -0.1351
 1420SOL     OW15892   1.310   2.854   5.137  0.2721  0.2296  0.7537
 1420SOL    HW115893   1.394   2.816   5.162 -0.4295 -1.8523 -0.0719
 1420SOL    HW215894   1.353   2.936   5.113 -0.3070  0.3276  0.0149
 1421SOL     OW15895   2.849   3.666   8.335 -0.2806  0.0080 -0.0629
 1421SOL    HW115896   2.822   3.602   8.401  1.7705 -1.2145 -0.4213
 1421SOL    HW215897   2.765   3.677   8.289  0.5464 -1.1522 -1.8206
 1422SOL     OW15898   1.773   0.377   3.709 -0.0052  0.2830 -0.2894
 1422SOL    HW115899   1.749   0.437   3.780 -1.0681 -0.4045 -0.0758
 1422SOL    HW215900   1.798   0.432   3.635  1.0419 -0.4952 -0.5180
 1423SOL     OW15901   3.792   1.397   4.571 -0.1058  0.2357 -0.0870
 1423SOL    HW115902   3.877   1.354   4.579 -0.3201  0.3318  2.4865
 1423SOL    HW215903   3.755   1.363   4.490 -0.4261  1.9815 -0.6749
 1424SOL     OW15904   3.789   2.094  12.114  0.7651  0.0957 -0.2847
 1424SOL    HW115905   3.849   2.047  12.056  0.7836  3.3747 -2.9072
 1424SOL    HW215906   3.712   2.101  12.058  0.5426  1.0883  0.1424
 1425SOL     OW15907   0.375   1.864  17.389  0.5243  0.2837 -0.5958
 1425SOL    HW115908   0.468   1.879  17.369  1.0121 -0.5449  1.0367
 1425SOL    HW215909   0.355   1.806  17.315 -0.2718 -1.5986  1.0713
 1426SOL     OW15910   0.658   2.572  10.503  0.1605  0.1075 -0.1565
 1426SOL    HW115911   0.669   2.538  10.414  0.9141 -0.1737  0.0469
 1426SOL    HW215912   0.565   2.593  10.496 -0.3155 -2.0830 -0.2777
 1427SOL     OW15913   4.494   0.294   7.359 -0.1929 -0.6022  0.0928
 1427SOL    HW115914   4.517   0.201   7.359 -1.2842 -0.8750  0.8145
 1427SOL    HW215915   4.449   0.291   7.275 -0.9726 -0.9647  0.5153
 1428SOL     OW15916   0.145   4.050   9.646  0.1149  0.2621 -0.0467
 1428SOL    HW115917   0.173   4.117   9.583  0.7326  0.1735  0.1298
 1428SOL    HW215918   0.069   4.081   9.695  0.3097  0.5390  0.0762
 1429SOL     OW15919   0.917   3.458   3.335  0.2581  0.2843 -0.1279
 1429SOL    HW115920   0.940   3.374   3.295  2.9111  0.8824  0.1433
 1429SOL    HW215921   0.903   3.427   3.425 -0.7149  1.3026  0.0728
 1430SOL     OW15922   3.895   0.539   5.177 -0.2872 -0.1592 -0.2703
 1430SOL    HW115923   3.851   0.457   5.199 -1.2272  1.1141  2.6924
 1430SOL    HW215924   3.872   0.587   5.257  1.2692 -2.1451  1.3642
 1431SOL     OW15925   1.356   4.714   5.857 -0.0346 -0.2858 -0.2540
 1431SOL    HW115926   1.375   0.039   5.929 -2.2452  0.4725 -0.3037
 1431SOL    HW215927   1.275   0.011   5.819 -0.0595 -1.7262 -1.4328
 1432SOL     OW15928   2.485   0.235   3.200  0.0603  0.8619 -0.4831
 1432SOL    HW115929   2.490   0.273   3.112 -1.0627 -2.1097 -1.8134
 1432SOL    HW215930   2.565   0.183   3.200 -0.8391 -0.5167 -1.5567
 1433SOL     OW15931   1.311   3.821  12.433 -0.3978  0.5293  0.0047
 1433SOL    HW115932   1.400   3.817  12.396 -0.3328 -1.9470  0.4184
 1433SOL    HW215933   1.254   3.826  12.356  1.9817 -1.4102 -1.8988
 1434SOL     OW15934   2.992   0.269  15.336 -0.1433 -0.4887  0.1256
 1434SOL    HW115935   2.985   0.357  15.301  1.0903 -0.6802 -0.6393
 1434SOL    HW215936   3.014   0.220  15.257  2.2358 -0.5160  0.7891
 1435SOL     OW15937   4.707   2.170   3.748 -0.0489  0.1726 -0.0277
 1435SOL    HW115938   4.670   2.082   3.758  1.1183 -0.3407 -0.2954
 1435SOL    HW215939   4.652   2.211   3.816 -0.3465 -0.9552  0.4100
 1436SOL     OW15940   1.727   4.602   1.433 -0.0897  0.1922  0.0149
 1436SOL    HW115941   1.723   4.604   1.528  2.7433 -0.9749  0.1671
 1436SOL    HW215942   1.741   4.692   1.404  0.6714 -0.1138 -0.5896
 1437SOL     OW15943   4.614   0.014   4.970  0.5165  0.0056 -0.5886
 1437SOL    HW115944   4.708   0.032   4.957  0.4458  1.0005  0.2684
 1437SOL    HW215945   4.590   4.706   4.889  0.3935 -2.0173  0.5526
 1438SOL     OW15946   4.393   4.157   2.489 -0.2178 -0.2127 -0.1917
 1438SOL    HW115947   4.476   4.171   2.444  0.7556 -0.9115  1.3951
 1438SOL    HW215948   4.340   4.194   2.419  1.6760 -1.8032 -2.4581
 1439SOL     OW15949   4.408   1.062   3.132 -0.6864 -0.0869  0.0799
 1439SOL    HW115950   4.471   1.041   3.201 -0.8341 -0.3616  0.1309
 1439SOL    HW215951   4.462   1.038   3.057  3.2888  0.1641  2.8648
 1440SOL     OW15952   3.147   4.039   9.006  0.2296 -0.0608  0.4078
 1440SOL    HW115953   3.176   4.096   8.935 -0.2199  1.8060  1.7298
 1440SOL    HW215954   3.218   3.982   9.034  0.4509 -0.7613 -1.6258
 1441SOL     OW15955   3.599   3.046   2.732  0.1284 -0.3882 -0.1249
 1441SOL    HW115956   3.538   2.979   2.763  0.6016 -0.5778  0.3946
 1441SOL    HW215957   3.656   3.064   2.807  0.2232  0.5353 -0.4138
 1442SOL     OW15958   2.202   1.945   8.672  0.0790  0.1115 -0.0407
 1442SOL    HW115959   2.218   2.039   8.657  0.8461 -0.2635 -1.5476
 1442SOL    HW215960   2.107   1.934   8.664  0.0800 -0.3142  0.5418
 1443SOL     OW15961   3.568   1.512   5.526 -0.3111 -0.3587 -0.1535
 1443SOL    HW115962   3.526   1.526   5.442  1.2697  0.9997 -0.7181
 1443SOL    HW215963   3.492   1.478   5.573 -0.2082 -0.0072  0.2665
 1444SOL     OW15964   1.123   2.640   0.008 -0.1638  0.1387  0.4059
 1444SOL    HW115965   1.175   2.564   0.033  0.2721 -0.0451 -1.0704
 1444SOL    HW215966   1.177   2.676  17.681 -1.0783 -0.9145 -0.8398
 1445SOL     OW15967   2.482   4.051   8.603  0.1102  0.2096 -0.1896
 1445SOL    HW115968   2.493   4.014   8.691  1.2318  0.5803 -0.1678
 1445SOL    HW215969   2.393   4.019   8.590  0.2370 -0.5851  0.8628
 1446SOL     OW15970   1.926   2.745   4.891  0.6340 -0.4146  0.0610
 1446SOL    HW115971   1.868   2.820   4.883 -1.2119 -1.8169  0.1308
 1446SOL    HW215972   2.001   2.785   4.934  0.3492 -0.9470  1.0603
 1447SOL     OW15973   2.203   3.000  14.380 -0.6498 -0.2608 -0.6412
 1447SOL    HW115974   2.244   2.956  14.454  2.8202  0.9816 -1.8496
 1447SOL    HW215975   2.189   2.927  14.320  1.9217  0.1899 -1.8008
 1448SOL     OW15976   1.095   2.149  12.445  0.0272  0.5609 -0.1980
 1448SOL    HW115977   1.092   2.153  12.350  0.4497  1.8775 -0.1565
 1448SOL    HW215978   1.189   2.147  12.464 -0.1514 -2.2407  0.3649
 1449SOL     OW15979   1.138   3.666   7.250  0.1450  0.7143 -0.3334
 1449SOL    HW115980   1.158   3.687   7.159  3.5201 -0.7363  0.0999
 1449SOL    HW215981   1.167   3.749   7.287 -1.1200  1.0854 -0.1545
 1450SOL     OW15982   0.946   2.582  12.293  0.2930  0.0748  0.3435
 1450SOL    HW115983   0.942   2.613  12.202 -1.1501 -0.4004  0.2608
 1450SOL    HW215984   1.037   2.552  12.291  0.1419 -0.2901 -1.2378
 1451SOL     OW15985   2.866   0.916   6.002 -0.0658  0.6780 -0.0589
 1451SOL    HW115986   2.868   0.865   6.083 -2.8208  1.0249  0.2341
 1451SOL    HW215987   2.783   0.963   6.015 -0.2931  0.7417 -1.7165
 1452SOL     OW15988   2.299   2.584  14.422  0.3934  0.5174 -0.4574
 1452SOL    HW115989   2.287   2.632  14.340 -0.0019  2.7610  0.9167
 1452SOL    HW215990   2.391   2.561  14.419  0.1215 -0.3337 -2.1059
 1453SOL     OW15991   2.846   3.183   2.620  0.3659 -0.0373 -0.2004
 1453SOL    HW115992   2.821   3.272   2.599  0.3043  0.2911  1.2680
 1453SOL    HW215993   2.860   3.195   2.714 -0.7493 -0.3082  0.0024
 1454SOL     OW15994   4.267   1.097  15.375  0.2840 -0.3850  0.2808
 1454SOL    HW115995   4.352   1.103  15.419 -0.7785 -1.1939  2.4923
 1454SOL    HW215996   4.216   1.107  15.456  1.0832  0.0415  0.7251
 1455SOL     OW15997   0.560   3.858  12.346 -0.5592 -0.0833 -0.0946
 1455SOL    HW115998   0.523   3.840  12.432  1.3605 -0.0943  0.7285
 1455SOL    HW215999   0.611   3.778  12.329 -0.5343  0.2235 -1.5020
 1456SOL     OW16000   3.637   0.980   0.869 -0.2537 -0.3144  0.1292
 1456SOL    HW116001   3.697   0.937   0.808 -1.6055 -1.5517 -0.3342
 1456SOL    HW216002   3.689   1.057   0.891 -0.5208  0.1458 -0.8524
 1457SOL     OW16003   4.406   4.117  14.989 -0.1714 -0.0288  0.9227
 1457SOL    HW116004   4.452   4.184  15.039 -0.3165 -0.7262  1.9984
 1457SOL    HW216005   4.454   4.119  14.906  1.5082  1.7228  1.9490
 1458SOL     OW16006   1.962   0.363   3.955  0.2872 -0.0523  0.5881
 1458SOL    HW116007   1.987   0.446   3.913  0.9882 -1.7524 -2.3578
 1458SOL    HW216008   2.014   0.375   4.034  0.1492 -0.8594  0.8011
 1459SOL     OW16009   1.163   2.924   6.245 -0.8723  0.0667  0.6465
 1459SOL    HW116010   1.225   2.980   6.198 -0.1843 -0.1771  1.2769
 1459SOL    HW216011   1.208   2.894   6.323  1.2940  0.7638 -0.3331
 1460SOL     OW16012   1.038   3.910   0.677 -0.0042  0.6457 -0.6981
 1460SOL    HW116013   1.096   3.890   0.604  1.1461 -2.3674  1.0623
 1460SOL    HW216014   1.038   4.006   0.674  1.1419  0.6486 -0.5182
 1461SOL     OW16015   4.311   2.114   6.938 -0.0199 -0.0869  0.0734
 1461SOL    HW116016   4.267   2.157   6.864  1.4361  2.6181  0.7815
 1461SOL    HW216017   4.327   2.027   6.903 -0.3107 -0.4971  0.9516
 1462SOL     OW16018   1.559   3.662   6.712 -0.3104  0.1297 -0.0016
 1462SOL    HW116019   1.520   3.660   6.799 -1.7822  0.7208 -0.6396
 1462SOL    HW216020   1.610   3.743   6.717  0.7526 -0.5583  0.1537
 1463SOL     OW16021   2.764   3.825   3.035 -0.5635 -0.1842  0.0441
 1463SOL    HW116022   2.712   3.745   3.028 -0.5879 -0.1230 -0.5344
 1463SOL    HW216023   2.830   3.802   2.969 -0.8887  0.1075 -0.3853
 1464SOL     OW16024   3.939   0.959   8.905 -0.2510 -0.5087 -0.3822
 1464SOL    HW116025   3.959   0.871   8.938  3.7316  0.7172  0.6003
 1464SOL    HW216026   4.025   0.989   8.874 -1.8781  2.1860 -2.2433
 1465SOL     OW16027   3.227   0.122  13.031  0.2924 -0.1079 -0.1871
 1465SOL    HW116028   3.150   0.173  13.006  0.7524  1.7118  2.0427
 1465SOL    HW216029   3.286   0.140  12.958 -0.2249  1.5431 -0.2008
 1466SOL     OW16030   3.920   3.240  10.022  0.0459  0.2824 -0.2401
 1466SOL    HW116031   3.839   3.224  10.071 -0.9265 -1.0312 -2.2137
 1466SOL    HW216032   3.984   3.177  10.055  1.6422  1.6944 -0.6583
 1467SOL     OW16033   1.185   0.090   2.214 -0.7120  0.1860  0.5076
 1467SOL    HW116034   1.280   0.087   2.226 -0.3946  1.8597 -1.5878
 1467SOL    HW216035   1.186   0.177   2.173  1.9506 -0.3566 -0.5547
 1468SOL     OW16036   3.285   0.478  17.691 -0.0932  0.9260 -0.1557
 1468SOL    HW116037   3.370   0.437  17.707 -1.2764 -2.0704 -1.5044
 1468SOL    HW216038   3.309   0.569  17.708  1.1348  0.7170 -0.8265
 1469SOL     OW16039   1.460   2.043   4.580 -0.3505 -0.5665 -0.6651
 1469SOL    HW116040   1.467   1.954   4.615  1.4584  0.2140  0.9492
 1469SOL    HW216041   1.426   2.088   4.657  1.2309 -0.3452 -0.1184
 1470SOL     OW16042   4.490   0.220  12.134 -0.5066  0.2231  0.8017
 1470SOL    HW116043   4.527   0.161  12.200  0.8024  0.2468  0.0992
 1470SOL    HW216044   4.551   0.291  12.152 -1.2265  1.6032 -2.3244
 1471SOL     OW16045   1.708   2.389   4.290 -0.0784  0.4750  0.3879
 1471SOL    HW116046   1.661   2.313   4.324 -2.0659  1.8547  0.6711
 1471SOL    HW216047   1.783   2.351   4.243 -0.7385 -0.4050  0.0501
 1472SOL     OW16048   3.546   3.331   9.017  0.3496 -0.4769 -0.1127
 1472SOL    HW116049   3.526   3.416   9.057 -1.2793 -0.4504 -0.9857
 1472SOL    HW216050   3.508   3.268   9.078  0.3490  0.1873  0.5826
 1473SOL     OW16051   3.228   4.471   4.483 -0.1804 -0.1019  0.3990
 1473SOL    HW116052   3.261   4.383   4.465  0.7833  0.4242 -0.4098
 1473SOL    HW216053   3.229   4.476   4.579 -0.0884 -0.7485  0.4352
 1474SOL     OW16054   1.058   3.490  15.630  0.1374 -0.0302  0.8345
 1474SOL    HW116055   1.124   3.444  15.580 -1.1638 -0.7405 -0.2234
 1474SOL    HW216056   1.029   3.565  15.577 -1.6527  0.2132  2.1304
 1475SOL     OW16057   1.086   0.665  15.533  0.0930  0.6833 -0.0053
 1475SOL    HW116058   1.061   0.709  15.452  0.4189 -0.3023 -0.6418
 1475SOL    HW216059   1.179   0.655  15.514  0.1593 -0.2081  0.7450
 1476SOL     OW16060   1.207   0.216   2.959 -0.2958  0.3922 -0.5849
 1476SOL    HW116061   1.198   0.280   3.029  0.3327  0.5798 -0.6809
 1476SOL    HW216062   1.234   0.276   2.889  0.9948 -0.7739 -1.0789
 1477SOL     OW16063   3.097   2.883   3.569 -0.6875  0.1990 -0.3612
 1477SOL    HW116064   3.132   2.928   3.645 -1.6012  1.1482 -0.5035
 1477SOL    HW216065   3.003   2.900   3.568 -0.5883  0.6507 -1.9083
 1478SOL     OW16066   2.637   2.014  17.682  0.0033  0.1754  0.3096
 1478SOL    HW116067   2.733   2.016  17.679 -0.1062  3.9642 -0.1797
 1478SOL    HW216068   2.619   2.031   0.031  0.6027  0.6155  0.3478
 1479SOL     OW16069   4.725   0.186  13.363  0.8712  0.1944 -0.1474
 1479SOL    HW116070   0.081   0.210  13.373  0.2517  1.9433  1.2640
 1479SOL    HW216071   4.679   0.257  13.406 -0.0691  0.7389 -2.0582
 1480SOL     OW16072   2.543   2.609  10.332  0.0371  0.2064  0.6545
 1480SOL    HW116073   2.471   2.547  10.346  1.5180 -1.6834 -0.1314
 1480SOL    HW216074   2.555   2.601  10.237 -0.6853 -1.7029  0.7303
 1481SOL     OW16075   4.224   1.227   9.829 -0.6918 -0.3235 -0.2575
 1481SOL    HW116076   4.179   1.154   9.872  0.2807 -0.8816 -0.1967
 1481SOL    HW216077   4.265   1.185   9.753 -0.2951  1.1120 -0.8351
 1482SOL     OW16078   1.390   0.109  15.222 -0.0002 -0.1240  0.5226
 1482SOL    HW116079   1.472   0.109  15.272  0.2685 -0.3703  0.0842
 1482SOL    HW216080   1.394   0.202  15.199 -3.0385  0.1683  1.1867
 1483SOL     OW16081   2.699   1.759   3.154 -0.0542  0.2178 -0.4399
 1483SOL    HW116082   2.784   1.759   3.199 -0.2841 -1.1045 -0.0038
 1483SOL    HW216083   2.653   1.724   3.230 -0.9267 -0.2992 -1.2054
 1484SOL     OW16084   1.711   1.230   6.689 -0.4588 -0.5371 -0.2495
 1484SOL    HW116085   1.679   1.299   6.631  1.4344  0.7091  0.1855
 1484SOL    HW216086   1.752   1.163   6.634  1.0269 -1.6810  2.2627
 1485SOL     OW16087   1.555   2.451  12.328 -0.0067  0.1026 -0.6713
 1485SOL    HW116088   1.573   2.527  12.383  1.1158 -2.0252  1.9060
 1485SOL    HW216089   1.537   2.385  12.395 -0.0395 -1.0071 -1.7676
 1486SOL     OW16090   4.038   4.220   4.201 -0.1492 -0.1883  0.1702
 1486SOL    HW116091   4.010   4.298   4.153 -0.5546 -0.3551  0.1372
 1486SOL    HW216092   4.032   4.150   4.137 -2.5595  0.3743 -0.2328
 1487SOL     OW16093   2.945   3.600  16.402  0.1106  0.8310  0.2547
 1487SOL    HW116094   3.000   3.578  16.326 -0.2009  0.1838  0.2212
 1487SOL    HW216095   2.985   3.674  16.447  2.6082  0.4456 -1.3080
 1488SOL     OW16096   4.161   3.613  12.744  0.0842 -0.3999 -0.4473
 1488SOL    HW116097   4.088   3.583  12.798 -0.3772  0.6321 -0.5029
 1488SOL    HW216098   4.225   3.568  12.799  0.3826 -1.2854 -1.4911
 1489SOL     OW16099   2.943   1.802   4.898  0.3271 -0.6908  0.1446
 1489SOL    HW116100   2.961   1.734   4.962 -0.6103 -0.7909  0.2980
 1489SOL    HW216101   3.019   1.777   4.845  1.1230  0.0126  0.9440
 1490SOL     OW16102   2.469   3.390   7.101 -0.1042  0.5027 -0.2392
 1490SOL    HW116103   2.460   3.329   7.175  0.5782  0.8351  0.1232
 1490SOL    HW216104   2.377   3.400   7.079 -0.0486  0.8352 -0.3119
 1491SOL     OW16105   2.899   3.830   4.256  0.3676 -0.0859  0.2028
 1491SOL    HW116106   2.846   3.905   4.284  2.7454  2.2878 -1.6135
 1491SOL    HW216107   2.831   3.770   4.286  0.5815 -0.1525  0.5517
 1492SOL     OW16108   0.432   1.656   5.922 -0.4510  0.1364 -0.0370
 1492SOL    HW116109   0.424   1.673   6.016 -0.1527 -1.2814  0.2400
 1492SOL    HW216110   0.350   1.691   5.888 -0.8011  1.2149  1.9151
 1493SOL     OW16111   1.252   1.050   7.348 -0.3283  0.2849  0.4056
 1493SOL    HW116112   1.240   1.121   7.412 -0.3606  0.5858  0.0641
 1493SOL    HW216113   1.163   1.038   7.315  0.3789 -3.4765 -0.0879
 1494SOL     OW16114   0.673   1.744   4.922  0.3970  0.5924  0.1069
 1494SOL    HW116115   0.705   1.822   4.876  0.0145  0.6972  0.0181
 1494SOL    HW216116   0.607   1.792   4.972  1.3013 -0.6709  2.5189
 1495SOL     OW16117   0.175   4.356   9.549 -0.1677 -0.1939  0.1491
 1495SOL    HW116118   0.235   4.390   9.482 -2.1556 -0.1197 -1.5937
 1495SOL    HW216119   0.118   4.297   9.501 -1.2285  0.2432  0.8781
 1496SOL     OW16120   3.016   1.858   7.812  0.5390  0.1000 -0.1434
 1496SOL    HW116121   3.098   1.809   7.808  0.1924 -0.5127  0.3115
 1496SOL    HW216122   3.045   1.945   7.786 -0.1204 -0.9190 -4.3415
 1497SOL     OW16123   3.033   2.942   5.032 -0.1969  0.3926 -0.4829
 1497SOL    HW116124   3.056   3.034   5.043  0.4882  0.1587  0.0647
 1497SOL    HW216125   3.066   2.905   5.115 -1.2936 -0.0453 -0.2373
 1498SOL     OW16126   0.603   1.186   7.549 -0.0937  0.5779 -0.1312
 1498SOL    HW116127   0.559   1.185   7.633 -1.5484  1.3401 -0.8884
 1498SOL    HW216128   0.661   1.111   7.557  0.1531  0.5947 -1.8001
 1499SOL     OW16129   2.381   0.738  13.018 -0.3380 -0.1976  0.7018
 1499SOL    HW116130   2.387   0.799  13.092 -3.0993  1.2621 -0.2691
 1499SOL    HW216131   2.322   0.680  13.065 -0.7242 -1.5076 -1.3775
 1500SOL     OW16132   2.469   0.065  14.275 -0.5525  0.4425 -0.6811
 1500SOL    HW116133   2.479   0.133  14.342  0.5345 -0.0349 -0.3553
 1500SOL    HW216134   2.374   0.073  14.267 -0.6898 -0.3410  0.2204
 1501SOL     OW16135   0.292   0.505   8.553 -0.1734  0.2301  0.6091
 1501SOL    HW116136   0.320   0.496   8.644  0.7078 -0.2351  0.3010
 1501SOL    HW216137   0.255   0.417   8.540  0.7101 -0.2887  1.5892
 1502SOL     OW16138   2.028   4.117   7.491  0.0043 -0.0054 -0.3922
 1502SOL    HW116139   2.084   4.154   7.423  0.9141  0.7876  0.7971
 1502SOL    HW216140   2.045   4.172   7.567  0.3025 -0.4719 -0.1213
 1503SOL     OW16141   4.607   2.286   2.648 -0.7929 -0.2413  0.0153
 1503SOL    HW116142   4.578   2.355   2.588  1.9870 -1.3166 -2.5289
 1503SOL    HW216143   4.673   2.243   2.594  0.4617  0.0906  1.2901
 1504SOL     OW16144   1.151   3.659  17.635  0.0855  0.2555 -0.0001
 1504SOL    HW116145   1.201   3.736  17.609 -1.3615  1.6659  1.4305
 1504SOL    HW216146   1.134   3.668  17.729  3.1380  1.6225  0.4022
 1505SOL     OW16147   2.001   0.591  10.912 -0.6341 -1.2894 -0.2695
 1505SOL    HW116148   1.973   0.570  10.823  0.3915 -1.0104 -0.6528
 1505SOL    HW216149   1.957   0.513  10.945 -3.0376 -1.1251 -3.0667
 1506SOL     OW16150   0.197   1.142   5.620  0.2781 -0.3601 -0.6171
 1506SOL    HW116151   0.101   1.135   5.625  0.1675  1.8113  0.5464
 1506SOL    HW216152   0.224   1.050   5.621  1.3646 -0.0293  0.2602
 1507SOL     OW16153   1.553   2.183   4.390  0.0103 -0.0299 -0.2828
 1507SOL    HW116154   1.481   2.242   4.413  0.3373 -0.7359  2.5663
 1507SOL    HW216155   1.537   2.112   4.453  0.9654 -1.3150 -1.4793
 1508SOL     OW16156   1.082   3.712  15.488 -0.3153 -0.0994  0.3113
 1508SOL    HW116157   1.117   3.758  15.564 -0.3155  0.9078 -0.2984
 1508SOL    HW216158   1.157   3.708  15.429 -1.8133 -0.0086 -1.5875
 1509SOL     OW16159   3.877   1.055   4.508 -0.0557  0.4420  0.0519
 1509SOL    HW116160   3.833   1.088   4.586 -0.8164 -0.4980  0.0200
 1509SOL    HW216161   3.934   1.130   4.490 -0.5297  1.7616  3.8939
 1510SOL     OW16162   3.055   1.206   6.942  0.0821  0.1454  0.1606
 1510SOL    HW116163   3.146   1.203   6.912  0.9663  0.0733  2.9287
 1510SOL    HW216164   3.062   1.267   7.015 -0.8465 -1.6182  1.7287
 1511SOL     OW16165   0.496   1.402   5.883  0.1251 -0.6706 -0.0804
 1511SOL    HW116166   0.494   1.498   5.893 -0.1562 -0.4567 -2.0605
 1511SOL    HW216167   0.414   1.396   5.833  1.8653  0.9152 -3.1597
 1512SOL     OW16168   1.888   0.871   6.235  1.1244 -0.6691  0.1328
 1512SOL    HW116169   1.864   0.944   6.292  1.8059  2.4429 -3.6195
 1512SOL    HW216170   1.804   0.832   6.213  2.4827 -1.6455 -3.3082
 1513SOL     OW16171   2.563   4.343   3.702 -0.4271  0.6198  0.4220
 1513SOL    HW116172   2.564   4.365   3.795 -0.3348  2.1656  0.0687
 1513SOL    HW216173   2.648   4.310   3.672 -0.3292  1.0468  0.2212
 1514SOL     OW16174   4.367   0.845  14.383  0.1211  0.1628 -0.4477
 1514SOL    HW116175   4.422   0.808  14.314 -0.4686 -1.1963 -0.1979
 1514SOL    HW216176   4.409   0.927  14.410 -0.2728  0.1705  0.1543
 1515SOL     OW16177   1.163   1.558   8.216 -0.0610  0.1084  0.3443
 1515SOL    HW116178   1.235   1.596   8.165  0.4908 -1.4205 -0.0268
 1515SOL    HW216179   1.121   1.500   8.152 -0.8468  0.3807  0.6221
 1516SOL     OW16180   3.337   4.283   9.177  0.0996 -0.5068  0.2354
 1516SOL    HW116181   3.339   4.205   9.233  0.9844 -0.8434 -0.2580
 1516SOL    HW216182   3.245   4.309   9.173  0.3274  0.4619  1.3672
 1517SOL     OW16183   1.579   3.916   4.702  0.3658  0.3771 -0.2687
 1517SOL    HW116184   1.552   3.995   4.655  0.3239 -0.0121 -0.8984
 1517SOL    HW216185   1.659   3.954   4.739  1.4214 -1.4859 -0.5949
 1518SOL     OW16186   1.123   3.395  16.109 -0.0978 -0.3483  0.3416
 1518SOL    HW116187   1.053   3.456  16.087 -0.0671 -1.2756 -2.3603
 1518SOL    HW216188   1.173   3.403  16.027  1.9982 -0.0985  1.6509
 1519SOL     OW16189   0.007   1.757   3.365 -0.3439 -0.0693  0.1474
 1519SOL    HW116190   0.042   1.838   3.327  3.3089 -1.5955  0.2887
 1519SOL    HW216191   0.032   1.773   3.456  0.1923  0.6264 -0.1221
 1520SOL     OW16192   3.351   0.302   5.768  0.3709  0.0277 -0.4517
 1520SOL    HW116193   3.279   0.363   5.787  0.7078  0.0278  0.8160
 1520SOL    HW216194   3.407   0.363   5.722 -1.9477  2.4226 -0.1134
 1521SOL     OW16195   3.889   2.900   3.610  0.0610  0.1250 -0.1944
 1521SOL    HW116196   3.836   2.932   3.683 -0.8781 -0.6010 -0.5501
 1521SOL    HW216197   3.946   2.841   3.658 -1.1329  0.1582  1.2503
 1522SOL     OW16198   1.647   3.416   7.309 -0.3404 -0.6444  0.1255
 1522SOL    HW116199   1.568   3.446   7.354 -2.1832 -2.1410 -2.0456
 1522SOL    HW216200   1.622   3.378   7.224 -1.2941 -1.5771  0.8156
 1523SOL     OW16201   3.282   0.158   2.778 -0.0100  0.3684  0.1606
 1523SOL    HW116202   3.239   0.177   2.861  0.6562  0.0538  0.5767
 1523SOL    HW216203   3.216   0.099   2.739 -1.8904  1.1800  2.1034
 1524SOL     OW16204   0.413   3.856   5.172 -0.2056  0.3593  0.3358
 1524SOL    HW116205   0.425   3.762   5.158  0.4784  0.4537  0.2836
 1524SOL    HW216206   0.365   3.887   5.095  1.2238 -0.5600 -0.9291
 1525SOL     OW16207   1.202   1.330   8.689 -0.2339  0.0246 -0.5379
 1525SOL    HW116208   1.181   1.422   8.705 -0.6399  0.5094 -3.8148
 1525SOL    HW216209   1.191   1.348   8.595 -0.5345 -1.7048 -0.8436
 1526SOL     OW16210   3.072   1.609  11.851  0.0512 -0.1510  0.6915
 1526SOL    HW116211   3.067   1.544  11.781  2.2193 -0.6069  0.9644
 1526SOL    HW216212   3.150   1.660  11.830  0.5132 -0.9167  0.5436
 1527SOL     OW16213   3.087   1.053   0.425 -0.0663  0.2298  0.6262
 1527SOL    HW116214   3.175   1.026   0.397 -0.9906 -1.0609 -1.0147
 1527SOL    HW216215   3.060   0.969   0.463 -1.7453  1.3256  1.8176
 1528SOL     OW16216   4.708   2.427   6.731 -0.2461  0.5262 -0.6954
 1528SOL    HW116217   4.655   2.349   6.717 -1.8199  1.3088  0.8714
 1528SOL    HW216218   4.716   2.464   6.643  1.5463  1.1138 -0.2723
 1529SOL     OW16219   4.491   0.278   8.831 -0.5315 -0.0723 -0.3077
 1529SOL    HW116220   4.532   0.232   8.758  2.1323 -0.3594  1.3631
 1529SOL    HW216221   4.496   0.369   8.801  2.4654 -0.5659 -1.2885
 1530SOL     OW16222   1.938   3.215   8.700  0.1108 -0.1083 -0.2711
 1530SOL    HW116223   1.938   3.285   8.635 -1.1844  0.2057  0.0757
 1530SOL    HW216224   1.890   3.259   8.770 -0.1097 -0.5102 -0.1649
 1531SOL     OW16225   2.118   1.611   5.549  0.2347  0.2222 -0.1779
 1531SOL    HW116226   2.073   1.679   5.498 -1.0847  0.0340  0.7118
 1531SOL    HW216227   2.038   1.579   5.591  0.4417 -1.3226 -0.9877
 1532SOL     OW16228   0.324   2.450   2.553  0.4009 -0.0780  0.3227
 1532SOL    HW116229   0.407   2.496   2.547  0.5384 -0.1665  1.6211
 1532SOL    HW216230   0.267   2.506   2.605  0.0049 -0.5379  0.3896
 1533SOL     OW16231   4.695   3.650   1.364 -0.0539  0.1322 -0.1719
 1533SOL    HW116232   4.619   3.696   1.401  0.4786  0.9373 -0.0900
 1533SOL    HW216233   0.020   3.709   1.320  0.7375 -1.2356 -0.9045
 1534SOL     OW16234   2.333   0.902   5.153 -0.1898 -0.7398  0.5070
 1534SOL    HW116235   2.293   0.818   5.174  0.2082 -0.9312  0.5025
 1534SOL    HW216236   2.305   0.960   5.223 -2.5710 -1.8589  0.4878
 1535SOL     OW16237   0.162   4.255   4.770  0.2448  0.3642  0.1948
 1535SOL    HW116238   0.094   4.186   4.768  0.9704 -0.2788 -1.7108
 1535SOL    HW216239   0.222   4.223   4.703 -0.7931  0.6898 -0.8857
 1536SOL     OW16240   1.188   3.934   9.304 -0.0407 -0.1314  0.2657
 1536SOL    HW116241   1.248   3.877   9.352 -0.0267 -1.5508 -1.4303
 1536SOL    HW216242   1.236   4.012   9.329 -0.2224  0.7000 -1.9940
 1537SOL     OW16243   0.889   4.188   7.946 -0.0436 -0.6107 -0.3807
 1537SOL    HW116244   0.974   4.145   7.958 -0.6874 -1.7679  0.0519
 1537SOL    HW216245   0.840   4.118   7.990 -1.2569  0.7419  0.4187
 1538SOL     OW16246   0.922   0.275   1.531 -0.5388 -0.5340 -0.5522
 1538SOL    HW116247   0.988   0.276   1.601  0.1021  2.2564 -1.1910
 1538SOL    HW216248   0.959   0.351   1.485 -3.2993  1.3690  0.4004
 1539SOL     OW16249   1.601   0.711  12.400 -0.1135  0.2461 -0.1766
 1539SOL    HW116250   1.570   0.733  12.487 -1.7253 -2.6261 -0.0372
 1539SOL    HW216251   1.591   0.791  12.348  3.1496  0.2658 -0.7797
 1540SOL     OW16252   2.330   3.191   9.896 -0.9648 -0.2534  0.4592
 1540SOL    HW116253   2.248   3.151   9.926 -0.1712 -1.7779  0.5988
 1540SOL    HW216254   2.302   3.246   9.823  2.0484 -0.0341 -0.5174
 1541SOL     OW16255   3.458   1.651   5.291 -0.8193 -0.5393 -0.0044
 1541SOL    HW116256   3.511   1.695   5.225  1.1280  0.5612  2.2794
 1541SOL    HW216257   3.418   1.724   5.340 -1.3319  0.6359 -2.1961
 1542SOL     OW16258   1.083   0.452   5.998  0.6049  0.0048 -0.1876
 1542SOL    HW116259   1.152   0.482   6.057 -0.0698  0.4412  0.3797
 1542SOL    HW216260   1.039   0.394   6.061 -2.5341  0.2615 -2.1261
 1543SOL     OW16261   1.281   1.425   5.975  0.0178  0.2739 -0.4422
 1543SOL    HW116262   1.244   1.506   5.939 -2.5803 -0.5365  0.4121
 1543SOL    HW216263   1.352   1.463   6.027  0.8323 -1.6050 -0.1654
 1544SOL     OW16264   1.442   3.501   8.041  0.3811  0.6177  0.6051
 1544SOL    HW116265   1.398   3.585   8.031  0.5862  0.7076  0.4513
 1544SOL    HW216266   1.527   3.518   8.001 -1.1174  3.1362 -1.4778
 1545SOL     OW16267   1.316   1.177   5.611 -0.1978 -0.1239  0.0595
 1545SOL    HW116268   1.300   1.103   5.553 -1.6001 -0.7534  1.2475
 1545SOL    HW216269   1.246   1.232   5.577 -0.2339 -0.1239  0.1331
 1546SOL     OW16270   1.950   2.658   3.401  0.5346  0.9616  0.2208
 1546SOL    HW116271   1.867   2.689   3.438 -0.9790 -0.8440 -1.6495
 1546SOL    HW216272   1.925   2.612   3.321  0.4128 -0.1730  0.9007
 1547SOL     OW16273   0.210   4.607   8.598 -0.3283 -0.0248 -0.5412
 1547SOL    HW116274   0.207   4.628   8.691 -0.0786  1.5527 -0.8849
 1547SOL    HW216275   0.305   4.597   8.588 -0.3357  1.3660 -2.0473
 1548SOL     OW16276   2.249   2.981   9.201  0.2490  0.3189 -0.5817
 1548SOL    HW116277   2.167   2.968   9.154 -0.8624 -0.3028  1.5320
 1548SOL    HW216278   2.244   2.917   9.272 -0.7449  1.2719  0.1987
 1549SOL     OW16279   4.025   2.574   9.943  0.0725  0.2439 -0.2440
 1549SOL    HW116280   4.107   2.622   9.955  1.9370 -2.6686 -1.2692
 1549SOL    HW216281   4.058   2.493   9.903 -0.2871  0.3558 -0.7658
 1550SOL     OW16282   3.412   0.929   6.291  1.2680  0.1346  0.5470
 1550SOL    HW116283   3.461   0.909   6.212  2.9529  2.5106  0.9803
 1550SOL    HW216284   3.423   0.846   6.338  2.3106 -0.0202  0.0226
 1551SOL     OW16285   1.042   2.493   4.591  0.3215 -0.0553 -0.5195
 1551SOL    HW116286   1.013   2.556   4.525  1.7160 -0.3971 -1.4587
 1551SOL    HW216287   1.030   2.406   4.553 -2.0092  0.3861 -0.7953
 1552SOL     OW16288   0.982   4.252   4.542 -0.2944  0.7837  0.0719
 1552SOL    HW116289   1.012   4.207   4.621 -1.2537  1.8663  1.0560
 1552SOL    HW216290   0.889   4.232   4.550 -0.6421  1.9643 -1.0894
 1553SOL     OW16291   2.172   0.454  10.503  0.0178 -0.1581 -0.9149
 1553SOL    HW116292   2.255   0.467  10.458 -0.1262  1.3632 -0.7217
 1553SOL    HW216293   2.134   0.541  10.496 -1.8966 -1.0335 -1.5709
 1554SOL     OW16294   4.007   2.395   6.968 -0.3474 -0.1288 -0.3792
 1554SOL    HW116295   3.933   2.433   6.922  1.1140  2.9516 -0.1932
 1554SOL    HW216296   4.051   2.463   7.019 -0.6603 -0.5825  0.4948
 1555SOL     OW16297   3.374   2.813  10.025  0.4226  0.1201 -0.4048
 1555SOL    HW116298   3.398   2.867   9.949 -0.9438  0.5910 -0.5101
 1555SOL    HW216299   3.465   2.790  10.042 -0.5310 -1.9283  1.8081
 1556SOL     OW16300   2.965   4.650   2.467 -0.3146 -0.2074 -0.7331
 1556SOL    HW116301   2.875   4.671   2.493 -0.7026 -2.8024 -0.0277
 1556SOL    HW216302   2.966   4.556   2.449 -0.2217 -0.2860 -0.3120
 1557SOL     OW16303   0.732   3.398   3.084 -0.4144  0.1575  0.2776
 1557SOL    HW116304   0.662   3.364   3.028 -1.3128  0.1438  1.3852
 1557SOL    HW216305   0.803   3.378   3.024  0.6190  1.2383  1.1545
 1558SOL     OW16306   1.776   3.880   9.518  0.1307 -0.5820 -0.4366
 1558SOL    HW116307   1.764   3.787   9.540 -0.2297 -0.4384 -0.0143
 1558SOL    HW216308   1.870   3.894   9.526 -0.0547  0.9183 -0.8918
 1559SOL     OW16309   0.153   4.613   6.746  0.5837 -0.7013 -0.4790
 1559SOL    HW116310   0.207   4.650   6.677  0.6017 -0.9820 -0.6141
 1559SOL    HW216311   0.209   4.581   6.816 -3.4515  0.8840  3.5194
 1560SOL     OW16312   3.892   3.639   4.115  1.2073 -0.7394  0.2862
 1560SOL    HW116313   3.818   3.644   4.056  0.9533  2.2486  0.8758
 1560SOL    HW216314   3.916   3.546   4.112 -0.2820 -1.0273 -2.0139
 1561SOL     OW16315   0.581   2.528  15.934  0.1200  0.2771  0.5123
 1561SOL    HW116316   0.525   2.582  15.989 -0.8021  1.4508 -1.5835
 1561SOL    HW216317   0.516   2.458  15.929 -0.3334  0.8702 -1.6447
 1562SOL     OW16318   2.009   2.461  15.488 -0.1177  0.2359 -0.0544
 1562SOL    HW116319   2.009   2.368  15.508 -2.5647 -0.1358 -1.7849
 1562SOL    HW216320   2.071   2.484  15.557  0.2364  1.3756 -0.7404
 1563SOL     OW16321   4.166   3.808   0.057  0.3742  0.0980 -0.0574
 1563SOL    HW116322   4.114   3.878   0.096 -2.2346 -2.6856  1.4936
 1563SOL    HW216323   4.155   3.831  17.708 -2.7418 -0.0569  0.3008
 1564SOL     OW16324   2.524   0.214   7.320 -0.5418 -0.1519 -0.0661
 1564SOL    HW116325   2.553   0.129   7.285 -1.5036 -0.0415 -1.1297
 1564SOL    HW216326   2.592   0.225   7.386  1.0214 -0.6824 -1.5766
 1565SOL     OW16327   1.387   4.692  12.867  0.2163  0.2949 -0.5865
 1565SOL    HW116328   1.469   4.646  12.884  0.1520 -0.4017 -2.1416
 1565SOL    HW216329   1.356   4.692  12.957  0.4961 -0.4991 -0.4902
 1566SOL     OW16330   0.236   2.120   7.884 -0.3637 -0.0775  1.2342
 1566SOL    HW116331   0.156   2.143   7.931 -0.6053 -0.5989  1.0779
 1566SOL    HW216332   0.206   2.113   7.793 -2.1832 -1.4737  1.9508
 1567SOL     OW16333   0.942   3.209   8.844 -0.2202 -0.3423  0.1106
 1567SOL    HW116334   1.026   3.164   8.854  1.4787  2.5765 -1.1826
 1567SOL    HW216335   0.919   3.166   8.762 -0.2690  1.0469 -0.6087
 1568SOL     OW16336   3.298   0.336   7.587 -0.1319 -0.0370  0.6176
 1568SOL    HW116337   3.380   0.377   7.559 -0.4882  0.8556  0.8680
 1568SOL    HW216338   3.255   0.404   7.640  0.0803  0.0377  0.6911
 1569SOL     OW16339   2.855   1.316   3.681 -0.0441 -0.3840 -0.1835
 1569SOL    HW116340   2.831   1.223   3.676 -1.9751  0.1396 -0.5895
 1569SOL    HW216341   2.908   1.317   3.761  0.0170 -2.6642 -0.1916
 1570SOL     OW16342   3.741   1.064   9.390  0.3907 -0.1372  0.4237
 1570SOL    HW116343   3.676   1.060   9.320  1.1896  0.9973 -0.3807
 1570SOL    HW216344   3.811   1.005   9.361  1.2463  1.3344 -0.5246
 1571SOL     OW16345   2.140   2.887   5.062 -0.2451 -0.7811  0.1314
 1571SOL    HW116346   2.199   2.881   5.137 -0.2289  2.2115  0.3417
 1571SOL    HW216347   2.058   2.910   5.107 -0.1454 -0.1041 -0.0381
 1572SOL     OW16348   0.633   3.900   7.708 -0.7389 -0.3125 -0.1033
 1572SOL    HW116349   0.587   3.873   7.788  0.5688  0.2196  0.8266
 1572SOL    HW216350   0.623   3.995   7.714 -0.0730 -0.2161 -0.4292
 1573SOL     OW16351   2.228   3.269   9.237 -0.1641  0.7713  0.3370
 1573SOL    HW116352   2.251   3.278   9.329  0.7822 -1.3564  0.3189
 1573SOL    HW216353   2.243   3.175   9.226 -0.5532  0.7897 -0.4085
 1574SOL     OW16354   1.066   4.520  11.123  0.4865 -0.5976  0.0102
 1574SOL    HW116355   1.136   4.475  11.169  0.4514  0.1931  0.8391
 1574SOL    HW216356   1.002   4.450  11.113 -1.3113  1.1102 -0.3783
 1575SOL     OW16357   0.518   4.440  14.688 -0.0908  0.0593 -0.1978
 1575SOL    HW116358   0.484   4.460  14.775  1.6633  0.5089  0.3919
 1575SOL    HW216359   0.554   4.526  14.664  1.1336  0.2181  2.2455
 1576SOL     OW16360   2.317   0.674  13.538 -0.0740 -0.5108 -0.4646
 1576SOL    HW116361   2.309   0.596  13.484  0.6581 -1.0633  0.2179
 1576SOL    HW216362   2.379   0.723  13.485 -0.4285 -0.1112 -0.5086
 1577SOL     OW16363   2.414   2.433   7.563  0.1533 -0.4590 -0.0435
 1577SOL    HW116364   2.447   2.489   7.633  0.7795 -1.1611  0.2302
 1577SOL    HW216365   2.483   2.366   7.558  1.3840  0.8529 -0.9102
 1578SOL     OW16366   4.169   1.956   7.975  0.4686 -0.0823 -1.1742
 1578SOL    HW116367   4.187   1.877   7.923 -0.4195 -1.4683  0.6361
 1578SOL    HW216368   4.095   2.000   7.933 -0.8498 -1.9164 -0.7821
 1579SOL     OW16369   3.408   1.158   9.346 -0.0783 -0.2291  0.1136
 1579SOL    HW116370   3.450   1.187   9.265  0.6544 -1.5070  0.0352
 1579SOL    HW216371   3.444   1.223   9.405  0.1508  1.1058 -1.4986
 1580SOL     OW16372   1.192   2.074   4.028  0.6756 -0.0375 -0.1728
 1580SOL    HW116373   1.269   2.091   4.082  1.2496  0.1148 -1.0386
 1580SOL    HW216374   1.141   2.022   4.090 -0.7202  1.4416 -0.0607
 1581SOL     OW16375   1.938   4.595   8.322  0.1368  0.3857  0.0989
 1581SOL    HW116376   1.853   4.584   8.280  1.0571  1.6863 -2.0897
 1581SOL    HW216377   1.958   4.686   8.302 -0.0675  0.9409  2.4525
 1582SOL     OW16378   0.956   0.218  10.239 -0.3581 -0.3562  0.3286
 1582SOL    HW116379   0.981   0.223  10.331 -0.3569 -1.3036  0.3757
 1582SOL    HW216380   0.988   0.305  10.215 -0.9462  0.2189  1.6198
 1583SOL     OW16381   3.415   2.297   7.247 -1.6183  0.4033 -0.4254
 1583SOL    HW116382   3.420   2.368   7.312 -2.8991  0.6719 -0.6067
 1583SOL    HW216383   3.447   2.219   7.292 -2.0870  1.7127  2.1956
 1584SOL     OW16384   3.604   2.713   3.140  0.1645 -0.5095  0.0789
 1584SOL    HW116385   3.699   2.713   3.133  0.1777 -2.2302  0.4400
 1584SOL    HW216386   3.584   2.788   3.197 -0.3644  0.1658 -1.0039
 1585SOL     OW16387   0.123   2.300   7.462 -1.0343 -0.2054  0.4711
 1585SOL    HW116388   0.217   2.316   7.451 -1.1341  0.7398  0.9351
 1585SOL    HW216389   0.102   2.335   7.549 -2.3279  1.3355 -0.4644
 1586SOL     OW16390   0.011   0.873   6.206 -0.0820 -0.3782  0.2502
 1586SOL    HW116391   0.082   0.915   6.254 -2.2690  3.1738  0.4307
 1586SOL    HW216392   0.055   0.790   6.189  2.3167  0.9217  0.1705
 1587SOL     OW16393   1.045   3.629  10.284 -0.2139 -0.6509 -0.1318
 1587SOL    HW116394   1.069   3.696  10.349  2.3737 -0.8184 -0.9485
 1587SOL    HW216395   1.099   3.555  10.313  1.3391  0.3284 -0.5457
 1588SOL     OW16396   3.023   3.718   5.072  0.6035  0.6013 -0.1392
 1588SOL    HW116397   3.072   3.790   5.111  1.5989  0.4496 -1.1168
 1588SOL    HW216398   3.097   3.666   5.041  1.2431  1.2190  0.3731
 1589SOL     OW16399   1.739   0.591   5.941 -0.1967  0.2075 -0.1095
 1589SOL    HW116400   1.698   0.531   5.879  0.2601 -0.1440 -0.0658
 1589SOL    HW216401   1.695   0.573   6.024  0.6608  0.2409  0.3488
 1590SOL     OW16402   2.724   2.891   6.280 -0.2747  0.2662 -0.2852
 1590SOL    HW116403   2.719   2.916   6.372  2.1666 -0.1119 -0.0487
 1590SOL    HW216404   2.764   2.971   6.247  1.1007  0.6287  2.3028
 1591SOL     OW16405   1.404   2.571  17.073 -0.5490  0.0185  0.0350
 1591SOL    HW116406   1.375   2.480  17.064  4.5715 -1.4489 -1.3433
 1591SOL    HW216407   1.418   2.599  16.983 -1.8053 -0.5249 -0.3358
 1592SOL     OW16408   4.502   0.261   2.098 -0.3949 -0.0867  0.0460
 1592SOL    HW116409   4.597   0.252   2.102 -0.3771 -0.5643 -1.6296
 1592SOL    HW216410   4.479   0.255   2.191 -0.5268 -1.3103 -0.0675
 1593SOL     OW16411   1.511   1.496   6.157  0.0319 -0.1812 -0.3295
 1593SOL    HW116412   1.525   1.548   6.236 -1.3512  0.0318 -0.2118
 1593SOL    HW216413   1.573   1.425   6.173  1.1541  0.7576 -0.5376
 1594SOL     OW16414   3.740   0.671  11.518  0.2477 -0.2217  0.5485
 1594SOL    HW116415   3.755   0.762  11.541  0.7869 -0.6374  1.8157
 1594SOL    HW216416   3.698   0.635  11.596 -1.7746  0.9658  0.0258
 1595SOL     OW16417   4.440   4.736   2.717  0.0591  0.4270 -0.1838
 1595SOL    HW116418   4.451   4.703   2.628  0.8276 -1.6828  0.6911
 1595SOL    HW216419   4.434   4.655   2.767  1.3310 -0.2174 -1.0910
 1596SOL     OW16420   3.984   2.702   3.796  1.0175 -0.6761  0.6754
 1596SOL    HW116421   3.924   2.711   3.870 -0.6279  0.3825 -0.7933
 1596SOL    HW216422   3.977   2.608   3.779 -1.6578 -0.3548  0.0293
 1597SOL     OW16423   0.797   2.724   5.668  0.3819  0.4683  0.0040
 1597SOL    HW116424   0.851   2.710   5.589  0.1907  1.1971 -0.2552
 1597SOL    HW216425   0.799   2.636   5.707  0.6337  0.1405 -0.7463
 1598SOL     OW16426   3.414   3.351   3.866  1.1181 -0.1837  0.4060
 1598SOL    HW116427   3.471   3.380   3.795  2.2287  1.6385  2.0563
 1598SOL    HW216428   3.397   3.435   3.909 -0.2271 -0.7136  0.9381
 1599SOL     OW16429   0.479   0.651  14.352 -0.2099 -0.0741  0.6146
 1599SOL    HW116430   0.487   0.737  14.312 -1.3451  0.2184  1.0239
 1599SOL    HW216431   0.413   0.663  14.421  0.9400  1.9036  1.3617
 1600SOL     OW16432   1.069   1.852  13.060  0.0000 -0.6986  0.3802
 1600SOL    HW116433   1.072   1.913  13.134 -1.1781  0.6673 -0.7061
 1600SOL    HW216434   0.975   1.857  13.042  0.1617 -1.9175 -0.7951
 1601SOL     OW16435   0.948   4.727  10.084 -0.1823  0.3581 -0.1951
 1601SOL    HW116436   0.934   0.053  10.012  1.9815  1.4768  0.3683
 1601SOL    HW216437   0.966   0.049  10.157  1.0644 -0.4427  0.1372
 1602SOL     OW16438   2.003   3.376   4.094  0.5803 -0.6585  0.0680
 1602SOL    HW116439   2.026   3.386   4.186  0.8886  1.9524 -0.2783
 1602SOL    HW216440   2.066   3.322   4.047  0.5084  0.1324 -0.9429
 1603SOL     OW16441   4.230   3.024   9.082 -0.1583  0.0202 -0.4890
 1603SOL    HW116442   4.204   3.062   9.166  2.4453 -0.4740  0.5375
 1603SOL    HW216443   4.280   3.101   9.055  2.4187 -1.2074  0.8421
 1604SOL     OW16444   1.878   4.491   7.538  0.3841 -0.0338 -0.8362
 1604SOL    HW116445   1.946   4.505   7.471  1.6533  2.9581  1.0831
 1604SOL    HW216446   1.879   4.584   7.561  1.3037 -0.2587 -0.0101
 1605SOL     OW16447   4.199   2.076   9.365  0.8299 -0.0538 -0.2257
 1605SOL    HW116448   4.144   2.075   9.443  0.9528  1.5847 -0.1154
 1605SOL    HW216449   4.154   2.145   9.316  1.1696  0.0640 -0.3728
 1606SOL     OW16450   3.806   0.772   0.773 -0.0229 -0.0609 -0.4096
 1606SOL    HW116451   3.799   0.720   0.853  0.6236  0.3063 -0.1211
 1606SOL    HW216452   3.901   0.773   0.764 -0.0973  0.1829 -1.2297
 1607SOL     OW16453   3.760   0.774   7.676  0.5229  0.2826  0.2600
 1607SOL    HW116454   3.734   0.748   7.764 -1.7007  1.0503 -0.1727
 1607SOL    HW216455   3.698   0.843   7.655  1.1299  0.0965 -2.1091
 1608SOL     OW16456   0.259   4.105   6.117 -0.3123 -0.4255 -0.0153
 1608SOL    HW116457   0.272   4.028   6.061 -0.5657 -0.6196  0.1927
 1608SOL    HW216458   0.170   4.090   6.147 -0.6123 -0.7031 -1.0557
 1609SOL     OW16459   1.129   1.598   8.710 -0.3133  0.4594 -0.4707
 1609SOL    HW116460   1.207   1.648   8.688  0.8411  0.1003  2.7341
 1609SOL    HW216461   1.063   1.604   8.640 -0.2243  0.6522 -0.5370
 1610SOL     OW16462   2.547   0.964   5.546  0.1880  0.0522 -0.2326
 1610SOL    HW116463   2.460   0.973   5.584  0.1852  0.3631 -0.3072
 1610SOL    HW216464   2.576   1.055   5.537 -1.1991  0.4014 -1.1793
 1611SOL     OW16465   1.430   4.519  11.092  0.3504 -0.2930 -0.6272
 1611SOL    HW116466   1.499   4.466  11.133  0.6137 -1.2150 -2.2473
 1611SOL    HW216467   1.399   4.559  11.173 -0.7753 -0.5324 -0.9514
 1612SOL     OW16468   0.293   1.769   2.629 -0.3275  0.2953  0.6429
 1612SOL    HW116469   0.214   1.715   2.626 -0.9317  1.1982  0.2535
 1612SOL    HW216470   0.286   1.800   2.539  2.2538  0.5744  0.5304
 1613SOL     OW16471   1.669   1.380  11.041  0.0377 -0.2039 -0.0448
 1613SOL    HW116472   1.576   1.360  11.046  0.2253 -1.0705  0.0198
 1613SOL    HW216473   1.711   1.307  11.086 -1.5378 -0.6069  0.7786
 1614SOL     OW16474   1.486   1.899   4.306  0.1101 -0.4096 -0.0895
 1614SOL    HW116475   1.510   1.824   4.252  1.3304  0.2819 -0.5137
 1614SOL    HW216476   1.548   1.894   4.378  0.2607  0.1212 -0.1821
 1615SOL     OW16477   1.066   2.666   2.852 -0.4521  0.5558 -0.0219
 1615SOL    HW116478   1.060   2.744   2.906 -1.3125  0.5031 -0.0366
 1615SOL    HW216479   0.976   2.632   2.853 -0.4775  0.6478  0.5303
 1616SOL     OW16480   3.325   2.405   3.908  0.2659 -0.1344 -0.7147
 1616SOL    HW116481   3.238   2.415   3.871  0.3705  0.0547 -0.9094
 1616SOL    HW216482   3.309   2.370   3.995  2.3045  0.0582 -0.2438
 1617SOL     OW16483   1.662   1.748   0.256 -0.3197  0.5390  0.0017
 1617SOL    HW116484   1.676   1.688   0.183  0.5090  1.2848 -0.4533
 1617SOL    HW216485   1.658   1.688   0.330 -2.4522  1.1819  0.3948
 1618SOL     OW16486   4.260   2.163   8.320  0.2109 -0.2234 -0.5060
 1618SOL    HW116487   4.343   2.161   8.274 -0.6231  0.6219 -2.0490
 1618SOL    HW216488   4.224   2.237   8.272 -0.6027 -0.3205 -0.0482
 1619SOL     OW16489   4.327   4.084   0.714 -0.0170  0.2427 -0.0351
 1619SOL    HW116490   4.292   4.021   0.777  0.9752 -0.3017 -0.0247
 1619SOL    HW216491   4.257   4.144   0.689 -1.8761 -1.2364  1.6757
 1620SOL     OW16492   3.018   0.134   1.848  0.5280  0.2812  0.2508
 1620SOL    HW116493   3.030   0.112   1.941 -0.6152  0.7287  0.5035
 1620SOL    HW216494   3.039   0.227   1.847 -0.5116  0.5098 -0.2838
 1621SOL     OW16495   3.309   0.196   2.312  0.5142 -0.2263  0.1690
 1621SOL    HW116496   3.239   0.260   2.328  2.0527  0.8259  2.5731
 1621SOL    HW216497   3.272   0.111   2.338  1.1573 -0.5087  0.1549
 1622SOL     OW16498   3.097   0.229   6.684  0.2685  0.4710 -0.0837
 1622SOL    HW116499   3.072   0.199   6.596  1.0036  0.3437 -0.2512
 1622SOL    HW216500   3.187   0.256   6.665  0.3340  0.1290 -0.2646
 1623SOL     OW16501   3.699   4.030   6.990  0.2818  0.3663  0.7212
 1623SOL    HW116502   3.762   4.034   7.062  0.8959 -0.4856  0.2341
 1623SOL    HW216503   3.672   4.121   6.999  0.1827  0.3456  0.6435
 1624SOL     OW16504   4.460   3.067   9.752 -0.1353  0.0566  0.1497
 1624SOL    HW116505   4.478   3.136   9.816 -0.6747 -0.2616  0.6346
 1624SOL    HW216506   4.394   3.023   9.805  0.9828 -1.7733  0.0215
 1625SOL     OW16507   0.257   0.181  17.233  0.3827  0.5168 -0.4499
 1625SOL    HW116508   0.328   0.118  17.224 -0.0723 -0.1932  0.8716
 1625SOL    HW216509   0.179   0.124  17.233  1.7151 -1.2992 -1.0975
 1626SOL     OW16510   4.464   1.690   3.366  0.1366 -0.3039  0.7673
 1626SOL    HW116511   4.479   1.751   3.295 -0.4397 -0.2177  0.7191
 1626SOL    HW216512   4.536   1.634   3.336 -0.7357 -0.1584 -1.5720
 1627SOL     OW16513   1.876   2.340   3.635  0.2893 -0.7574 -0.6397
 1627SOL    HW116514   1.928   2.276   3.586 -0.9000 -0.9421 -1.6686
 1627SOL    HW216515   1.808   2.279   3.667 -0.5748  0.3071 -0.4568
 1628SOL     OW16516   1.518   2.775   5.284 -0.4518 -0.2248 -0.3248
 1628SOL    HW116517   1.504   2.793   5.377  1.8045  0.1499 -0.0683
 1628SOL    HW216518   1.468   2.693   5.279 -0.7182 -0.0116 -1.1491
 1629SOL     OW16519   2.902   3.043   6.705  0.3007 -0.1250  0.6551
 1629SOL    HW116520   2.808   3.058   6.706  0.3871  0.5358 -0.7164
 1629SOL    HW216521   2.926   3.067   6.616  1.3289  0.6172  1.1350
 1630SOL     OW16522   4.571   1.214   2.075  0.4755 -0.5415 -0.2971
 1630SOL    HW116523   4.481   1.248   2.071  1.0038  1.2064  2.3181
 1630SOL    HW216524   4.624   1.293   2.065  0.0088 -0.1672  0.1795
 1631SOL     OW16525   1.644   0.384   4.958  0.2213 -0.2318 -0.3235
 1631SOL    HW116526   1.692   0.440   5.020 -3.2791 -0.3455  2.4840
 1631SOL    HW216527   1.575   0.450   4.951 -0.1855 -0.2566  3.1707
 1632SOL     OW16528   1.451   0.081   2.248 -0.0504  0.1591 -0.1193
 1632SOL    HW116529   1.459   0.005   2.305  1.0691  0.2020 -0.2301
 1632SOL    HW216530   1.534   0.075   2.202  0.1427  0.3928  0.2045
 1633SOL     OW16531   0.227   2.629  16.019  0.0970 -0.9642 -0.2275
 1633SOL    HW116532   0.234   2.709  15.968  1.9239 -1.8859 -1.4079
 1633SOL    HW216533   0.305   2.622  16.073  0.8052 -1.9083 -1.3823
 1634SOL     OW16534   0.419   3.377   0.731 -0.0037  0.2233 -0.6246
 1634SOL    HW116535   0.489   3.362   0.794 -0.9806 -1.8035 -0.0158
 1634SOL    HW216536   0.449   3.466   0.713  0.0351  0.4704  0.6379
 1635SOL     OW16537   0.579   1.762   9.191 -0.3940 -0.3169  0.4438
 1635SOL    HW116538   0.519   1.753   9.266 -1.1156  0.6018 -0.0235
 1635SOL    HW216539   0.612   1.673   9.181  3.0917  1.1755 -1.2282
 1636SOL     OW16540   3.296   3.929  15.051 -0.2647  0.2242 -0.2297
 1636SOL    HW116541   3.285   3.951  15.143 -1.7370  0.6428 -0.5191
 1636SOL    HW216542   3.382   3.887  15.049  0.3695  1.4969  0.6886
 1637SOL     OW16543   2.769   4.560  17.404 -0.1223 -0.5524  0.6964
 1637SOL    HW116544   2.680   4.572  17.369  0.1005  0.0860  0.3426
 1637SOL    HW216545   2.819   4.614  17.343 -1.6386 -0.0284 -0.0995
 1638SOL     OW16546   2.623   0.831   5.820  0.2428 -0.0878 -0.1969
 1638SOL    HW116547   2.642   0.827   5.726 -0.0682  1.5092 -0.3415
 1638SOL    HW216548   2.599   0.924   5.815 -2.0023 -0.6325  0.4071
 1639SOL     OW16549   2.209   0.593   9.794  0.1375  0.3352  0.0716
 1639SOL    HW116550   2.231   0.527   9.859 -0.9499  1.9966  2.1373
 1639SOL    HW216551   2.114   0.584   9.783  0.3556 -1.2426 -0.5702
 1640SOL     OW16552   3.803   1.751  16.556  0.0150  0.5327 -0.6763
 1640SOL    HW116553   3.719   1.713  16.529 -0.7188 -0.4179  2.9173
 1640SOL    HW216554   3.849   1.760  16.473  1.3380  0.5185  0.0562
 1641SOL     OW16555   4.113   2.834  16.216  0.2256  0.1825 -0.0704
 1641SOL    HW116556   4.112   2.915  16.165 -0.1660  1.2082  1.5245
 1641SOL    HW216557   4.086   2.773  16.148  1.8660 -0.3948 -0.2183
 1642SOL     OW16558   2.524   2.712   7.656 -0.5137 -0.0784 -0.3777
 1642SOL    HW116559   2.507   2.770   7.583  1.8114  2.7712  1.3246
 1642SOL    HW216560   2.436   2.701   7.693 -0.5156  2.2203  0.2595
 1643SOL     OW16561   3.342   1.695  11.822 -0.5311  0.1932  0.1220
 1643SOL    HW116562   3.403   1.682  11.749 -1.8662 -1.1898 -0.7452
 1643SOL    HW216563   3.389   1.762  11.871  1.3605 -0.6172 -0.5661
 1644SOL     OW16564   3.736   3.634   9.238  0.2113  0.1333 -0.3602
 1644SOL    HW116565   3.661   3.640   9.297 -0.1783 -0.6636 -0.7755
 1644SOL    HW216566   3.734   3.540   9.222 -0.0752 -0.2003  1.6889
 1645SOL     OW16567   0.181   0.074   7.090 -0.4121 -0.1887  0.2955
 1645SOL    HW116568   0.106   0.015   7.082  0.5350 -1.3419 -0.1072
 1645SOL    HW216569   0.243   0.001   7.094  0.8085  0.7647 -1.2106
 1646SOL     OW16570   4.490   3.674  12.687 -0.5224  0.3192  0.0355
 1646SOL    HW116571   4.575   3.708  12.715 -1.3329  0.2532  2.6045
 1646SOL    HW216572   4.462   3.627  12.765  1.8053 -3.7870 -1.6440
 1647SOL     OW16573   1.662   2.737   8.904 -0.4730  0.7948  0.7744
 1647SOL    HW116574   1.715   2.684   8.964  0.2155 -0.6362 -1.0936
 1647SOL    HW216575   1.672   2.691   8.820  0.1949  1.8223  0.2920
 1648SOL     OW16576   4.659   2.860   4.095 -0.3661  0.1867  0.1997
 1648SOL    HW116577   4.570   2.854   4.059 -0.5813  1.8868  0.4853
 1648SOL    HW216578   4.660   2.774   4.138  0.7583  1.5637  2.8950
 1649SOL     OW16579   4.471   4.307   0.794 -0.8707  0.4341  0.9742
 1649SOL    HW116580   4.431   4.373   0.737  0.5764  1.3944  1.0581
 1649SOL    HW216581   4.418   4.231   0.772 -3.0445  1.8734  1.2740
 1650SOL     OW16582   4.322   4.098   3.718 -0.1940  0.3025 -0.0144
 1650SOL    HW116583   4.261   4.130   3.784 -1.7463 -1.6869 -0.4946
 1650SOL    HW216584   4.367   4.177   3.688  1.0418 -1.0108 -1.6343
 1651SOL     OW16585   3.449   3.382  12.735 -0.4568 -0.5161  0.6455
 1651SOL    HW116586   3.525   3.416  12.783  2.2046 -0.2323 -3.8088
 1651SOL    HW216587   3.474   3.392  12.644  0.2989 -0.5099  0.8541
 1652SOL     OW16588   3.987   3.227   7.611 -0.2720 -0.0538  0.6087
 1652SOL    HW116589   3.940   3.306   7.583 -2.4828 -1.8588 -0.8021
 1652SOL    HW216590   3.940   3.168   7.552  2.3010 -2.6623  1.1821
 1653SOL     OW16591   2.855   2.650   8.644 -0.1654  0.3864  0.0883
 1653SOL    HW116592   2.799   2.723   8.616 -1.2523 -0.8197 -0.8882
 1653SOL    HW216593   2.895   2.682   8.725 -0.8891  0.3595  0.4624
 1654SOL     OW16594   1.345   1.695   1.508  0.1433  0.1972 -0.7400
 1654SOL    HW116595   1.315   1.631   1.572 -0.1915  1.0770 -0.0205
 1654SOL    HW216596   1.358   1.639   1.431  1.7969 -0.4943  0.0497
 1655SOL     OW16597   1.062   0.354  10.965  0.1355 -0.2578  0.1535
 1655SOL    HW116598   1.135   0.416  10.968 -1.6997  1.8768 -0.2275
 1655SOL    HW216599   1.006   0.368  11.041 -0.2366  0.6690 -0.2993
 1656SOL     OW16600   2.706   4.017   4.328  0.5812 -0.3243 -0.2286
 1656SOL    HW116601   2.707   4.067   4.409  1.6637 -0.3327 -0.2332
 1656SOL    HW216602   2.626   3.964   4.331 -0.9616  2.0507  0.8500
 1657SOL     OW16603   2.496   3.658  12.820  0.0330 -0.0570  0.0571
 1657SOL    HW116604   2.472   3.729  12.760  0.0999  0.0152  0.1159
 1657SOL    HW216605   2.586   3.681  12.841  0.7820 -1.5303 -1.5054
 1658SOL     OW16606   1.634   1.810  12.846  0.5886 -0.3853  0.4646
 1658SOL    HW116607   1.628   1.899  12.881 -0.4126 -0.2081 -0.1771
 1658SOL    HW216608   1.729   1.799  12.843  0.5438 -0.7003  0.2362
 1659SOL     OW16609   3.091   1.027   3.995 -0.2337  0.0980 -0.1185
 1659SOL    HW116610   3.054   0.968   3.931  2.3842 -1.2949 -0.3518
 1659SOL    HW216611   3.064   0.981   4.075 -0.0784  1.9360  1.0156
 1660SOL     OW16612   3.341   3.403   2.598 -0.5044  0.0367  0.3677
 1660SOL    HW116613   3.318   3.311   2.587 -0.9069  0.3895 -1.6300
 1660SOL    HW216614   3.424   3.376   2.639 -0.8567 -2.7207 -0.7367
 1661SOL     OW16615   3.920   1.112  10.566  0.2112  0.2228 -0.1019
 1661SOL    HW116616   3.988   1.115  10.498  0.6060  0.1540  0.2899
 1661SOL    HW216617   3.962   1.125  10.651 -0.5635  0.2313  0.2772
 1662SOL     OW16618   0.853   1.088   6.623  0.8807 -0.6277 -0.2728
 1662SOL    HW116619   0.865   1.096   6.718 -1.6036 -0.8066  0.0641
 1662SOL    HW216620   0.944   1.069   6.603  1.4554  1.5635  0.1928
 1663SOL     OW16621   1.549   4.308   2.466  0.4875 -0.6809 -0.2657
 1663SOL    HW116622   1.546   4.244   2.395  0.3700 -2.9591  1.7818
 1663SOL    HW216623   1.570   4.252   2.541 -0.1970 -0.6739 -0.0678
 1664SOL     OW16624   0.979   3.771   7.717 -0.1840  0.1077  0.5189
 1664SOL    HW116625   0.915   3.787   7.647 -1.4831  0.8496  1.8771
 1664SOL    HW216626   0.910   3.766   7.783 -0.6587  0.0018  0.0223
 1665SOL     OW16627   1.357   1.547   4.590  0.0749  0.0493  0.5075
 1665SOL    HW116628   1.426   1.488   4.560 -1.4664 -1.3838 -0.1941
 1665SOL    HW216629   1.279   1.498   4.565  1.4153 -0.4434 -2.5922
 1666SOL     OW16630   1.824   3.959   0.427  0.2949 -0.3537  0.3583
 1666SOL    HW116631   1.820   3.995   0.339 -1.3629  1.1094  1.0421
 1666SOL    HW216632   1.739   3.916   0.437  0.8183 -1.7568 -1.2432
 1667SOL     OW16633   1.380   4.596   2.380  0.2829 -0.4687  0.3404
 1667SOL    HW116634   1.403   4.503   2.389 -0.6408 -0.8377 -1.0714
 1667SOL    HW216635   1.293   4.593   2.419  0.1619  1.9773  0.2578
 1668SOL     OW16636   0.067   2.582  11.965 -0.3282 -0.4837  0.0004
 1668SOL    HW116637   0.125   2.637  11.913  0.3665 -1.0924  0.1380
 1668SOL    HW216638   0.048   2.511  11.903 -0.2127 -0.0363 -0.5457
 1669SOL     OW16639   4.546   4.351   8.975 -0.0907 -0.0577 -0.7163
 1669SOL    HW116640   4.488   4.301   9.032 -0.4930 -1.3812 -2.2805
 1669SOL    HW216641   4.617   4.362   9.037 -0.7664 -2.4419  0.4696
 1670SOL     OW16642   1.489   3.028   2.648 -0.2772 -0.1691  0.2641
 1670SOL    HW116643   1.461   2.989   2.730 -1.4997  1.9131  0.8323
 1670SOL    HW216644   1.566   2.971   2.649 -0.8600 -0.9595 -0.7484
 1671SOL     OW16645   3.752   2.317   1.963 -0.0622  0.4811  0.4458
 1671SOL    HW116646   3.846   2.301   1.957 -0.6561 -2.4326 -0.9277
 1671SOL    HW216647   3.731   2.280   2.049 -1.1003  1.3173  0.5571
 1672SOL     OW16648   3.719   1.967  17.481 -0.2341 -0.4175 -0.1125
 1672SOL    HW116649   3.796   1.914  17.501 -0.3733 -1.0626 -1.2958
 1672SOL    HW216650   3.698   1.994  17.571  0.0320 -2.1808  0.4924
 1673SOL     OW16651   4.313   1.982  10.245 -0.0642 -0.4670 -0.0926
 1673SOL    HW116652   4.232   1.959  10.199 -0.9062  0.4093  0.9626
 1673SOL    HW216653   4.317   1.913  10.311  0.7544  1.5994  2.0445
 1674SOL     OW16654   1.860   1.165   4.880  0.4900  0.2204 -0.2596
 1674SOL    HW116655   1.947   1.181   4.845  0.8353  0.5517  0.7482
 1674SOL    HW216656   1.827   1.088   4.833 -0.2764  0.3166  0.1116
 1675SOL     OW16657   2.466   1.025  11.228  0.7382  0.0014  0.0158
 1675SOL    HW116658   2.534   0.981  11.177  0.5766  0.4746 -0.6041
 1675SOL    HW216659   2.392   0.991  11.177 -0.8739  2.6178  0.6094
 1676SOL     OW16660   1.892   0.150   8.584  0.7803  0.0762 -0.4055
 1676SOL    HW116661   1.878   0.152   8.678 -2.9401  0.2688 -0.9608
 1676SOL    HW216662   1.801   0.153   8.557  0.1296 -0.0749  1.8077
 1677SOL     OW16663   3.985   0.361  12.746 -0.5288  0.6203 -0.4084
 1677SOL    HW116664   3.970   0.410  12.827  0.3055  0.8444 -0.3879
 1677SOL    HW216665   4.081   0.353  12.746 -0.4789  1.2403 -1.3769
 1678SOL     OW16666   2.046   0.130   5.881  0.1598  0.0697 -0.1317
 1678SOL    HW116667   1.992   0.053   5.863 -1.0360  0.6511  0.9863
 1678SOL    HW216668   1.982   0.169   5.941  0.3904 -2.4754  1.7581
 1679SOL     OW16669   1.457   4.088   0.920 -0.4882  0.0640  0.1568
 1679SOL    HW116670   1.533   4.091   0.978  0.4070 -0.1907 -1.0135
 1679SOL    HW216671   1.486   4.032   0.848 -0.9546 -1.7814  1.3758
 1680SOL     OW16672   1.182   1.618   5.771  0.3315  0.0619  0.5787
 1680SOL    HW116673   1.148   1.694   5.724  0.8430  0.1555  0.3606
 1680SOL    HW216674   1.240   1.579   5.706  0.9335  1.8674  0.0272
 1681SOL     OW16675   4.043   4.345   2.690 -0.8867  0.2961 -0.5490
 1681SOL    HW116676   4.050   4.440   2.678 -0.4160  0.5035  1.3693
 1681SOL    HW216677   4.051   4.343   2.785  0.1774  0.4804 -0.6296
 1682SOL     OW16678   4.118   3.718   2.967  0.6784 -0.3494 -0.6423
 1682SOL    HW116679   4.177   3.751   3.034  1.0448 -1.2247 -0.5363
 1682SOL    HW216680   4.186   3.669   2.922  1.6287 -1.5988  2.2133
 1683SOL     OW16681   4.087   0.909   7.489 -0.4624  0.0877  0.1477
 1683SOL    HW116682   4.095   0.949   7.402 -0.1841  1.4335  0.7780
 1683SOL    HW216683   4.113   0.989   7.535 -0.5829 -0.2784  0.8527
 1684SOL     OW16684   2.347   1.640  10.108  0.0973 -0.3243 -0.8126
 1684SOL    HW116685   2.312   1.607  10.191  1.8050  1.9993  0.8051
 1684SOL    HW216686   2.422   1.582  10.093  1.0601  1.2552 -2.0503
 1685SOL     OW16687   1.549   1.038   6.472  0.0781  0.4121 -0.2626
 1685SOL    HW116688   1.643   1.055   6.476  0.0243  0.5585  0.3697
 1685SOL    HW216689   1.516   1.126   6.455  1.4824  0.9494 -0.1561
 1686SOL     OW16690   2.207   2.867  11.099  0.2654 -0.0176  0.2462
 1686SOL    HW116691   2.129   2.884  11.045  0.4029  0.8455  0.3190
 1686SOL    HW216692   2.167   2.798  11.152 -2.0958 -0.4642 -2.0975
 1687SOL     OW16693   3.786   2.739   5.510  0.2390 -0.0173 -0.0720
 1687SOL    HW116694   3.773   2.650   5.477 -0.1613  0.2643 -0.6755
 1687SOL    HW216695   3.695   2.753   5.535 -0.1785 -0.5423 -1.2815
 1688SOL     OW16696   4.556   2.976   6.128  0.1852  0.4401  0.3805
 1688SOL    HW116697   4.601   2.943   6.050 -0.1288 -1.8404  1.1659
 1688SOL    HW216698   4.490   2.907   6.132  1.2809 -0.6583 -0.5515
 1689SOL     OW16699   0.793   3.008   7.022  0.6518 -0.0137 -0.0605
 1689SOL    HW116700   0.770   2.915   7.021  2.6075 -0.5161  1.9481
 1689SOL    HW216701   0.764   3.031   6.933 -0.9554 -0.2819  0.3865
 1690SOL     OW16702   2.884   0.129  10.334 -0.2341 -0.1404  0.0370
 1690SOL    HW116703   2.811   0.169  10.380 -0.6827  0.0412 -0.8325
 1690SOL    HW216704   2.844   0.043  10.322 -0.7757  0.5261 -3.0594
 1691SOL     OW16705   3.809   1.890   7.390 -0.2117  0.4309  0.1527
 1691SOL    HW116706   3.727   1.920   7.430 -1.4299 -1.2368 -1.0956
 1691SOL    HW216707   3.811   1.941   7.308 -2.1012  1.7886  0.9491
 1692SOL     OW16708   3.356   1.758  13.900 -0.1052  0.5576  0.1302
 1692SOL    HW116709   3.441   1.769  13.858 -1.1926  0.7750 -2.0482
 1692SOL    HW216710   3.327   1.850  13.902 -1.1834  0.2183  0.3092
 1693SOL     OW16711   3.879   4.447   7.694  0.5642 -0.0935 -0.5577
 1693SOL    HW116712   3.872   4.540   7.673 -0.4109  0.0963  0.6371
 1693SOL    HW216713   3.794   4.404   7.680 -0.3325  1.4643  0.1837
 1694SOL     OW16714   0.682   2.856   4.706 -0.3615  0.2307 -0.2655
 1694SOL    HW116715   0.698   2.931   4.649 -1.6841 -0.8071 -1.9984
 1694SOL    HW216716   0.774   2.832   4.708 -0.8706 -1.6081  1.8560
 1695SOL     OW16717   0.437   0.249  11.530  0.0206 -0.6062  0.4258
 1695SOL    HW116718   0.390   0.193  11.592  1.1031  1.4563  3.0748
 1695SOL    HW216719   0.409   0.208  11.448 -0.3875 -2.2954  1.4058
 1696SOL     OW16720   0.185   4.342   7.970  0.6463 -0.4116 -0.3696
 1696SOL    HW116721   0.214   4.259   8.009  1.6632 -0.8776 -2.0940
 1696SOL    HW216722   0.128   4.310   7.900  0.3462  0.9605 -0.7441
 1697SOL     OW16723   1.018   1.247   0.148 -0.6403  0.0550  0.1131
 1697SOL    HW116724   1.059   1.160   0.140 -0.1447  0.3516 -0.5953
 1697SOL    HW216725   1.021   1.298   0.067 -2.0934 -0.3222 -0.1693
 1698SOL     OW16726   4.514   3.047  10.045  0.2756 -0.8021 -0.3480
 1698SOL    HW116727   4.429   3.049  10.000  0.3930 -1.8828 -0.6293
 1698SOL    HW216728   4.480   3.050  10.134 -1.1099 -1.6090 -0.8384
 1699SOL     OW16729   0.260   4.363   0.431 -0.5274 -0.6133 -0.8296
 1699SOL    HW116730   0.259   4.268   0.426 -1.6930 -0.5554 -1.6652
 1699SOL    HW216731   0.309   4.392   0.354  1.2254 -1.1857  0.0678
 1700SOL     OW16732   2.276   4.573  17.149  0.0956  0.2113  0.4007
 1700SOL    HW116733   2.232   4.546  17.068 -0.0693  0.4830  0.4003
 1700SOL    HW216734   2.212   4.630  17.190 -0.2874 -0.5395  0.8409
 1701SOL     OW16735   4.250   3.957   8.098 -0.4973  0.1347 -0.8404
 1701SOL    HW116736   4.253   4.047   8.064  0.4110 -0.0729 -1.3124
 1701SOL    HW216737   4.168   3.959   8.148  2.0333  1.8447  3.2684
 1702SOL     OW16738   3.438   3.658   5.695  0.1127 -0.1592  0.0512
 1702SOL    HW116739   3.357   3.697   5.730  0.1264  0.0903 -0.2034
 1702SOL    HW216740   3.390   3.592   5.645 -0.6340  0.4437 -0.0357
 1703SOL     OW16741   3.519   1.225   3.857  0.4957  0.5352  0.1001
 1703SOL    HW116742   3.462   1.281   3.805  0.3819 -2.0433 -2.5732
 1703SOL    HW216743   3.580   1.294   3.883  0.3462  0.2690  1.1570
 1704SOL     OW16744   3.872   4.128  10.599  0.1092  0.2045  0.1388
 1704SOL    HW116745   3.925   4.049  10.587  2.2446  1.6322  0.1600
 1704SOL    HW216746   3.815   4.124  10.522  2.0892 -0.2556 -1.3004
 1705SOL     OW16747   3.821   1.706  11.534  0.0776  0.3110 -0.0331
 1705SOL    HW116748   3.913   1.711  11.559  0.7110 -0.3601 -2.2506
 1705SOL    HW216749   3.805   1.799  11.514 -1.0080 -0.2288 -1.6913
 1706SOL     OW16750   4.077   3.161  12.928 -0.0661  0.0013  0.2993
 1706SOL    HW116751   4.094   3.069  12.907  0.7604  1.1063 -3.7884
 1706SOL    HW216752   3.987   3.174  12.957 -0.0753  1.5849 -0.4398
 1707SOL     OW16753   1.919   3.191  17.367 -0.0285  0.1335  0.2720
 1707SOL    HW116754   1.905   3.261  17.430  1.1485  0.0536  0.6249
 1707SOL    HW216755   2.005   3.211  17.331 -0.2746 -1.4559 -1.2183
 1708SOL     OW16756   2.826   2.312   6.650  0.1357  0.3273 -0.2217
 1708SOL    HW116757   2.813   2.403   6.622 -1.4699  1.3453  3.8157
 1708SOL    HW216758   2.877   2.281   6.575 -0.4235  0.3144 -0.5939
 1709SOL     OW16759   1.587   1.448  12.588  0.0559 -0.0673 -0.5323
 1709SOL    HW116760   1.604   1.388  12.515 -0.8896 -2.2632  1.0447
 1709SOL    HW216761   1.640   1.413  12.660 -1.1048  0.0012  0.3648
 1710SOL     OW16762   0.105   0.426   5.435  0.2627 -0.0595  0.1660
 1710SOL    HW116763   0.104   0.473   5.352 -0.5667  1.4627  1.0281
 1710SOL    HW216764   0.016   0.442   5.467  0.3246 -1.2703  0.9423
 1711SOL     OW16765   2.599   3.421   1.570  0.2014 -0.2549  0.8452
 1711SOL    HW116766   2.617   3.336   1.611  3.2610  0.0260  0.1276
 1711SOL    HW216767   2.540   3.407   1.496  1.4355 -0.1171 -0.1768
 1712SOL     OW16768   0.269   3.826   7.964 -0.0843  0.9561  0.5539
 1712SOL    HW116769   0.249   3.824   7.870 -1.1757  0.6772  0.7968
 1712SOL    HW216770   0.211   3.765   8.008  0.4784 -1.2408 -1.7487
 1713SOL     OW16771   2.183   3.513   8.633  0.4906 -0.2009  0.2727
 1713SOL    HW116772   2.113   3.569   8.666  0.6915 -0.0265  0.4043
 1713SOL    HW216773   2.137   3.453   8.574  3.0057 -2.9063  1.0850
 1714SOL     OW16774   3.169   3.976   8.138 -0.0839 -0.0418  0.4088
 1714SOL    HW116775   3.085   4.021   8.129  0.6166  1.2433  0.3401
 1714SOL    HW216776   3.138   3.894   8.177 -0.1762  0.6918  1.8796
 1715SOL     OW16777   3.360   4.219  14.008 -0.2907  0.1244  0.0724
 1715SOL    HW116778   3.424   4.248  14.073  0.5016  1.1762 -1.1917
 1715SOL    HW216779   3.277   4.259  14.035 -1.2985 -0.4445 -2.1599
 1716SOL     OW16780   2.237   3.487   8.300  0.0580 -0.0354  0.1055
 1716SOL    HW116781   2.249   3.461   8.209  1.7243  1.9485 -0.2496
 1716SOL    HW216782   2.281   3.416   8.347 -1.1172 -0.9576 -0.2136
 1717SOL     OW16783   0.106   2.777  13.996 -0.0586  0.2656 -0.5460
 1717SOL    HW116784   0.039   2.812  14.055 -1.2861 -1.7639 -0.7469
 1717SOL    HW216785   0.105   2.842  13.926  2.3532  0.1004 -0.7206
 1718SOL     OW16786   3.207   0.580   0.215  0.1646 -0.0988 -0.2604
 1718SOL    HW116787   3.214   0.487   0.193 -1.8761 -0.3633  0.2019
 1718SOL    HW216788   3.174   0.622   0.135  0.5563 -1.7139 -1.2822
 1719SOL     OW16789   1.150   2.362   3.268 -0.3544 -0.6582  0.1607
 1719SOL    HW116790   1.067   2.372   3.221  0.8012 -0.7354 -1.8937
 1719SOL    HW216791   1.112   2.308   3.337 -0.9799 -1.5784 -0.9174
 1720SOL     OW16792   1.241   3.585  14.599 -0.0865  0.4020  0.0593
 1720SOL    HW116793   1.334   3.563  14.610 -0.0075 -0.2672 -1.9148
 1720SOL    HW216794   1.243   3.677  14.626 -2.0004  0.6818 -0.7713
 1721SOL     OW16795   4.019   1.455   8.087 -0.3628  0.3135 -0.1643
 1721SOL    HW116796   4.103   1.452   8.042  0.1601 -0.3840  0.8733
 1721SOL    HW216797   4.034   1.541   8.126 -0.9593 -0.7184  2.3139
 1722SOL     OW16798   3.128   3.669   2.239  0.6194  0.5322  0.1833
 1722SOL    HW116799   3.208   3.670   2.291 -0.0982 -0.7591  1.3133
 1722SOL    HW216800   3.160   3.728   2.171  1.7033  1.0318  1.1199
 1723SOL     OW16801   0.261   2.201  10.917  0.7368 -0.5250 -0.4154
 1723SOL    HW116802   0.306   2.278  10.882 -0.6261  0.4708  0.0361
 1723SOL    HW216803   0.178   2.223  10.958  1.6983 -2.3265  2.5513
 1724SOL     OW16804   0.158   0.907   4.547  0.5597 -0.0030 -0.4017
 1724SOL    HW116805   0.136   0.814   4.551  2.2339 -0.2613  2.4842
 1724SOL    HW216806   0.250   0.903   4.521  0.6817  2.0759 -0.3004
 1725SOL     OW16807   1.407   3.627   1.951 -0.2208 -0.4546  0.4862
 1725SOL    HW116808   1.427   3.662   2.037 -1.2526  0.1979  0.4593
 1725SOL    HW216809   1.495   3.599   1.925 -0.1499  0.3309 -0.1096
 1726SOL     OW16810   4.026   3.335   6.047 -0.2144 -0.3231 -0.1643
 1726SOL    HW116811   3.956   3.352   5.984 -0.1263 -2.4430 -0.8597
 1726SOL    HW216812   4.008   3.244   6.071 -3.6692  0.3108 -0.3281
 1727SOL     OW16813   0.976   0.087  13.091  0.0359  0.1200  0.3262
 1727SOL    HW116814   0.998   0.173  13.054 -1.1341 -0.5352 -1.9134
 1727SOL    HW216815   0.922   0.049  13.022 -0.4932  0.4505  0.5560
 1728SOL     OW16816   4.056   4.093   8.538  0.6252 -0.0622 -0.0275
 1728SOL    HW116817   3.976   4.144   8.547  0.5676  0.0724 -1.2530
 1728SOL    HW216818   4.120   4.155   8.575 -0.3294 -1.6546  4.2216
 1729SOL     OW16819   1.396   1.089  14.436 -0.2762 -0.1475  0.3106
 1729SOL    HW116820   1.452   1.143  14.381 -0.3642  1.0007  1.3365
 1729SOL    HW216821   1.319   1.089  14.379  1.3391 -1.7298 -1.8796
 1730SOL     OW16822   4.000   0.552   7.868  0.3118  1.0817  0.5024
 1730SOL    HW116823   3.922   0.497   7.862  0.7221  0.4843  0.5680
 1730SOL    HW216824   3.988   0.612   7.795  2.9253  1.5850  0.4830
 1731SOL     OW16825   3.295   4.353  15.591  0.2732 -0.3453  0.9162
 1731SOL    HW116826   3.361   4.402  15.642  1.0237 -1.6660  1.2130
 1731SOL    HW216827   3.332   4.366  15.504 -0.2877  0.6227  0.8258
 1732SOL     OW16828   1.189   3.663   4.665  0.0730  0.3890  0.6339
 1732SOL    HW116829   1.150   3.710   4.591  1.8773  0.2163 -0.4135
 1732SOL    HW216830   1.268   3.627   4.625 -1.0932 -1.1959 -0.2046
 1733SOL     OW16831   4.481   0.087  16.966 -0.1001  0.1243  0.2054
 1733SOL    HW116832   4.514   0.080  16.877 -1.0676  0.7282 -0.1848
 1733SOL    HW216833   4.519   0.171  16.992  0.6088  0.1180 -0.8072
 1734SOL     OW16834   0.573   3.353  11.576  0.1766  0.1792 -0.4290
 1734SOL    HW116835   0.653   3.334  11.625  0.3529  2.8486  0.3146
 1734SOL    HW216836   0.534   3.266  11.571 -0.4100  0.3143  1.7331
 1735SOL     OW16837   0.109   3.844   2.955 -0.3516 -0.5008  0.3053
 1735SOL    HW116838   0.075   3.861   3.043  1.6934 -0.9137  1.1802
 1735SOL    HW216839   0.184   3.795   2.987  1.7390  1.9059 -0.8422
 1736SOL     OW16840   4.442   0.746   7.771  0.3946  0.1527  0.4392
 1736SOL    HW116841   4.357   0.731   7.730 -0.3962 -1.7202  2.7775
 1736SOL    HW216842   4.435   0.710   7.859  0.8267  1.6803  1.1022
 1737SOL     OW16843   2.670   3.358   9.803  0.2866 -0.3590  0.0335
 1737SOL    HW116844   2.757   3.377   9.837  0.5505 -1.1232 -0.2363
 1737SOL    HW216845   2.654   3.431   9.743  0.2370 -1.6700 -1.5550
 1738SOL     OW16846   4.102   0.104   2.021  0.6064  0.4489 -0.3224
 1738SOL    HW116847   4.055   0.103   1.938 -0.4504  3.0565  0.2632
 1738SOL    HW216848   4.182   0.056   1.999 -0.9418 -2.2487 -0.0616
 1739SOL     OW16849   4.125   0.907   2.769 -0.3362  0.1464  0.5540
 1739SOL    HW116850   4.033   0.927   2.786 -0.3215 -1.0582  2.0759
 1739SOL    HW216851   4.140   0.966   2.696  0.7349 -1.1827 -0.3138
 1740SOL     OW16852   2.035   3.730   6.652  0.5247  0.0632  0.0621
 1740SOL    HW116853   1.983   3.652   6.630  0.8871 -0.5628  1.4239
 1740SOL    HW216854   2.113   3.692   6.693  0.5327 -0.1989 -0.1939
 1741SOL     OW16855   0.317   1.395   9.474  0.1825  0.7793  0.6373
 1741SOL    HW116856   0.228   1.413   9.502 -1.3752 -1.8771 -2.5724
 1741SOL    HW216857   0.365   1.478   9.473  0.9155  0.3510 -0.3412
 1742SOL     OW16858   0.319   3.811  11.550  0.1824 -0.3640 -0.2523
 1742SOL    HW116859   0.244   3.833  11.606 -0.2401 -0.7760 -0.6491
 1742SOL    HW216860   0.358   3.736  11.594  3.1372  1.0035 -0.5477
 1743SOL     OW16861   2.371   1.248   6.527  0.1749  0.2237  0.0035
 1743SOL    HW116862   2.401   1.325   6.575  0.5957 -1.8577  3.1629
 1743SOL    HW216863   2.437   1.239   6.459 -1.3729 -2.3343 -1.1717
 1744SOL     OW16864   4.284   4.563   9.192 -0.6441  0.2995 -0.1210
 1744SOL    HW116865   4.231   4.536   9.267 -2.7444 -0.1031 -1.7456
 1744SOL    HW216866   4.224   4.563   9.118 -0.4316  1.6933 -0.2802
 1745SOL     OW16867   4.277   2.882   5.276 -0.8399  0.9583 -0.2991
 1745SOL    HW116868   4.200   2.877   5.219  0.2234  1.8823 -1.8362
 1745SOL    HW216869   4.283   2.794   5.314  2.0838  0.8513 -0.9433
 1746SOL     OW16870   3.379   4.009  17.493 -0.1353  0.2770  0.3058
 1746SOL    HW116871   3.284   4.001  17.490 -0.2321  0.6721  2.0246
 1746SOL    HW216872   3.388   4.097  17.458  1.9031  0.2571  0.7532
 1747SOL     OW16873   0.484   4.473   3.196  0.3700  0.8173 -0.3538
 1747SOL    HW116874   0.429   4.504   3.268  1.7810 -1.4445  1.7327
 1747SOL    HW216875   0.457   4.541   3.134 -2.9800  0.2714  0.4646
 1748SOL     OW16876   4.120   2.804   8.960 -0.2618  0.5391 -0.2464
 1748SOL    HW116877   4.158   2.887   8.988  0.2373  0.5542 -0.9705
 1748SOL    HW216878   4.036   2.812   9.006  1.3718  1.0609  2.6428
 1749SOL     OW16879   1.867   2.143   4.249  0.1376 -0.2216 -0.2337
 1749SOL    HW116880   1.791   2.117   4.301 -0.5719 -0.7314 -1.5171
 1749SOL    HW216881   1.928   2.149   4.322  0.9176 -0.1795 -0.8809
 1750SOL     OW16882   2.143   3.224   7.665  0.3116  0.3277  0.1784
 1750SOL    HW116883   2.113   3.241   7.576  1.3955  0.2555 -0.2004
 1750SOL    HW216884   2.215   3.286   7.655 -0.4152  0.8337 -1.8863
 1751SOL     OW16885   0.460   4.346  11.619 -0.3915  0.1825 -0.1992
 1751SOL    HW116886   0.501   4.431  11.603  0.4969  0.1649  1.9225
 1751SOL    HW216887   0.444   4.352  11.714 -1.4523  0.5677 -0.3968
 1752SOL     OW16888   0.887   3.800   0.093  0.0767 -0.5504 -0.7875
 1752SOL    HW116889   0.878   3.807  17.741 -2.3677  0.0196 -0.5038
 1752SOL    HW216890   0.835   3.877   0.114  0.9901  0.5893 -2.7281
 1753SOL     OW16891   2.575   2.544   9.429 -0.5381  0.6416 -0.0695
 1753SOL    HW116892   2.663   2.545   9.393 -0.6164 -1.5297 -0.3352
 1753SOL    HW216893   2.595   2.514   9.518  1.2898  0.1471 -0.6652
 1754SOL     OW16894   4.671   2.723   6.325 -0.0042 -0.0699 -0.4504
 1754SOL    HW116895   4.620   2.797   6.358 -0.2616 -0.7425  0.6625
 1754SOL    HW216896   4.626   2.699   6.244  0.7743  0.2551 -0.9746
 1755SOL     OW16897   2.534   3.461   1.917  0.1745 -0.3411  0.2443
 1755SOL    HW116898   2.461   3.406   1.887  0.3229 -0.1640 -0.4611
 1755SOL    HW216899   2.493   3.517   1.982  0.1687  0.6241 -0.5779
 1756SOL     OW16900   3.763   4.071  14.731 -0.5471  0.2040  0.1680
 1756SOL    HW116901   3.788   4.154  14.690  0.4277  0.1761  0.7083
 1756SOL    HW216902   3.738   4.102  14.818 -2.6177 -1.3728  0.1439
 1757SOL     OW16903   3.409   1.881  17.186 -0.3719  0.3196 -0.8475
 1757SOL    HW116904   3.499   1.903  17.165  0.1302 -2.3546 -1.6048
 1757SOL    HW216905   3.406   1.879  17.282  2.0394  1.2888 -0.7563
 1758SOL     OW16906   0.769   3.520  15.663  0.2968 -0.4141 -0.1554
 1758SOL    HW116907   0.804   3.435  15.637  0.7357 -0.3450  0.1958
 1758SOL    HW216908   0.849   3.571  15.649  0.0019 -0.6364 -2.6441
 1759SOL     OW16909   0.718   2.381   4.774 -0.2571  0.1211 -0.1246
 1759SOL    HW116910   0.723   2.392   4.679  1.0183  0.6415 -0.0050
 1759SOL    HW216911   0.632   2.419   4.789  0.3565  1.6974 -0.5418
 1760SOL     OW16912   4.308   2.097  17.092  0.1082 -0.1696  0.5731
 1760SOL    HW116913   4.229   2.128  17.137 -0.4190  0.1231 -0.5474
 1760SOL    HW216914   4.274   2.095  17.002  1.6878 -2.4030  0.0425
 1761SOL     OW16915   4.617   2.258  16.099 -0.1691 -0.2792 -0.4794
 1761SOL    HW116916   4.688   2.320  16.083 -2.3668  2.5803  0.7105
 1761SOL    HW216917   4.566   2.267  16.019 -0.4935 -1.0695 -0.3558
 1762SOL     OW16918   0.472   4.443   6.653  0.3858 -0.0706 -0.0943
 1762SOL    HW116919   0.461   4.407   6.741  2.3093 -0.4250  0.0210
 1762SOL    HW216920   0.445   4.373   6.594 -0.2874  0.1188 -0.0033
 1763SOL     OW16921   0.360   0.541  10.324 -0.1922 -0.3582  0.6740
 1763SOL    HW116922   0.425   0.522  10.256 -0.5650 -0.5936  0.3800
 1763SOL    HW216923   0.322   0.620  10.284 -1.6927 -0.7172  1.4122
 1764SOL     OW16924   3.831   0.762   2.428  0.3019  0.3267 -0.1544
 1764SOL    HW116925   3.823   0.813   2.348  1.0010 -0.3212 -0.6374
 1764SOL    HW216926   3.778   0.684   2.414  1.5188 -0.2914 -1.2848
 1765SOL     OW16927   4.028   3.724   2.620 -0.1494 -0.0640 -0.6821
 1765SOL    HW116928   4.118   3.756   2.625 -0.7132  1.2478  1.0280
 1765SOL    HW216929   4.034   3.668   2.543 -2.6745 -0.0278 -0.9175
 1766SOL     OW16930   4.242   4.579  10.505 -0.3113 -0.0888 -0.0379
 1766SOL    HW116931   4.316   4.532  10.545 -0.2281  0.8966  0.9745
 1766SOL    HW216932   4.169   4.517  10.507  0.2584 -0.7535  0.2559
 1767SOL     OW16933   4.709   2.238   4.443 -0.2937 -0.8439 -0.2184
 1767SOL    HW116934   4.616   2.244   4.467 -0.3331  0.7830 -0.8264
 1767SOL    HW216935   0.015   2.271   4.522 -4.0910 -0.6057  1.7242
 1768SOL     OW16936   1.417   4.731  14.429  0.5822  0.1089 -0.3313
 1768SOL    HW116937   1.430   0.080  14.472  0.5277 -0.2169  0.3417
 1768SOL    HW216938   1.507   4.698  14.418 -0.1169 -1.9777  0.1186
 1769SOL     OW16939   3.188   1.279   8.193 -0.1557 -0.5379 -0.2365
 1769SOL    HW116940   3.147   1.314   8.114  0.7987  0.3680 -0.3271
 1769SOL    HW216941   3.231   1.204   8.150  2.1981  0.7287 -0.0898
 1770SOL     OW16942   2.898   3.502   5.254 -0.1575 -0.3439 -1.0582
 1770SOL    HW116943   2.982   3.465   5.282 -0.9825  1.1656  3.5322
 1770SOL    HW216944   2.935   3.560   5.188  0.5082  0.4506  0.0028
 1771SOL     OW16945   1.382   3.978  14.218  0.1716  0.1256 -0.3463
 1771SOL    HW116946   1.478   3.980  14.224  0.2134 -0.1730 -0.8663
 1771SOL    HW216947   1.358   4.045  14.281 -0.4990 -1.0717  0.6673
 1772SOL     OW16948   2.060   1.253  16.807 -0.2080  0.3420 -0.1778
 1772SOL    HW116949   2.020   1.337  16.830  1.3633  0.9618  0.2884
 1772SOL    HW216950   2.150   1.283  16.819 -0.7859  0.8065  3.0350
 1773SOL     OW16951   3.321   1.153   3.371  0.2955  0.1943 -0.1922
 1773SOL    HW116952   3.333   1.074   3.318 -0.1394  0.3374 -0.5081
 1773SOL    HW216953   3.410   1.177   3.395  1.0111 -0.8765 -1.7493
 1774SOL     OW16954   4.336   3.263   9.058  0.3652 -0.3991 -0.1890
 1774SOL    HW116955   4.414   3.303   9.019 -1.1816  4.2182  1.4777
 1774SOL    HW216956   4.343   3.284   9.151 -1.8769  1.2225 -0.3902
 1775SOL     OW16957   1.007   1.266   7.578 -0.0785  0.4583  0.2586
 1775SOL    HW116958   1.086   1.271   7.524 -0.8427 -0.1200 -0.9407
 1775SOL    HW216959   0.980   1.358   7.584  0.0504  0.4892  0.3353
 1776SOL     OW16960   2.431   2.207   4.142  0.1184  0.0111 -0.6727
 1776SOL    HW116961   2.344   2.211   4.182 -0.6611 -1.5808 -2.2019
 1776SOL    HW216962   2.436   2.127   4.091  0.7748  1.5900 -3.0754
 1777SOL     OW16963   4.423   4.713   7.787  0.1511  0.3257  0.0381
 1777SOL    HW116964   4.508   0.015   7.763 -0.4745  0.6116 -1.7588
 1777SOL    HW216965   4.390   0.056   7.829 -1.0598  0.4472 -1.1602
 1778SOL     OW16966   4.316   1.056  12.214  0.1379 -0.0288  0.3374
 1778SOL    HW116967   4.324   1.111  12.136 -1.8061  0.1599  0.2499
 1778SOL    HW216968   4.406   1.065  12.243  0.6900  2.8904 -2.2693
 1779SOL     OW16969   2.172   1.178  13.517 -0.0019 -0.0917 -1.1728
 1779SOL    HW116970   2.097   1.119  13.532 -1.4515  2.6561  2.3216
 1779SOL    HW216971   2.125   1.260  13.530 -0.3293 -0.1011 -2.2420
 1780SOL     OW16972   2.097   3.453   3.566 -0.6198  0.4877 -0.3944
 1780SOL    HW116973   2.071   3.363   3.549  1.1559  0.1373 -1.2251
 1780SOL    HW216974   2.020   3.490   3.608 -1.5971  0.1386 -1.9201
 1781SOL     OW16975   2.985   2.150   3.964 -0.5276  0.1701 -0.2480
 1781SOL    HW116976   3.042   2.085   4.004  0.5772  0.0824 -1.9218
 1781SOL    HW216977   2.927   2.179   4.034  0.1587  0.0280  0.3806
 1782SOL     OW16978   1.908   3.061   9.093 -0.0563  0.7265 -0.1347
 1782SOL    HW116979   1.924   3.002   9.167 -1.7500 -0.2218 -0.5451
 1782SOL    HW216980   1.901   3.140   9.146  1.1876  1.0416 -0.4330
 1783SOL     OW16981   4.554   2.143  15.806  0.0180 -0.5302  0.1068
 1783SOL    HW116982   4.480   2.087  15.831 -0.6184  1.5849  3.0698
 1783SOL    HW216983   4.514   2.220  15.766 -0.6044 -0.8554  0.1121
 1784SOL     OW16984   1.348   0.621   2.609  0.1629  0.3969 -0.3434
 1784SOL    HW116985   1.276   0.657   2.557  0.1882  0.4146 -0.3662
 1784SOL    HW216986   1.368   0.688   2.675  3.8762 -1.2608  0.1920
 1785SOL     OW16987   1.529   0.016   8.274  0.1653  0.2044  0.2307
 1785SOL    HW116988   1.488   4.729   8.191 -1.2596  0.4180  0.8667
 1785SOL    HW216989   1.579   4.672   8.289 -0.8133 -0.1740  1.4180
 1786SOL     OW16990   1.619   0.168   8.495 -0.4026  0.1200 -0.2590
 1786SOL    HW116991   1.538   0.199   8.535  0.8647  3.6364 -0.3789
 1786SOL    HW216992   1.586   0.131   8.414 -2.3440 -0.6460  0.8900
 1787SOL     OW16993   4.069   4.197   5.267 -0.4494  0.5555  0.0225
 1787SOL    HW116994   4.004   4.147   5.217 -0.6979  1.8246 -0.9120
 1787SOL    HW216995   4.034   4.285   5.254 -2.0291 -0.1145 -0.2146
 1788SOL     OW16996   1.004   2.083   9.512 -0.2151 -0.0083  0.1682
 1788SOL    HW116997   0.920   2.055   9.476 -1.0774  2.4732  0.2163
 1788SOL    HW216998   0.990   2.095   9.605  0.8691 -2.4312  0.6282
 1789SOL     OW16999   2.331   1.904   3.566  0.1320  0.0463 -0.1175
 1789SOL    HW117000   2.298   1.989   3.595 -3.3311 -0.5580 -2.2714
 1789SOL    HW217001   2.414   1.891   3.611 -1.4939 -1.4527  2.3952
 1790SOL     OW17002   0.145   3.328   5.036  0.2734  0.1733 -0.3192
 1790SOL    HW117003   0.104   3.332   4.949 -0.9514  4.0359  0.4399
 1790SOL    HW217004   0.143   3.235   5.058  0.0510  0.3566  0.4362
 1791SOL     OW17005   0.857   0.135   0.692  0.4181 -0.1289 -0.2178
 1791SOL    HW117006   0.820   0.061   0.740 -0.5134  0.7507  0.4296
 1791SOL    HW217007   0.947   0.125   0.722  0.3549  0.4371  0.1536
 1792SOL     OW17008   1.487   1.488   5.093 -0.0622  0.3634 -0.2630
 1792SOL    HW117009   1.541   1.536   5.155 -0.6610  0.4548  0.1934
 1792SOL    HW217010   1.555   1.462   5.031 -0.7553 -1.1748 -0.3801
 1793SOL     OW17011   0.011   4.404   9.160  0.1416 -0.4715  0.3825
 1793SOL    HW117012   4.695   4.460   9.218  1.7237 -0.3689  1.6910
 1793SOL    HW217013   0.090   4.457   9.152 -0.7666  0.5668 -2.0265
 1794SOL     OW17014   0.181   2.931   9.654  0.4579  0.5829 -0.0637
 1794SOL    HW117015   0.148   2.956   9.568  1.6617 -0.3775 -0.7973
 1794SOL    HW217016   0.271   2.960   9.642  0.7302  0.0585  0.6800
 1795SOL     OW17017   3.221   3.328   3.519 -0.1390 -0.3309  0.2084
 1795SOL    HW117018   3.273   3.250   3.539  2.7741  1.5109 -0.1189
 1795SOL    HW217019   3.210   3.360   3.608  1.6615  0.2340  0.2414
 1796SOL     OW17020   0.672   3.491   9.313  0.1878  0.2679 -0.1480
 1796SOL    HW117021   0.625   3.535   9.241  1.0100 -0.7889 -1.3192
 1796SOL    HW217022   0.707   3.567   9.360  0.8202 -1.2520  1.8224
 1797SOL     OW17023   2.931   3.292   7.362  0.1816 -0.5078 -0.4320
 1797SOL    HW117024   3.017   3.290   7.406 -0.4741  1.0987  0.8955
 1797SOL    HW217025   2.882   3.349   7.421  1.4720  0.6203 -0.4529
 1798SOL     OW17026   1.271   2.288   7.505  0.4506  0.1667 -0.3810
 1798SOL    HW117027   1.300   2.284   7.414  1.2338  0.3444 -0.1432
 1798SOL    HW217028   1.189   2.335   7.490  1.3434  1.9701  0.3285
 1799SOL     OW17029   3.321   1.215   5.914  0.6830 -0.1289 -0.3159
 1799SOL    HW117030   3.258   1.266   5.965  0.2290  0.1580 -1.1713
 1799SOL    HW217031   3.285   1.127   5.923 -1.4566  0.8132  0.4788
 1800SOL     OW17032   3.175   3.260   3.245 -0.3999 -0.3910  0.5925
 1800SOL    HW117033   3.260   3.218   3.234 -1.1548 -1.6576 -0.3683
 1800SOL    HW217034   3.176   3.282   3.338  2.1542  1.1590  0.1907
 1801SOL     OW17035   4.136   4.135  10.016 -0.3961  0.3391  0.2581
 1801SOL    HW117036   4.117   4.212  10.069 -0.3022 -1.3561  2.7259
 1801SOL    HW217037   4.092   4.065  10.064 -0.3915 -0.0958 -0.3675
 1802SOL     OW17038   1.473   2.972   3.646  0.5428  0.4484  0.1340
 1802SOL    HW117039   1.416   3.049   3.638 -0.4776 -0.4246 -1.0743
 1802SOL    HW217040   1.496   2.948   3.556  1.1622 -0.0005  0.4100
 1803SOL     OW17041   4.209   0.604  16.447 -0.2454  0.1514 -0.0644
 1803SOL    HW117042   4.292   0.560  16.466  0.5254  1.0118 -1.4355
 1803SOL    HW217043   4.180   0.618  16.538 -0.1246  2.4225 -0.3674
 1804SOL     OW17044   0.522   2.707   4.911  0.6365 -0.3901 -0.2104
 1804SOL    HW117045   0.561   2.732   4.828  0.4961  2.9583  0.7380
 1804SOL    HW217046   0.596   2.660   4.950  0.4804 -1.6734 -1.4773
 1805SOL     OW17047   3.249   2.800  15.573  0.4118  0.0924  0.7686
 1805SOL    HW117048   3.206   2.839  15.497  0.9493 -1.4129 -0.3108
 1805SOL    HW217049   3.277   2.877  15.623  2.9901  0.7486 -1.6690
 1806SOL     OW17050   3.543   3.651   2.555  0.3765  0.0475  0.4490
 1806SOL    HW117051   3.625   3.695   2.576  0.5302 -0.4607  0.9297
 1806SOL    HW217052   3.489   3.684   2.626  1.5131  1.7280  0.5420
 1807SOL     OW17053   2.639   2.913   3.367 -0.1206 -0.8290  0.3863
 1807SOL    HW117054   2.680   2.959   3.440 -2.6774  0.6941  0.8692
 1807SOL    HW217055   2.720   2.891   3.320  0.5288  0.2114  1.0093
 1808SOL     OW17056   1.853   2.615   9.857 -0.1373 -0.3356  0.5659
 1808SOL    HW117057   1.879   2.696   9.900 -0.3076  0.3116 -0.5671
 1808SOL    HW217058   1.923   2.599   9.794 -0.3331  0.4947  0.1393
 1809SOL     OW17059   0.805   3.563  11.561 -0.0158  0.4438  0.4333
 1809SOL    HW117060   0.830   3.473  11.537  0.8015  1.4343 -2.3485
 1809SOL    HW217061   0.710   3.556  11.551  0.1228 -2.1546  0.8321
 1810SOL     OW17062   1.811   3.373   3.567 -0.5260 -0.0028 -0.0632
 1810SOL    HW117063   1.724   3.412   3.566 -0.1608  0.8196 -0.3993
 1810SOL    HW217064   1.808   3.310   3.638 -0.4710 -1.7400 -1.5910
 1811SOL     OW17065   2.425   4.133  16.226 -0.1767 -0.0211 -0.2316
 1811SOL    HW117066   2.394   4.071  16.292 -0.3067  1.3961  1.0214
 1811SOL    HW217067   2.489   4.072  16.190 -2.3753 -1.9467 -0.8567
 1812SOL     OW17068   4.186   0.400   6.914 -0.0051  0.0783 -0.3411
 1812SOL    HW117069   4.110   0.399   6.856  1.7821 -0.7519 -2.6903
 1812SOL    HW217070   4.228   0.484   6.894 -0.0629  0.5485  1.4836
 1813SOL     OW17071   3.719   1.957   3.252 -0.0626  0.1517 -0.4505
 1813SOL    HW117072   3.686   2.045   3.233 -1.7807 -0.0849  1.4906
 1813SOL    HW217073   3.685   1.913   3.175  1.3962  1.6604 -1.9673
 1814SOL     OW17074   2.777   2.994   2.430 -0.1676  0.1695  0.6078
 1814SOL    HW117075   2.811   3.067   2.482  1.6608 -0.6312  0.5511
 1814SOL    HW217076   2.746   2.929   2.493 -2.1753  1.3962  0.8666
 1815SOL     OW17077   3.322   4.401   5.577 -0.0721 -0.1214  0.0004
 1815SOL    HW117078   3.389   4.333   5.590 -0.0973 -0.2596 -0.5843
 1815SOL    HW217079   3.257   4.365   5.638 -0.1401  1.4917  0.8618
 1816SOL     OW17080   0.247   3.978  17.723  0.6009  0.5418  0.0067
 1816SOL    HW117081   0.289   4.021  17.649  0.5375  2.3801  1.0209
 1816SOL    HW217082   0.283   3.892  17.702  0.1635  0.1438  0.8411
 1817SOL     OW17083   1.916   1.293   4.114 -0.0966  0.4723 -0.2817
 1817SOL    HW117084   1.993   1.334   4.154  0.6554 -0.0770 -1.1624
 1817SOL    HW217085   1.916   1.214   4.169  1.1439  0.1481 -0.7444
 1818SOL     OW17086   1.213   3.679   5.072 -0.1808 -0.2270 -0.1789
 1818SOL    HW117087   1.192   3.771   5.091  1.6598  0.3302 -0.7457
 1818SOL    HW217088   1.222   3.680   4.977  1.8428 -0.5728  0.0076
 1819SOL     OW17089   0.857   4.527  10.436 -0.1818  0.3637 -0.3760
 1819SOL    HW117090   0.811   4.443  10.429 -1.6140  1.0988  0.1785
 1819SOL    HW217091   0.934   4.508  10.383  0.8764 -1.8323  1.9955
 1820SOL     OW17092   2.513   2.034   6.523 -0.1277  0.5100 -0.1103
 1820SOL    HW117093   2.513   2.000   6.433 -1.6397  1.6622 -0.5340
 1820SOL    HW217094   2.603   2.067   6.523 -0.1429  0.5385  1.4119
 1821SOL     OW17095   2.319   3.032   2.434  0.2979 -0.0240  0.6076
 1821SOL    HW117096   2.345   3.011   2.344  0.2094 -0.4633  0.6848
 1821SOL    HW217097   2.338   3.125   2.442  0.8500  0.0316 -1.2946
 1822SOL     OW17098   3.737   3.548   1.123  0.6938 -0.2163 -0.2111
 1822SOL    HW117099   3.738   3.489   1.198 -0.7131  1.4101  1.0958
 1822SOL    HW217100   3.829   3.545   1.097  1.4112 -2.8499  2.6591
 1823SOL     OW17101   2.805   4.400  15.684 -0.5152 -0.3813 -0.2128
 1823SOL    HW117102   2.756   4.414  15.765 -0.1723 -1.9930  0.2558
 1823SOL    HW217103   2.765   4.473  15.635 -1.1803 -0.0844  0.7569
 1824SOL     OW17104   3.108   1.915   5.152 -0.5783 -0.5370  0.0507
 1824SOL    HW117105   3.121   1.985   5.215 -0.9630 -0.2833 -0.1568
 1824SOL    HW217106   3.021   1.929   5.116 -1.1048 -1.1304  1.0768
 1825SOL     OW17107   1.524   1.700  13.137 -0.2181 -0.4956 -0.3536
 1825SOL    HW117108   1.493   1.763  13.072  1.0219  1.5689  1.0542
 1825SOL    HW217109   1.578   1.655  13.073  0.0231 -1.4627  0.5291
 1826SOL     OW17110   3.830   2.175  16.638 -0.0967  0.0917 -0.4190
 1826SOL    HW117111   3.881   2.245  16.679  0.1825  0.4186 -1.3381
 1826SOL    HW217112   3.762   2.146  16.699 -0.2892  0.4178 -0.4835
 1827SOL     OW17113   2.359   4.721  11.137  0.2045  0.3084 -0.1737
 1827SOL    HW117114   2.398   0.073  11.136 -0.3379  0.5605  1.0877
 1827SOL    HW217115   2.274   0.001  11.095  0.6420  0.2332 -1.1050
 1828SOL     OW17116   2.446   1.060  12.169  0.3440 -0.3737 -0.3992
 1828SOL    HW117117   2.497   0.999  12.116  2.0732 -0.4764  1.4019
 1828SOL    HW217118   2.491   1.046  12.251  1.0483  0.4076 -0.6528
 1829SOL     OW17119   1.268   4.234  14.808  0.1779  0.2664 -0.5910
 1829SOL    HW117120   1.328   4.178  14.760 -0.2166 -0.2193 -0.5168
 1829SOL    HW217121   1.230   4.293  14.743  0.4559  0.0324 -0.9592
 1830SOL     OW17122   3.784   3.409   5.483  0.4187  0.7070 -0.4110
 1830SOL    HW117123   3.710   3.389   5.426  2.0562  0.7659 -2.5514
 1830SOL    HW217124   3.750   3.381   5.568 -1.5391  0.5205 -1.2585
 1831SOL     OW17125   0.720   3.068   3.863  0.3550 -0.0533  0.0085
 1831SOL    HW117126   0.705   2.990   3.809 -0.6454  0.9726 -1.2131
 1831SOL    HW217127   0.727   3.028   3.949 -0.5587 -2.2090 -0.9171
 1832SOL     OW17128   4.147   1.706   7.789 -0.0433 -0.2992  0.2967
 1832SOL    HW117129   4.055   1.728   7.781  0.1526 -0.1916 -1.6037
 1832SOL    HW217130   4.181   1.708   7.700 -1.3761  2.2267 -0.1321
 1833SOL     OW17131   4.079   1.183   9.443 -0.6071 -0.2224  0.1421
 1833SOL    HW117132   4.071   1.176   9.348  0.4270 -0.4045  0.0690
 1833SOL    HW217133   4.133   1.260   9.455  2.0159 -2.1332  0.5691
 1834SOL     OW17134   1.685   0.375  14.348  0.2095 -0.1403  0.4033
 1834SOL    HW117135   1.683   0.280  14.334  0.5752  0.1549 -1.6601
 1834SOL    HW217136   1.728   0.372  14.434  1.0524 -0.7081 -0.0423
 1835SOL     OW17137   0.814   3.940  10.498  0.0004  0.1191  0.5308
 1835SOL    HW117138   0.748   3.872  10.501  0.5860 -0.5600 -2.6136
 1835SOL    HW217139   0.813   3.958  10.404 -0.3278  0.1260  0.5348
 1836SOL     OW17140   2.730   2.006  15.328  0.7985  0.0071  0.2562
 1836SOL    HW117141   2.758   1.981  15.416  2.8609  2.8952  0.4433
 1836SOL    HW217142   2.637   2.026  15.343  0.7001  1.0643 -1.8133
 1837SOL     OW17143   3.880   0.240   0.768 -0.0043 -0.0880 -0.0699
 1837SOL    HW117144   3.813   0.274   0.710  0.9121  0.6422 -0.7051
 1837SOL    HW217145   3.959   0.274   0.726  0.2725 -0.2632  0.3050
 1838SOL     OW17146   0.097   3.418   7.224 -0.6370  0.5214 -0.1600
 1838SOL    HW117147   0.108   3.509   7.252 -0.8238  0.9403 -1.4493
 1838SOL    HW217148   0.183   3.393   7.191 -0.0368 -0.9999  2.5855
 1839SOL     OW17149   4.214   1.644   9.399 -1.1278 -0.0960  0.2373
 1839SOL    HW117150   4.153   1.704   9.357  0.5639  0.9090 -0.7361
 1839SOL    HW217151   4.234   1.686   9.482 -0.9898 -1.2334  0.7798
 1840SOL     OW17152   4.374   0.106   4.397  0.5814  0.3831 -0.0453
 1840SOL    HW117153   4.372   0.020   4.354 -0.6752  0.9310 -1.0923
 1840SOL    HW217154   4.463   0.132   4.373  0.3900 -0.7979 -2.0104
 1841SOL     OW17155   4.058   4.332   5.701  0.3486 -0.0179 -0.0061
 1841SOL    HW117156   4.109   4.270   5.649 -0.5061 -1.2160  0.5791
 1841SOL    HW217157   3.975   4.284   5.695  0.7948 -0.5741 -1.6467
 1842SOL     OW17158   2.886   0.771   5.351  0.1221 -0.0046  0.2458
 1842SOL    HW117159   2.849   0.684   5.335 -1.4584  0.8115 -0.5515
 1842SOL    HW217160   2.825   0.821   5.297  0.9809 -0.2694 -0.9702
 1843SOL     OW17161   3.280   4.161  10.870  0.4653 -0.0805 -0.2953
 1843SOL    HW117162   3.217   4.221  10.831  0.6630  0.8633  0.8366
 1843SOL    HW217163   3.347   4.220  10.905  0.0835  0.5805 -0.6752
 1844SOL     OW17164   3.539   1.088   1.966  0.4656  0.7081 -0.7080
 1844SOL    HW117165   3.546   1.161   2.028  2.1231  0.0346 -0.1105
 1844SOL    HW217166   3.504   1.017   2.020  1.9500 -0.3776 -1.1906
 1845SOL     OW17167   3.888   4.015   5.144  0.2004 -0.1821  0.2453
 1845SOL    HW117168   3.915   3.931   5.181  1.5501  0.1344  0.0153
 1845SOL    HW217169   3.885   3.995   5.050 -1.0885  0.4239  0.1681
 1846SOL     OW17170   4.147   1.944   2.426 -0.6667 -0.1910 -0.9251
 1846SOL    HW117171   4.209   2.015   2.441  1.1853 -1.9777 -0.0695
 1846SOL    HW217172   4.206   1.871   2.404 -0.2333  0.3344 -1.5076
 1847SOL     OW17173   2.529   1.228  10.307  0.3654  0.0662 -0.4789
 1847SOL    HW117174   2.619   1.246  10.333  0.5049 -0.6587 -0.4564
 1847SOL    HW217175   2.517   1.303  10.248  1.5010 -0.6474 -1.6236
 1848SOL     OW17176   1.036   1.068  17.043 -0.1669 -0.5366  0.2854
 1848SOL    HW117177   1.072   1.092  16.958 -1.3618  5.0280  1.3589
 1848SOL    HW217178   0.943   1.052  17.024 -0.3985  0.9618  0.1230
 1849SOL     OW17179   3.697   3.856  17.433 -0.0825  0.2648  0.1667
 1849SOL    HW117180   3.642   3.800  17.378  0.9932  0.9282 -1.5882
 1849SOL    HW217181   3.745   3.907  17.368 -1.6565  0.3537 -0.9385
 1850SOL     OW17182   0.534   1.762  14.015  0.3264  0.4523  0.9418
 1850SOL    HW117183   0.534   1.760  14.110  2.6924 -1.7712  0.8773
 1850SOL    HW217184   0.557   1.852  13.994  0.6288  0.0803 -0.3132
 1851SOL     OW17185   3.592   2.302   7.643 -0.0759  0.2717 -0.1945
 1851SOL    HW117186   3.678   2.309   7.686 -0.0926  0.7222 -0.2303
 1851SOL    HW217187   3.608   2.313   7.549  1.9987  1.0573  0.2455
 1852SOL     OW17188   4.272   1.402   7.661  0.1151 -0.2911 -0.6887
 1852SOL    HW117189   4.234   1.448   7.586  2.3811  1.5060 -0.7202
 1852SOL    HW217190   4.252   1.465   7.731  0.0480 -0.2660 -0.7303
 1853SOL     OW17191   2.105   1.958   3.943 -0.4225 -0.2063  0.1124
 1853SOL    HW117192   2.150   2.017   3.882 -2.7217  0.1941 -1.1978
 1853SOL    HW217193   2.170   1.937   4.010  0.5710  1.1515 -0.4091
 1854SOL     OW17194   0.542   1.870  14.284  0.1766 -0.5384 -0.8366
 1854SOL    HW117195   0.503   1.857  14.371 -2.7578 -1.2365 -2.2710
 1854SOL    HW217196   0.473   1.916  14.237  1.6666  0.3918 -2.1228
 1855SOL     OW17197   3.462   4.117   6.297  0.0346  0.0075 -0.5720
 1855SOL    HW117198   3.451   4.186   6.362 -0.8972 -0.8923  0.2182
 1855SOL    HW217199   3.405   4.054   6.342  0.4540 -2.4400 -3.4255
 1856SOL     OW17200   4.486   1.392   7.360  0.6231 -0.0789  0.4677
 1856SOL    HW117201   4.406   1.340   7.357  1.0771 -0.7467 -0.2499
 1856SOL    HW217202   4.457   1.468   7.310  1.6816  0.3716  0.5325
 1857SOL     OW17203   2.833   3.426   9.500  0.0501 -0.2713  0.0636
 1857SOL    HW117204   2.739   3.442   9.509  0.0059 -0.0249 -0.7470
 1857SOL    HW217205   2.878   3.459   9.577 -1.9850 -1.0413  1.5632
 1858SOL     OW17206   4.734   1.968  11.514  0.2109  0.2004 -0.4584
 1858SOL    HW117207   0.085   1.930  11.517 -0.2833 -0.8717  0.2658
 1858SOL    HW217208   4.682   1.888  11.503 -0.2167  0.0074  2.8752
 1859SOL     OW17209   1.659   3.742   5.063  0.1234  0.3056 -0.3013
 1859SOL    HW117210   1.580   3.707   5.023 -0.3306 -2.7622  3.2702
 1859SOL    HW217211   1.636   3.772   5.151  0.8339 -0.9532  0.3151
 1860SOL     OW17212   0.630   4.460   5.137 -0.2842 -0.4638  0.2638
 1860SOL    HW117213   0.693   4.440   5.068 -0.9004 -0.6821 -0.2241
 1860SOL    HW217214   0.551   4.448   5.085 -0.0809 -1.5416  0.1974
 1861SOL     OW17215   3.567   1.857   5.128  0.1307 -0.4963  0.5671
 1861SOL    HW117216   3.599   1.918   5.194  0.2250  0.3905 -0.3016
 1861SOL    HW217217   3.628   1.883   5.060 -2.5675  1.7824 -1.0070
 1862SOL     OW17218   3.601   2.016   6.038 -0.5080 -0.5949 -0.0675
 1862SOL    HW117219   3.682   2.005   5.989 -0.7547 -1.0741 -0.3704
 1862SOL    HW217220   3.551   2.076   5.983 -0.3521 -1.2562 -0.9343
 1863SOL     OW17221   1.424   1.534   3.345 -0.4757  0.1583 -0.0404
 1863SOL    HW117222   1.444   1.624   3.319  0.3817 -0.1372 -0.3725
 1863SOL    HW217223   1.342   1.521   3.296 -0.8266  2.3655 -0.0341
 1864SOL     OW17224   1.674   4.549  15.078  0.1441 -0.0590  0.6302
 1864SOL    HW117225   1.766   4.540  15.100  0.5874 -0.4797 -1.4149
 1864SOL    HW217226   1.636   4.542  15.166 -0.6424  1.1394  0.3864
 1865SOL     OW17227   0.336   3.952   5.722 -0.0848  0.6742 -0.5514
 1865SOL    HW117228   0.377   3.885   5.777  0.8973  1.4929 -0.2817
 1865SOL    HW217229   0.412   3.971   5.667 -0.1982 -2.5563 -1.8203
 1866SOL     OW17230   1.299   3.974   2.998 -0.1465 -0.0258  0.2825
 1866SOL    HW117231   1.309   4.012   3.086 -1.5087 -2.2703  1.3869
 1866SOL    HW217232   1.214   4.007   2.969 -0.2617 -1.1842 -0.6873
 1867SOL     OW17233   0.385   1.507   6.739  0.8310  0.4129 -0.0845
 1867SOL    HW117234   0.455   1.460   6.694  0.3889  0.3584 -0.7189
 1867SOL    HW217235   0.385   1.447   6.814 -1.0772  1.0323  0.4082
 1868SOL     OW17236   3.293   1.445   7.667 -0.0220 -0.4652  0.0265
 1868SOL    HW117237   3.340   1.362   7.658  0.0922 -0.2381 -1.4720
 1868SOL    HW217238   3.278   1.472   7.577  0.8531 -1.5531 -0.4535
 1869SOL     OW17239   1.156   0.140  15.409  0.1119 -0.7545  0.4749
 1869SOL    HW117240   1.163   0.236  15.413 -0.9410 -0.6459 -0.4291
 1869SOL    HW217241   1.232   0.113  15.359 -1.5616 -1.2141 -1.7919
 1870SOL     OW17242   4.305   4.507   5.698 -0.4458 -0.2897 -0.3344
 1870SOL    HW117243   4.351   4.448   5.758 -0.8235  1.4162  1.6564
 1870SOL    HW217244   4.215   4.478   5.684 -0.6223 -0.9032  2.0906
 1871SOL     OW17245   3.278   3.946   9.554  0.2592  0.0639 -0.1927
 1871SOL    HW117246   3.328   3.865   9.566 -0.6811 -0.3658  0.8310
 1871SOL    HW217247   3.302   3.980   9.468  2.3716  0.4547  0.5460
 1872SOL     OW17248   3.611   1.712   1.927  0.4882  0.0584  0.2114
 1872SOL    HW117249   3.661   1.723   1.846 -0.8772 -0.2702 -0.6697
 1872SOL    HW217250   3.586   1.620   1.932 -2.0074  0.8172  1.7681
 1873SOL     OW17251   1.870   0.026  15.297  0.3535 -0.2587  0.0387
 1873SOL    HW117252   1.904   4.677  15.267 -1.4907 -2.2726  3.5594
 1873SOL    HW217253   1.896   0.084  15.226 -0.9216 -1.2341 -1.2126
 1874SOL     OW17254   1.272   3.216   6.013  0.4283  0.2162 -0.0414
 1874SOL    HW117255   1.224   3.265   6.080  2.0331 -0.1442  1.3582
 1874SOL    HW217256   1.199   3.180   5.963 -1.7030  0.6276  2.7990
 1875SOL     OW17257   2.536   4.522   6.991 -0.2995  0.5995  0.2802
 1875SOL    HW117258   2.605   4.548   7.052 -0.0386 -0.5864  0.4845
 1875SOL    HW217259   2.457   4.538   7.042 -0.7233  0.5393 -0.3540
 1876SOL     OW17260   3.468   4.336  12.302 -0.1266 -0.5254  0.1319
 1876SOL    HW117261   3.478   4.348  12.207 -0.7087  4.9041  0.7529
 1876SOL    HW217262   3.511   4.410  12.346  0.9916 -1.7816  1.1354
 1877SOL     OW17263   1.271   0.308  13.416 -0.0566  0.8398 -0.3172
 1877SOL    HW117264   1.190   0.264  13.391 -0.8366  1.1026  1.7762
 1877SOL    HW217265   1.343   0.275  13.362  0.1266 -1.4163  1.2685
 1878SOL     OW17266   1.481   1.450  12.120  0.2685  0.3284 -0.2601
 1878SOL    HW117267   1.409   1.432  12.181  1.7870 -1.1025  1.1161
 1878SOL    HW217268   1.547   1.388  12.151  1.8478  2.7567  1.1656
 1879SOL     OW17269   3.807   3.307   1.288  0.0811 -0.2759  0.1392
 1879SOL    HW117270   3.811   3.261   1.204 -2.8053  0.4398 -0.3929
 1879SOL    HW217271   3.852   3.240   1.340 -1.0066  0.8806  2.5969
 1880SOL     OW17272   1.272   3.334   2.145  0.5327  0.4447 -0.3414
 1880SOL    HW117273   1.368   3.338   2.147  0.5357  0.6153 -1.2885
 1880SOL    HW217274   1.248   3.337   2.053 -0.4967  2.6101 -0.0099
 1881SOL     OW17275   1.822   1.258   5.567  0.0702 -0.2971 -0.1920
 1881SOL    HW117276   1.731   1.287   5.555  0.1316 -0.8361 -1.9397
 1881SOL    HW217277   1.814   1.164   5.580 -2.4935 -0.0998 -0.1780
 1882SOL     OW17278   4.339   3.713   8.037 -0.3414  0.0739 -0.0206
 1882SOL    HW117279   4.355   3.713   7.943  0.0621  0.7188  0.0494
 1882SOL    HW217280   4.296   3.796   8.058 -1.8869 -0.4688 -1.0917
 1883SOL     OW17281   0.209   2.785   8.451 -0.1157  0.3603  0.4041
 1883SOL    HW117282   0.281   2.761   8.509  1.1743  1.3223 -0.8034
 1883SOL    HW217283   0.135   2.777   8.511  0.6463 -0.4572  1.2243
 1884SOL     OW17284   0.458   2.226   7.210  0.6680  0.1949 -0.1136
 1884SOL    HW117285   0.549   2.253   7.198  1.0678 -1.2749 -0.4408
 1884SOL    HW217286   0.473   2.139   7.248  0.1031 -0.1180 -0.5968
 1885SOL     OW17287   1.389   1.332  13.485 -0.8949  0.0314  0.0956
 1885SOL    HW117288   1.366   1.389  13.411  1.7687  1.4397  0.3762
 1885SOL    HW217289   1.328   1.373  13.546 -1.1623  0.5870 -0.5410
 1886SOL     OW17290   1.318   1.501  13.273  0.2582 -1.0024 -0.7669
 1886SOL    HW117291   1.235   1.543  13.250  0.1986 -0.1546  0.9589
 1886SOL    HW217292   1.378   1.566  13.236  0.8560 -0.8997  0.3785
 1887SOL     OW17293   2.377   0.548   6.388  0.1915  0.1000 -0.6624
 1887SOL    HW117294   2.331   0.489   6.448  0.6381 -1.5678 -1.9438
 1887SOL    HW217295   2.458   0.559   6.437  0.2049  0.4505 -0.7645
 1888SOL     OW17296   2.578   1.638   8.958 -0.0246  0.1790 -0.0547
 1888SOL    HW117297   2.617   1.574   8.898 -2.8949 -1.0307 -0.6084
 1888SOL    HW217298   2.629   1.716   8.938 -1.5664  1.1808  0.0096
 1889SOL     OW17299   3.254   2.739   3.015  0.0087  0.1854 -0.2560
 1889SOL    HW117300   3.210   2.762   2.933  0.7187  0.9878 -0.4152
 1889SOL    HW217301   3.183   2.732   3.079  0.2109 -0.5250 -0.1107
 1890SOL     OW17302   4.334   0.358   5.569 -0.1634 -0.0108 -0.0505
 1890SOL    HW117303   4.291   0.367   5.483 -1.3715 -1.7523  0.3881
 1890SOL    HW217304   4.400   0.297   5.537  0.2713  0.9377 -1.0033
 1891SOL     OW17305   2.358   0.312   6.858  0.5277 -0.1786  0.4595
 1891SOL    HW117306   2.354   0.227   6.813 -1.8812 -0.3584  1.0287
 1891SOL    HW217307   2.452   0.322   6.875  0.4698  1.0082  0.0984
 1892SOL     OW17308   2.677   1.922   6.793  0.1062  0.1205 -0.0967
 1892SOL    HW117309   2.687   1.895   6.702  0.2932  0.9138 -0.3148
 1892SOL    HW217310   2.584   1.948   6.794  0.2584  0.6397  0.6522
 1893SOL     OW17311   4.128   0.755  13.958 -0.0782 -0.6168 -0.1909
 1893SOL    HW117312   4.040   0.790  13.976  0.0130 -0.7884  0.5997
 1893SOL    HW217313   4.162   0.719  14.040  1.5252 -0.7019 -0.8940
 1894SOL     OW17314   3.629   1.187   5.335  0.7898  0.2411  0.0773
 1894SOL    HW117315   3.636   1.272   5.291 -0.2849  0.0043 -0.5281
 1894SOL    HW217316   3.560   1.136   5.293  1.1276 -0.6792  0.6466
 1895SOL     OW17317   2.294   2.357   2.881 -0.5064  0.0095  0.1839
 1895SOL    HW117318   2.264   2.383   2.968  0.7793 -0.5535  0.7900
 1895SOL    HW217319   2.306   2.262   2.885  3.5988  0.5034  0.3936
 1896SOL     OW17320   2.706   1.541   7.244 -0.2050  0.1049  0.5958
 1896SOL    HW117321   2.707   1.583   7.158  0.1210  0.8258  0.9490
 1896SOL    HW217322   2.705   1.446   7.229  1.2833  0.3276 -0.9605
 1897SOL     OW17323   4.407   0.940   1.072  0.1244  0.2937 -0.0966
 1897SOL    HW117324   4.414   1.019   1.126 -0.1496 -0.1048  0.5238
 1897SOL    HW217325   4.314   0.926   1.089 -0.2536  2.2940 -0.4780
 1898SOL     OW17326   3.710   2.519   5.339  0.4614 -0.3513 -0.6874
 1898SOL    HW117327   3.632   2.466   5.327  1.3116 -2.0789  1.2338
 1898SOL    HW217328   3.771   2.480   5.277  1.5021  1.2710 -0.6858
 1899SOL     OW17329   2.282   4.292   2.505 -0.2910 -0.2412 -0.0066
 1899SOL    HW117330   2.216   4.224   2.519  1.8736 -2.3336  0.0741
 1899SOL    HW217331   2.367   4.250   2.517 -0.5410 -0.3504  1.3472
 1900SOL     OW17332   1.293   0.686  12.387 -0.0949 -0.1603 -0.5644
 1900SOL    HW117333   1.218   0.712  12.334 -2.5721 -4.1696  1.0311
 1900SOL    HW217334   1.352   0.647  12.321  1.5250  0.6754  0.3794
 1901SOL     OW17335   2.109   0.691  16.887  0.2934  0.5514  0.4644
 1901SOL    HW117336   2.084   0.665  16.799 -2.0449 -1.6257  1.7814
 1901SOL    HW217337   2.139   0.780  16.868 -1.2878  0.0714 -4.1338
 1902SOL     OW17338   0.720   3.324   5.193  0.3380  0.0947  0.1767
 1902SOL    HW117339   0.723   3.279   5.108 -0.7545 -1.9380  1.2287
 1902SOL    HW217340   0.626   3.316   5.209  0.4701  0.0399  0.9030
 1903SOL     OW17341   1.672   4.013   1.051 -0.4394  0.1650  0.0287
 1903SOL    HW117342   1.747   4.012   1.111  0.3991 -1.8166 -1.0391
 1903SOL    HW217343   1.621   3.936   1.076 -0.7970  0.0244 -1.0991
 1904SOL     OW17344   0.595   0.682   0.431 -0.1638 -0.3074 -0.3016
 1904SOL    HW117345   0.598   0.586   0.433  2.6762 -0.2068 -0.5054
 1904SOL    HW217346   0.613   0.711   0.520 -0.3326  0.9380 -0.6799
 1905SOL     OW17347   0.833   3.979   6.346  0.0513 -0.6014  0.5118
 1905SOL    HW117348   0.927   3.970   6.337 -0.0469  0.0547 -1.1956
 1905SOL    HW217349   0.821   3.909   6.411  1.3805  0.8294  2.2806
 1906SOL     OW17350   3.132   3.797   6.156  0.5742 -0.2695  0.5624
 1906SOL    HW117351   3.147   3.756   6.241  0.0868 -1.2129  0.1882
 1906SOL    HW217352   3.117   3.886   6.188 -0.1691 -0.4425  0.7016
 1907SOL     OW17353   0.318   4.105   7.588  0.3292  0.0032 -0.9276
 1907SOL    HW117354   0.227   4.101   7.616  0.7280  1.6207  0.6404
 1907SOL    HW217355   0.336   4.012   7.583  0.7469 -0.0932  2.2090
 1908SOL     OW17356   2.224   2.245  16.789 -0.6154  0.1588  0.0617
 1908SOL    HW117357   2.195   2.154  16.781  0.9657 -0.1475 -2.1437
 1908SOL    HW217358   2.294   2.257  16.726  0.3054 -1.4125  0.7911
 1909SOL     OW17359   3.858   2.365  17.039 -0.8634 -0.0946 -0.1513
 1909SOL    HW117360   3.811   2.355  17.122 -1.7246 -1.8673 -0.8644
 1909SOL    HW217361   3.907   2.446  17.052 -0.7521  0.0410 -1.3984
 1910SOL     OW17362   1.020   1.527   3.910 -0.5128 -0.3756  0.1384
 1910SOL    HW117363   1.105   1.570   3.896 -0.8883 -0.1761 -1.5492
 1910SOL    HW217364   0.958   1.587   3.867  1.1848  1.2876 -0.0195
 1911SOL     OW17365   3.629   0.591   2.345  0.3523  0.0216  0.3429
 1911SOL    HW117366   3.658   0.515   2.396  0.1926  0.3020  0.8544
 1911SOL    HW217367   3.683   0.574   2.268 -0.6172  1.1528 -0.5823
 1912SOL     OW17368   0.507   4.660  10.513  0.0327 -1.0766  0.7108
 1912SOL    HW117369   0.590   4.637  10.554 -1.5513 -1.5164  3.7109
 1912SOL    HW217370   0.509   4.608  10.433  0.3705  0.9918 -0.6056
 1913SOL     OW17371   1.257   0.985   8.488  0.1066 -0.8986  0.4157
 1913SOL    HW117372   1.166   1.005   8.467  0.1917 -0.6396  0.2918
 1913SOL    HW217373   1.295   0.981   8.400 -2.6537  0.6413 -0.8305
 1914SOL     OW17374   0.066   4.696   4.496  0.2071 -0.5752 -0.1163
 1914SOL    HW117375   0.102   4.612   4.522  1.0251  0.6159  2.6187
 1914SOL    HW217376   4.708   4.683   4.485  0.0402 -1.0357  1.8952
 1915SOL     OW17377   4.517   4.609   5.215  0.2657  0.0304 -0.4405
 1915SOL    HW117378   4.449   4.636   5.277 -0.8088 -0.5694 -1.3623
 1915SOL    HW217379   4.499   4.673   5.147 -0.6440  0.1193 -0.1130
 1916SOL     OW17380   3.417   3.680   0.795 -0.3806 -0.3532 -0.2572
 1916SOL    HW117381   3.399   3.674   0.701 -1.3478  1.4079 -0.1857
 1916SOL    HW217382   3.456   3.767   0.792  2.7529 -1.7826 -1.5689
 1917SOL     OW17383   2.926   1.313   6.349  0.1042 -0.1959  0.5457
 1917SOL    HW117384   2.994   1.371   6.313 -0.1959  1.0226  1.9393
 1917SOL    HW217385   2.848   1.365   6.334  0.2970 -1.3566 -4.4319
 1918SOL     OW17386   2.383   2.954   3.337 -0.1891 -0.4249 -0.5601
 1918SOL    HW117387   2.338   2.889   3.393  0.3201  0.3249  0.7149
 1918SOL    HW217388   2.475   2.928   3.338 -0.2749 -0.7501 -1.4209
 1919SOL     OW17389   2.757   0.817   9.173  0.4098 -0.1131 -0.0374
 1919SOL    HW117390   2.738   0.799   9.265  0.0485  0.9053  0.0792
 1919SOL    HW217391   2.850   0.840   9.172  0.4463 -0.2635 -0.1287
 1920SOL     OW17392   2.780   0.684   9.760  0.3820  0.1425 -0.2470
 1920SOL    HW117393   2.828   0.616   9.714  1.0243  1.2835 -1.2735
 1920SOL    HW217394   2.835   0.761   9.743  0.5620  0.2377  0.7483
 1921SOL     OW17395   1.600   0.761   6.823  0.2250  0.0312  0.3118
 1921SOL    HW117396   1.662   0.830   6.801 -0.0367 -0.0301 -0.6148
 1921SOL    HW217397   1.532   0.803   6.876  0.8478 -0.4309  1.4780
 1922SOL     OW17398   4.456   0.880   8.109 -0.0111 -0.1939  0.0528
 1922SOL    HW117399   4.476   0.804   8.163  1.9289  0.0021 -0.4019
 1922SOL    HW217400   4.527   0.942   8.125 -0.7505  0.8124 -0.5129
 1923SOL     OW17401   2.853   1.826   2.763 -0.0900 -0.5035 -0.0665
 1923SOL    HW117402   2.944   1.856   2.768 -0.3808  0.4309 -0.4251
 1923SOL    HW217403   2.875   1.796   2.674  1.5755  0.8424 -0.1195
 1924SOL     OW17404   0.633   0.592   0.703 -0.0087 -0.3145 -0.0941
 1924SOL    HW117405   0.721   0.590   0.667 -1.4293  2.8740 -3.8020
 1924SOL    HW217406   0.636   0.500   0.727  0.7184 -0.0808  0.7070
 1925SOL     OW17407   4.566   0.173   5.446  0.3039  0.1912  0.2170
 1925SOL    HW117408   4.595   0.240   5.383 -1.0770 -1.0090 -1.7054
 1925SOL    HW217409   4.614   0.099   5.410  1.4054 -0.7147  3.5556
 1926SOL     OW17410   2.030   3.691   3.301  0.4607  0.5738  0.1828
 1926SOL    HW117411   2.089   3.687   3.376  0.6383 -0.1104  0.0059
 1926SOL    HW217412   1.947   3.683   3.348  0.4571 -0.3694  0.0201
 1927SOL     OW17413   0.873   0.215  15.377  0.0945  0.2979 -0.6834
 1927SOL    HW117414   0.965   0.190  15.374 -1.1781 -4.7963  2.7061
 1927SOL    HW217415   0.877   0.310  15.363  0.8944 -0.0874 -3.0369
 1928SOL     OW17416   1.120   4.116  14.537 -0.5929  0.1758  0.3652
 1928SOL    HW117417   1.030   4.084  14.545 -0.8663  1.7883  3.6747
 1928SOL    HW217418   1.113   4.203  14.575 -0.3455 -0.2509  1.3857
 1929SOL     OW17419   2.735   0.560   8.162 -0.2887 -0.1820 -0.0583
 1929SOL    HW117420   2.715   0.615   8.086  0.4079 -1.2324 -1.0143
 1929SOL    HW217421   2.749   0.623   8.232  0.1794 -2.3677  1.8261
 1930SOL     OW17422   2.023   1.618   5.205  1.4079 -0.0245 -0.3152
 1930SOL    HW117423   1.962   1.624   5.131 -1.2769 -1.9147  1.7621
 1930SOL    HW217424   2.009   1.526   5.227  1.8969 -0.0095  0.0431
 1931SOL     OW17425   2.031   0.717   2.664  0.0236  0.0965  0.2653
 1931SOL    HW117426   1.955   0.748   2.713  2.1125  1.3780  2.6696
 1931SOL    HW217427   2.015   0.624   2.679 -0.9604  0.2812  0.3721
 1932SOL     OW17428   1.425   1.936   5.088  0.1874 -0.3070 -0.2855
 1932SOL    HW117429   1.494   1.963   5.028  1.8192 -1.1496  1.2450
 1932SOL    HW217430   1.376   1.867   5.043 -0.8894 -0.2682  0.8128
 1933SOL     OW17431   2.410   4.427   2.268 -0.7364 -0.3948 -0.4063
 1933SOL    HW117432   2.433   4.478   2.345  1.1235 -0.9169 -0.6216
 1933SOL    HW217433   2.414   4.335   2.294 -3.3292 -0.2638  0.4958
 1934SOL     OW17434   3.567   4.346  16.243  0.0919  0.1118  0.4535
 1934SOL    HW117435   3.559   4.309  16.155  1.2321  2.5297 -0.6625
 1934SOL    HW217436   3.488   4.316  16.287 -0.1237  1.7806  1.1842
 1935SOL     OW17437   1.973   2.799  10.005 -0.7013 -0.0460 -0.4124
 1935SOL    HW117438   1.962   2.894  10.006 -0.4660 -0.0221  0.4389
 1935SOL    HW217439   2.067   2.788  10.021 -0.9410  0.1639  1.1851
 1936SOL     OW17440   2.408   0.202   8.837  0.1165 -0.2172  0.0268
 1936SOL    HW117441   2.416   0.289   8.875  1.8682 -0.8734  1.1536
 1936SOL    HW217442   2.375   0.221   8.749  2.1578  1.6555 -0.3146
 1937SOL     OW17443   0.537   1.023  13.454 -0.3795 -0.6055  0.3369
 1937SOL    HW117444   0.583   1.014  13.537  0.9094 -0.4955 -0.3643
 1937SOL    HW217445   0.598   0.970  13.402 -0.1127 -0.7511  0.8026
 1938SOL     OW17446   2.722   0.268   6.162 -0.4302 -0.1808  0.1161
 1938SOL    HW117447   2.629   0.287   6.151 -0.2411  0.2900 -0.7532
 1938SOL    HW217448   2.746   0.197   6.103  2.7190  1.4934 -0.6312
 1939SOL     OW17449   4.412   0.057  10.494  0.2280  0.6970 -0.3647
 1939SOL    HW117450   4.365   4.714  10.470  0.2578  0.3421  0.7610
 1939SOL    HW217451   4.458   0.038  10.576  2.1971  1.0912 -1.3740
 1940SOL     OW17452   1.256   3.588   8.724  0.0802 -0.1768  0.4940
 1940SOL    HW117453   1.288   3.676   8.744  1.9221 -1.1745  1.9031
 1940SOL    HW217454   1.339   3.542   8.710 -0.8864 -1.4236 -1.2199
 1941SOL     OW17455   2.772   3.432   2.543  0.3252 -0.4159 -0.5425
 1941SOL    HW117456   2.830   3.508   2.534  0.9382 -0.3625  3.8610
 1941SOL    HW217457   2.712   3.463   2.610 -0.3075  2.4547 -2.4202
 1942SOL     OW17458   0.765   4.574   8.974 -0.2860 -0.3645 -0.1633
 1942SOL    HW117459   0.735   4.486   8.951 -4.0250  1.3537 -1.8271
 1942SOL    HW217460   0.704   4.639   8.940  0.6501  0.2958 -0.5660
 1943SOL     OW17461   1.844   1.032   1.629  0.1424 -0.5789  0.3099
 1943SOL    HW117462   1.874   0.944   1.606  1.8481 -0.3600  1.7719
 1943SOL    HW217463   1.923   1.056   1.677  0.4899  1.4167 -1.2325
 1944SOL     OW17464   0.129   3.818   1.223 -0.1955  0.1309 -0.3271
 1944SOL    HW117465   0.179   3.865   1.290  0.3759 -1.5466  0.4265
 1944SOL    HW217466   0.140   3.872   1.145  0.1995 -1.2305 -1.1988
 1945SOL     OW17467   3.960   0.521   8.455 -0.5535 -0.7589  0.3766
 1945SOL    HW117468   4.051   0.533   8.484 -1.7383  0.9380  3.3289
 1945SOL    HW217469   3.925   0.608   8.473 -2.1140 -1.3382  0.0836
 1946SOL     OW17470   3.815   1.845  12.413 -0.3071 -0.5742 -0.1019
 1946SOL    HW117471   3.898   1.877  12.379 -0.0747  0.1034  1.1364
 1946SOL    HW217472   3.838   1.756  12.441  1.1207  0.0805  0.7637
 1947SOL     OW17473   2.290   0.109   6.701 -0.1679 -0.1379  0.1361
 1947SOL    HW117474   2.341   0.102   6.620 -0.7779  0.3659 -0.2968
 1947SOL    HW217475   2.208   0.110   6.651  0.1356  0.5103 -0.3545
 1948SOL     OW17476   1.766   2.715   8.516 -0.1741 -0.2550  0.3588
 1948SOL    HW117477   1.731   2.790   8.564 -1.1510  0.1092 -0.9152
 1948SOL    HW217478   1.688   2.660   8.509 -1.8003  1.9758  0.6675
 1949SOL     OW17479   0.489   1.965   5.693 -0.1530  0.2346 -0.3528
 1949SOL    HW117480   0.542   1.923   5.625  0.2671  1.7046 -0.9110
 1949SOL    HW217481   0.528   1.930   5.773 -1.4695  2.0143  1.0724
 1950SOL     OW17482   1.618   2.149   7.376 -0.1012 -0.9190  1.3039
 1950SOL    HW117483   1.622   2.192   7.461  2.2671  0.1306  0.6613
 1950SOL    HW217484   1.554   2.209   7.338  0.5976 -1.3563 -0.5848
 1951SOL     OW17485   1.484   2.356   2.730 -0.0438 -0.3689  0.2767
 1951SOL    HW117486   1.434   2.311   2.662  1.0152  0.2709 -0.9132
 1951SOL    HW217487   1.420   2.421   2.760  3.1052  2.1447  1.5682
 1952SOL     OW17488   1.699   4.260  15.101 -0.3398  0.0257  0.3942
 1952SOL    HW117489   1.720   4.229  15.012 -1.2449  1.3291 -0.2785
 1952SOL    HW217490   1.678   4.349  15.075 -0.8192 -0.0451  0.5355
 1953SOL     OW17491   2.520   3.150   3.605  0.4696  0.1612 -0.1778
 1953SOL    HW117492   2.613   3.166   3.590  0.7832 -1.0616  0.4562
 1953SOL    HW217493   2.490   3.155   3.515 -0.1370  0.3060  0.0329
 1954SOL     OW17494   2.114   1.827   6.141  0.7006 -0.4317 -0.2212
 1954SOL    HW117495   2.154   1.871   6.217  1.4411  0.9038 -1.3825
 1954SOL    HW217496   2.137   1.889   6.072  1.8700 -0.2143  0.3492
 1955SOL     OW17497   0.873   2.233   2.627 -0.1314 -0.2312 -0.1352
 1955SOL    HW117498   0.793   2.271   2.665  0.4308 -1.2831  2.0862
 1955SOL    HW217499   0.828   2.186   2.557  0.1435 -0.8858  0.1269
 1956SOL     OW17500   3.238   1.020   5.222  0.5570  0.1757  0.0605
 1956SOL    HW117501   3.213   1.097   5.171 -2.1139  0.1190  1.3210
 1956SOL    HW217502   3.311   0.992   5.166  0.8990  0.2753  0.4562
 1957SOL     OW17503   3.611   4.217  15.999  0.1531  0.4567 -0.1594
 1957SOL    HW117504   3.664   4.186  15.925 -1.2608  2.0428 -1.8449
 1957SOL    HW217505   3.519   4.197  15.979 -0.3226  1.2257  1.2512
 1958SOL     OW17506   3.204   3.035   5.872 -0.6168 -0.5772 -0.2651
 1958SOL    HW117507   3.280   3.065   5.822 -0.5255  0.9411  0.7883
 1958SOL    HW217508   3.251   3.019   5.954  0.1616  0.3651 -0.5275
 1959SOL     OW17509   3.573   4.456   4.629  0.0371 -0.5387  0.2153
 1959SOL    HW117510   3.500   4.487   4.683 -0.9174 -0.5734 -1.0544
 1959SOL    HW217511   3.629   4.412   4.693  1.9341 -0.0548 -1.1184
 1960SOL     OW17512   1.062   0.504   4.412  0.4865 -0.1603  0.2338
 1960SOL    HW117513   1.135   0.556   4.379  0.4689  0.1653  0.7082
 1960SOL    HW217514   0.996   0.525   4.346  0.5184 -0.2765  0.1643
 1961SOL     OW17515   4.281   3.727   7.043  0.1723  0.0419 -0.4552
 1961SOL    HW117516   4.269   3.638   7.076  1.5250 -0.0455 -0.1909
 1961SOL    HW217517   4.360   3.714   6.991  1.5052 -0.8329  1.7665
 1962SOL     OW17518   0.805   0.817   3.491 -0.0121  0.1983  0.4429
 1962SOL    HW117519   0.727   0.849   3.446 -1.5431 -1.5880  1.8668
 1962SOL    HW217520   0.811   0.727   3.461 -1.4085  0.4943 -0.7604
 1963SOL     OW17521   2.856   4.094   4.757  0.3593 -0.5131 -0.1860
 1963SOL    HW117522   2.872   4.009   4.717  0.2572 -0.8050  0.3920
 1963SOL    HW217523   2.836   4.152   4.683  2.4617  0.2307 -0.1559
 1964SOL     OW17524   1.664   0.720   3.535  0.4262  0.3965  0.3828
 1964SOL    HW117525   1.741   0.664   3.535  0.6840  0.7511 -0.5859
 1964SOL    HW217526   1.702   0.806   3.556 -0.0097 -0.2133  3.6204
 1965SOL     OW17527   0.194   2.244  14.044  0.0201 -1.1439  0.3789
 1965SOL    HW117528   0.213   2.338  14.043  0.0758 -1.1626 -0.3097
 1965SOL    HW217529   0.185   2.221  13.952  1.1141 -2.1824  0.5344
 1966SOL     OW17530   0.195   2.869  14.580  0.9394  0.6713  0.3503
 1966SOL    HW117531   0.225   2.930  14.647 -1.0493 -0.6776  2.4481
 1966SOL    HW217532   0.269   2.809  14.572  0.8779  0.6523 -0.0998
 1967SOL     OW17533   0.863   0.807   2.284  0.4523 -0.7451  0.1048
 1967SOL    HW117534   0.867   0.837   2.194  0.3291  1.0200  0.6928
 1967SOL    HW217535   0.816   0.725   2.268  1.6514 -1.3925 -0.1824
 1968SOL     OW17536   1.052   3.521   6.626 -0.7857  0.1126  0.1718
 1968SOL    HW117537   1.073   3.613   6.609 -0.0645 -0.1122 -0.1904
 1968SOL    HW217538   0.965   3.526   6.665 -1.5614 -1.1419 -1.4009
 1969SOL     OW17539   3.378   2.966  17.604  0.2774 -0.5233 -0.2680
 1969SOL    HW117540   3.353   2.889  17.655  0.7791  0.4576  1.4474
 1969SOL    HW217541   3.388   3.036  17.669 -1.0326  1.7786 -2.5415
 1970SOL     OW17542   3.303   0.227   6.928 -0.1121  0.3855 -0.0413
 1970SOL    HW117543   3.360   0.178   6.869 -0.9313 -0.5094 -0.1122
 1970SOL    HW217544   3.238   0.158   6.944 -1.7044  2.5691  2.6837
 1971SOL     OW17545   3.018   3.438   2.739  0.6394  0.3248 -0.1660
 1971SOL    HW117546   3.042   3.384   2.814  2.1246  2.0203  0.5892
 1971SOL    HW217547   2.930   3.462   2.768  0.4921 -1.8024  1.1531
 1972SOL     OW17548   2.325   2.761   5.682  0.5121  0.3264 -0.2424
 1972SOL    HW117549   2.253   2.806   5.637 -0.9878 -1.3214  0.4942
 1972SOL    HW217550   2.360   2.703   5.615 -2.7668  0.9864 -2.5292
 1973SOL     OW17551   0.081   1.679   2.021 -0.1365 -0.4838  0.0675
 1973SOL    HW117552   0.051   1.751   2.076 -0.8012 -1.0084  0.3789
 1973SOL    HW217553   0.104   1.730   1.943 -2.8875 -0.7464 -0.9205
 1974SOL     OW17554   1.222   4.474   8.740 -0.0122  0.4589 -0.2222
 1974SOL    HW117555   1.263   4.560   8.734  3.9888 -1.3024  2.4622
 1974SOL    HW217556   1.220   4.454   8.646  0.4287 -0.7611  0.0382
 1975SOL     OW17557   2.422   0.925  13.232 -0.1698  0.0469  0.4525
 1975SOL    HW117558   2.514   0.917  13.256 -0.3653  0.2663  1.2731
 1975SOL    HW217559   2.388   0.953  13.317  0.7108  0.3114  0.7156
 1976SOL     OW17560   1.747   0.838  17.698 -0.7286  0.1029  0.3668
 1976SOL    HW117561   1.740   0.747  17.672  1.4286 -0.3834  1.4696
 1976SOL    HW217562   1.797   0.827   0.036 -1.2379 -0.6037  0.5918
 1977SOL     OW17563   4.347   1.308   3.302  1.0518 -0.1814 -0.3305
 1977SOL    HW117564   4.384   1.358   3.230  3.7042  0.7888  1.7115
 1977SOL    HW217565   4.352   1.219   3.267 -1.0085 -0.1970 -0.6182
 1978SOL     OW17566   1.686   1.362   4.947  0.8548  0.1880 -0.0817
 1978SOL    HW117567   1.761   1.304   4.934  0.6529 -0.3286  1.1427
 1978SOL    HW217568   1.685   1.382   4.853  3.3873  2.1128  0.2895
 1979SOL     OW17569   4.362   4.693   9.645  0.1169  0.1468  0.2306
 1979SOL    HW117570   4.365   4.716   9.552 -0.3614  0.6951  0.3597
 1979SOL    HW217571   4.403   4.606   9.643 -0.2299  0.0090 -1.5171
 1980SOL     OW17572   4.162   2.187   4.746  0.3767  0.1555  0.2341
 1980SOL    HW117573   4.156   2.201   4.840  2.0686 -2.6677  0.8048
 1980SOL    HW217574   4.071   2.173   4.721  0.3871  1.9287 -0.7428
 1981SOL     OW17575   3.771   1.404   1.199 -0.6120 -0.5609  0.4544
 1981SOL    HW117576   3.707   1.335   1.187 -1.8936  0.6937  0.1477
 1981SOL    HW217577   3.849   1.372   1.154 -0.5590  0.6884 -0.3473
 1982SOL     OW17578   1.037   2.544   7.741 -0.3453 -0.2373  0.1842
 1982SOL    HW117579   0.961   2.602   7.743  0.3363  0.6866 -0.1250
 1982SOL    HW217580   1.103   2.596   7.694 -1.1650  0.7662  0.1487
 1983SOL     OW17581   2.198   2.239   4.258 -0.6023  0.0330 -0.5553
 1983SOL    HW117582   2.185   2.332   4.275  0.2539  0.4968 -2.5062
 1983SOL    HW217583   2.197   2.195   4.343 -2.4435  0.6384 -0.2506
 1984SOL     OW17584   1.430   3.453  13.156  0.4404 -0.3072  0.6831
 1984SOL    HW117585   1.452   3.367  13.120  1.1062  0.5071 -0.8291
 1984SOL    HW217586   1.385   3.428  13.237 -0.6085 -0.1592  0.1440
 1985SOL     OW17587   4.607   4.648   0.997  0.1160 -0.2999 -0.1463
 1985SOL    HW117588   4.671   4.669   1.066 -2.0467  1.6015  1.2913
 1985SOL    HW217589   4.564   4.566   1.022  2.0598 -0.9603  1.0575
 1986SOL     OW17590   2.002   1.609   4.160 -0.2005 -0.0511 -0.0283
 1986SOL    HW117591   1.964   1.651   4.237 -2.0830 -1.7681 -0.0236
 1986SOL    HW217592   1.953   1.645   4.086  0.8596 -1.8994 -1.6215
 1987SOL     OW17593   0.499   0.136   8.543  0.3876 -1.1378 -0.8929
 1987SOL    HW117594   0.468   0.180   8.622  1.3695 -0.4341 -0.8914
 1987SOL    HW217595   0.425   0.157   8.486 -0.1866  2.0598  0.9955
 1988SOL     OW17596   1.935   1.420   3.869  0.7324 -0.2297  0.1902
 1988SOL    HW117597   1.874   1.371   3.924  2.2526 -2.3732 -0.0294
 1988SOL    HW217598   1.928   1.509   3.902  0.7928 -0.3049  0.4101
 1989SOL     OW17599   2.856   2.598   6.566 -0.2691  0.0680 -0.3175
 1989SOL    HW117600   2.882   2.611   6.475 -1.4555  2.1429 -0.3655
 1989SOL    HW217601   2.766   2.630   6.568  0.6197  2.4155  2.4038
 1990SOL     OW17602   0.176   0.418  11.276 -0.2149  0.2335  0.1368
 1990SOL    HW117603   0.158   0.381  11.190  0.2798  1.3329 -0.4326
 1990SOL    HW217604   0.187   0.342  11.333  1.6068  1.2610  1.1437
 1991SOL     OW17605   3.864   1.019  11.348  0.1900 -0.5568  0.3651
 1991SOL    HW117606   3.937   1.078  11.366  0.4684 -1.1490  1.2024
 1991SOL    HW217607   3.825   1.017  11.436  1.3124 -0.1799  0.8752
 1992SOL     OW17608   2.191   2.849   2.643  0.0889 -0.4249 -0.2116
 1992SOL    HW117609   2.116   2.825   2.589 -0.6033 -0.5584  0.8028
 1992SOL    HW217610   2.254   2.864   2.573 -0.1079 -0.8027 -0.4680
 1993SOL     OW17611   1.137   3.637  13.958  0.5670  0.1500 -0.6907
 1993SOL    HW117612   1.131   3.565  14.021 -1.2703 -0.0524 -1.0814
 1993SOL    HW217613   1.130   3.721  14.004 -3.1586  0.0456 -1.0667
 1994SOL     OW17614   2.342   3.687  17.077  0.2232 -0.4981 -0.0837
 1994SOL    HW117615   2.247   3.670  17.082  0.1785 -0.1572  0.2102
 1994SOL    HW217616   2.337   3.779  17.105  0.0028 -0.3917 -0.4643
 1995SOL     OW17617   2.470   2.301   6.668  0.1663 -0.6608 -0.1725
 1995SOL    HW117618   2.476   2.215   6.628 -1.6858 -1.4824  1.3135
 1995SOL    HW217619   2.510   2.355   6.600  0.0297  1.1177  1.1194
 1996SOL     OW17620   1.106   4.674   7.988 -0.3242 -0.0275 -0.0518
 1996SOL    HW117621   1.170   4.630   7.932 -1.0129  0.0897 -0.9260
 1996SOL    HW217622   1.047   4.599   7.997 -0.0774 -0.2020  0.1373
 1997SOL     OW17623   0.475   1.216   5.167 -0.3866  0.2497  0.3851
 1997SOL    HW117624   0.554   1.247   5.121 -0.7113 -0.9430 -0.9733
 1997SOL    HW217625   0.507   1.167   5.243  1.3628  1.2990  0.3405
 1998SOL     OW17626   3.136   2.863   3.267  0.3823 -0.0477  0.2330
 1998SOL    HW117627   3.149   2.844   3.360  0.5625  0.9060  0.4029
 1998SOL    HW217628   3.207   2.927   3.262 -0.2608  0.8823  2.9322
 1999SOL     OW17629   0.007   1.817  17.068 -0.0120  0.3025 -0.0464
 1999SOL    HW117630   0.028   1.854  17.153 -0.9647  0.8189 -0.0355
 1999SOL    HW217631   4.648   1.825  17.060 -0.1499 -0.2421  1.1255
 2000SOL     OW17632   1.369   2.058   5.517  0.5012 -0.2264  0.7325
 2000SOL    HW117633   1.384   1.973   5.559 -1.5984 -1.4638 -1.0141
 2000SOL    HW217634   1.452   2.087   5.478 -0.4359 -2.4902 -3.0053
 2001SOL     OW17635   2.794   3.333   2.152  0.2746  0.1257  0.3056
 2001SOL    HW117636   2.701   3.317   2.135  0.6706 -2.2053  0.3617
 2001SOL    HW217637   2.789   3.408   2.211  1.2153 -0.6296  1.3312
 2002SOL     OW17638   4.295   0.621   2.802  0.2431 -0.3371  0.6628
 2002SOL    HW117639   4.346   0.692   2.763 -2.0369  1.5768  1.1810
 2002SOL    HW217640   4.246   0.669   2.869 -0.3725 -0.3570  0.2169
 2003SOL     OW17641   3.589   1.493   7.445  0.0506  0.3288 -0.8264
 2003SOL    HW117642   3.588   1.447   7.362  0.0027 -0.1370 -0.5648
 2003SOL    HW217643   3.629   1.420   7.492  0.6076  0.2483 -1.4367
 2004SOL     OW17644   2.870   0.125   5.185 -0.0822  0.0493 -0.3905
 2004SOL    HW117645   2.911   0.103   5.102  0.8319 -1.6594  0.5184
 2004SOL    HW217646   2.828   0.210   5.170 -0.7362  0.0104  1.1193
 2005SOL     OW17647   3.527   2.211  15.347  0.2360 -0.2829 -0.1506
 2005SOL    HW117648   3.547   2.236  15.437  0.1901 -1.2327  0.1194
 2005SOL    HW217649   3.538   2.298  15.309 -1.2468  0.1081  0.3279
 2006SOL     OW17650   3.122   2.194   6.988  0.1909  0.0452 -0.0978
 2006SOL    HW117651   3.084   2.277   6.960 -1.0417  0.9020  4.1415
 2006SOL    HW217652   3.058   2.169   7.055  0.8488 -1.2031  0.0656
 2007SOL     OW17653   4.415   2.534   8.754 -0.6126  0.5977 -0.2004
 2007SOL    HW117654   4.384   2.515   8.666  0.0680 -4.8203  0.7225
 2007SOL    HW217655   4.480   2.467   8.779 -1.1835  0.3918  0.7530
 2008SOL     OW17656   2.150   0.078   2.495 -0.2435  0.7702  0.0760
 2008SOL    HW117657   2.160   0.014   2.565  0.6869 -0.1129 -0.8698
 2008SOL    HW217658   2.219   0.135   2.529 -0.7820  3.2125 -2.9175
 2009SOL     OW17659   3.628   0.811   9.222 -0.1324  0.2554 -0.1194
 2009SOL    HW117660   3.720   0.828   9.237 -0.3685  0.1429  1.4346
 2009SOL    HW217661   3.616   0.849   9.134 -3.7376 -0.2737  0.1241
 2010SOL     OW17662   0.218   3.679  14.481  0.2700 -0.3277  0.1316
 2010SOL    HW117663   0.136   3.646  14.516  0.6677 -0.9575  0.4607
 2010SOL    HW217664   0.205   3.652  14.390 -0.2252 -1.2742  0.4910
 2011SOL     OW17665   4.209   1.828   3.876  0.3209  0.3329  0.0043
 2011SOL    HW117666   4.120   1.864   3.874  1.0688  2.1888 -0.5414
 2011SOL    HW217667   4.254   1.911   3.892 -0.0430  0.6098 -0.3789
 2012SOL     OW17668   2.387   3.119  11.518  0.1079 -0.2984  0.5719
 2012SOL    HW117669   2.468   3.079  11.486  0.5750  0.9491  0.1854
 2012SOL    HW217670   2.353   3.038  11.556  1.1416 -1.0112 -0.0340
 2013SOL     OW17671   2.184   0.427   8.988  0.2693  0.1522 -0.1181
 2013SOL    HW117672   2.166   0.333   8.992 -1.3743  0.4981  0.6904
 2013SOL    HW217673   2.240   0.446   9.063 -0.2567 -0.7849  0.5049
 2014SOL     OW17674   1.743   3.703   2.607  0.2210  0.0924  0.7887
 2014SOL    HW117675   1.790   3.716   2.689 -0.4686  2.2544  0.8616
 2014SOL    HW217676   1.687   3.634   2.643 -0.2192 -0.1259 -0.3205
 2015SOL     OW17677   0.026   1.416   2.066  0.2822 -0.8357 -0.0035
 2015SOL    HW117678   0.067   1.495   2.100 -1.3428 -0.6850  1.5625
 2015SOL    HW217679   0.061   1.414   1.977 -1.0791  0.4159 -0.5510
 2016SOL     OW17680   0.376   3.127  11.564 -0.1011 -0.2069 -0.0866
 2016SOL    HW117681   0.281   3.134  11.553 -0.3194 -3.2403 -0.1945
 2016SOL    HW217682   0.392   3.048  11.513  1.0694  0.3567 -0.6092
 2017SOL     OW17683   3.797   2.499   6.228 -0.1995  0.5597  0.4827
 2017SOL    HW117684   3.703   2.482   6.236 -0.1874  0.8330  1.1903
 2017SOL    HW217685   3.829   2.442   6.299 -1.7700  1.4884  1.9287
 2018SOL     OW17686   4.397   4.356   6.460 -0.5726 -0.3928 -0.3537
 2018SOL    HW117687   4.443   4.272   6.464  1.5617  0.7531 -1.1234
 2018SOL    HW217688   4.349   4.346   6.378  0.0035 -0.1732 -0.7131
 2019SOL     OW17689   1.612   3.972   4.128 -0.3565  0.1049  0.7454
 2019SOL    HW117690   1.642   3.907   4.065 -3.4110 -1.5248  0.9739
 2019SOL    HW217691   1.688   3.980   4.187  1.1519  1.9715 -1.4496
 2020SOL     OW17692   2.706   4.657   9.000  0.0488  0.8423 -0.0398
 2020SOL    HW117693   2.638   4.638   9.065 -0.2515  0.6438 -0.4115
 2020SOL    HW217694   2.646   4.665   8.926 -1.5874 -0.1822  1.1630
 2021SOL     OW17695   4.670   4.468  15.534  0.0010  0.7606  0.4414
 2021SOL    HW117696   4.631   4.388  15.497  1.3132  1.0628 -1.6301
 2021SOL    HW217697   4.648   4.523  15.458 -0.2402 -1.0827 -0.8298
 2022SOL     OW17698   2.828   2.675  14.610  0.4718  0.2247  0.0833
 2022SOL    HW117699   2.857   2.708  14.525  2.5495  0.7884  1.0063
 2022SOL    HW217700   2.793   2.592  14.578  1.4387 -2.2070  5.3684
 2023SOL     OW17701   1.235   2.967   9.175  0.1069 -0.4337 -0.3658
 2023SOL    HW117702   1.218   2.978   9.081 -0.0313  0.9921 -0.1717
 2023SOL    HW217703   1.226   2.872   9.189 -0.9535 -0.2991 -0.1062
 2024SOL     OW17704   0.085   2.878   7.207  0.1100 -0.1337 -0.6777
 2024SOL    HW117705   0.116   2.900   7.119  3.1107  2.7740  1.1044
 2024SOL    HW217706   0.090   2.968   7.238  3.4733 -1.1176  1.6852
 2025SOL     OW17707   0.950   4.428  12.776  0.1169  0.0781 -0.3359
 2025SOL    HW117708   0.894   4.372  12.830  2.3982  0.0322  1.9534
 2025SOL    HW217709   1.033   4.381  12.783  0.5370  0.6952 -1.2564
 2026SOL     OW17710   2.338   2.023  13.786  0.1725  0.6414 -0.1046
 2026SOL    HW117711   2.270   2.022  13.854 -0.2913  0.6972 -0.5601
 2026SOL    HW217712   2.291   1.974  13.719 -0.0425 -0.3611  0.7745
 2027SOL     OW17713   0.856   4.417   1.766  0.0604  0.4871 -0.2254
 2027SOL    HW117714   0.831   4.476   1.695  1.1590  1.8084  0.4885
 2027SOL    HW217715   0.827   4.478   1.834 -2.3388  0.7891 -1.5000
 2028SOL     OW17716   3.808   1.636   4.695 -0.6554 -0.0751 -0.6635
 2028SOL    HW117717   3.804   1.553   4.647  1.6237 -0.6571  0.1623
 2028SOL    HW217718   3.843   1.697   4.630  2.0690 -2.3140 -1.3164
 2029SOL     OW17719   2.637   3.167   6.726 -0.2789  0.0928 -0.2749
 2029SOL    HW117720   2.649   3.257   6.757 -0.4637  0.5645 -1.5870
 2029SOL    HW217721   2.574   3.143   6.794 -3.5863  0.4867 -3.2207
 2030SOL     OW17722   2.079   0.810  12.346 -0.8805 -0.0651 -0.0053
 2030SOL    HW117723   2.127   0.814  12.428 -0.4646 -1.1295 -0.1998
 2030SOL    HW217724   2.033   0.727  12.361 -0.4242 -0.4348 -0.6387
 2031SOL     OW17725   4.580   4.429  11.792 -0.2615  0.2201 -0.1165
 2031SOL    HW117726   4.564   4.421  11.698 -0.8088  0.2699 -0.0244
 2031SOL    HW217727   4.490   4.413  11.818 -0.5522  0.8697 -0.7323
 2032SOL     OW17728   0.243   4.416   6.113 -0.1202  0.2110 -0.6509
 2032SOL    HW117729   0.222   4.323   6.104 -0.4465  0.3012 -0.8414
 2032SOL    HW217730   0.222   4.440   6.023 -0.1802 -3.0343 -1.4980
 2033SOL     OW17731   3.233   1.137   5.601 -0.0446 -0.0987  0.0738
 2033SOL    HW117732   3.196   1.092   5.525 -3.3578 -0.1740  1.7025
 2033SOL    HW217733   3.151   1.152   5.650 -1.2495 -1.8616 -1.4014
 2034SOL     OW17734   3.256   3.185   7.819 -0.3568 -0.6019 -0.3990
 2034SOL    HW117735   3.298   3.128   7.754  2.0569  0.3997  0.2970
 2034SOL    HW217736   3.297   3.267   7.793  1.5241 -1.4739 -0.1729
 2035SOL     OW17737   0.442   1.569   8.692 -0.3405 -0.4680  0.1416
 2035SOL    HW117738   0.400   1.490   8.725 -0.7602  0.6278  2.2688
 2035SOL    HW217739   0.367   1.629   8.681  1.4016  1.3285 -1.9567
 2036SOL     OW17740   3.757   4.009   1.820  0.6284 -0.3443 -0.5400
 2036SOL    HW117741   3.687   3.971   1.872 -1.1276  1.5756 -1.5047
 2036SOL    HW217742   3.788   3.929   1.778  1.1189 -0.9205  0.9496
 2037SOL     OW17743   0.002   4.064   8.986 -0.0350  0.9502  0.1339
 2037SOL    HW117744   0.084   4.035   9.025  0.0780 -2.0416 -2.3868
 2037SOL    HW217745   4.669   4.024   9.039 -1.7465  1.5326 -1.6343
 2038SOL     OW17746   2.445   0.147   0.450 -0.3462 -0.2953  0.2391
 2038SOL    HW117747   2.415   0.192   0.529  0.1054  0.5026 -0.0383
 2038SOL    HW217748   2.503   0.083   0.490  1.5095  0.5312 -1.1203
 2039SOL     OW17749   2.562   2.691   9.040  0.9874 -0.1171 -0.1328
 2039SOL    HW117750   2.639   2.745   9.058  0.0646  0.9690  0.5060
 2039SOL    HW217751   2.608   2.607   9.032 -1.5349 -1.3220 -2.1026
 2040SOL     OW17752   0.697   3.415   7.738  0.1838 -0.1761  0.0140
 2040SOL    HW117753   0.695   3.320   7.739  0.4814 -0.1826  0.1341
 2040SOL    HW217754   0.753   3.427   7.815 -0.3075  2.5083 -0.0235
 2041SOL     OW17755   3.613   1.215   2.724 -0.4337 -0.4190  0.2631
 2041SOL    HW117756   3.640   1.290   2.672 -0.3369 -3.3729 -3.9221
 2041SOL    HW217757   3.522   1.202   2.696  0.1412 -3.7349 -0.0658
 2042SOL     OW17758   2.311   4.005   6.931  0.7432 -0.4060 -0.6019
 2042SOL    HW117759   2.275   3.919   6.954  1.9804 -0.8874 -0.4736
 2042SOL    HW217760   2.349   3.983   6.845 -1.5850  2.3056 -2.3243
 2043SOL     OW17761   1.570   0.342  12.618  0.4017 -0.3790  0.4545
 2043SOL    HW117762   1.503   0.391  12.570 -0.3673 -2.8060 -0.9559
 2043SOL    HW217763   1.530   0.260  12.647  0.2257 -0.6295 -0.4759
 2044SOL     OW17764   2.490   3.765   8.807 -0.2642 -0.0445  0.4172
 2044SOL    HW117765   2.448   3.679   8.808 -0.1630 -0.1820 -4.0645
 2044SOL    HW217766   2.434   3.820   8.861 -0.4865  0.0594  0.0825
 2045SOL     OW17767   3.869   0.929   3.420  0.3154 -0.2913 -0.2504
 2045SOL    HW117768   3.910   0.974   3.346  0.8497  1.8610  1.3684
 2045SOL    HW217769   3.825   0.998   3.470 -1.3289 -0.2381 -1.7709
 2046SOL     OW17770   4.199   2.456   4.553 -0.3866 -0.2595 -0.2472
 2046SOL    HW117771   4.261   2.484   4.621 -0.4795  0.2258 -0.3641
 2046SOL    HW217772   4.112   2.446   4.593 -1.2490  0.7973 -1.8632
 2047SOL     OW17773   1.419   1.898   8.692  0.2905 -0.0968  0.1975
 2047SOL    HW117774   1.387   1.818   8.652  0.5428  0.8960 -1.9973
 2047SOL    HW217775   1.466   1.867   8.769  1.0903 -1.7136 -0.9396
 2048SOL     OW17776   0.810   3.899  16.818  0.4458 -0.1508 -0.0478
 2048SOL    HW117777   0.759   3.922  16.741 -1.4951 -1.6399  0.8181
 2048SOL    HW217778   0.747   3.932  16.882  0.9419  0.2101  0.2561
 2049SOL     OW17779   2.202   0.688   6.566 -0.5658 -0.6512  0.0986
 2049SOL    HW117780   2.168   0.635   6.638 -0.6015  0.4904  0.9271
 2049SOL    HW217781   2.197   0.623   6.497  0.1137 -1.2317  0.5972
 2050SOL     OW17782   0.324   2.947   8.808  0.2363 -0.1187  0.2935
 2050SOL    HW117783   0.350   2.858   8.829  0.9989 -0.3774 -1.7999
 2050SOL    HW217784   0.245   2.957   8.862 -0.2205 -1.3321 -0.1586
 2051SOL     OW17785   1.121   0.031   1.368 -0.3120 -0.0654 -0.1119
 2051SOL    HW117786   1.141   0.125   1.374 -3.2456  0.3628  3.0802
 2051SOL    HW217787   1.166   4.733   1.444 -0.7079  0.3845  0.3261
 2052SOL     OW17788   4.432   2.936   9.393  0.1080 -0.5252  0.5221
 2052SOL    HW117789   4.393   2.861   9.347 -0.8801 -0.6745  1.5905
 2052SOL    HW217790   4.367   3.003   9.412 -0.1586 -1.4639  2.9088
 2053SOL     OW17791   3.843   0.116   0.476 -0.0925 -0.0149  0.0431
 2053SOL    HW117792   3.910   0.047   0.469  0.7672  0.7144  1.0617
 2053SOL    HW217793   3.851   0.139   0.569  0.9551  0.2659 -0.1159
 2054SOL     OW17794   4.704   1.113   6.459 -0.1579 -0.0989 -0.1462
 2054SOL    HW117795   4.623   1.064   6.476  1.4035 -1.8520  2.1890
 2054SOL    HW217796   4.667   1.179   6.401  1.2993  0.8452  0.0169
 2055SOL     OW17797   3.703   4.266  13.665  0.3743  0.2771  0.2532
 2055SOL    HW117798   3.715   4.182  13.620 -2.6914  0.5043 -0.9903
 2055SOL    HW217799   3.684   4.330  13.596  3.5375 -0.2998 -1.1568
 2056SOL     OW17800   1.066   2.017  15.885  0.1703  0.3404 -0.5267
 2056SOL    HW117801   1.127   1.943  15.892 -0.8315 -0.3724  0.7756
 2056SOL    HW217802   0.993   1.967  15.849 -0.5266  2.5526 -2.1774
 2057SOL     OW17803   3.173   3.002   8.307  0.2349 -0.1408  0.1721
 2057SOL    HW117804   3.194   2.911   8.283 -0.0939 -0.2956  0.4761
 2057SOL    HW217805   3.196   3.049   8.227 -1.0269 -0.0517 -0.1349
 2058SOL     OW17806   1.962   2.688   4.359  0.1267  0.4073  0.0730
 2058SOL    HW117807   1.892   2.710   4.297  1.2076 -1.6001 -1.8919
 2058SOL    HW217808   1.919   2.692   4.444  1.9471  2.4589  0.8946
 2059SOL     OW17809   0.967   0.863   3.853 -0.6306  0.6218 -0.0339
 2059SOL    HW117810   1.010   0.852   3.768 -1.7139 -3.2312 -0.0716
 2059SOL    HW217811   1.018   0.813   3.917 -1.1792 -1.0157 -0.8917
 2060SOL     OW17812   0.967   0.690   5.471  0.0499  0.7418  0.1624
 2060SOL    HW117813   0.967   0.772   5.521  0.5170  2.2737 -2.3229
 2060SOL    HW217814   0.981   0.625   5.539  1.9485 -1.1164 -2.0007
 2061SOL     OW17815   0.866   2.492  13.207  0.7546 -0.5447  0.0884
 2061SOL    HW117816   0.903   2.580  13.202  1.8501 -1.1749 -2.8695
 2061SOL    HW217817   0.778   2.508  13.172  0.6405  2.1942  1.7181
 2062SOL     OW17818   1.291   1.243   7.518  0.3469  0.0613 -0.3039
 2062SOL    HW117819   1.349   1.184   7.567 -1.2460  0.1258  1.6492
 2062SOL    HW217820   1.300   1.325   7.567 -1.1319  0.4212 -0.6175
 2063SOL     OW17821   3.242   2.571  17.369  0.5345 -0.7500 -0.2153
 2063SOL    HW117822   3.314   2.627  17.343  1.6238 -0.8728  2.6425
 2063SOL    HW217823   3.202   2.621  17.440  1.9076 -0.9868  0.7102
 2064SOL     OW17824   1.760   1.732  11.546  0.7336  0.4749 -0.8003
 2064SOL    HW117825   1.810   1.651  11.535  0.1019 -0.0898  0.3950
 2064SOL    HW217826   1.772   1.745  11.641 -2.1860  0.1401 -0.3774
 2065SOL     OW17827   3.896   3.788   7.883 -0.4313  0.0135  0.8672
 2065SOL    HW117828   3.866   3.778   7.973 -4.3391 -0.1680 -0.4569
 2065SOL    HW217829   3.873   3.880   7.874  0.1115  0.0435 -0.3339
 2066SOL     OW17830   0.440   4.357  15.603 -0.0552  0.1551  0.2816
 2066SOL    HW117831   0.467   4.288  15.664  0.5510 -1.4619 -1.8096
 2066SOL    HW217832   0.514   4.417  15.611  0.4928 -0.6560  1.5145
 2067SOL     OW17833   4.350   0.762   0.823 -0.1548  0.2197 -0.3227
 2067SOL    HW117834   4.407   0.693   0.854  1.5634  2.4093  1.3428
 2067SOL    HW217835   4.351   0.819   0.900  0.5521 -0.5874  0.2687
 2068SOL     OW17836   0.163   0.826  14.042  0.0742  0.8638  0.0477
 2068SOL    HW117837   0.152   0.919  14.065  0.4715  1.1117 -0.7340
 2068SOL    HW217838   0.089   0.809  13.983 -0.6809 -1.4182  1.6608
 2069SOL     OW17839   2.388   3.694   8.515 -0.4125  0.3155  0.2975
 2069SOL    HW117840   2.326   3.625   8.539 -0.0068 -0.4708 -0.8867
 2069SOL    HW217841   2.430   3.721   8.596 -1.0875 -0.3823  0.8758
 2070SOL     OW17842   0.364   1.678   0.543 -0.3160  0.6435  0.2435
 2070SOL    HW117843   0.313   1.624   0.603 -3.0472  1.4155 -1.3951
 2070SOL    HW217844   0.345   1.631   0.461 -0.4433  2.8964 -1.0164
 2071SOL     OW17845   1.577   4.556   6.439 -0.5462 -0.2918  0.1322
 2071SOL    HW117846   1.494   4.590   6.472 -1.7659 -1.3558 -1.9202
 2071SOL    HW217847   1.587   4.510   6.523  1.7981  0.1392  0.1032
 2072SOL     OW17848   4.494   1.193   5.483  0.0341  0.3005  0.0450
 2072SOL    HW117849   4.556   1.173   5.553 -0.1521 -1.3528 -0.2687
 2072SOL    HW217850   4.436   1.120   5.504  0.8654 -0.5845 -0.7686
 2073SOL     OW17851   4.373   2.145   5.364  0.0350 -0.2803  0.0348
 2073SOL    HW117852   4.461   2.111   5.346  0.2881 -0.3440  1.4330
 2073SOL    HW217853   4.371   2.209   5.293  1.4345 -0.7353 -0.4236
 2074SOL     OW17854   2.693   0.206   5.556 -0.8264 -0.1961 -0.9393
 2074SOL    HW117855   2.626   0.140   5.538 -0.7112 -0.5606 -0.0115
 2074SOL    HW217856   2.634   0.279   5.534 -1.3122 -0.4601 -0.5212
 2075SOL     OW17857   4.712   1.853  16.650 -0.0149 -0.1529  0.7297
 2075SOL    HW117858   0.054   1.877  16.701 -0.8342 -0.2098  2.0281
 2075SOL    HW217859   0.020   1.844  16.566 -0.6029  1.3148  0.2676
 2076SOL     OW17860   1.977   0.171  14.174 -0.2423  0.1610 -0.4672
 2076SOL    HW117861   1.967   0.266  14.177  0.2960  0.2308 -0.7419
 2076SOL    HW217862   1.924   0.152  14.096 -2.8025  0.5039  1.1967
 2077SOL     OW17863   1.138   3.193   4.597 -0.8160 -0.0058 -0.0373
 2077SOL    HW117864   1.105   3.225   4.513 -2.2241  0.2254  0.6169
 2077SOL    HW217865   1.227   3.227   4.613 -1.1738  0.7254  0.4329
 2078SOL     OW17866   3.044   3.578   3.031  0.4248 -0.5053  1.0657
 2078SOL    HW117867   3.020   3.665   2.998 -0.1188 -1.0241  0.1077
 2078SOL    HW217868   2.963   3.547   3.072  1.0237 -2.3157  0.8441
 2079SOL     OW17869   2.550   1.176   6.311 -0.4294  0.0394 -0.6693
 2079SOL    HW117870   2.600   1.123   6.249 -0.8287 -1.5469  0.3539
 2079SOL    HW217871   2.523   1.245   6.251 -1.3931 -0.5173 -0.8847
 2080SOL     OW17872   0.194   2.297  16.123  0.5691 -0.4353 -0.0355
 2080SOL    HW117873   0.273   2.304  16.070  1.5129  1.5920  1.6376
 2080SOL    HW217874   0.159   2.210  16.104  0.4088 -0.5882  0.9757
 2081SOL     OW17875   0.357   4.315  10.166 -0.1513  0.0346 -0.3038
 2081SOL    HW117876   0.430   4.256  10.147  0.1868 -0.1738  1.6401
 2081SOL    HW217877   0.304   4.267  10.230 -1.2083 -1.1633 -2.0697
 2082SOL     OW17878   2.377   3.798   0.014 -0.0479  0.8252  0.8534
 2082SOL    HW117879   2.443   3.828  17.694 -0.3330 -2.4648 -1.0821
 2082SOL    HW217880   2.377   3.872   0.073  2.1919  1.6998 -0.2449
 2083SOL     OW17881   0.622   2.449   4.522 -0.1450  0.3588 -0.0330
 2083SOL    HW117882   0.668   2.487   4.448  0.9573  1.2615  1.1172
 2083SOL    HW217883   0.598   2.363   4.488 -2.7102  1.2094 -0.4256
 2084SOL     OW17884   3.119   3.199   9.423  0.8259 -0.2406 -0.0207
 2084SOL    HW117885   3.084   3.216   9.510 -0.8741  1.5136 -1.0574
 2084SOL    HW217886   3.084   3.269   9.368  3.9573  2.0433  0.8785
 2085SOL     OW17887   2.403   2.881   6.201  0.5034  0.3042  0.0718
 2085SOL    HW117888   2.392   2.975   6.192 -0.7991 -0.0035 -1.5801
 2085SOL    HW217889   2.463   2.881   6.275 -1.1500  1.7487  1.4011
 2086SOL     OW17890   2.182   1.793   6.585 -0.3643 -0.2009  0.4654
 2086SOL    HW117891   2.157   1.708   6.547  0.7800 -0.6987  0.8101
 2086SOL    HW217892   2.124   1.788   6.660 -2.1046  0.2311 -0.8522
 2087SOL     OW17893   3.699   2.208   2.196 -0.1082 -0.2678  0.2367
 2087SOL    HW117894   3.751   2.128   2.187 -0.8052 -0.6826 -0.0390
 2087SOL    HW217895   3.709   2.227   2.289 -3.2899 -0.9723  0.6888
 2088SOL     OW17896   0.744   3.991   6.628  0.2390 -0.1084  0.1052
 2088SOL    HW117897   0.800   4.068   6.636 -0.4745  0.4843 -0.5291
 2088SOL    HW217898   0.769   3.940   6.705 -0.9228  0.1104  0.6222
 2089SOL     OW17899   0.321   0.930   6.134  0.6302 -0.5178  0.5495
 2089SOL    HW117900   0.286   0.989   6.200  1.2791  0.2901  0.1615
 2089SOL    HW217901   0.414   0.954   6.135  0.7733 -1.0869  1.5589
 2090SOL     OW17902   0.137   0.214   4.215  0.1279  0.6108  0.0389
 2090SOL    HW117903   0.159   0.302   4.184  0.7868  0.7160  0.8119
 2090SOL    HW217904   0.199   0.194   4.285  0.7657 -0.7389 -0.9174
 2091SOL     OW17905   0.999   3.033  15.136  0.8299  0.1296  0.1835
 2091SOL    HW117906   0.983   2.999  15.224  1.1671  0.2310  0.2858
 2091SOL    HW217907   1.095   3.033  15.135  0.7865 -0.2896 -2.2299
 2092SOL     OW17908   1.413   3.784   4.064 -0.4362 -0.4655 -0.2449
 2092SOL    HW117909   1.480   3.846   4.093  0.4797 -1.1995 -0.8106
 2092SOL    HW217910   1.401   3.805   3.972  0.4180  0.1043 -0.2203
 2093SOL     OW17911   0.629   2.911  11.155  0.0913 -0.4061 -0.0282
 2093SOL    HW117912   0.630   2.817  11.135 -0.7175 -0.3011 -0.5802
 2093SOL    HW217913   0.534   2.923  11.152  0.1184 -0.1948 -0.0460
 2094SOL     OW17914   0.370   2.125  17.453  0.2534  0.4175  0.1187
 2094SOL    HW117915   0.355   2.031  17.448 -1.4844  0.5877  1.7429
 2094SOL    HW217916   0.426   2.129  17.531  1.1763 -0.3896 -0.5122
 2095SOL     OW17917   2.856   1.673   3.781 -0.4785  0.2874  0.1937
 2095SOL    HW117918   2.874   1.580   3.794  0.4578  0.4190 -0.1735
 2095SOL    HW217919   2.890   1.700   3.867 -0.2834 -1.0182  0.5208
 2096SOL     OW17920   3.647   1.716   2.568 -0.0708 -0.1835 -0.1321
 2096SOL    HW117921   3.730   1.762   2.582  1.1638 -3.1129  2.3455
 2096SOL    HW217922   3.583   1.730   2.637 -0.8558  0.0032 -0.8903
 2097SOL     OW17923   0.374   1.097   7.359  0.0034  0.2817  0.0491
 2097SOL    HW117924   0.304   1.048   7.401  1.0203  0.3491  1.8117
 2097SOL    HW217925   0.438   1.106   7.430 -0.4850 -0.5516  0.5880
 2098SOL     OW17926   3.239   0.514   6.945  0.0732  0.2561  0.0079
 2098SOL    HW117927   3.228   0.422   6.924 -0.8402  0.3333  0.1623
 2098SOL    HW217928   3.154   0.555   6.932 -0.0324  0.1110  0.2325
 2099SOL     OW17929   1.092   3.715   3.593  0.0967 -0.0785  0.2513
 2099SOL    HW117930   0.997   3.704   3.587  0.0880  0.2977 -0.2924
 2099SOL    HW217931   1.112   3.806   3.614 -0.2883  0.1003 -0.1614
 2100SOL     OW17932   3.243   3.377   8.415  0.3835  0.0540  0.1827
 2100SOL    HW117933   3.277   3.429   8.488  1.2251 -1.2637  0.7301
 2100SOL    HW217934   3.161   3.348   8.454  1.0367 -0.1989  1.3580
 2101SOL     OW17935   4.277   0.904  17.731  0.3624 -0.3992 -0.4147
 2101SOL    HW117936   4.362   0.923   0.028  0.7840  1.4334 -2.1471
 2101SOL    HW217937   4.251   0.991  17.701 -2.2548 -0.1156  2.7804
 2102SOL     OW17938   1.783   2.428   7.835 -0.9180 -0.2223  0.1166
 2102SOL    HW117939   1.742   2.480   7.904 -0.4331  1.0123 -0.5193
 2102SOL    HW217940   1.856   2.385   7.878 -1.2259 -1.4683 -0.6208
 2103SOL     OW17941   4.221   0.634  14.458  0.8819 -0.0797 -0.4816
 2103SOL    HW117942   4.290   0.568  14.467 -0.1047 -1.3182 -1.9077
 2103SOL    HW217943   4.279   0.709  14.451  0.2259  0.6359  1.8219
 2104SOL     OW17944   2.963   0.822   8.933  0.8280 -0.4258 -0.0132
 2104SOL    HW117945   2.994   0.755   8.873  0.3466  0.7230 -1.5430
 2104SOL    HW217946   2.938   0.894   8.876  0.1404  0.4263  1.3584
 2105SOL     OW17947   1.216   2.775   9.455  0.2873  0.0503  0.1370
 2105SOL    HW117948   1.299   2.815   9.479  0.5774 -1.3850  1.4945
 2105SOL    HW217949   1.214   2.702   9.517  1.5348 -0.8507 -0.8745
 2106SOL     OW17950   0.406   3.063   5.335 -0.2493 -0.0292 -0.0743
 2106SOL    HW117951   0.437   3.132   5.393  0.5758 -0.6227  0.1842
 2106SOL    HW217952   0.466   2.989   5.346 -1.1619 -1.0009 -1.6597
 2107SOL     OW17953   4.614   2.090  16.297  0.1541  0.7402 -0.1091
 2107SOL    HW117954   4.647   2.140  16.371 -0.7646  0.1155  0.7188
 2107SOL    HW217955   4.619   2.163  16.235  0.4837 -0.2742 -1.2731
 2108SOL     OW17956   4.303   2.444   2.391  0.4075  0.5772  0.6148
 2108SOL    HW117957   4.292   2.528   2.347  0.0437 -0.0370 -0.4707
 2108SOL    HW217958   4.387   2.462   2.434  0.8758  0.6138 -0.3067
 2109SOL     OW17959   0.114   1.512   5.879 -0.0236 -0.2170 -0.1385
 2109SOL    HW117960   0.176   1.584   5.873 -1.2591  0.9034  0.5597
 2109SOL    HW217961   0.152   1.455   5.813 -0.0346 -0.7739  0.3355
 2110SOL     OW17962   2.134   0.421  11.136  0.4512 -0.5506  0.1329
 2110SOL    HW117963   2.151   0.402  11.228 -1.7414 -0.5052  0.5342
 2110SOL    HW217964   2.174   0.507  11.123  2.5026 -1.2676  1.8109
 2111SOL     OW17965   4.629   4.167   3.501  0.1853  0.0287  0.1649
 2111SOL    HW117966   4.575   4.106   3.451 -0.9375  1.1087  0.0609
 2111SOL    HW217967   4.695   4.105   3.533 -0.6295 -0.7782  0.2935
 2112SOL     OW17968   2.574   0.682  12.388 -0.0814 -0.0152  0.3553
 2112SOL    HW117969   2.664   0.676  12.357 -0.2612 -0.7919  0.0037
 2112SOL    HW217970   2.546   0.772  12.373  4.2372  1.3278  0.3870
 2113SOL     OW17971   1.719   4.318  13.590 -0.3763 -0.4371 -0.2878
 2113SOL    HW117972   1.676   4.275  13.664 -2.5683  1.0219 -0.7461
 2113SOL    HW217973   1.636   4.339  13.548  0.1121  1.3305 -0.3541
 2114SOL     OW17974   1.392   0.802   7.037 -0.0188 -0.3660  0.6448
 2114SOL    HW117975   1.369   0.889   7.005  0.8458 -0.0805  0.7967
 2114SOL    HW217976   1.438   0.827   7.117  0.1506  0.7410  0.1976
 2115SOL     OW17977   4.341   3.609  15.434  0.7375 -0.3503  0.3923
 2115SOL    HW117978   4.337   3.704  15.421  0.9603 -0.1931  1.4464
 2115SOL    HW217979   4.313   3.574  15.350  1.2891 -0.2242  0.1575
 2116SOL     OW17980   0.707   4.443  15.646  0.3788 -0.4997 -0.3083
 2116SOL    HW117981   0.784   4.431  15.702  0.4116 -0.8890 -0.4388
 2116SOL    HW217982   0.749   4.420  15.564 -0.9257  1.2051 -1.4397
 2117SOL     OW17983   2.858   0.132   0.808  0.1377 -0.0797  0.3804
 2117SOL    HW117984   2.809   0.146   0.889  0.9316  1.5282  0.5845
 2117SOL    HW217985   2.790   0.153   0.744  0.3820 -2.0367 -0.5035
 2118SOL     OW17986   1.072   1.943   3.581 -0.5586  0.1823  0.4073
 2118SOL    HW117987   0.994   1.905   3.541 -0.0501  0.4351 -0.8119
 2118SOL    HW217988   1.118   1.860   3.596  0.6556  0.6692 -0.6540
 2119SOL     OW17989   1.031   3.408  17.357 -0.1652 -0.4409 -0.1178
 2119SOL    HW117990   1.045   3.374  17.268  1.7360 -0.3064  0.1281
 2119SOL    HW217991   0.957   3.464  17.336  0.0970 -0.2601 -0.5603
 2120SOL     OW17992   3.664   4.284   1.771  0.7281 -0.2065 -0.6966
 2120SOL    HW117993   3.677   4.196   1.805 -2.5438  0.1101  1.4231
 2120SOL    HW217994   3.571   4.289   1.747  0.3075 -1.4119  0.6573
 2121SOL     OW17995   4.451   1.754   8.797 -0.8328 -0.4673  0.5933
 2121SOL    HW117996   4.466   1.838   8.841  0.5628  0.2266 -1.2157
 2121SOL    HW217997   4.538   1.752   8.757 -1.4709 -0.0361 -0.8050
 2122SOL     OW17998   3.800   4.312   4.955  0.6573 -0.4048 -0.2604
 2122SOL    HW117999   3.775   4.250   4.887 -0.1462 -0.8653  0.4522
 2122SOL    HW218000   3.839   4.378   4.898 -2.0764  2.0416  0.7226
 2123SOL     OW18001   4.478   3.751   8.860 -0.2214 -0.2066  0.3608
 2123SOL    HW118002   4.427   3.709   8.790  0.9650 -1.7469  0.4146
 2123SOL    HW218003   4.494   3.686   8.928 -0.5298  0.2778  0.8905
 2124SOL     OW18004   0.970   3.748   5.878  0.7488 -0.1155 -0.1241
 2124SOL    HW118005   0.911   3.811   5.836 -1.8467 -1.4500  1.5328
 2124SOL    HW218006   0.955   3.663   5.837  2.6374 -0.8878  0.7827
 2125SOL     OW18007   1.253   2.595   7.934  0.2107 -0.0098 -0.1032
 2125SOL    HW118008   1.167   2.572   7.899  0.3410 -0.8308  0.1114
 2125SOL    HW218009   1.317   2.526   7.915 -0.1982 -0.7229  1.1433
 2126SOL     OW18010   4.504   2.753  10.514  0.0680 -0.3187  0.2389
 2126SOL    HW118011   4.479   2.721  10.601  0.6941 -1.8560 -0.1454
 2126SOL    HW218012   4.434   2.717  10.460  0.9826 -0.4376 -0.8647
 2127SOL     OW18013   1.245   3.098  17.603  0.5723 -0.3125 -0.1206
 2127SOL    HW118014   1.336   3.073  17.618 -0.1992 -1.9383  1.8697
 2127SOL    HW218015   1.240   3.096  17.508  0.0383 -0.2362 -0.0944
 2128SOL     OW18016   0.842   3.611   7.473  0.0159  0.4857  0.2270
 2128SOL    HW118017   0.934   3.600   7.447  0.3543 -0.1551  1.7180
 2128SOL    HW218018   0.829   3.705   7.464 -0.3371  0.4286  0.1546
 2129SOL     OW18019   4.504   2.863   7.812  0.0257  0.3489  0.3964
 2129SOL    HW118020   4.452   2.858   7.892 -1.2938 -1.3448 -0.5742
 2129SOL    HW218021   4.432   2.839   7.755 -1.3746  1.3730  1.7212
 2130SOL     OW18022   2.507   0.304   8.211 -0.4417 -0.1571 -0.3776
 2130SOL    HW118023   2.599   0.312   8.184  0.4508 -1.3888  2.2728
 2130SOL    HW218024   2.508   0.221   8.259 -1.3306 -0.3664 -0.7218
 2131SOL     OW18025   3.643   2.619   5.757 -0.4502 -0.3889 -0.5331
 2131SOL    HW118026   3.723   2.646   5.802 -0.1177 -0.9369 -0.7918
 2131SOL    HW218027   3.588   2.694   5.781  0.4295  0.1071 -0.0488
 2132SOL     OW18028   3.736   4.130  15.767  0.4428  0.4345  0.2455
 2132SOL    HW118029   3.674   4.067  15.729  2.0313 -0.0393 -1.5827
 2132SOL    HW218030   3.759   4.175  15.686  1.4473  0.8285  0.7583
 2133SOL     OW18031   2.787   4.636  10.163 -0.0530  0.2380  0.0994
 2133SOL    HW118032   2.873   4.630  10.121  0.6046 -2.5449  1.7966
 2133SOL    HW218033   2.722   4.653  10.095  1.4435  0.4498 -1.2821
 2134SOL     OW18034   2.594   3.685   5.456  0.3754 -0.2410  0.3489
 2134SOL    HW118035   2.628   3.694   5.545  1.0396  1.9016 -0.1357
 2134SOL    HW218036   2.592   3.777   5.431 -0.0372  0.1264  1.7437
 2135SOL     OW18037   3.957   3.000   4.109  0.3149  0.1542  0.2191
 2135SOL    HW118038   4.021   2.946   4.156 -0.6917 -0.8172  0.4650
 2135SOL    HW218039   3.890   3.000   4.178  0.9908 -0.3775  0.8817
 2136SOL     OW18040   4.250   1.941  16.607 -0.4416 -0.1704 -0.2118
 2136SOL    HW118041   4.210   2.008  16.553 -0.1863  0.2288  0.0912
 2136SOL    HW218042   4.206   1.945  16.692  2.1099 -0.8782  1.1496
 2137SOL     OW18043   4.690   3.865   8.752 -0.1266  0.0856 -0.0362
 2137SOL    HW118044   4.614   3.814   8.781 -0.9217  0.0226 -2.3047
 2137SOL    HW218045   4.665   3.949   8.790  1.0458  0.3368  0.1831
 2138SOL     OW18046   0.910   4.349  17.591  0.4074  0.9625  0.0425
 2138SOL    HW118047   0.850   4.409  17.635 -1.4115  1.1244 -2.6471
 2138SOL    HW218048   0.921   4.279  17.655 -2.9670  1.0052  0.6703
 2139SOL     OW18049   3.212   2.758  14.136  0.0709  0.9590 -0.0324
 2139SOL    HW118050   3.118   2.751  14.118  0.3033  1.3752 -1.3948
 2139SOL    HW218051   3.236   2.688  14.076 -2.7365 -1.1770  1.3233
 2140SOL     OW18052   3.370   1.673  10.183  0.2485  0.7436 -0.7498
 2140SOL    HW118053   3.451   1.622  10.175  0.2750  0.7710 -0.6577
 2140SOL    HW218054   3.360   1.698  10.091 -0.7297 -0.9641 -1.1210
 2141SOL     OW18055   4.359   1.422   6.600 -0.0805  0.0196  0.0118
 2141SOL    HW118056   4.343   1.381   6.515  0.2857  0.0563 -0.0733
 2141SOL    HW218057   4.451   1.404   6.619 -0.6033 -1.1365  1.4051
 2142SOL     OW18058   3.781   0.332   7.839  0.1807  0.2985 -0.1568
 2142SOL    HW118059   3.688   0.354   7.837  0.1546  0.3072  1.1889
 2142SOL    HW218060   3.785   0.303   7.748 -1.2158  0.6146 -0.3209
 2143SOL     OW18061   4.203   4.701   6.443 -0.1657  0.0178  0.0214
 2143SOL    HW118062   4.167   4.723   6.529  1.1188 -0.4818  0.6948
 2143SOL    HW218063   4.216   0.053   6.408 -0.6192  0.2187  0.3635
 2144SOL     OW18064   2.984   4.152   3.480 -0.3407 -0.2480 -0.0113
 2144SOL    HW118065   2.957   4.079   3.424 -0.2437  0.0081 -0.3968
 2144SOL    HW218066   3.074   4.128   3.502  0.1419  1.6968  0.1507
 2145SOL     OW18067   0.432   3.073   8.562 -0.5177  0.0090  0.1874
 2145SOL    HW118068   0.344   3.036   8.559 -0.5613 -0.0766  2.5304
 2145SOL    HW218069   0.463   3.063   8.652 -2.4651 -0.3811  0.8178
 2146SOL     OW18070   3.908   4.562   1.275  0.1162  0.0501  0.0496
 2146SOL    HW118071   3.843   4.557   1.205  0.6397 -1.9018 -0.3051
 2146SOL    HW218072   3.980   4.511   1.237  0.6979  0.0845  1.1047
 2147SOL     OW18073   1.461   3.699   7.597 -0.1724  0.1747 -0.1974
 2147SOL    HW118074   1.518   3.746   7.657 -3.4849 -0.6760  3.5910
 2147SOL    HW218075   1.372   3.724   7.620  0.8312  1.4287  2.3560
 2148SOL     OW18076   4.181   0.411  11.290  0.3322  0.2927 -0.2002
 2148SOL    HW118077   4.169   0.467  11.367  1.1074 -2.5806  1.9979
 2148SOL    HW218078   4.133   0.457  11.222  4.5083  1.9210 -2.0318
 2149SOL     OW18079   1.930   0.803   6.509 -0.1312  0.1337 -0.1019
 2149SOL    HW118080   1.877   0.773   6.435 -2.0991  2.0299  0.5087
 2149SOL    HW218081   2.019   0.792   6.477  0.6051  0.4397  1.8387
 2150SOL     OW18082   1.689   3.477   2.103 -0.0779  0.4053 -0.2995
 2150SOL    HW118083   1.744   3.543   2.146  1.6152 -0.3123 -1.3481
 2150SOL    HW218084   1.700   3.506   2.013 -0.2399  0.5520 -0.2712
 2151SOL     OW18085   0.489   1.726   7.019 -0.1565  0.1760 -0.4535
 2151SOL    HW118086   0.432   1.769   6.956 -0.6186 -1.3217 -1.0670
 2151SOL    HW218087   0.440   1.743   7.099  1.3639 -0.6471  0.6566
 2152SOL     OW18088   0.691   0.024   6.911  0.0738 -0.3873 -0.3540
 2152SOL    HW118089   0.738   0.105   6.930 -0.8781 -0.0599  0.6192
 2152SOL    HW218090   0.653   0.048   6.827  0.9976  3.3494  0.3040
 2153SOL     OW18091   0.072   3.307   9.084 -0.8060 -0.1549 -0.3343
 2153SOL    HW118092   0.124   3.383   9.109 -1.7455 -0.4925  2.6748
 2153SOL    HW218093   0.016   3.298   9.161 -1.6825 -0.1168 -0.9669
 2154SOL     OW18094   1.318   2.655   7.334  0.3252  0.0325  0.9710
 2154SOL    HW118095   1.354   2.570   7.359  0.8936  0.0367  0.1295
 2154SOL    HW218096   1.322   2.647   7.239 -0.0065  1.6583  0.8049
 2155SOL     OW18097   2.943   1.800   2.511 -0.7033  0.2765  0.0022
 2155SOL    HW118098   2.996   1.878   2.496 -1.6260  1.1627  1.2908
 2155SOL    HW218099   2.924   1.785   2.419  0.7473  0.1617 -0.2724
 2156SOL     OW18100   3.974   2.562   7.252  0.8895  0.7434 -0.3155
 2156SOL    HW118101   4.067   2.581   7.233  0.6087  1.3570 -1.0942
 2156SOL    HW218102   3.996   2.490   7.310  1.1500  1.6482  0.7211
 2157SOL     OW18103   4.063   2.068   5.781  0.2423 -0.1591 -0.2284
 2157SOL    HW118104   4.090   2.066   5.872  1.3346 -2.2587 -0.6101
 2157SOL    HW218105   4.130   2.126   5.744 -1.0533  0.8250 -1.0558
 2158SOL     OW18106   0.504   3.449   9.062  0.1226 -0.4650 -0.1184
 2158SOL    HW118107   0.593   3.480   9.042  0.1110  0.0393  0.6269
 2158SOL    HW218108   0.448   3.490   8.996  1.3783  1.8789  0.2328
 2159SOL     OW18109   0.000   0.628  17.170 -0.0338 -0.3808 -0.0778
 2159SOL    HW118110   4.699   0.663  17.089  0.7536 -0.9509 -0.6962
 2159SOL    HW218111   4.681   0.652  17.244 -0.1740 -0.3335 -0.1983
 2160SOL     OW18112   4.265   1.055   3.814 -0.0627  0.2848 -0.0979
 2160SOL    HW118113   4.222   1.091   3.892  0.1548  0.6944 -0.1701
 2160SOL    HW218114   4.232   0.965   3.809 -1.8391  0.9762 -0.8452
 2161SOL     OW18115   3.373   1.687   7.795 -0.3840 -0.8822 -0.3191
 2161SOL    HW118116   3.336   1.623   7.734  1.1518 -2.1779  0.1322
 2161SOL    HW218117   3.468   1.681   7.787 -0.4226 -1.0225 -0.7187
 2162SOL     OW18118   1.836   4.018   7.041 -0.0049 -0.4084 -0.2938
 2162SOL    HW118119   1.843   4.113   7.038 -0.0788 -0.3808  0.5832
 2162SOL    HW218120   1.887   3.997   6.962 -0.3135 -1.0396 -0.3249
 2163SOL     OW18121   0.712   0.893   5.166 -0.1222 -0.9292  1.2135
 2163SOL    HW118122   0.805   0.903   5.145 -0.6355  1.5337  0.0753
 2163SOL    HW218123   0.693   0.800   5.155  0.0412 -0.8898  0.6011
 2164SOL     OW18124   3.299   2.463   4.337  0.2407  0.1580  0.1368
 2164SOL    HW118125   3.323   2.548   4.299  0.2137 -0.0490 -0.3365
 2164SOL    HW218126   3.228   2.483   4.398 -0.4791  0.9752 -0.9658
 2165SOL     OW18127   3.947   0.597  16.419  0.0634  0.2904  0.0970
 2165SOL    HW118128   4.042   0.598  16.429 -0.0047 -1.0708  0.8316
 2165SOL    HW218129   3.939   0.606  16.324  0.4558  1.4470  0.1772
 2166SOL     OW18130   1.598   2.267  11.437  0.3715  0.2068  0.5326
 2166SOL    HW118131   1.667   2.251  11.501  0.4006  0.4874  0.5719
 2166SOL    HW218132   1.607   2.189  11.382  0.0618 -1.5130  2.9156
 2167SOL     OW18133   2.515   4.176   5.511  0.1811  0.6919 -0.5991
 2167SOL    HW118134   2.469   4.161   5.593  1.3001  1.6238  0.2023
 2167SOL    HW218135   2.481   4.260   5.479 -0.4709  0.3746 -0.7379
 2168SOL     OW18136   3.062   1.332   7.215  0.3155  0.2230  0.2164
 2168SOL    HW118137   3.016   1.267   7.269  0.5077 -0.5693 -0.5767
 2168SOL    HW218138   3.058   1.410   7.270  0.3966  0.7623 -0.5464
 2169SOL     OW18139   4.456   3.821   0.086 -0.3280  0.3122 -0.0703
 2169SOL    HW118140   4.376   3.783   0.051  0.7600 -0.6765 -1.5140
 2169SOL    HW218141   4.416   3.854   0.167  2.4264 -0.1074  1.4637
 2170SOL     OW18142   4.430   1.830   6.400 -0.0905  0.5385 -0.8918
 2170SOL    HW118143   4.509   1.781   6.425  0.4283  1.6686 -0.3020
 2170SOL    HW218144   4.368   1.760   6.377  1.4666 -1.4848  1.0533
 2171SOL     OW18145   1.911   0.598   7.984 -0.2816 -0.1871 -0.3114
 2171SOL    HW118146   2.004   0.585   8.002 -0.4470  0.2917  0.9040
 2171SOL    HW218147   1.902   0.686   7.948 -1.3544 -0.5674 -0.9640
 2172SOL     OW18148   3.025   2.518   4.150  0.7822 -0.1476  0.7945
 2172SOL    HW118149   3.083   2.594   4.161  0.0169  0.5903 -0.3001
 2172SOL    HW218150   2.936   2.551   4.140  0.5643 -0.5644  1.3721
 2173SOL     OW18151   2.306   2.030   3.245 -0.0253  0.1955 -0.1857
 2173SOL    HW118152   2.295   2.013   3.152 -0.0376  2.0956 -0.5293
 2173SOL    HW218153   2.296   2.125   3.250 -0.2718  0.1554  0.0734
 2174SOL     OW18154   0.141   3.294   4.255 -0.3877 -0.0369  0.5654
 2174SOL    HW118155   0.103   3.224   4.201  2.0372 -0.8212 -0.1333
 2174SOL    HW218156   0.215   3.241   4.285  0.5236  1.5150  1.0714
 2175SOL     OW18157   1.744   4.421  10.208  0.3834 -0.7814 -0.3935
 2175SOL    HW118158   1.716   4.501  10.252  2.5162  0.3439 -1.0804
 2175SOL    HW218159   1.664   4.369  10.198 -1.0383  1.4894 -0.6873
 2176SOL     OW18160   1.146   2.034   7.829 -0.4018  0.0009  0.2294
 2176SOL    HW118161   1.183   2.032   7.917  1.9218  1.7090 -0.6941
 2176SOL    HW218162   1.220   2.053   7.771  0.8535 -1.6425  1.3253
 2177SOL     OW18163   0.576   4.156   0.888  0.4821 -0.1848  0.0907
 2177SOL    HW118164   0.568   4.061   0.901  0.7466 -0.4044 -1.3865
 2177SOL    HW218165   0.521   4.185   0.960  0.7814 -0.9955  0.6525
 2178SOL     OW18166   3.465   2.849   8.239 -0.6428 -0.0475 -0.2339
 2178SOL    HW118167   3.544   2.900   8.225  0.5341 -1.8080  0.0487
 2178SOL    HW218168   3.461   2.841   8.334 -0.7625  2.9559  0.0236
 2179SOL     OW18169   4.421   4.730   8.679  0.2747  0.3064 -0.1690
 2179SOL    HW118170   4.360   4.731   8.605  2.9389  1.3499 -2.3253
 2179SOL    HW218171   4.423   0.087   8.699 -0.6728  0.2903  0.0094
 2180SOL     OW18172   4.695   1.341   3.693 -0.1107 -0.3956  0.1433
 2180SOL    HW118173   4.646   1.340   3.611  2.2967 -0.7883 -1.2993
 2180SOL    HW218174   4.628   1.304   3.750  2.6640 -0.9164  3.0510
 2181SOL     OW18175   4.586   3.232  15.564  0.4927 -0.5742  0.3892
 2181SOL    HW118176   4.584   3.313  15.514 -0.1045 -0.1179  1.1450
 2181SOL    HW218177   4.596   3.269  15.652 -0.7923  1.8364 -0.4619
 2182SOL     OW18178   1.221   4.050   3.988  0.2387 -0.2824  0.5859
 2182SOL    HW118179   1.145   4.061   3.930  2.3182  2.0986 -1.6705
 2182SOL    HW218180   1.255   3.974   3.941  0.8381  1.2408 -1.4612
 2183SOL     OW18181   3.379   3.891   9.083 -0.0582  0.0151 -0.2013
 2183SOL    HW118182   3.474   3.890   9.092  0.0474  3.4460 -0.7026
 2183SOL    HW218183   3.356   3.799   9.069  2.2727 -0.3359 -1.7456
 2184SOL     OW18184   0.380   1.943   3.748 -0.1644  0.1666  0.2895
 2184SOL    HW118185   0.435   2.021   3.756 -2.0506  1.3402  1.7770
 2184SOL    HW218186   0.330   1.959   3.667 -1.6433 -2.0131  0.7706
 2185SOL     OW18187   3.793   2.272   7.825  0.2985  0.0767  0.1546
 2185SOL    HW118188   3.722   2.304   7.880  1.7650 -2.4590  3.5417
 2185SOL    HW218189   3.831   2.357   7.804  3.1942 -0.8917  1.5346
 2186SOL     OW18190   3.398   4.051   9.311 -0.6062 -0.4782  0.1334
 2186SOL    HW118191   3.478   4.027   9.358 -0.3323  2.2989  1.0669
 2186SOL    HW218192   3.415   4.022   9.221 -0.7800  1.0097 -0.3831
 2187SOL     OW18193   1.785   0.154   2.833  0.1640 -0.3744 -0.2170
 2187SOL    HW118194   1.801   0.073   2.784 -1.4422 -0.6336 -0.3230
 2187SOL    HW218195   1.823   0.212   2.767 -0.0109  0.8866  0.7925
 2188SOL     OW18196   4.579   1.262   7.059 -0.3011  0.6244  0.1228
 2188SOL    HW118197   4.561   1.220   7.143  3.6293 -0.2270  0.5322
 2188SOL    HW218198   4.602   1.349   7.092  0.8939  0.3984 -0.1201
 2189SOL     OW18199   2.984   4.277   4.081 -0.5701  0.4141 -0.4061
 2189SOL    HW118200   3.029   4.212   4.136 -0.0455 -0.1126 -1.4636
 2189SOL    HW218201   2.896   4.285   4.117 -0.6521  0.5077 -0.6310
 2190SOL     OW18202   0.226   2.496  15.732  0.0105  1.2187  0.2940
 2190SOL    HW118203   0.229   2.591  15.737 -0.5772  1.3710 -2.5110
 2190SOL    HW218204   0.147   2.488  15.680  0.4335  0.7511 -0.2849
 2191SOL     OW18205   3.772   0.261   1.511  0.6771  0.1678 -0.0831
 2191SOL    HW118206   3.762   0.209   1.432  1.8713  0.2133 -0.2615
 2191SOL    HW218207   3.688   0.241   1.552 -0.7042  2.3976 -1.7980
 2192SOL     OW18208   2.360   3.249  11.077  0.0689 -0.5577 -0.4598
 2192SOL    HW118209   2.354   3.155  11.063  0.1838 -0.7435  0.7594
 2192SOL    HW218210   2.402   3.252  11.163  0.0463 -0.6265 -0.4468
 2193SOL     OW18211   4.717   1.252   5.241  0.1710 -0.1037 -0.1943
 2193SOL    HW118212   0.010   1.310   5.311  2.8310 -1.6969  0.0133
 2193SOL    HW218213   4.704   1.169   5.288 -0.1794  1.6713  2.8159
 2194SOL     OW18214   0.924   2.899   8.081  0.3561  0.3587 -0.0868
 2194SOL    HW118215   0.866   2.886   8.005  0.7940  1.4191 -0.6101
 2194SOL    HW218216   0.936   2.809   8.109  1.3796  0.6060  0.2545
 2195SOL     OW18217   1.271   3.571   3.697 -0.0419 -0.0381  0.2328
 2195SOL    HW118218   1.339   3.631   3.668  0.7576 -1.8115 -1.5085
 2195SOL    HW218219   1.196   3.621   3.665 -0.8730 -0.6811  1.1779
 2196SOL     OW18220   0.401   3.605   5.091 -0.2101 -0.6204  0.1302
 2196SOL    HW118221   0.438   3.615   5.003  3.3842  2.0494  1.9558
 2196SOL    HW218222   0.421   3.517   5.121 -0.0524  0.3283  2.7973
 2197SOL     OW18223   3.853   2.070   9.739 -0.9750 -0.6081 -0.3874
 2197SOL    HW118224   3.802   2.146   9.765  0.5307 -0.3929  1.9001
 2197SOL    HW218225   3.836   2.011   9.812 -0.8242  1.2552  1.1386
 2198SOL     OW18226   0.321   1.470   1.775  0.5840  0.6394 -0.0178
 2198SOL    HW118227   0.335   1.458   1.869  2.4661  1.2939 -0.2214
 2198SOL    HW218228   0.261   1.544   1.779  1.1363  1.0393  0.9925
 2199SOL     OW18229   0.616   1.953   5.334  0.2706  0.0936 -0.5308
 2199SOL    HW118230   0.601   2.048   5.331 -1.7942 -0.1857  0.9070
 2199SOL    HW218231   0.700   1.951   5.380 -0.1202 -1.0466  0.1195
 2200SOL     OW18232   0.752   0.012  17.425 -0.2026 -0.0408 -0.2201
 2200SOL    HW118233   0.810   0.086  17.408 -0.4108  0.1611 -0.0422
 2200SOL    HW218234   0.822   4.694  17.461 -2.1007 -2.9353 -0.9014
 2201SOL     OW18235   1.739   2.795  10.977 -0.3509 -0.1446  0.3578
 2201SOL    HW118236   1.688   2.750  10.909 -1.0912  0.8272  0.2808
 2201SOL    HW218237   1.689   2.783  11.057  0.1550 -0.8320  0.5803
 2202SOL     OW18238   3.908   2.507   7.773  0.6109  0.3510 -0.3960
 2202SOL    HW118239   3.894   2.549   7.688  0.2262  1.4574  0.2116
 2202SOL    HW218240   3.995   2.533   7.801 -0.1019 -0.5465  2.6718
 2203SOL     OW18241   4.106   4.104   6.032 -0.0037 -0.0691 -0.2812
 2203SOL    HW118242   4.112   4.017   6.072  0.6840  0.2810  0.3924
 2203SOL    HW218243   4.192   4.120   5.993 -1.9658  2.0987 -3.6537
 2204SOL     OW18244   3.156   4.039   4.129  0.4878 -0.6256  0.6532
 2204SOL    HW118245   3.119   3.995   4.206 -0.2419  0.3033  0.8357
 2204SOL    HW218246   3.244   4.060   4.160  1.0964 -2.3260  0.0837
 2205SOL     OW18247   1.770   0.030   1.140 -0.6129  0.4896 -0.0439
 2205SOL    HW118248   1.702   0.046   1.205  3.1380  0.7322  3.8169
 2205SOL    HW218249   1.737   4.676   1.131  0.4438  0.1319 -0.3622
 2206SOL     OW18250   4.354   3.793   7.781 -0.5383  0.2916  0.0252
 2206SOL    HW118251   4.422   3.859   7.799  0.4527 -1.0104  1.1409
 2206SOL    HW218252   4.278   3.845   7.757  0.0656  0.0262 -2.4458
 2207SOL     OW18253   4.013   1.815   7.077  0.2012 -0.4795 -0.1953
 2207SOL    HW118254   4.038   1.724   7.091 -0.4450 -0.4884  0.8788
 2207SOL    HW218255   4.060   1.825   6.994  1.4248  1.6737  0.7622
 2208SOL     OW18256   4.721   2.565  15.944  0.4271  0.0604  0.3823
 2208SOL    HW118257   0.070   2.594  15.977  0.1168  2.0259 -0.5637
 2208SOL    HW218258   0.018   2.512  15.872 -1.8555 -0.1595 -0.5148
 2209SOL     OW18259   1.358   0.946  12.040 -0.3059 -0.0588 -0.0256
 2209SOL    HW118260   1.364   0.989  11.955  1.1382  1.1354  0.6869
 2209SOL    HW218261   1.414   0.871  12.020  1.1398  0.4922  1.9652
 2210SOL     OW18262   0.276   4.571  11.568 -0.2728 -0.0354 -0.4123
 2210SOL    HW118263   0.249   4.543  11.481  2.6712  2.6865 -2.2094
 2210SOL    HW218264   0.211   4.549  11.635  0.2647  0.1723  0.1863
 2211SOL     OW18265   3.190   3.213   5.554 -0.0883 -0.6471  0.3778
 2211SOL    HW118266   3.160   3.255   5.634  1.1255  1.2597 -0.1655
 2211SOL    HW218267   3.281   3.245   5.550  0.2666 -1.6909  0.0194
 2212SOL     OW18268   0.976   0.973  17.599  0.2744 -0.0985  0.1867
 2212SOL    HW118269   0.943   0.969  17.688  2.1973 -3.4707  0.7415
 2212SOL    HW218270   0.898   1.018  17.567  1.4931  0.0146 -2.6435
 2213SOL     OW18271   2.458   1.407   7.560  0.6509 -0.0356 -0.7850
 2213SOL    HW118272   2.391   1.447   7.616  2.9641  1.8442  0.6293
 2213SOL    HW218273   2.499   1.484   7.521  2.4107 -0.9744 -0.7798
 2214SOL     OW18274   1.350   2.571  16.769  0.4938  0.0122  0.6519
 2214SOL    HW118275   1.355   2.525  16.686 -2.3672 -1.2374  1.1727
 2214SOL    HW218276   1.256   2.587  16.776  0.4040 -0.7412  1.1171
 2215SOL     OW18277   0.464   3.536  12.425  0.3127  0.0988 -0.4139
 2215SOL    HW118278   0.440   3.594  12.497  0.7901  0.5371 -0.5997
 2215SOL    HW218279   0.377   3.537  12.386  0.7315 -0.1241 -1.3720
 2216SOL     OW18280   0.745   2.476   7.494 -0.4591  0.0919  0.3629
 2216SOL    HW118281   0.763   2.569   7.482  2.7258 -0.6137 -0.1670
 2216SOL    HW218282   0.654   2.464   7.466 -0.7061  0.8142  0.8693
 2217SOL     OW18283   3.886   1.022   5.681 -0.4396 -0.4645 -0.1413
 2217SOL    HW118284   3.826   1.095   5.668  0.0825  0.6266  3.6069
 2217SOL    HW218285   3.832   0.957   5.636 -1.6399 -0.8256  1.8521
 2218SOL     OW18286   3.575   3.191  16.880  0.0515 -0.1146  0.6379
 2218SOL    HW118287   3.577   3.149  16.794 -1.1668 -1.4972  1.2805
 2218SOL    HW218288   3.652   3.144  16.911  1.3450  0.8375 -1.1599
 2219SOL     OW18289   1.665   2.965   6.861 -0.2480 -0.1854  0.0891
 2219SOL    HW118290   1.698   3.047   6.897  0.5875 -0.5316  0.1256
 2219SOL    HW218291   1.572   2.970   6.882 -0.1838 -0.0944  0.3418
 2220SOL     OW18292   4.269   0.360   1.409  0.0735  0.3919 -0.6014
 2220SOL    HW118293   4.221   0.278   1.412  1.7638 -0.6188 -1.3021
 2220SOL    HW218294   4.213   0.423   1.455  1.8139  0.6663  1.1642
 2221SOL     OW18295   3.806   2.952   3.881  0.0273 -0.2033  0.3718
 2221SOL    HW118296   3.865   2.996   3.943  1.2932  0.0923 -1.0393
 2221SOL    HW218297   3.778   2.871   3.925  0.5522 -1.4338 -1.5897
 2222SOL     OW18298   3.064   0.352   7.228 -0.6642 -0.3596  0.2932
 2222SOL    HW118299   3.119   0.400   7.290 -1.5049 -0.8760  1.4568
 2222SOL    HW218300   3.034   0.413   7.161 -0.0563 -2.1954 -1.6426
 2223SOL     OW18301   0.949   1.558  10.569 -0.1824  0.0946 -0.2569
 2223SOL    HW118302   0.898   1.478  10.579  0.0189 -0.1036 -0.7872
 2223SOL    HW218303   0.967   1.568  10.662 -1.0674 -0.3743 -0.0421
 2224SOL     OW18304   3.851   1.420  12.263  0.0980  0.1013  0.3144
 2224SOL    HW118305   3.916   1.352  12.280  0.3990  1.0185  2.7209
 2224SOL    HW218306   3.915   1.486  12.235  2.2095 -0.7245  3.2406
 2225SOL     OW18307   4.732   2.120   7.299 -1.0325 -0.1243 -0.2678
 2225SOL    HW118308   4.668   2.170   7.247  0.7365  2.7406  0.3026
 2225SOL    HW218309   0.041   2.192   7.342  0.5125 -0.1991 -1.7627
 2226SOL     OW18310   1.707   3.308   6.521 -0.1214 -0.3761 -0.1039
 2226SOL    HW118311   1.794   3.306   6.482 -0.5401  1.5096 -1.1204
 2226SOL    HW218312   1.733   3.340   6.608  0.6414  0.2083 -0.5516
 2227SOL     OW18313   1.853   4.065   1.248  0.4764 -0.7570 -0.0994
 2227SOL    HW118314   1.796   4.124   1.296  0.3964 -0.6795 -0.2909
 2227SOL    HW218315   1.934   4.112   1.227  0.2644  0.6425  2.2167
 2228SOL     OW18316   1.989   3.604   7.870 -0.1016  0.5861  0.5938
 2228SOL    HW118317   1.972   3.557   7.788 -0.4060 -0.2369  1.1218
 2228SOL    HW218318   2.068   3.560   7.899 -0.0284  0.3720  0.0787
 2229SOL     OW18319   2.176   0.560   7.993  0.3880  0.3437 -0.0366
 2229SOL    HW118320   2.261   0.571   8.035  1.1583 -1.9980 -1.0160
 2229SOL    HW218321   2.177   0.473   7.953  0.1637 -0.0197  0.7646
 2230SOL     OW18322   4.292   4.507   3.918 -0.2232  0.2727  0.1791
 2230SOL    HW118323   4.386   4.527   3.917  0.1436 -1.4301  0.2098
 2230SOL    HW218324   4.250   4.581   3.961  2.0983  2.2958 -1.0218
 2231SOL     OW18325   1.767   1.360  13.557  0.0465  0.5956  0.4216
 2231SOL    HW118326   1.810   1.392  13.637 -0.0125  1.6142  0.0458
 2231SOL    HW218327   1.835   1.381  13.493  0.2803  0.9530  0.7809
 2232SOL     OW18328   1.205   0.619   7.223  0.1385  0.7704 -0.0125
 2232SOL    HW118329   1.142   0.564   7.175  1.5272  0.2370 -1.2637
 2232SOL    HW218330   1.157   0.658   7.295 -1.2854 -1.4726  0.2554
 2233SOL     OW18331   4.645   0.447   6.005 -0.5955 -0.2925 -0.2310
 2233SOL    HW118332   4.680   0.359   5.994 -3.3084 -1.1340 -2.2396
 2233SOL    HW218333   4.672   0.492   5.925 -0.2628  1.7669  1.0404
 2234SOL     OW18334   4.636   4.123   7.361  0.3431  0.1034  0.3648
 2234SOL    HW118335   4.639   4.037   7.318 -0.2611  1.0634 -1.6082
 2234SOL    HW218336   4.560   4.113   7.418 -0.3477 -0.7030 -0.6872
 2235SOL     OW18337   2.787   2.766   5.802 -0.2339  0.5787  0.1084
 2235SOL    HW118338   2.847   2.832   5.836  1.6282 -1.2660  0.3603
 2235SOL    HW218339   2.719   2.776   5.869 -0.1214 -1.1654  0.4856
 2236SOL     OW18340   3.423   1.804  10.425  0.2339 -0.1557 -0.2538
 2236SOL    HW118341   3.493   1.741  10.444 -0.6678 -2.0169 -3.1395
 2236SOL    HW218342   3.394   1.770  10.340  2.4356 -2.2953 -0.1672
 2237SOL     OW18343   0.066   0.589   0.938  0.3829  0.0016 -0.0407
 2237SOL    HW118344   0.154   0.586   0.899  0.5839  2.2488  0.2360
 2237SOL    HW218345   0.030   0.661   0.886  2.7246  0.8244 -0.5207
 2238SOL     OW18346   3.111   2.143   9.620 -0.0017 -0.4958 -0.3847
 2238SOL    HW118347   3.056   2.104   9.688 -3.9406  0.7303 -2.8788
 2238SOL    HW218348   3.072   2.228   9.599  2.1230  0.4566 -0.5253
 2239SOL     OW18349   4.631   1.520   5.587 -0.3428 -0.3060  0.0885
 2239SOL    HW118350   4.579   1.476   5.654  0.2615 -2.4831 -0.8641
 2239SOL    HW218351   4.634   1.610   5.618 -1.4222 -0.2351 -0.0134
 2240SOL     OW18352   2.638   0.631   3.744  0.1709  0.1418 -0.7686
 2240SOL    HW118353   2.709   0.638   3.680  1.9336 -0.6034  1.1227
 2240SOL    HW218354   2.580   0.697   3.707  1.8859  0.3882 -3.0287
 2241SOL     OW18355   0.946   4.346   2.019  0.5938  0.0667 -0.5697
 2241SOL    HW118356   0.937   4.357   1.924 -1.5021  1.3372 -0.2498
 2241SOL    HW218357   0.962   4.435   2.051  1.1748 -0.2843  0.1038
 2242SOL     OW18358   2.703   3.813   3.489 -0.2222  0.1355  0.6527
 2242SOL    HW118359   2.692   3.724   3.523 -3.7475  0.4215  0.3480
 2242SOL    HW218360   2.613   3.846   3.494 -0.7662 -1.3157  0.6022
 2243SOL     OW18361   1.201   1.355   2.797 -0.0403 -0.2850  0.0716
 2243SOL    HW118362   1.231   1.441   2.826 -2.3702  0.5893 -0.1665
 2243SOL    HW218363   1.108   1.372   2.785  0.1250  0.6386  0.0952
 2244SOL     OW18364   3.770   0.056   8.926  0.3881  0.4549  0.0142
 2244SOL    HW118365   3.847   0.055   8.870  0.0261 -4.2037 -0.4130
 2244SOL    HW218366   3.697   0.057   8.864 -0.3754 -2.3435  0.8444
 2245SOL     OW18367   2.347   1.231  13.290 -0.2679  0.0200  0.8040
 2245SOL    HW118368   2.302   1.215  13.373  0.5163 -0.2078  1.1925
 2245SOL    HW218369   2.439   1.222  13.315 -0.0968 -0.9068 -0.1656
 2246SOL     OW18370   2.454   1.257   8.657  0.0716 -0.2160 -0.2027
 2246SOL    HW118371   2.381   1.302   8.701 -0.1236  1.6499 -2.4441
 2246SOL    HW218372   2.423   1.167   8.664 -0.7482 -0.2543 -4.2353
 2247SOL     OW18373   2.337   3.462  17.349  0.2014 -0.3106  0.7669
 2247SOL    HW118374   2.342   3.522  17.424 -0.0577  2.1937 -1.2255
 2247SOL    HW218375   2.427   3.479  17.319  0.2098 -1.3427  0.1881
 2248SOL     OW18376   4.656   3.910   2.401  0.1916 -0.4891 -0.6350
 2248SOL    HW118377   0.001   3.960   2.413  0.5541 -0.9115 -1.3259
 2248SOL    HW218378   4.680   3.823   2.434  0.1640  0.5237  2.0636
 2249SOL     OW18379   2.111   3.776  10.159  0.3514 -0.4261 -0.5615
 2249SOL    HW118380   2.098   3.835  10.233  1.6173 -1.6585  0.6587
 2249SOL    HW218381   2.202   3.749  10.167 -0.2169 -2.0602  0.4702
 2250SOL     OW18382   0.174   3.056   5.663  0.4993 -0.9416 -0.2927
 2250SOL    HW118383   0.170   3.143   5.623  2.4510 -1.5856 -1.9430
 2250SOL    HW218384   0.258   3.067   5.708  0.0231 -1.7804  0.7883
 2251SOL     OW18385   2.383   1.988  10.686 -0.4166 -0.3156  0.0982
 2251SOL    HW118386   2.427   1.942  10.757  1.2771  1.1069 -0.0173
 2251SOL    HW218387   2.312   2.033  10.732  1.5745  0.5973  2.2526
 2252SOL     OW18388   0.005   0.716   3.417  0.0291  0.3525 -0.2885
 2252SOL    HW118389   4.726   0.637   3.469  1.0763  0.7489  0.6122
 2252SOL    HW218390   4.684   0.704   3.341 -1.3103 -1.8009  1.0493
 2253SOL     OW18391   3.975   1.579   2.724  0.1090  0.5327 -0.2021
 2253SOL    HW118392   4.008   1.542   2.643 -0.0961  2.3838 -1.1388
 2253SOL    HW218393   3.982   1.504   2.783  2.1812  0.7803 -0.1195
 2254SOL     OW18394   4.515   0.877  12.062  0.1631  0.7623  0.3434
 2254SOL    HW118395   4.531   0.939  12.133  0.5535  0.7829  0.2366
 2254SOL    HW218396   4.601   0.879  12.020 -0.4503  0.4347 -0.9413
 2255SOL     OW18397   4.084   2.388  15.822  0.3099  0.0528  0.2502
 2255SOL    HW118398   4.116   2.405  15.733  0.3420  0.3616  0.3188
 2255SOL    HW218399   4.052   2.478  15.833  0.9054  0.2967  0.0126
 2256SOL     OW18400   0.327   3.805   6.360  0.3173  0.5350  0.4446
 2256SOL    HW118401   0.371   3.858   6.427  0.4017 -0.3309  1.0670
 2256SOL    HW218402   0.249   3.860   6.361  0.7471  1.1616 -0.7242
 2257SOL     OW18403   2.729   1.596  12.593  0.2345  0.5137  0.0016
 2257SOL    HW118404   2.802   1.542  12.564 -0.4727  0.4161 -1.5814
 2257SOL    HW218405   2.771   1.674  12.629  0.5308  0.7172 -0.7851
 2258SOL     OW18406   2.790   0.417   2.715 -0.3712  0.6465 -0.0685
 2258SOL    HW118407   2.715   0.357   2.723 -0.2935  0.9572  2.8178
 2258SOL    HW218408   2.831   0.413   2.801  1.1780 -1.6797 -0.9221
 2259SOL     OW18409   0.296   4.214   8.466 -0.2895 -0.7274  0.2248
 2259SOL    HW118410   0.293   4.166   8.549  1.8667  1.8758  1.8263
 2259SOL    HW218411   0.218   4.267   8.480 -0.0530 -0.0712 -0.9946
 2260SOL     OW18412   0.480   2.071   4.703  0.1373 -0.0708 -0.0860
 2260SOL    HW118413   0.565   2.040   4.734  0.0900  0.1141  0.2318
 2260SOL    HW218414   0.417   2.009   4.741 -0.4313  1.1474  0.9591
 2261SOL     OW18415   2.422   0.774   6.764 -0.7395  0.3242  0.4589
 2261SOL    HW118416   2.439   0.865   6.742 -2.6821  0.4436 -0.5909
 2261SOL    HW218417   2.470   0.732   6.693 -1.8490  2.4545 -1.5438
 2262SOL     OW18418   2.952   3.668   5.617 -0.3715 -0.2989 -0.0557
 2262SOL    HW118419   2.873   3.706   5.656  1.9266  2.5115  1.8438
 2262SOL    HW218420   2.919   3.579   5.630  0.3893 -0.6671 -0.6303
 2263SOL     OW18421   0.518   3.640  11.374  0.1361 -0.0836 -0.7830
 2263SOL    HW118422   0.482   3.655  11.461 -2.1118 -2.2047 -1.3508
 2263SOL    HW218423   0.582   3.711  11.369 -0.9519  1.2272  3.5247
 2264SOL     OW18424   0.127   2.049   7.653  0.1350  0.4037  0.0907
 2264SOL    HW118425   0.104   2.127   7.602  2.4912  2.7500  2.6028
 2264SOL    HW218426   0.049   2.000   7.630 -0.1056  0.0911  1.6282
 2265SOL     OW18427   4.287   2.195   2.277 -0.1449 -0.0671  0.1464
 2265SOL    HW118428   4.259   2.286   2.290 -0.2058 -0.1112  0.3308
 2265SOL    HW218429   4.379   2.202   2.302 -0.4675 -0.5756  1.4805
 2266SOL     OW18430   2.747   1.493   2.502 -0.2392 -0.3921  0.8131
 2266SOL    HW118431   2.658   1.469   2.528 -0.3451 -0.1706  0.6526
 2266SOL    HW218432   2.732   1.575   2.455  0.2321 -2.0023 -2.1722
 2267SOL     OW18433   3.254   2.009  12.909 -0.1867 -0.2245  0.1886
 2267SOL    HW118434   3.220   2.024  12.820  4.2356  0.7736 -1.2890
 2267SOL    HW218435   3.335   2.058  12.905  0.1816 -0.8775 -0.4758
 2268SOL     OW18436   1.589   3.096   4.700 -0.4795  0.6205  0.3893
 2268SOL    HW118437   1.659   3.112   4.637 -0.1549  1.7854  1.0439
 2268SOL    HW218438   1.518   3.133   4.647 -1.7298  0.0456  1.6599
 2269SOL     OW18439   4.660   2.204   2.344 -0.2111 -0.5201 -0.2808
 2269SOL    HW118440   0.014   2.218   2.373 -0.7705  0.2678  1.0730
 2269SOL    HW218441   4.665   2.272   2.277 -0.2115  0.4301  0.6963
 2270SOL     OW18442   4.312   4.000  11.840 -0.2970  0.3366 -0.5740
 2270SOL    HW118443   4.365   4.022  11.763  0.6451 -0.5098 -0.1637
 2270SOL    HW218444   4.354   3.917  11.861 -0.0336  0.8517  0.9255
 2271SOL     OW18445   3.373   2.003   8.642  0.0077 -0.3903 -0.0091
 2271SOL    HW118446   3.434   1.929   8.645  1.6431  0.9861  1.5370
 2271SOL    HW218447   3.363   2.012   8.737 -1.5699 -0.3865 -0.1802
 2272SOL     OW18448   1.862   1.788  11.816 -0.4080  0.0392 -0.4695
 2272SOL    HW118449   1.912   1.764  11.894  0.0234 -0.6144 -0.9408
 2272SOL    HW218450   1.777   1.749  11.834 -0.4573  1.3141  1.9425
 2273SOL     OW18451   3.471   4.256   2.693  0.1770 -0.0238 -0.1199
 2273SOL    HW118452   3.391   4.219   2.655  0.2820 -0.0112 -0.3484
 2273SOL    HW218453   3.508   4.188   2.750  0.6798  0.9572  0.7088
 2274SOL     OW18454   0.979   3.098  12.829 -0.2968  0.3776 -0.1544
 2274SOL    HW118455   1.034   3.159  12.878 -0.2538  0.2815 -0.0822
 2274SOL    HW218456   0.911   3.067  12.889 -0.4212  1.2606  0.1564
 2275SOL     OW18457   3.808   0.508  16.622  0.5295  0.5169  0.4401
 2275SOL    HW118458   3.860   0.536  16.546 -0.0745  0.7403  0.1078
 2275SOL    HW218459   3.737   0.572  16.615  0.9141  0.8839 -0.1361
 2276SOL     OW18460   4.337   4.330   8.234  0.4018  0.1312  0.1142
 2276SOL    HW118461   4.427   4.311   8.262  0.1233  1.5177  1.9362
 2276SOL    HW218462   4.347   4.415   8.190  1.8842  0.8184  1.7983
 2277SOL     OW18463   0.142   1.095   8.586 -0.4658  0.2185 -0.4912
 2277SOL    HW118464   0.199   1.029   8.547  2.2758  1.1165  1.9197
 2277SOL    HW218465   0.111   1.136   8.506  4.0277  0.0742 -2.3105
 2278SOL     OW18466   0.386   1.725   2.069  0.7744 -0.4029  0.2177
 2278SOL    HW118467   0.347   1.798   2.021  0.2831 -0.3923  0.6338
 2278SOL    HW218468   0.475   1.734   2.036 -0.0515  0.4468 -1.7562
 2279SOL     OW18469   1.850   3.731   8.353 -0.2271 -0.0002 -0.3021
 2279SOL    HW118470   1.940   3.758   8.374 -0.0980 -0.0030 -0.8658
 2279SOL    HW218471   1.822   3.695   8.437  0.6368  0.0201 -0.0015
 2280SOL     OW18472   2.979   0.617  15.585 -0.6474  0.3543 -0.5491
 2280SOL    HW118473   2.911   0.551  15.574  1.0603 -1.3446 -0.7834
 2280SOL    HW218474   3.005   0.585  15.672 -2.3302  1.0577  0.2245
 2281SOL     OW18475   2.070   3.604  17.174 -0.0094 -0.2848 -0.4454
 2281SOL    HW118476   2.126   3.528  17.162  0.3171 -0.1003 -0.0933
 2281SOL    HW218477   2.003   3.570  17.115 -0.2235 -0.5892 -0.0296
 2282SOL     OW18478   2.828   1.181   5.446  0.2385 -0.0281  0.0131
 2282SOL    HW118479   2.916   1.218   5.440  0.0878  0.3898  0.3801
 2282SOL    HW218480   2.820   1.133   5.363 -0.7821 -0.1146  0.1551
 2283SOL     OW18481   2.253   0.278   5.118  0.1654 -0.1169 -0.2528
 2283SOL    HW118482   2.234   0.339   5.190  1.3913 -1.4901  1.2177
 2283SOL    HW218483   2.258   0.193   5.162 -0.3200  1.3576  2.7036
 2284SOL     OW18484   3.384   3.148   9.467  0.2736  0.8523 -0.0609
 2284SOL    HW118485   3.310   3.176   9.413  1.3167 -0.6469 -2.2855
 2284SOL    HW218486   3.417   3.237   9.481  0.2937  0.8092  0.1671
 2285SOL     OW18487   1.313   0.278   3.732  0.5427 -0.7923 -0.1061
 2285SOL    HW118488   1.337   0.186   3.730 -0.7683 -1.1159 -0.9977
 2285SOL    HW218489   1.350   0.308   3.649  3.2282 -0.4317  1.2431
 2286SOL     OW18490   0.779   3.107  14.092 -0.0866  0.5850 -0.5259
 2286SOL    HW118491   0.867   3.092  14.057  0.2075 -1.7723  1.2353
 2286SOL    HW218492   0.748   3.190  14.057 -0.1409  0.5977 -0.4474
 2287SOL     OW18493   3.404   2.651  12.323 -0.2237 -0.2536  0.0982
 2287SOL    HW118494   3.378   2.742  12.336  0.6909 -0.2399  1.9287
 2287SOL    HW218495   3.480   2.658  12.266 -0.0833 -1.4443  0.1248
 2288SOL     OW18496   3.942   3.282   3.511  0.1725  0.8304 -0.8685
 2288SOL    HW118497   3.926   3.376   3.500 -0.4345  0.7583 -0.5957
 2288SOL    HW218498   3.996   3.285   3.591  0.5442 -3.1014 -0.9980
 2289SOL     OW18499   0.585   1.044   2.315  0.2114  0.7186 -0.1618
 2289SOL    HW118500   0.505   1.096   2.319 -0.5154 -0.3862 -0.1362
 2289SOL    HW218501   0.560   0.961   2.357  1.5095 -0.5938 -1.9347
 2290SOL     OW18502   1.314   2.963   6.549 -0.5428  0.0417  0.1127
 2290SOL    HW118503   1.291   3.043   6.596  3.2004 -0.1740  2.2398
 2290SOL    HW218504   1.409   2.967   6.556 -0.5609  0.3299  0.2232
 2291SOL     OW18505   3.187   0.855   4.747 -0.2321  0.2300  0.4444
 2291SOL    HW118506   3.282   0.841   4.751 -0.5003 -1.3010  1.4531
 2291SOL    HW218507   3.147   0.770   4.762 -1.2485  0.7376  0.5993
 2292SOL     OW18508   3.557   4.251   7.975  0.5267  0.2985  0.5488
 2292SOL    HW118509   3.569   4.210   7.890  3.4440 -0.1341  1.1567
 2292SOL    HW218510   3.619   4.325   7.973  0.3430  0.4908  1.7297
 2293SOL     OW18511   1.856   2.486   5.949 -0.8759  0.1099 -0.1548
 2293SOL    HW118512   1.926   2.511   5.888  0.2679 -0.9043  0.7566
 2293SOL    HW218513   1.890   2.407   5.990 -2.9233  0.0423  1.3778
 2294SOL     OW18514   0.048   3.140   7.314 -0.2332 -0.8521 -0.1238
 2294SOL    HW118515   0.041   3.234   7.295  3.1801 -0.6137 -0.2358
 2294SOL    HW218516   4.733   3.127   7.394  0.3631  1.0469  0.5709
 2295SOL     OW18517   2.710   3.653   4.375 -0.2849  0.0908  0.0016
 2295SOL    HW118518   2.620   3.685   4.374 -1.7614 -4.0488  0.8229
 2295SOL    HW218519   2.727   3.624   4.464  0.5117 -1.8326 -0.7609
 2296SOL     OW18520   2.500   4.022   9.638  0.0810  0.5474 -0.3840
 2296SOL    HW118521   2.538   3.935   9.624  1.4792  1.2185 -0.7991
 2296SOL    HW218522   2.562   4.077   9.589  2.4296 -2.6234 -0.9323
 2297SOL     OW18523   3.179   2.612   2.553 -0.5194 -0.0871 -0.1748
 2297SOL    HW118524   3.099   2.576   2.516 -1.0347  1.6642 -0.7552
 2297SOL    HW218525   3.148   2.702   2.564 -0.6135 -0.2455  0.8890
 2298SOL     OW18526   0.032   1.885   4.521 -0.3636  0.9963 -0.1005
 2298SOL    HW118527   0.036   1.970   4.565  0.9692  0.3259  1.0857
 2298SOL    HW218528   0.080   1.909   4.441  0.1899 -0.3894 -0.1753
 2299SOL     OW18529   4.683   3.580   9.441 -0.1945 -0.1262 -0.0192
 2299SOL    HW118530   4.686   3.675   9.445 -0.6408 -0.2442  3.2369
 2299SOL    HW218531   0.018   3.556   9.382 -1.1663 -1.5948 -0.5992
 2300SOL     OW18532   3.654   1.763  12.169  0.0158  0.5592  0.1724
 2300SOL    HW118533   3.636   1.689  12.227 -1.1964  0.1940 -0.6696
 2300SOL    HW218534   3.699   1.823  12.228 -1.1937 -0.2027  1.8757
 2301SOL     OW18535   3.287   3.833   3.905 -0.2607  0.1512  0.4746
 2301SOL    HW118536   3.321   3.748   3.878 -1.9530 -0.4838  0.3510
 2301SOL    HW218537   3.204   3.800   3.941 -1.4061  1.9770 -0.5055
 2302SOL     OW18538   3.099   4.415   3.400  0.7249  0.6473  0.2204
 2302SOL    HW118539   3.154   4.337   3.407  0.5859  0.6095  0.8911
 2302SOL    HW218540   3.012   4.384   3.425  0.5878  0.1086 -0.9244
 2303SOL     OW18541   1.304   4.459   0.826  0.0112  0.1603  0.5088
 2303SOL    HW118542   1.329   4.550   0.808  0.3927  0.5275  2.8394
 2303SOL    HW218543   1.209   4.469   0.832 -0.1171 -1.0644  0.4046
 2304SOL     OW18544   0.354   2.467  14.193 -0.4147 -0.1528  0.3955
 2304SOL    HW118545   0.283   2.470  14.257 -1.3684 -0.3304 -0.6573
 2304SOL    HW218546   0.314   2.487  14.108  1.8148 -0.0373 -0.6453
 2305SOL     OW18547   1.317   0.167   9.201  0.1978 -0.3789 -0.2171
 2305SOL    HW118548   1.327   0.116   9.120  2.1837 -0.1997 -0.0884
 2305SOL    HW218549   1.386   0.124   9.251 -0.5456  0.4635  1.5274
 2306SOL     OW18550   1.459   0.342   4.526 -0.2618 -0.2781  0.1059
 2306SOL    HW118551   1.476   0.263   4.578  0.5943  0.8634  1.5654
 2306SOL    HW218552   1.438   0.294   4.446 -0.5505  0.2640 -0.1389
 2307SOL     OW18553   0.849   2.052   2.255  0.5245 -0.1177 -0.2771
 2307SOL    HW118554   0.788   2.099   2.313 -0.2121 -0.8005 -0.4940
 2307SOL    HW218555   0.929   2.047   2.308  0.4088 -1.7795 -0.2594
 2308SOL     OW18556   2.609   3.688   1.449 -0.2981  0.3143 -0.1753
 2308SOL    HW118557   2.520   3.713   1.476 -0.4937  0.0492 -0.5651
 2308SOL    HW218558   2.614   3.604   1.495  0.3148  0.4001 -0.0912
 2309SOL     OW18559   0.023   3.783   4.327 -0.2979  0.2506  0.0971
 2309SOL    HW118560   0.094   3.775   4.391  0.7209  0.4778 -1.0198
 2309SOL    HW218561   0.061   3.736   4.253 -2.8563  0.9732 -1.6492
 2310SOL     OW18562   1.240   1.202   4.752  0.4754  0.1646 -0.5013
 2310SOL    HW118563   1.251   1.279   4.807  0.0985  0.7644 -1.2577
 2310SOL    HW218564   1.146   1.183   4.760  0.2515  1.2984 -0.4424
 2311SOL     OW18565   3.918   0.226   2.203 -0.3605 -0.0204  0.4513
 2311SOL    HW118566   3.985   0.177   2.154  1.2356 -0.6195  3.2112
 2311SOL    HW218567   3.978   0.256   2.271 -1.2592  0.6013  0.9669
 2312SOL     OW18568   3.962   0.262   8.055 -0.4171  0.6459 -0.0526
 2312SOL    HW118569   3.899   0.329   8.081  0.2722  1.5002 -0.5727
 2312SOL    HW218570   3.928   0.247   7.967 -1.0433  1.9491 -0.0367
 2313SOL     OW18571   3.935   1.438   8.526 -0.4387 -0.2611 -0.1376
 2313SOL    HW118572   3.897   1.432   8.438  0.1057 -1.5662 -0.2782
 2313SOL    HW218573   3.953   1.531   8.537 -2.0326  0.3216 -2.3546
 2314SOL     OW18574   0.736   4.559  10.088 -0.8446  0.4176  0.1240
 2314SOL    HW118575   0.784   4.633  10.050 -2.4504  1.8551  0.8832
 2314SOL    HW218576   0.783   4.547  10.170 -0.9547  0.3137  0.1718
 2315SOL     OW18577   3.574   3.939  17.668 -0.7597 -0.2788 -0.1208
 2315SOL    HW118578   3.495   3.938  17.613  0.7086 -1.1651 -2.2065
 2315SOL    HW218579   3.624   3.908  17.594 -0.0542  1.5301 -0.4124
 2316SOL     OW18580   0.797   0.213   5.973 -0.1516 -0.3349  0.5579
 2316SOL    HW118581   0.761   0.124   5.975 -0.4685 -0.2514 -1.1548
 2316SOL    HW218582   0.732   0.260   5.919 -0.5731 -0.8907  0.5788
 2317SOL     OW18583   2.684   3.583   2.250  0.2876  0.0855 -0.2437
 2317SOL    HW118584   2.687   3.569   2.345 -3.5492 -0.7316 -0.2642
 2317SOL    HW218585   2.740   3.661   2.241 -0.0111  0.5489  1.8459
 2318SOL     OW18586   2.111   3.470   3.188  0.0373  0.0256 -0.3954
 2318SOL    HW118587   2.076   3.555   3.212 -2.1389 -1.4277  1.5521
 2318SOL    HW218588   2.053   3.406   3.230 -0.8032  1.3295  0.4042
 2319SOL     OW18589   0.886   1.403   3.035 -0.2142  0.4047  0.6075
 2319SOL    HW118590   0.882   1.347   3.113 -0.1611  1.8767  1.6615
 2319SOL    HW218591   0.857   1.484   3.077  1.7450  1.5442 -0.2450
 2320SOL     OW18592   3.208   1.732   5.807  0.0185  0.2703  0.1348
 2320SOL    HW118593   3.215   1.643   5.841 -0.6557  0.4900  0.8404
 2320SOL    HW218594   3.219   1.779   5.890 -2.2313 -0.2816  0.7281
 2321SOL     OW18595   1.441   0.823   5.069  0.1148  0.6283  0.2479
 2321SOL    HW118596   1.430   0.785   4.982 -1.1322 -1.1176  1.1667
 2321SOL    HW218597   1.425   0.752   5.131  0.9768 -0.6326 -0.9512
 2322SOL     OW18598   4.018   2.001   2.954  0.3826  0.0063 -0.3163
 2322SOL    HW118599   4.091   1.991   2.892 -0.0220 -1.5907 -0.5259
 2322SOL    HW218600   4.033   2.091   2.983 -1.5343  0.0551  0.5120
 2323SOL     OW18601   1.348   1.651   4.040 -0.1868  0.7580 -0.1132
 2323SOL    HW118602   1.424   1.609   3.999 -3.5891 -3.5485 -1.9149
 2323SOL    HW218603   1.367   1.735   3.998  0.3368  0.2280 -0.9252
 2324SOL     OW18604   0.266   3.502   9.411  0.4949 -0.0869  0.2503
 2324SOL    HW118605   0.314   3.568   9.460 -0.0321 -1.1728  2.2508
 2324SOL    HW218606   0.265   3.430   9.475 -2.5720 -0.3560 -0.0718
 2325SOL     OW18607   3.449   2.098   5.467 -0.0566 -0.1361 -0.6956
 2325SOL    HW118608   3.426   2.025   5.524 -1.1453 -0.5022 -1.6251
 2325SOL    HW218609   3.376   2.097   5.406 -1.9191  1.5980  1.4995
 2326SOL     OW18610   4.295   3.909   7.334  0.7015  0.5049  0.0368
 2326SOL    HW118611   4.248   3.966   7.273 -1.2932  0.7497  1.8283
 2326SOL    HW218612   4.314   3.971   7.404 -2.7295 -0.9652  2.2684
 2327SOL     OW18613   1.779   0.101   3.626  0.5943 -0.1239 -0.2147
 2327SOL    HW118614   1.867   0.107   3.664  0.4791 -1.3398  0.2293
 2327SOL    HW218615   1.749   0.191   3.644  0.7047  0.5712 -3.5325
 2328SOL     OW18616   2.702   3.758   5.713 -0.1983  0.1584 -0.2064
 2328SOL    HW118617   2.717   3.853   5.718 -1.3350  0.1504  3.4805
 2328SOL    HW218618   2.640   3.754   5.785 -1.3706  2.2622 -1.0992
 2329SOL     OW18619   4.039   2.959   4.633 -0.2698  0.1225 -0.2595
 2329SOL    HW118620   4.095   3.019   4.583  0.1152  0.0995  0.1443
 2329SOL    HW218621   4.100   2.891   4.662  0.3412 -0.3217 -2.6055
 2330SOL     OW18622   1.721   3.904   4.392  0.3947  0.5376 -0.6005
 2330SOL    HW118623   1.738   3.832   4.453  3.8941  1.4829 -0.4920
 2330SOL    HW218624   1.701   3.975   4.453 -0.2853  1.7919 -2.2852
 2331SOL     OW18625   4.514   3.068   1.470 -0.0611  0.3396  0.4443
 2331SOL    HW118626   4.440   3.117   1.505 -1.0179 -0.5658 -0.3239
 2331SOL    HW218627   4.558   3.136   1.419 -1.8850  0.4526 -0.9762
 2332SOL     OW18628   2.559   1.270   5.002  0.4849  0.3279 -0.2787
 2332SOL    HW118629   2.547   1.340   4.938 -1.1590  1.1572  0.9341
 2332SOL    HW218630   2.634   1.224   4.963 -0.8418 -0.8980 -1.3692
 2333SOL     OW18631   0.584   4.029   5.570  0.3219 -0.0517 -0.0180
 2333SOL    HW118632   0.583   3.968   5.497 -0.7221  1.2219 -1.0451
 2333SOL    HW218633   0.623   4.102   5.520 -1.3444  1.4572  0.8786
 2334SOL     OW18634   1.686   1.182   3.506  0.0679 -0.3216 -0.3771
 2334SOL    HW118635   1.612   1.122   3.495  0.9874 -0.9894 -2.8986
 2334SOL    HW218636   1.761   1.128   3.481 -1.4237 -2.0779 -1.0574
 2335SOL     OW18637   2.867   1.132  10.409  0.4049 -0.1252  0.3513
 2335SOL    HW118638   2.850   1.217  10.450  3.1471  0.6952 -0.1751
 2335SOL    HW218639   2.917   1.086  10.477 -0.3523 -0.6319  0.5704
 2336SOL     OW18640   0.257   0.628   7.672 -0.2238  0.0446 -0.6244
 2336SOL    HW118641   0.201   0.554   7.696 -0.2999  0.4113  0.3541
 2336SOL    HW218642   0.302   0.593   7.596  0.3914 -0.7622  0.1102
 2337SOL     OW18643   1.226   0.261  12.358 -0.2028  0.9046  0.3509
 2337SOL    HW118644   1.293   0.198  12.332  0.4564  1.5539  0.4756
 2337SOL    HW218645   1.264   0.349  12.366 -1.1675  1.4420 -0.8926
 2338SOL     OW18646   1.322   2.327   4.402 -0.4023 -0.4380  0.6820
 2338SOL    HW118647   1.311   2.395   4.469  2.6622 -0.4537  1.2432
 2338SOL    HW218648   1.358   2.385   4.334  0.2309 -0.0180  1.3756
 2339SOL     OW18649   3.983   3.392   6.924 -0.0667  0.1588  0.4132
 2339SOL    HW118650   4.037   3.410   7.000 -1.0108 -0.5556  1.2584
 2339SOL    HW218651   3.915   3.339   6.966 -0.9173  0.3765 -0.6767
 2340SOL     OW18652   0.350   4.261   9.116  0.0183  0.3994 -0.2174
 2340SOL    HW118653   0.291   4.255   9.040 -1.1676  0.5039  0.7075
 2340SOL    HW218654   0.340   4.171   9.147  1.5611 -0.5761 -2.5376
 2341SOL     OW18655   1.806   3.940   7.491 -0.1828  0.7466 -0.8640
 2341SOL    HW118656   1.752   4.014   7.518  1.8720  2.0151 -0.1783
 2341SOL    HW218657   1.887   3.990   7.484  0.4543 -0.1794 -0.2162
 2342SOL     OW18658   0.911   1.080   2.531 -0.4808  0.0917 -0.0376
 2342SOL    HW118659   0.891   1.053   2.621  0.2315  0.3482  0.1959
 2342SOL    HW218660   0.888   1.000   2.484  0.4439 -2.6253  4.0540
 2343SOL     OW18661   2.515   1.787   0.796  0.1204  0.0162  0.0686
 2343SOL    HW118662   2.511   1.859   0.858 -3.9277  1.0111 -1.3854
 2343SOL    HW218663   2.432   1.788   0.749  0.4062  2.1980 -0.3451
 2344SOL     OW18664   2.443   1.039   6.682 -0.0803 -0.4808 -0.5915
 2344SOL    HW118665   2.412   1.078   6.600 -0.9193  0.6980  0.2839
 2344SOL    HW218666   2.481   1.107   6.739 -0.7809  0.9712 -1.8641
 2345SOL     OW18667   0.781   0.348  14.288 -0.1116  0.2149 -0.3359
 2345SOL    HW118668   0.763   0.319  14.378  1.5340 -0.8866 -0.3748
 2345SOL    HW218669   0.784   0.260  14.250 -0.1120 -0.1316  0.4683
 2346SOL     OW18670   0.248   1.363   7.863 -0.0235 -0.3789 -0.0036
 2346SOL    HW118671   0.266   1.363   7.957  1.1470  1.2328 -0.2273
 2346SOL    HW218672   0.165   1.411   7.861 -0.9533 -2.0213 -1.1474
 2347SOL     OW18673   3.100   0.641   8.751  0.1049  0.2141  0.0119
 2347SOL    HW118674   3.181   0.652   8.801  0.9369  1.6282 -1.6438
 2347SOL    HW218675   3.131   0.680   8.670  1.4453 -0.3775  0.2370
 2348SOL     OW18676   4.485   2.103   0.523  0.0085 -0.4084  0.3655
 2348SOL    HW118677   4.392   2.123   0.529 -0.2405 -1.0141 -1.4605
 2348SOL    HW218678   4.483   2.008   0.534 -1.2240 -0.5928 -1.4040
 2349SOL     OW18679   2.731   0.011   2.640  0.2025  0.1776 -0.1887
 2349SOL    HW118680   2.690   0.090   2.676 -1.3652 -1.6210  1.9059
 2349SOL    HW218681   2.784   4.720   2.714  1.2143 -0.6704 -1.2150
 2350SOL     OW18682   3.309   0.709   0.430  0.1451  0.3393 -0.3959
 2350SOL    HW118683   3.274   0.678   0.347 -2.3630 -0.4250  0.9491
 2350SOL    HW218684   3.227   0.751   0.457  0.3363  1.4193 -1.5135
 2351SOL     OW18685   3.307   2.576  13.981 -0.0741 -1.0646 -0.0567
 2351SOL    HW118686   3.241   2.519  13.941 -2.7178 -0.9147  4.0642
 2351SOL    HW218687   3.381   2.517  13.994 -0.8428 -1.0987  4.0343
 2352SOL     OW18688   4.545   2.513   0.307 -0.5668 -0.5986  0.0711
 2352SOL    HW118689   4.517   2.424   0.286 -0.1408 -1.2945  2.4966
 2352SOL    HW218690   4.527   2.522   0.401 -1.0224  0.6876 -0.1369
 2353SOL     OW18691   2.415   4.500   2.628  0.5679 -0.0871 -0.0295
 2353SOL    HW118692   2.468   4.448   2.688  1.2662  0.6899  0.0079
 2353SOL    HW218693   2.351   4.439   2.590 -0.0718 -0.4769  1.6786
 2354SOL     OW18694   1.948   1.686   9.669  0.0222 -0.0974  0.2399
 2354SOL    HW118695   2.023   1.676   9.727  0.9491 -2.7836 -1.4180
 2354SOL    HW218696   1.996   1.674   9.587 -0.4363 -3.0933  0.4199
 2355SOL     OW18697   2.859   3.148  17.007  0.2708 -0.5751  0.5757
 2355SOL    HW118698   2.832   3.149  16.916  1.7678 -0.6543  0.1281
 2355SOL    HW218699   2.777   3.181  17.045  0.1161 -0.3614  0.0582
 2356SOL     OW18700   1.544   1.133   7.427  0.2781 -0.6585  0.4224
 2356SOL    HW118701   1.486   1.057   7.437 -0.9410  0.0656 -1.1021
 2356SOL    HW218702   1.568   1.133   7.334 -0.0244  0.1115  0.3445
 2357SOL     OW18703   2.778   4.018   5.683 -0.0415  0.3092 -0.2774
 2357SOL    HW118704   2.848   4.045   5.742 -0.1117  0.5904 -0.3219
 2357SOL    HW218705   2.789   4.088   5.619  1.5827 -0.4283 -0.8132
 2358SOL     OW18706   3.035   1.080   2.904 -0.4785 -0.1576 -0.0349
 2358SOL    HW118707   3.124   1.051   2.882 -0.0543  0.7990  0.4156
 2358SOL    HW218708   3.029   1.152   2.842  0.9877  0.7722  0.8781
 2359SOL     OW18709   4.261   0.367   8.523 -0.3016 -0.1111  0.3075
 2359SOL    HW118710   4.335   0.385   8.466 -0.5568 -0.1275 -0.0301
 2359SOL    HW218711   4.251   0.453   8.564  2.4012 -0.0590  0.8628
 2360SOL     OW18712   1.950   3.205  12.087  0.4684  0.1640  0.5968
 2360SOL    HW118713   2.032   3.254  12.083  0.1518  0.5651 -0.7749
 2360SOL    HW218714   1.904   3.281  12.122  0.1400 -0.6669  2.0010
 2361SOL     OW18715   1.529   2.164  16.853 -0.2102 -0.7426 -0.4912
 2361SOL    HW118716   1.584   2.208  16.917  0.6981  1.0205 -2.4792
 2361SOL    HW218717   1.475   2.105  16.906 -0.4291 -0.4625 -0.4056
 2362SOL     OW18718   4.153   2.542   9.318  0.3555 -0.7871  0.2661
 2362SOL    HW118719   4.078   2.483   9.315  0.3848 -0.8210  0.2039
 2362SOL    HW218720   4.174   2.553   9.226 -0.9370  1.1478  0.2243
 2363SOL     OW18721   2.443   3.194   7.977 -0.5695 -0.7654 -0.2308
 2363SOL    HW118722   2.357   3.202   8.017 -1.6554  0.3394 -2.8166
 2363SOL    HW218723   2.489   3.274   8.002  0.7540 -2.7765  3.8207
 2364SOL     OW18724   2.475   2.874   7.433 -0.8771  0.2615 -0.2468
 2364SOL    HW118725   2.553   2.888   7.379 -1.1362  0.2395 -0.6267
 2364SOL    HW218726   2.458   2.964   7.461 -4.5432 -0.6886  0.5270
 2365SOL     OW18727   0.665   1.017  10.672  0.2383 -0.2923  0.1461
 2365SOL    HW118728   0.633   0.995  10.759 -0.5819  1.4245  0.2876
 2365SOL    HW218729   0.594   1.072  10.639 -0.3646 -0.9848  0.2969
 2366SOL     OW18730   1.381   4.092  13.940  0.3547 -0.1284  0.5399
 2366SOL    HW118731   1.375   4.034  14.016 -0.1599 -0.8250 -0.0234
 2366SOL    HW218732   1.352   4.025  13.877  0.8990 -1.1647  1.3940
 2367SOL     OW18733   0.954   3.219   3.209  0.1507  0.2899  0.3419
 2367SOL    HW118734   0.920   3.226   3.120 -1.2062  0.1708  0.8525
 2367SOL    HW218735   1.046   3.197   3.193  0.3490 -2.0241  4.6100
 2368SOL     OW18736   4.732   1.962   5.867  0.1652  0.4563  0.7319
 2368SOL    HW118737   0.003   1.999   5.779  1.6476  2.5157  1.7124
 2368SOL    HW218738   0.069   2.006   5.909  0.4926  0.8690 -0.2655
 2369SOL     OW18739   1.921   1.697   3.908 -0.1981  0.3989 -0.1066
 2369SOL    HW118740   1.982   1.734   3.844 -0.9945  0.9387 -0.5446
 2369SOL    HW218741   1.843   1.750   3.890 -0.1560  0.1614 -0.9527
 2370SOL     OW18742   4.533   1.377  15.031  0.0510 -0.6592 -0.8869
 2370SOL    HW118743   4.458   1.370  15.091 -0.1754  0.9534 -0.9885
 2370SOL    HW218744   4.591   1.320  15.081  0.3368 -0.4330 -0.9667
 2371SOL     OW18745   2.231   1.733  14.755  0.2400  0.5611  0.0497
 2371SOL    HW118746   2.289   1.797  14.713  0.5630  0.5316  0.4498
 2371SOL    HW218747   2.286   1.716  14.832  1.8447  2.9727 -0.5449
 2372SOL     OW18748   3.704   0.842   1.143  0.1999  0.5058 -0.0049
 2372SOL    HW118749   3.686   0.865   1.052  1.5069 -2.5730 -1.0619
 2372SOL    HW218750   3.745   0.925   1.167  0.5154  0.5992 -0.8465
 2373SOL     OW18751   2.143   0.016   7.672 -0.0203  0.0496  0.1229
 2373SOL    HW118752   2.073   0.040   7.612 -0.1299 -1.3934 -0.3309
 2373SOL    HW218753   2.213   0.022   7.607  0.1826 -0.2645  0.3099
 2374SOL     OW18754   1.202   2.090   6.685 -0.2627 -0.0685 -0.4772
 2374SOL    HW118755   1.183   2.075   6.778  0.3014  0.8465 -0.2161
 2374SOL    HW218756   1.164   2.010   6.649 -1.5423 -0.4809  1.7482
 2375SOL     OW18757   1.657   2.616   6.656  0.0636  0.4286  0.2563
 2375SOL    HW118758   1.587   2.652   6.601  0.2310  0.3308 -0.0198
 2375SOL    HW218759   1.719   2.587   6.589  1.1601 -0.4208  1.6632
 2376SOL     OW18760   3.930   1.383   5.577 -0.3778  0.1742 -0.2299
 2376SOL    HW118761   3.993   1.375   5.506  0.0432 -1.1860  0.2934
 2376SOL    HW218762   3.872   1.308   5.567 -1.2416  0.9394 -0.9306
 2377SOL     OW18763   1.336   4.368  15.796 -0.4575  0.0608  0.3050
 2377SOL    HW118764   1.318   4.453  15.837 -0.9831 -0.2899  0.8126
 2377SOL    HW218765   1.290   4.380  15.713  0.0146 -1.6298 -0.2062
 2378SOL     OW18766   3.754   3.852   2.538  0.3081  0.5938 -0.0994
 2378SOL    HW118767   3.828   3.792   2.525 -1.0495 -1.1467  0.2307
 2378SOL    HW218768   3.799   3.931   2.566  1.6954  0.8940 -3.0922
 2379SOL     OW18769   2.140   1.266   8.440  0.2297 -0.2283 -0.0992
 2379SOL    HW118770   2.079   1.201   8.474 -0.0277  0.0385 -0.0462
 2379SOL    HW218771   2.207   1.200   8.423  0.4570  0.4067 -1.7169
 2380SOL     OW18772   1.772   3.533   4.122  0.3972  0.1054 -0.4318
 2380SOL    HW118773   1.817   3.600   4.172 -1.0110  0.3756  0.4892
 2380SOL    HW218774   1.832   3.458   4.124  0.9132  0.5187 -0.5825
 2381SOL     OW18775   3.151   3.533   8.859  0.4312 -0.2048  0.0337
 2381SOL    HW118776   3.114   3.615   8.889  0.6506 -0.1112  0.0508
 2381SOL    HW218777   3.082   3.475   8.892 -0.0008 -0.2564 -0.9578
 2382SOL     OW18778   1.200   0.905  13.207 -0.4124 -0.2150  0.4160
 2382SOL    HW118779   1.124   0.864  13.249 -1.8762  1.2749 -0.7739
 2382SOL    HW218780   1.273   0.859  13.249 -1.1546 -1.3818  0.4302
 2383SOL     OW18781   1.070   4.194  13.658  0.0757  0.3470  0.2511
 2383SOL    HW118782   1.068   4.129  13.589 -0.6702 -0.7965  1.3599
 2383SOL    HW218783   1.160   4.228  13.662  0.5838 -0.9195 -0.5729
 2384SOL     OW18784   3.525   2.798   9.055  0.0672  0.8475 -0.3609
 2384SOL    HW118785   3.503   2.873   8.999  1.0955  1.7353  0.4177
 2384SOL    HW218786   3.474   2.830   9.130 -1.2623 -0.4502 -0.7240
 2385SOL     OW18787   3.887   4.421   8.882 -0.2542  0.0811 -0.1281
 2385SOL    HW118788   3.957   4.460   8.934  0.1886 -0.2469 -0.4814
 2385SOL    HW218789   3.845   4.494   8.837  2.2637 -0.6146 -3.6416
 2386SOL     OW18790   1.899   1.615   8.635 -0.1451 -0.7155  0.2744
 2386SOL    HW118791   1.938   1.597   8.720  0.6096 -0.9926 -0.1266
 2386SOL    HW218792   1.827   1.668   8.670 -0.8610 -1.3797 -0.1796
 2387SOL     OW18793   4.619   2.722  15.453 -0.7039 -0.0026 -0.2066
 2387SOL    HW118794   4.534   2.735  15.411 -0.0436  1.5324 -1.0390
 2387SOL    HW218795   4.642   2.811  15.477  0.1307  0.0518 -1.2411
 2388SOL     OW18796   3.565   0.100   0.457 -0.5964 -0.3117 -0.1511
 2388SOL    HW118797   3.543   0.159   0.384 -2.9070 -0.4594  0.4268
 2388SOL    HW218798   3.660   0.106   0.454 -0.5782  1.1947  3.1764
 2389SOL     OW18799   3.522   2.372   5.691  0.2633  0.4466  0.8733
 2389SOL    HW118800   3.511   2.404   5.602  0.1850  1.3413  1.2077
 2389SOL    HW218801   3.525   2.450   5.746 -2.6609 -1.0367  3.1344
 2390SOL     OW18802   3.322   1.422   2.566 -0.1512  0.9007  0.2319
 2390SOL    HW118803   3.274   1.379   2.495  2.6934 -3.3856  0.9671
 2390SOL    HW218804   3.291   1.365   2.636  0.3514 -0.4679 -0.6737
 2391SOL     OW18805   3.395   2.909   0.792  0.0154  0.0011 -0.0293
 2391SOL    HW118806   3.479   2.902   0.837 -0.1088  1.4990  0.4454
 2391SOL    HW218807   3.416   2.988   0.742 -1.7783 -0.1247 -1.0000
 2392SOL     OW18808   4.576   2.274   4.001 -0.1983  0.3551  0.5164
 2392SOL    HW118809   4.489   2.270   4.042 -1.1830  1.9575 -1.3931
 2392SOL    HW218810   4.594   2.365   3.976 -1.8395  0.5031 -0.1885
 2393SOL     OW18811   0.073   3.506   2.779 -0.3799  0.1188  0.1631
 2393SOL    HW118812   0.109   3.541   2.861 -1.8283 -0.2773  0.9693
 2393SOL    HW218813   4.726   3.476   2.816 -1.2391  2.1431 -0.1183
 2394SOL     OW18814   2.919   0.007   3.771  0.2996  0.0589 -1.3399
 2394SOL    HW118815   2.835   4.706   3.798  0.9492  1.1136  2.2130
 2394SOL    HW218816   2.969   4.662   3.766 -1.3867 -1.0229 -0.7953
 2395SOL     OW18817   3.959   3.608   5.523  0.0422  0.0341 -0.5914
 2395SOL    HW118818   3.920   3.531   5.483  0.7007 -0.0270 -1.1194
 2395SOL    HW218819   3.906   3.607   5.602  1.6181 -1.5946  0.4517
 2396SOL     OW18820   1.875   2.046   8.777 -0.1095  0.4810 -0.1773
 2396SOL    HW118821   1.800   2.095   8.742  1.2135  0.0711 -3.5569
 2396SOL    HW218822   1.933   2.121   8.789 -0.8068  0.8951  0.6585
 2397SOL     OW18823   0.974   4.556   0.114 -0.5608  0.2054 -0.1291
 2397SOL    HW118824   0.948   4.586   0.201  0.5306 -0.6499  0.4885
 2397SOL    HW218825   0.989   4.461   0.112 -1.0459  0.0742  2.2468
 2398SOL     OW18826   2.883   2.643   3.713 -0.0598  0.3438  0.2727
 2398SOL    HW118827   2.824   2.673   3.782  0.6956  0.4690  0.8721
 2398SOL    HW218828   2.962   2.640   3.768  0.5682  1.1216 -0.5799
 2399SOL     OW18829   0.347   2.995   7.903 -0.4314  0.2888  0.0901
 2399SOL    HW118830   0.397   2.966   7.979  0.5302  1.1881 -0.2092
 2399SOL    HW218831   0.376   2.926   7.844 -1.8230 -0.6510  0.5052
 2400SOL     OW18832   1.718   0.125   2.138  0.0737  0.4652 -0.3765
 2400SOL    HW118833   1.714   0.195   2.203  1.6067 -1.8816  2.2793
 2400SOL    HW218834   1.811   0.108   2.153 -0.4900 -0.9420  1.4213
 2401SOL     OW18835   0.803   4.179   1.610  0.4797  0.2659  0.0300
 2401SOL    HW118836   0.877   4.119   1.608 -0.7366 -1.2941  2.2872
 2401SOL    HW218837   0.824   4.245   1.676 -0.8299  0.3992  0.3095
 2402SOL     OW18838   2.099   2.994   6.137 -0.5992  0.2403 -0.1109
 2402SOL    HW118839   2.006   3.012   6.122 -0.2245 -0.7280 -3.5664
 2402SOL    HW218840   2.134   3.047   6.066  2.0273 -0.7422  0.4402
 2403SOL     OW18841   2.872   1.600   3.381 -0.0764  0.1734 -0.0003
 2403SOL    HW118842   2.949   1.625   3.331 -0.8747  1.1803 -0.7270
 2403SOL    HW218843   2.888   1.642   3.465 -1.0120 -0.6302  0.5707
 2404SOL     OW18844   0.180   3.410  17.265  0.6564 -0.1727 -0.2897
 2404SOL    HW118845   0.149   3.425  17.176  0.2817  0.6612 -0.0207
 2404SOL    HW218846   0.151   3.321  17.286 -1.0028  0.3734 -0.2358
 2405SOL     OW18847   4.270   1.151   5.936 -0.0240  0.2579 -0.2166
 2405SOL    HW118848   4.320   1.106   6.003 -2.0631  0.9360  1.7643
 2405SOL    HW218849   4.315   1.234   5.950  3.7577 -1.9312  0.5245
 2406SOL     OW18850   2.900   3.073   8.277  0.5413  0.2163 -0.1943
 2406SOL    HW118851   2.863   3.155   8.246 -0.8329  0.2380  1.5063
 2406SOL    HW218852   2.989   3.091   8.305  0.8533 -0.4562 -0.7641
 2407SOL     OW18853   0.486   1.478   7.367 -0.4394 -0.2536  0.4360
 2407SOL    HW118854   0.476   1.414   7.437 -0.6694 -1.6059 -0.8302
 2407SOL    HW218855   0.394   1.501   7.349 -0.9864 -0.8034  2.5010
 2408SOL     OW18856   0.271   0.315   5.921  0.3317 -0.5650  0.0908
 2408SOL    HW118857   0.190   0.266   5.904  0.8377 -1.4442  0.2682
 2408SOL    HW218858   0.309   0.257   5.987  0.6656  2.2951  2.4274
 2409SOL     OW18859   1.015   1.081  12.613 -0.8098 -0.3025  0.1453
 2409SOL    HW118860   0.969   1.133  12.679  3.8563  0.2737  2.8894
 2409SOL    HW218861   0.977   1.120  12.534 -2.3444 -1.0937  0.4870
 2410SOL     OW18862   2.878   3.486   7.532  0.5080 -0.3164 -0.4676
 2410SOL    HW118863   2.935   3.534   7.473  1.6795 -1.1658 -0.0309
 2410SOL    HW218864   2.916   3.525   7.611  0.9839 -1.6835 -0.0113
 2411SOL     OW18865   2.553   0.507   9.710  0.1910 -0.0885  0.0228
 2411SOL    HW118866   2.521   0.490   9.798 -2.1167 -1.1041 -1.0186
 2411SOL    HW218867   2.636   0.554   9.720 -0.7242  1.2193  1.5064
 2412SOL     OW18868   2.308   3.208   2.712  0.0733  0.1039 -0.0607
 2412SOL    HW118869   2.234   3.268   2.718 -1.2625 -1.2749 -2.9711
 2412SOL    HW218870   2.346   3.235   2.629  2.7884  0.5056  1.3065
 2413SOL     OW18871   1.878   0.382   0.791 -0.2378  0.1702  0.6716
 2413SOL    HW118872   1.920   0.430   0.863  0.9258 -0.5052  0.4505
 2413SOL    HW218873   1.935   0.306   0.798 -0.0973  0.0671 -1.6819
 2414SOL     OW18874   4.615   2.123   4.756  0.9431  0.7235  0.4679
 2414SOL    HW118875   4.695   2.137   4.704 -0.2084  1.0582 -1.2420
 2414SOL    HW218876   4.656   2.062   4.817 -0.5653  0.2374  0.9905
 2415SOL     OW18877   2.277   2.696   6.498  0.4596  0.3505  0.0631
 2415SOL    HW118878   2.353   2.753   6.512  1.7137 -1.0844 -1.0088
 2415SOL    HW218879   2.229   2.758   6.443  0.3859  0.8794  0.7252
 2416SOL     OW18880   2.387   0.998   8.647  0.1191  0.5743 -0.6378
 2416SOL    HW118881   2.437   0.919   8.669 -1.0617 -0.1988 -0.6903
 2416SOL    HW218882   2.324   0.955   8.589  0.1950 -1.0542  0.4773
 2417SOL     OW18883   3.889   1.623   7.427 -0.1242  0.6413 -0.3265
 2417SOL    HW118884   3.803   1.619   7.384 -0.2981  3.7708 -0.3086
 2417SOL    HW218885   3.906   1.717   7.428 -0.9170  0.7913 -1.5809
 2418SOL     OW18886   1.928   1.352   2.471  0.3299 -0.0272  0.1232
 2418SOL    HW118887   1.892   1.264   2.459  2.4150 -0.6726 -1.2440
 2418SOL    HW218888   1.937   1.378   2.379  1.7969  0.3821  0.3876
 2419SOL     OW18889   2.130   1.039   0.680  0.2505  0.0931 -0.0179
 2419SOL    HW118890   2.177   0.970   0.726  2.6009  1.2352 -0.7488
 2419SOL    HW218891   2.183   1.117   0.695  0.1399 -0.1649  1.8124
 2420SOL     OW18892   1.558   1.318   5.462 -0.1321 -0.1385  0.2010
 2420SOL    HW118893   1.584   1.278   5.379 -0.5366 -2.2275  1.0849
 2420SOL    HW218894   1.472   1.283   5.483 -0.6887  1.3470  0.3592
 2421SOL     OW18895   1.239   2.029  13.295  0.0038  0.3855  0.2226
 2421SOL    HW118896   1.333   2.013  13.296 -0.0263  0.4693  2.8266
 2421SOL    HW218897   1.206   1.960  13.352  0.1170 -0.3270 -0.5738
 2422SOL     OW18898   4.046   0.146   3.012 -0.2967  0.0839  0.6308
 2422SOL    HW118899   4.070   0.158   2.921  1.8242  0.0119  1.1773
 2422SOL    HW218900   4.102   0.208   3.058  0.9719 -1.2962  0.9498
 2423SOL     OW18901   3.983   2.128   8.422 -0.1630 -0.1490  0.0803
 2423SOL    HW118902   4.078   2.136   8.430 -0.1676  1.6746 -1.6406
 2423SOL    HW218903   3.955   2.202   8.476 -0.5616  0.1854 -0.5836
 2424SOL     OW18904   1.634   0.764   6.248 -0.3460  0.5444 -0.0987
 2424SOL    HW118905   1.601   0.679   6.275  0.9752  0.1715  0.3421
 2424SOL    HW218906   1.553   0.798   6.210 -1.8805 -0.1274  2.5178
 2425SOL     OW18907   2.373   3.917  15.211  0.1777  0.0852  0.1928
 2425SOL    HW118908   2.390   4.010  15.222  3.0010 -0.1372 -2.1870
 2425SOL    HW218909   2.362   3.889  15.302 -2.3685 -0.7369 -0.3552
 2426SOL     OW18910   4.646   0.414   1.485  0.0094  0.0211  0.4128
 2426SOL    HW118911   4.689   0.457   1.558 -1.4534 -0.2399  1.4256
 2426SOL    HW218912   4.646   0.480   1.416 -0.2522  1.1853  1.5399
 2427SOL     OW18913   0.881   3.119   9.505  0.2591 -0.4047 -0.1788
 2427SOL    HW118914   0.974   3.103   9.490  0.3602 -0.7420  0.8462
 2427SOL    HW218915   0.841   3.073   9.431 -1.8383  0.4812  0.3912
 2428SOL     OW18916   0.794   2.538   6.575  0.8140 -0.2902 -0.5446
 2428SOL    HW118917   0.879   2.545   6.531  1.8810 -0.6387  1.4430
 2428SOL    HW218918   0.732   2.530   6.502 -0.5611  2.9337  0.2901
 2429SOL     OW18919   4.105   4.507   9.392  0.1281  0.1180  0.5862
 2429SOL    HW118920   4.018   4.473   9.412  0.1029 -0.3708 -0.3609
 2429SOL    HW218921   4.146   4.473   9.472  1.6613  0.6009  0.0152
 2430SOL     OW18922   2.829   2.396  10.320 -0.0665  0.0223 -0.2942
 2430SOL    HW118923   2.747   2.444  10.309  0.6592  0.5893 -3.1764
 2430SOL    HW218924   2.897   2.427  10.260 -0.3522 -3.6252 -2.4261
 2431SOL     OW18925   1.692   3.108  11.063 -0.1269  0.4188 -0.0218
 2431SOL    HW118926   1.698   3.016  11.037  0.7568  0.2175  0.8598
 2431SOL    HW218927   1.778   3.125  11.103  0.5122 -0.7827 -0.8798
 2432SOL     OW18928   1.356   3.890   3.807  0.4758 -0.2077  0.1504
 2432SOL    HW118929   1.283   3.922   3.754 -1.1857 -3.1840  0.6904
 2432SOL    HW218930   1.412   3.860   3.735 -0.2105 -0.8883 -0.0908
 2433SOL     OW18931   0.745   0.758   7.722  0.7651  0.4346 -0.4860
 2433SOL    HW118932   0.823   0.701   7.718  0.4870  0.0627 -0.6054
 2433SOL    HW218933   0.695   0.714   7.791  0.4410  0.6750 -0.5681
 2434SOL     OW18934   2.845   1.980   7.968  0.7989  0.2816 -0.2131
 2434SOL    HW118935   2.760   1.947   7.938  0.6430  2.2303 -1.9581
 2434SOL    HW218936   2.909   1.920   7.929  1.5563 -1.1148  3.2180
 2435SOL     OW18937   4.177   0.599   8.625 -0.8318  0.2422  0.6676
 2435SOL    HW118938   4.246   0.595   8.691 -1.1776  2.4188  1.1415
 2435SOL    HW218939   4.198   0.682   8.583  0.7463 -0.4205  0.1656
 2436SOL     OW18940   1.645   1.528  17.128 -0.0485 -0.0630  0.0415
 2436SOL    HW118941   1.705   1.453  17.127 -0.3725 -0.3149 -1.6360
 2436SOL    HW218942   1.699   1.606  17.142 -0.8690  0.2378  1.5045
 2437SOL     OW18943   0.581   0.596   4.670  0.2186 -0.1081 -0.0124
 2437SOL    HW118944   0.522   0.664   4.701  1.8407  2.5334 -2.7036
 2437SOL    HW218945   0.623   0.642   4.598  0.4195  1.3384  1.0340
 2438SOL     OW18946   3.913   0.881  16.215 -0.1720  0.0154  0.7789
 2438SOL    HW118947   3.836   0.900  16.161  0.6837 -1.9926 -1.1016
 2438SOL    HW218948   3.937   0.796  16.179 -1.9199  0.2183 -0.8638
 2439SOL     OW18949   1.792   2.030   7.190  0.4986  0.0617 -0.3772
 2439SOL    HW118950   1.725   2.071   7.244 -0.4796 -2.5055  0.3692
 2439SOL    HW218951   1.819   2.108   7.143 -1.1251 -0.7475 -2.6398
 2440SOL     OW18952   0.625   3.911   5.335 -0.3268 -0.4841  0.2958
 2440SOL    HW118953   0.684   3.837   5.325 -0.5884 -0.4662 -1.3324
 2440SOL    HW218954   0.568   3.896   5.260  0.2681  0.8223 -0.4045
 2441SOL     OW18955   2.436   2.491   4.069 -0.1565 -0.4064  0.0928
 2441SOL    HW118956   2.473   2.472   3.982  0.7953 -0.4627  0.5109
 2441SOL    HW218957   2.457   2.411   4.117 -2.2030  0.5717  2.6345
 2442SOL     OW18958   4.670   1.388   6.053 -0.0460  0.1513 -0.4600
 2442SOL    HW118959   4.736   1.318   6.055 -1.0285 -0.8229 -2.2320
 2442SOL    HW218960   4.719   1.434   5.984  0.5735 -0.5492 -0.4896
 2443SOL     OW18961   0.421   1.241   6.435  0.1399  0.1274 -0.0049
 2443SOL    HW118962   0.516   1.229   6.427 -0.1899 -0.4667 -2.8303
 2443SOL    HW218963   0.404   1.213   6.525 -2.4478 -2.5425 -1.3396
 2444SOL     OW18964   0.815   1.921  13.833  0.3387  0.2706  0.1466
 2444SOL    HW118965   0.812   1.892  13.925 -0.2899  1.1753  0.4178
 2444SOL    HW218966   0.725   1.896  13.809 -0.2571  0.9070  1.6816
 2445SOL     OW18967   1.104   4.080  16.262  0.2987  0.4608  0.0711
 2445SOL    HW118968   1.134   3.989  16.264  2.1237  1.0724  0.4105
 2445SOL    HW218969   1.189   4.124  16.267 -0.1669  1.5995 -2.4331
 2446SOL     OW18970   2.940   4.699  17.232  0.0256 -0.0899  0.3641
 2446SOL    HW118971   2.996   4.732  17.303 -1.7206 -0.0853  1.7417
 2446SOL    HW218972   2.951   0.025  17.160 -3.9218  0.4092  0.1881
 2447SOL     OW18973   3.647   0.003   7.344  0.7114  0.3371 -0.1186
 2447SOL    HW118974   3.622   4.692   7.423 -2.2515  0.1616 -1.1596
 2447SOL    HW218975   3.705   0.065   7.389 -1.0288 -0.5961  3.4276
 2448SOL     OW18976   4.571   1.539   4.033 -0.2824  0.0113 -0.1200
 2448SOL    HW118977   4.577   1.444   4.022  1.0978  0.1026 -0.1562
 2448SOL    HW218978   4.549   1.538   4.126 -0.7515  0.0327 -0.2328
 2449SOL     OW18979   3.765   2.633   2.714 -0.2049 -0.2285 -0.1129
 2449SOL    HW118980   3.811   2.638   2.798  1.1376  0.2491 -0.8860
 2449SOL    HW218981   3.785   2.544   2.684 -2.6892 -1.3497  1.5058
 2450SOL     OW18982   2.827   4.355   1.861 -0.1221  0.7312  0.5094
 2450SOL    HW118983   2.796   4.294   1.929  0.6864  0.5664  0.7366
 2450SOL    HW218984   2.747   4.350   1.809  0.3818  1.8865 -0.3679
 2451SOL     OW18985   2.888   0.170   8.750  0.5478 -0.0995  0.8272
 2451SOL    HW118986   2.957   0.116   8.711  0.5469  2.1070 -2.1615
 2451SOL    HW218987   2.813   0.120   8.718  0.7888 -1.5362  2.4876
 2452SOL     OW18988   2.293   4.245   7.082 -0.0458  0.2176 -0.2207
 2452SOL    HW118989   2.257   4.305   7.016 -0.1188 -0.0654 -0.4365
 2452SOL    HW218990   2.291   4.165   7.030 -0.8098 -0.8002  1.3864
 2453SOL     OW18991   2.234   3.572   2.321  0.1573 -0.0721 -0.1034
 2453SOL    HW118992   2.278   3.629   2.258  1.5839 -1.8222 -0.7089
 2453SOL    HW218993   2.142   3.595   2.325  0.1930 -0.3465  2.4356
 2454SOL     OW18994   1.773   2.409   8.510  0.1896  0.1178  0.0285
 2454SOL    HW118995   1.839   2.412   8.441 -0.8214 -0.7949 -0.9754
 2454SOL    HW218996   1.697   2.440   8.460  0.2527  1.7753  0.9692
 2455SOL     OW18997   0.855   3.699   2.345 -0.7163 -0.0431  0.6790
 2455SOL    HW118998   0.901   3.626   2.303  0.3659  2.3854 -2.3205
 2455SOL    HW218999   0.912   3.764   2.303 -1.4867  0.2845  0.1291
 2456SOL     OW19000   3.944   1.515   0.458 -0.2948  0.5301  0.1280
 2456SOL    HW119001   3.998   1.440   0.434 -0.2874  1.1499 -1.7406
 2456SOL    HW219002   3.857   1.480   0.438  0.7446 -1.9881  0.0537
 2457SOL     OW19003   3.934   1.098  14.276 -0.4466  0.1248  0.1843
 2457SOL    HW119004   3.958   1.164  14.341  0.3680 -0.0697  0.0867
 2457SOL    HW219005   4.018   1.065  14.243  0.1844 -0.9770  2.8500
 2458SOL     OW19006   0.767   1.045  17.026 -0.2992 -0.5300  0.4102
 2458SOL    HW119007   0.744   1.085  16.943  0.0095  1.4953  1.2960
 2458SOL    HW219008   0.727   0.958  17.020  0.5534 -0.8819 -0.1003
 2459SOL     OW19009   1.407   3.529  16.276 -0.9312  0.0059 -0.1594
 2459SOL    HW119010   1.349   3.574  16.337 -1.0200 -1.8540  1.1214
 2459SOL    HW219011   1.492   3.563  16.303 -0.4385  0.4465 -2.3288
 2460SOL     OW19012   4.431   2.243   4.521 -0.2671 -0.5609 -0.2765
 2460SOL    HW119013   4.339   2.268   4.534  0.0140  0.2561  0.1199
 2460SOL    HW219014   4.441   2.190   4.600 -2.1244 -0.2250  0.1934
 2461SOL     OW19015   1.606   4.303   6.625 -0.0531 -0.4387 -0.1052
 2461SOL    HW119016   1.673   4.249   6.583 -2.3062 -1.4680 -2.3742
 2461SOL    HW219017   1.546   4.238   6.662 -2.6208  0.8524 -2.0033
 2462SOL     OW19018   3.963   3.946   5.846 -0.1036  0.2270  0.2884
 2462SOL    HW119019   4.014   3.992   5.913 -0.3975  0.8824  0.0532
 2462SOL    HW219020   3.899   3.896   5.898  1.5500 -1.2177  0.9318
 2463SOL     OW19021   1.847   1.082   8.282  0.5843 -0.3708  0.0564
 2463SOL    HW119022   1.770   1.095   8.338  0.5061  0.2300 -0.1987
 2463SOL    HW219023   1.898   1.039   8.351  0.9791  0.5161  0.3091
 2464SOL     OW19024   2.911   1.964  12.874 -0.3040 -0.3943  0.1830
 2464SOL    HW119025   2.968   1.948  12.950  0.3962  1.1243 -0.0384
 2464SOL    HW219026   2.930   2.053  12.844 -0.9844 -0.7369 -1.2735
 2465SOL     OW19027   1.144   1.902   8.323 -0.5934 -0.3646  0.0856
 2465SOL    HW119028   1.137   1.970   8.390 -0.6804 -0.8660  0.5842
 2465SOL    HW219029   1.152   1.824   8.377  0.1610 -1.9497 -2.2732
 2466SOL     OW19030   0.539   0.203   3.245 -0.3793 -0.1529  0.2833
 2466SOL    HW119031   0.522   0.117   3.208  1.9044 -0.2000 -0.6395
 2466SOL    HW219032   0.450   0.236   3.253 -1.2670 -2.3032 -0.6882
 2467SOL     OW19033   3.617   0.297  17.270 -0.4446 -0.1744  0.6458
 2467SOL    HW119034   3.677   0.348  17.326  1.5179 -0.5446 -1.1447
 2467SOL    HW219035   3.589   0.356  17.200  0.7044  0.3996  0.6627
 2468SOL     OW19036   1.449   1.082   3.455  0.5404 -0.4755 -1.2496
 2468SOL    HW119037   1.434   1.072   3.361  1.2416 -3.0584 -1.0750
 2468SOL    HW219038   1.374   1.135   3.484  0.3929 -2.5027  2.0303
 2469SOL     OW19039   0.970   1.887   9.145  0.7092 -0.5863  0.1407
 2469SOL    HW119040   0.989   1.979   9.128  0.6381 -0.8574 -1.3995
 2469SOL    HW219041   1.026   1.882   9.222  1.1411 -3.2663 -0.3535
 2470SOL     OW19042   1.879   1.834  15.006  0.1424  0.6200 -0.1262
 2470SOL    HW119043   1.972   1.815  14.996 -0.8074 -2.8651 -2.4331
 2470SOL    HW219044   1.872   1.917  14.958 -0.2753 -0.2383 -1.5499
 2471SOL     OW19045   1.886   4.493   2.266 -0.4200 -0.1198 -0.2388
 2471SOL    HW119046   1.898   4.429   2.196 -1.1851 -1.0217  0.4636
 2471SOL    HW219047   1.960   4.548   2.240  0.9665 -0.7376  2.3640
 2472SOL     OW19048   4.169   0.020   2.413  0.2077 -0.3000  0.1351
 2472SOL    HW119049   4.195   4.702   2.488  1.3532  2.2141  1.5175
 2472SOL    HW219050   4.163   4.692   2.342  2.1391 -0.0439 -0.2446
 2473SOL     OW19051   1.950   3.867  13.899  0.0584  0.0167 -0.2072
 2473SOL    HW119052   1.912   3.955  13.908  0.9257  0.2247  1.2680
 2473SOL    HW219053   1.907   3.834  13.977  0.5129 -4.2180 -1.7676
 2474SOL     OW19054   4.331   1.960  13.535  0.4268  0.3615  0.0669
 2474SOL    HW119055   4.242   1.987  13.556  0.4200 -0.8577  1.5939
 2474SOL    HW219056   4.324   1.950  13.440  2.4920  0.6260 -0.1301
 2475SOL     OW19057   4.534   2.317   7.704 -0.2156  0.1126  0.0299
 2475SOL    HW119058   4.454   2.370   7.709 -0.9207 -0.9167 -0.4143
 2475SOL    HW219059   4.563   2.329   7.613  1.9617 -1.2749  0.5496
 2476SOL     OW19060   1.085   1.210   3.225  0.3006  0.1354  0.8157
 2476SOL    HW119061   1.119   1.131   3.266 -1.3428 -1.1002 -0.2328
 2476SOL    HW219062   0.993   1.198   3.250  0.4046 -0.1438  1.0555
 2477SOL     OW19063   1.214   0.709   0.010 -1.0102  0.4152 -0.5214
 2477SOL    HW119064   1.223   0.750  17.667  0.7592  1.1395 -0.0007
 2477SOL    HW219065   1.284   0.750   0.061 -0.2462 -0.6378 -0.7397
 2478SOL     OW19066   0.121   1.224   4.864 -0.7882 -0.0274 -0.4790
 2478SOL    HW119067   0.152   1.209   4.774  0.8871  0.8469 -0.0376
 2478SOL    HW219068   0.135   1.318   4.874 -1.0439 -0.3740  2.8724
 2479SOL     OW19069   2.136   1.029   6.171  0.7021  0.0646  0.1480
 2479SOL    HW119070   2.157   0.959   6.109  1.2675 -0.2289  0.6724
 2479SOL    HW219071   2.175   0.980   6.244  0.8528 -0.3733 -0.2221
 2480SOL     OW19072   4.639   1.907   7.995 -0.3391 -0.5929 -0.0714
 2480SOL    HW119073   4.610   1.968   7.927 -1.9183  0.3380  1.4655
 2480SOL    HW219074   4.698   1.861   7.935 -0.1243  0.3019 -0.5470
 2481SOL     OW19075   4.256   1.885   0.262  0.5049 -0.9429  0.7956
 2481SOL    HW119076   4.230   1.860   0.351  1.1264 -1.8152  0.7375
 2481SOL    HW219077   4.351   1.877   0.266  0.6462  0.8145  0.9594
 2482SOL     OW19078   2.596   0.672   9.966 -0.0498 -0.0065  0.3513
 2482SOL    HW119079   2.680   0.669   9.921 -0.4265 -0.0651 -0.3571
 2482SOL    HW219080   2.583   0.766   9.958  0.3541  0.1564  1.5820
 2483SOL     OW19081   1.738   1.341   7.425  0.0448 -0.2105  0.2300
 2483SOL    HW119082   1.655   1.298   7.445 -0.7473  0.4011 -1.7955
 2483SOL    HW219083   1.721   1.394   7.348  0.3051  0.5088  0.6689
 2484SOL     OW19084   1.929   2.810  16.929 -0.7792  0.1205 -0.3715
 2484SOL    HW119085   1.880   2.891  16.942 -0.6072  0.4609 -1.7996
 2484SOL    HW219086   1.938   2.820  16.834 -1.2701 -0.3023 -0.4608
 2485SOL     OW19087   3.604   3.744   3.475 -0.3446  0.1860  0.1563
 2485SOL    HW119088   3.573   3.657   3.452 -0.7338  0.7851 -1.6540
 2485SOL    HW219089   3.644   3.765   3.390 -1.7164  2.5041  0.0741
 2486SOL     OW19090   0.874   4.456  12.486  0.1014 -0.0672 -0.2630
 2486SOL    HW119091   0.903   4.439  12.576  1.9866  1.7274 -0.5535
 2486SOL    HW219092   0.824   4.536  12.505 -2.4099 -1.6297 -0.2681
 2487SOL     OW19093   3.652   1.649   8.175 -0.1282  0.5480 -0.0952
 2487SOL    HW119094   3.674   1.574   8.230 -1.0753  2.0932  2.3891
 2487SOL    HW219095   3.678   1.724   8.228  0.2260  0.7254 -0.5144
 2488SOL     OW19096   2.741   0.392   8.808  0.1921  0.2217 -0.1689
 2488SOL    HW119097   2.686   0.376   8.885  2.8738 -2.6076  1.1803
 2488SOL    HW219098   2.778   0.305   8.796 -0.6910 -0.2903  0.8445
 2489SOL     OW19099   3.453   3.708   6.530 -0.1976  0.3059 -0.0754
 2489SOL    HW119100   3.505   3.632   6.557 -1.2039 -1.4466 -3.0056
 2489SOL    HW219101   3.521   3.774   6.536  2.0852 -1.9995 -0.4030
 2490SOL     OW19102   3.335   3.576   7.349  0.3132 -0.7991 -0.2456
 2490SOL    HW119103   3.298   3.664   7.338  1.1865 -0.5521 -1.2205
 2490SOL    HW219104   3.373   3.592   7.435 -0.8936  0.1134  0.1256
 2491SOL     OW19105   0.800   3.765   5.577 -0.7728  0.2558  0.0472
 2491SOL    HW119106   0.757   3.850   5.587 -0.8990  0.0676  1.1633
 2491SOL    HW219107   0.761   3.707   5.643 -4.0793  2.7105  0.2519
 2492SOL     OW19108   2.009   1.811   4.913 -0.0028 -0.4521  0.4795
 2492SOL    HW119109   1.973   1.723   4.927 -4.3549  1.4905  1.5555
 2492SOL    HW219110   2.088   1.812   4.967  0.9278  0.2607 -0.8963
 2493SOL     OW19111   2.226   2.426   6.599  0.4061  0.0410  0.0284
 2493SOL    HW119112   2.297   2.372   6.635  0.9833  1.4405  1.0059
 2493SOL    HW219113   2.279   2.487   6.547 -0.0365  0.6109  0.2417
 2494SOL     OW19114   2.953   0.671   0.216 -0.1994  0.1356 -0.2856
 2494SOL    HW119115   3.036   0.635   0.245  0.1585  1.1051 -0.1192
 2494SOL    HW219116   2.903   0.590   0.225 -0.0458  0.4176  3.1831
 2495SOL     OW19117   0.676   4.093  14.812 -0.2207  0.0086 -0.1752
 2495SOL    HW119118   0.606   4.027  14.812  1.1519 -1.4488  1.4902
 2495SOL    HW219119   0.658   4.138  14.894 -1.6383  0.2945 -0.6487
 2496SOL     OW19120   2.597   2.822  14.062 -0.7535 -0.2848 -0.6626
 2496SOL    HW119121   2.594   2.782  14.149  0.3620 -0.7768 -0.8539
 2496SOL    HW219122   2.532   2.769  14.015  0.9301 -2.2671 -0.7134
 2497SOL     OW19123   1.377   1.293  13.092  0.6585 -0.0881  0.3592
 2497SOL    HW119124   1.345   1.340  13.169 -1.4507  0.8416 -1.1155
 2497SOL    HW219125   1.460   1.337  13.073  1.7955 -2.3658  0.0938
 2498SOL     OW19126   2.067   4.586   4.235  0.4139 -0.3343  0.7688
 2498SOL    HW119127   2.019   4.516   4.191  0.3128  0.7097 -0.7558
 2498SOL    HW219128   2.066   4.655   4.170 -1.0021 -0.0130  1.1376
 2499SOL     OW19129   0.394   4.731  11.753  0.4553  0.3231 -0.2423
 2499SOL    HW119130   0.484   4.699  11.760 -0.3021 -1.5558  1.0904
 2499SOL    HW219131   0.360   4.665  11.691  0.7148 -0.5978  0.5986
 2500SOL     OW19132   4.335   1.564   7.221  0.1442  0.0402 -0.3410
 2500SOL    HW119133   4.268   1.519   7.170  0.0707 -0.5737  0.2945
 2500SOL    HW219134   4.344   1.651   7.182 -0.1669  1.1997  2.1780
 2501SOL     OW19135   3.110   0.038   6.932 -0.3147  0.1859 -0.0102
 2501SOL    HW119136   3.091   0.049   7.025 -3.5811 -0.9017 -0.5595
 2501SOL    HW219137   3.022   0.025   6.897 -0.5904  1.8204  0.0820
 2502SOL     OW19138   2.174   2.616  15.120 -0.0462 -0.0100 -0.7438
 2502SOL    HW119139   2.208   2.527  15.132  0.2892  0.3866  1.1675
 2502SOL    HW219140   2.197   2.649  15.033 -0.6430  1.3384 -0.3891
 2503SOL     OW19141   4.154   2.618   7.946 -0.0709 -0.1549 -0.1102
 2503SOL    HW119142   4.241   2.579   7.952  0.1798  0.7914  2.4368
 2503SOL    HW219143   4.150   2.676   8.022  2.9773  2.0699 -1.6159
 2504SOL     OW19144   2.378   0.815   7.310 -0.3742 -0.0858  0.5748
 2504SOL    HW119145   2.368   0.845   7.219  0.4909  0.7978  0.7637
 2504SOL    HW219146   2.319   0.876   7.354 -1.7178 -0.4429 -0.7357
 2505SOL     OW19147   2.597   3.941  16.144  0.4427 -0.2521 -0.1924
 2505SOL    HW119148   2.670   3.989  16.105  1.1369  0.8241  2.4365
 2505SOL    HW219149   2.621   3.854  16.111 -0.2650  0.1956 -1.8725
 2506SOL     OW19150   4.309   3.680   1.094 -0.5267  0.3050 -0.2072
 2506SOL    HW119151   4.344   3.769   1.084 -0.7203  0.4534  0.4659
 2506SOL    HW219152   4.354   3.630   1.026  1.0916  1.8608 -0.2919
 2507SOL     OW19153   1.539   0.120   4.617 -0.0843  0.0504  0.1116
 2507SOL    HW119154   1.598   0.080   4.681  0.4253  1.8716  0.7593
 2507SOL    HW219155   1.580   0.085   4.538  2.1819 -0.0704  1.3247
 2508SOL     OW19156   3.914   2.854   2.232 -0.0354  0.0640 -0.2163
 2508SOL    HW119157   3.966   2.871   2.153  0.3201 -0.0377 -0.0040
 2508SOL    HW219158   3.826   2.846   2.193  0.1471  1.1575 -0.8498
 2509SOL     OW19159   1.670   1.670  14.923 -0.6641 -0.1137 -0.1559
 2509SOL    HW119160   1.681   1.680  14.829  1.3840 -0.5431  0.0337
 2509SOL    HW219161   1.725   1.740  14.959 -0.1713 -1.1004  1.0316
 2510SOL     OW19162   3.156   1.832   2.220 -0.0929  0.0377  0.2946
 2510SOL    HW119163   3.160   1.738   2.238 -0.4704 -0.2692 -1.2318
 2510SOL    HW219164   3.136   1.835   2.126  0.6611  0.3179  0.1491
 2511SOL     OW19165   0.117   1.978   9.300  0.7082  0.9886 -0.2101
 2511SOL    HW119166   0.150   1.918   9.233  2.2865  0.3545  1.1477
 2511SOL    HW219167   0.100   2.053   9.244 -0.5734  0.5968 -0.3441
 2512SOL     OW19168   2.155   3.947   4.045  0.0932  0.6382  0.6051
 2512SOL    HW119169   2.231   3.964   3.990 -1.3304 -0.9085 -1.8488
 2512SOL    HW219170   2.096   4.010   4.004 -0.1098  0.3552  0.4599
 2513SOL     OW19171   1.907   1.450   3.595  0.0994  0.2826 -0.6755
 2513SOL    HW119172   1.974   1.382   3.594 -0.7833 -0.5962 -0.4476
 2513SOL    HW219173   1.885   1.445   3.688  0.4980 -0.4547 -0.6172
 2514SOL     OW19174   0.287   3.595  12.207  0.0936  0.8246 -0.0374
 2514SOL    HW119175   0.248   3.644  12.134 -0.4889  0.9251  0.3369
 2514SOL    HW219176   0.243   3.510  12.204 -2.1208  2.0329 -1.6452
 2515SOL     OW19177   4.706   4.133   1.077  0.1941 -0.1308 -0.5100
 2515SOL    HW119178   0.023   4.056   1.056 -2.2794 -1.1284 -3.1715
 2515SOL    HW219179   4.693   4.180   0.994  0.6253  1.4825  0.3260
 2516SOL     OW19180   2.345   4.045   7.406  0.4183  0.0662 -0.0760
 2516SOL    HW119181   2.389   4.102   7.469 -1.2548  1.7145 -0.3875
 2516SOL    HW219182   2.283   4.107   7.366  1.1431 -0.6332 -2.2817
 2517SOL     OW19183   0.565   0.246   3.976  0.4602 -0.1620 -0.0773
 2517SOL    HW119184   0.653   0.261   3.941  1.1627 -1.6875  1.0457
 2517SOL    HW219185   0.538   0.336   3.993 -1.9925 -1.0941  0.9849
 2518SOL     OW19186   1.995   4.392   5.369 -0.4323  0.4131  0.2870
 2518SOL    HW119187   1.999   4.306   5.411 -0.2870  0.1784 -0.2119
 2518SOL    HW219188   1.952   4.436   5.442 -1.4148 -0.2901  0.1369
 2519SOL     OW19189   0.193   0.799   4.915  0.0349  0.1621  0.2014
 2519SOL    HW119190   0.215   0.731   4.979  0.3503 -0.0393 -0.1217
 2519SOL    HW219191   0.190   0.873   4.975  1.7939  0.1133  0.3605
 2520SOL     OW19192   0.301   3.062   6.111  0.1617  0.0984 -0.1884
 2520SOL    HW119193   0.375   3.109   6.073 -0.6545  0.7209 -1.0036
 2520SOL    HW219194   0.325   2.973   6.085  1.2315  0.0002  1.1811
 2521SOL     OW19195   3.505   1.301   1.113 -0.0415 -0.0495  0.2846
 2521SOL    HW119196   3.456   1.380   1.136  0.5177  1.1505 -2.5426
 2521SOL    HW219197   3.551   1.319   1.030 -0.6238 -0.0039 -0.0287
 2522SOL     OW19198   1.085   4.402  10.270 -0.4538 -0.1284 -0.2887
 2522SOL    HW119199   1.135   4.427  10.348 -0.4547  0.1739 -0.3842
 2522SOL    HW219200   1.081   4.307  10.283 -0.6528 -0.0413  0.2944
 2523SOL     OW19201   2.526   1.929   6.269  0.6187 -0.2781 -0.5559
 2523SOL    HW119202   2.556   1.842   6.296 -1.2714 -0.7977 -0.0828
 2523SOL    HW219203   2.557   1.930   6.179  1.1186 -0.5110 -0.3892
 2524SOL     OW19204   4.110   2.737   6.769  0.2500 -0.2653  0.8012
 2524SOL    HW119205   4.142   2.647   6.758  0.8532  0.4315 -3.0347
 2524SOL    HW219206   4.159   2.769   6.845 -2.0223  1.3002  1.5976
 2525SOL     OW19207   4.271   2.927  13.793 -0.1922  0.2989  0.1914
 2525SOL    HW119208   4.229   2.864  13.734 -0.0062  0.4443 -0.0963
 2525SOL    HW219209   4.223   2.918  13.875 -0.9323  0.3646 -0.2297
 2526SOL     OW19210   4.109   1.040   7.234  0.0456 -0.7771 -0.3830
 2526SOL    HW119211   4.030   0.991   7.211 -1.2239  1.8753 -1.6501
 2526SOL    HW219212   4.138   1.052   7.144 -0.2293  0.0926 -0.3548
 2527SOL     OW19213   3.792   0.460   5.896  0.5397  0.6278 -0.5225
 2527SOL    HW119214   3.858   0.414   5.844  0.3012  0.9882 -1.1412
 2527SOL    HW219215   3.857   0.500   5.954 -1.1561  1.0018  1.1146
 2528SOL     OW19216   2.189   1.315   5.345 -0.0745 -0.1002  0.1396
 2528SOL    HW119217   2.242   1.383   5.302  0.7268  2.2928  4.9117
 2528SOL    HW219218   2.145   1.362   5.416 -3.7142 -0.4822 -1.8980
 2529SOL     OW19219   0.996   2.225   8.246  0.0504  0.5636  0.2040
 2529SOL    HW119220   0.963   2.169   8.176  0.8646  2.4404 -1.7049
 2529SOL    HW219221   1.089   2.236   8.224 -0.0505 -1.7561 -1.3379
 2530SOL     OW19222   0.403   0.383  12.541 -0.0849  0.2104 -0.5120
 2530SOL    HW119223   0.323   0.348  12.580  0.3423  1.3550  1.3701
 2530SOL    HW219224   0.461   0.307  12.534 -1.2984 -0.8271  0.5354
 2531SOL     OW19225   1.352   0.805   7.315  0.4434 -0.1249 -0.5111
 2531SOL    HW119226   1.312   0.892   7.318 -3.8680 -2.1954  1.6069
 2531SOL    HW219227   1.292   0.756   7.259 -0.3330  0.9127 -0.5732
 2532SOL     OW19228   0.444   0.275  10.905 -0.3539 -0.1988 -0.4757
 2532SOL    HW119229   0.416   0.362  10.879 -3.0817 -0.6355  0.9465
 2532SOL    HW219230   0.467   0.246  10.817  0.6315  2.1488 -0.9882
 2533SOL     OW19231   1.701   3.418   2.432  0.9230  0.0250 -0.6266
 2533SOL    HW119232   1.680   3.359   2.505 -0.5901 -0.3353 -1.3412
 2533SOL    HW219233   1.787   3.448   2.461  1.0006  0.0229 -0.8628
 2534SOL     OW19234   4.215   2.308  16.053 -0.1851  0.2364  0.3809
 2534SOL    HW119235   4.296   2.344  16.018 -0.8653  1.7862  0.4226
 2534SOL    HW219236   4.150   2.345  15.993  0.4339  0.2650 -0.2693
 2535SOL     OW19237   0.423   1.186   4.260 -0.1362  0.3515 -0.0872
 2535SOL    HW119238   0.392   1.127   4.329 -0.5104  2.2405  1.3744
 2535SOL    HW219239   0.441   1.114   4.201  0.1547 -0.9697  1.6137
 2536SOL     OW19240   3.927   1.815   8.819 -0.6845  0.0279 -0.1322
 2536SOL    HW119241   4.003   1.791   8.871 -0.9532 -2.1110 -0.7377
 2536SOL    HW219242   3.953   1.761   8.744 -0.1210  2.1231 -1.4699
 2537SOL     OW19243   4.605   4.262  15.085  0.3385  0.7076 -0.0717
 2537SOL    HW119244   4.637   4.316  15.013  1.7981 -0.8671 -0.6170
 2537SOL    HW219245   4.662   4.279  15.159  0.4670  2.1001 -0.4893
 2538SOL     OW19246   4.455   3.323   6.900 -0.1249  0.4766  0.4891
 2538SOL    HW119247   4.489   3.396   6.952  1.3337  0.4512 -0.4125
 2538SOL    HW219248   4.400   3.367   6.836 -0.7122  0.0188  0.6802
 2539SOL     OW19249   0.082   2.612   2.841 -0.9127  0.3630 -0.6677
 2539SOL    HW119250   0.107   2.520   2.840  2.3855  1.2440  0.2916
 2539SOL    HW219251   0.016   2.612   2.910 -1.6909 -0.0151 -1.4131
 2540SOL     OW19252   1.696   3.887   8.673  0.1196  0.2335 -0.0514
 2540SOL    HW119253   1.789   3.905   8.681  0.5278 -1.9934  0.2953
 2540SOL    HW219254   1.667   3.867   8.762 -0.3756 -0.5330 -0.3805
 2541SOL     OW19255   1.048   3.887   0.981 -0.0475  0.3327  0.1873
 2541SOL    HW119256   1.090   3.971   0.998  0.0562  0.5510 -1.1865
 2541SOL    HW219257   1.065   3.881   0.887  1.8251  2.0780  0.4185
 2542SOL     OW19258   2.324   3.888   9.317 -0.0778 -0.5135  0.0843
 2542SOL    HW119259   2.306   3.870   9.225  1.2609 -3.3955  0.3990
 2542SOL    HW219260   2.412   3.923   9.311 -1.4053  2.9897  0.7210
 2543SOL     OW19261   1.204   0.691   6.372 -0.3230 -0.0300 -0.2933
 2543SOL    HW119262   1.254   0.756   6.422 -0.6841  1.9022 -2.4453
 2543SOL    HW219263   1.133   0.669   6.431  0.8370 -1.1822  0.6779
 2544SOL     OW19264   2.934   3.671   7.245 -0.5169 -0.8578 -0.5192
 2544SOL    HW119265   2.987   3.729   7.190 -0.0031 -1.1930 -0.3782
 2544SOL    HW219266   2.962   3.699   7.332 -2.0992  0.2321 -0.3739
 2545SOL     OW19267   2.302   0.611   5.511  0.2641 -0.5484  0.2880
 2545SOL    HW119268   2.346   0.617   5.595 -1.5471 -1.5781  1.3131
 2545SOL    HW219269   2.364   0.666   5.463 -0.2241 -0.3666 -0.1367
 2546SOL     OW19270   3.309   2.781   3.906  0.1994  0.5469  0.2892
 2546SOL    HW119271   3.219   2.805   3.926 -0.9006  0.6609 -4.7519
 2546SOL    HW219272   3.360   2.862   3.899 -0.8106  1.0449 -1.3283
 2547SOL     OW19273   1.335   4.298   8.061 -0.3883  0.3140 -0.3561
 2547SOL    HW119274   1.413   4.259   8.021 -0.6801 -0.1901 -0.4217
 2547SOL    HW219275   1.379   4.373   8.102  0.4324  1.2297 -2.8717
 2548SOL     OW19276   3.875   0.501   1.414 -0.1224  0.0500 -0.5549
 2548SOL    HW119277   3.809   0.516   1.347  0.7581 -1.8034 -1.8308
 2548SOL    HW219278   3.845   0.418   1.452 -2.4641  2.4422  2.8009
 2549SOL     OW19279   4.572   4.187   1.389  0.7446 -0.5638 -0.1012
 2549SOL    HW119280   4.507   4.211   1.322  1.0452  0.2669 -0.0885
 2549SOL    HW219281   4.657   4.209   1.352 -0.3972  1.4047 -1.5841
 2550SOL     OW19282   1.602   4.263  13.829 -0.2354 -0.3768 -0.0688
 2550SOL    HW119283   1.538   4.311  13.881 -0.4085  1.3057 -1.8086
 2550SOL    HW219284   1.546   4.187  13.815 -0.3156 -0.0491 -1.5202
 2551SOL     OW19285   4.102   3.189   6.401 -0.3532 -0.8188  0.3357
 2551SOL    HW119286   4.115   3.284   6.409  1.4166 -1.1661  1.6072
 2551SOL    HW219287   4.193   3.166   6.383 -1.3761 -3.0937 -1.9573
 2552SOL     OW19288   0.571   4.358   8.927  0.3437  0.1327 -0.0367
 2552SOL    HW119289   0.578   4.273   8.884  1.3277  0.6527 -0.9078
 2552SOL    HW219290   0.531   4.343   9.012 -0.4558  0.0102 -0.4292
 2553SOL     OW19291   1.811   3.964   3.113  0.2415 -0.1166  0.2498
 2553SOL    HW119292   1.763   4.039   3.146  0.4871  0.7067 -1.2390
 2553SOL    HW219293   1.870   3.948   3.186  0.7914 -0.8847 -0.3643
 2554SOL     OW19294   1.790   4.200   3.565 -0.6566  0.9735  0.4275
 2554SOL    HW119295   1.767   4.290   3.591  1.3563  1.8471 -0.7618
 2554SOL    HW219296   1.718   4.154   3.608 -0.0752 -0.1133  0.2246
 2555SOL     OW19297   3.136   4.477   7.963 -0.7349  0.5817 -0.0290
 2555SOL    HW119298   3.207   4.483   8.027  0.4349 -0.3405 -1.2309
 2555SOL    HW219299   3.150   4.562   7.922  1.0205  0.1768 -0.2573
 2556SOL     OW19300   1.829   1.153   9.172  0.2183  0.1250 -0.0514
 2556SOL    HW119301   1.780   1.072   9.178  1.5504 -0.7324 -0.7079
 2556SOL    HW219302   1.815   1.173   9.079  0.6272 -1.8734 -0.5494
 2557SOL     OW19303   3.355   2.724   4.192  0.5654  0.4742  0.1035
 2557SOL    HW119304   3.262   2.745   4.186  0.3829 -0.2140  0.4583
 2557SOL    HW219305   3.378   2.718   4.099 -1.5588  0.7180 -0.4312
 2558SOL     OW19306   0.864   2.219  13.177 -0.2038 -0.5067  0.1318
 2558SOL    HW119307   0.854   2.238  13.084  1.5014 -0.0005  0.0464
 2558SOL    HW219308   0.845   2.304  13.215 -1.1117 -0.5334 -0.2627
 2559SOL     OW19309   2.655   1.987  11.637 -0.1750  0.0341 -0.1175
 2559SOL    HW119310   2.641   1.901  11.598  3.6724 -0.7029  0.1149
 2559SOL    HW219311   2.749   2.002  11.623 -0.9033  0.6394 -4.3507
 2560SOL     OW19312   4.237   4.414   4.292  0.4193 -0.1630  0.5901
 2560SOL    HW119313   4.287   4.432   4.212  0.7577  0.3689  0.9226
 2560SOL    HW219314   4.170   4.354   4.259  0.4220 -0.5155  1.2227
 2561SOL     OW19315   2.700   2.843   8.515  0.0051 -0.9018 -0.0283
 2561SOL    HW119316   2.627   2.902   8.495  0.5795 -0.7372 -1.6457
 2561SOL    HW219317   2.713   2.798   8.431  1.7569  1.5317 -1.0887
 2562SOL     OW19318   4.233   2.848   3.760  0.4004  0.6171  0.2279
 2562SOL    HW119319   4.308   2.807   3.803 -0.2559 -1.0965 -0.2544
 2562SOL    HW219320   4.170   2.776   3.756  0.1137  0.8966 -0.3544
 2563SOL     OW19321   2.414   1.746   6.443 -0.4269 -0.1295 -0.0802
 2563SOL    HW119322   2.330   1.767   6.485  0.1478  2.2918 -0.1191
 2563SOL    HW219323   2.470   1.790   6.507 -1.3773 -1.1617  1.4395
 2564SOL     OW19324   2.620   3.649  14.155  0.1533 -0.1302  0.1077
 2564SOL    HW119325   2.691   3.607  14.106 -1.5035 -1.1908 -1.4137
 2564SOL    HW219326   2.646   3.738  14.133 -0.2722  0.5513  2.3894
 2565SOL     OW19327   1.391   4.339   7.590  0.5184 -0.1936  0.0025
 2565SOL    HW119328   1.442   4.331   7.670  0.9471 -1.3116 -0.3810
 2565SOL    HW219329   1.334   4.262   7.582 -1.2611  0.7135  3.9973
 2566SOL     OW19330   0.049   0.366  17.668  0.4238 -0.2417 -0.3835
 2566SOL    HW119331   0.073   0.395  17.580  1.3003  0.3063  0.0354
 2566SOL    HW219332   0.111   0.413  17.724  0.1350  0.5126 -0.7000
 2567SOL     OW19333   2.814   3.352   4.528  0.3141 -0.8882  0.5047
 2567SOL    HW119334   2.808   3.444   4.553  2.3073 -0.0145 -2.2251
 2567SOL    HW219335   2.734   3.324   4.572  1.3855 -0.4184  2.7121
 2568SOL     OW19336   1.635   3.336   9.413 -0.1532 -0.4383 -0.3133
 2568SOL    HW119337   1.623   3.428   9.437  1.1413 -0.3566  0.0265
 2568SOL    HW219338   1.724   3.323   9.379 -1.0356 -2.1198 -1.9720
 2569SOL     OW19339   0.541   3.608   0.112  0.4894  0.3604 -0.2548
 2569SOL    HW119340   0.624   3.573   0.143 -0.2506 -1.7198 -0.5886
 2569SOL    HW219341   0.490   3.625   0.191  0.9086 -0.4581  0.1918
 2570SOL     OW19342   4.496   4.649   6.495  0.1807  0.2885 -0.4146
 2570SOL    HW119343   4.444   4.574   6.467 -2.1680  1.7879 -0.1305
 2570SOL    HW219344   4.424   4.713   6.492 -1.5624 -1.7423 -2.2277
 2571SOL     OW19345   0.441   0.361   7.010  0.0143  0.2702  0.2456
 2571SOL    HW119346   0.429   0.309   6.930 -2.7215 -1.6542  1.8941
 2571SOL    HW219347   0.458   0.447   6.971 -1.2132  0.2072 -0.4320
 2572SOL     OW19348   0.408   1.517   3.667  0.0121 -0.2309 -0.6682
 2572SOL    HW119349   0.340   1.536   3.602 -1.0677  0.5550  0.6867
 2572SOL    HW219350   0.366   1.531   3.752  1.3877 -0.8165  0.1051
 2573SOL     OW19351   1.770   4.639   8.893 -0.1157  0.0045  0.1951
 2573SOL    HW119352   1.761   4.561   8.948  0.7318  0.5362  1.0910
 2573SOL    HW219353   1.795   4.696   8.966  0.7582 -1.0602  0.7354
 2574SOL     OW19354   4.659   2.436  12.154  0.6023  0.4003  0.4095
 2574SOL    HW119355   4.678   2.352  12.196  0.9957 -0.5293 -1.5806
 2574SOL    HW219356   0.002   2.457  12.104 -0.7733  2.6018 -0.8380
 2575SOL     OW19357   0.739   0.303   6.854  0.2134  0.0132 -0.2510
 2575SOL    HW119358   0.711   0.370   6.792 -1.1255 -0.9454 -0.6773
 2575SOL    HW219359   0.755   0.364   6.926  0.9826 -1.4786  0.8430
 2576SOL     OW19360   4.028   3.567   7.832 -0.2744 -0.2054 -0.6212
 2576SOL    HW119361   3.983   3.647   7.862 -0.2602  0.7345 -3.1249
 2576SOL    HW219362   3.967   3.498   7.858 -0.1040  0.0098  0.3628
 2577SOL     OW19363   4.517   0.609   6.815 -0.2582  0.1088  0.4116
 2577SOL    HW119364   4.596   0.649   6.850 -1.2788 -0.3780  3.2833
 2577SOL    HW219365   4.450   0.639   6.877 -0.2036 -0.8095  0.9244
 2578SOL     OW19366   4.431   0.872   2.481 -0.2596  0.3457  0.2921
 2578SOL    HW119367   4.464   0.783   2.470 -0.2917  0.6518 -2.3293
 2578SOL    HW219368   4.397   0.876   2.392 -1.1208 -0.4399  0.5995
 2579SOL     OW19369   4.286   3.504   5.357 -0.7167 -0.3435 -0.9094
 2579SOL    HW119370   4.300   3.474   5.447  0.3600  1.6489 -0.4209
 2579SOL    HW219371   4.190   3.500   5.353 -0.8173  1.1903  0.0689
 2580SOL     OW19372   3.615   2.054  17.736 -0.4030  0.3639 -0.0722
 2580SOL    HW119373   3.527   2.019  17.723  0.2994 -1.0072 -1.1001
 2580SOL    HW219374   3.595   2.133   0.044 -0.3551 -0.7620  1.6771
 2581SOL     OW19375   3.202   3.730   1.031 -0.4105  0.0259 -0.4277
 2581SOL    HW119376   3.264   3.697   0.965  1.8209 -0.3358  1.8535
 2581SOL    HW219377   3.232   3.688   1.111 -2.2972 -0.6219 -0.0666
 2582SOL     OW19378   1.376   1.894  13.018 -0.0660 -0.6001  0.2485
 2582SOL    HW119379   1.396   1.957  12.949 -0.3009 -0.3567  0.4050
 2582SOL    HW219380   1.314   1.943  13.072  0.0826 -1.4834  1.2223
 2583SOL     OW19381   0.139   2.108   4.632  0.4097 -0.0378  0.2933
 2583SOL    HW119382   0.190   2.043   4.681 -0.6597 -1.9793 -1.1535
 2583SOL    HW219383   0.203   2.179   4.634  1.0623 -0.6762  1.9843
 2584SOL     OW19384   0.828   2.639  15.977  0.1264 -0.3367  0.5552
 2584SOL    HW119385   0.783   2.678  16.052 -0.8157 -0.0586 -0.1659
 2584SOL    HW219386   0.754   2.592  15.939 -0.3227  0.1825  0.8024
 2585SOL     OW19387   0.874   2.577   8.746  0.1848  0.0192 -0.4464
 2585SOL    HW119388   0.924   2.583   8.827  1.1622 -1.8522 -0.9168
 2585SOL    HW219389   0.829   2.496   8.770 -0.3361  0.5400  0.3506
 2586SOL     OW19390   4.280   2.431  16.968 -0.1282 -0.0564  0.5093
 2586SOL    HW119391   4.307   2.353  16.918  0.5869 -0.9121  2.2451
 2586SOL    HW219392   4.232   2.482  16.903 -0.0911  1.0195  1.3478
 2587SOL     OW19393   1.665   3.644  15.113  0.2460  0.3214 -0.2845
 2587SOL    HW119394   1.619   3.667  15.194 -0.3742 -0.8089 -0.3060
 2587SOL    HW219395   1.591   3.593  15.079  1.1694 -0.7745 -0.6580
 2588SOL     OW19396   3.849   0.962   7.196 -0.4426  0.4306  0.6198
 2588SOL    HW119397   3.799   0.883   7.215  0.9382 -0.8347 -1.0284
 2588SOL    HW219398   3.797   0.983   7.119 -0.1705  2.5036  0.9912
 2589SOL     OW19399   4.323   1.259  15.146 -0.7802 -0.2022  0.2376
 2589SOL    HW119400   4.318   1.322  15.218  2.4737  0.2704  0.0228
 2589SOL    HW219401   4.262   1.196  15.186 -0.2520  0.4025  1.9905
 2590SOL     OW19402   3.732   4.435   3.466  0.3762 -0.5568  0.2398
 2590SOL    HW119403   3.646   4.394   3.476  0.5174 -1.1615 -1.0936
 2590SOL    HW219404   3.718   4.466   3.377 -2.3626  1.1558  1.2439
 2591SOL     OW19405   2.102   2.814  11.542  0.0924 -0.2544 -0.0639
 2591SOL    HW119406   2.021   2.772  11.514 -0.3703  1.4794 -1.2589
 2591SOL    HW219407   2.159   2.793  11.468  1.6467  2.5153  0.3691
 2592SOL     OW19408   1.904   1.415  15.867  0.0915 -0.2294  0.0742
 2592SOL    HW119409   1.958   1.494  15.861 -1.2642  0.6999  0.1542
 2592SOL    HW219410   1.834   1.432  15.805  0.4541 -1.0879 -0.5757
 2593SOL     OW19411   4.473   0.509  11.793  0.5910  0.6042  0.0685
 2593SOL    HW119412   4.537   0.471  11.854  0.5436 -1.4284 -1.1453
 2593SOL    HW219413   4.534   0.552  11.733  1.4261  1.6152  1.6614
 2594SOL     OW19414   2.175   1.307   6.135  0.0737  0.0039 -0.3231
 2594SOL    HW119415   2.181   1.309   6.040  0.4892  0.3005 -0.2905
 2594SOL    HW219416   2.152   1.217   6.157  3.8058 -0.8967 -0.1152
 2595SOL     OW19417   3.257   1.557   5.589  0.2032  0.2059 -0.2536
 2595SOL    HW119418   3.185   1.597   5.637  0.2353 -0.8766  0.6926
 2595SOL    HW219419   3.241   1.580   5.497  1.0737  1.2555 -0.1387
 2596SOL     OW19420   3.556   3.807   9.705  0.3901  0.0376 -0.4537
 2596SOL    HW119421   3.571   3.890   9.750  0.3421 -0.9668  1.4436
 2596SOL    HW219422   3.584   3.744   9.772  0.2469  0.1427 -0.2946
 2597SOL     OW19423   4.704   2.988  10.264  0.6043 -0.0742 -0.5626
 2597SOL    HW119424   4.657   2.913  10.301  0.8065 -1.4048 -3.0403
 2597SOL    HW219425   0.051   2.958  10.229  0.9293  0.8015 -0.5390
 2598SOL     OW19426   0.395   2.344  16.472  0.1386 -0.7386  0.5237
 2598SOL    HW119427   0.329   2.407  16.504 -0.7084 -0.4104 -1.9064
 2598SOL    HW219428   0.466   2.406  16.457  0.5330 -1.5354 -0.8335
 2599SOL     OW19429   0.395   0.360   0.609 -0.2925  0.0353 -0.4485
 2599SOL    HW119430   0.483   0.365   0.572  0.1058 -2.7292  0.1108
 2599SOL    HW219431   0.365   0.280   0.568 -0.5394 -1.3551  2.4415
 2600SOL     OW19432   1.694   3.786   8.927 -0.4036 -0.5376 -0.2786
 2600SOL    HW119433   1.652   3.701   8.918  2.3433 -1.7528 -1.8632
 2600SOL    HW219434   1.630   3.838   8.975 -0.9212  0.1728 -1.7530
 2601SOL     OW19435   1.007   0.313   2.696  0.0133  0.3103 -0.2069
 2601SOL    HW119436   1.068   0.364   2.751  1.6516  1.5142 -3.1328
 2601SOL    HW219437   1.039   0.338   2.610  3.4402 -1.5780  0.5219
 2602SOL     OW19438   2.261   0.404   9.983 -0.1978  0.5462 -0.1325
 2602SOL    HW119439   2.350   0.392  10.017 -0.8891 -0.4214  1.3618
 2602SOL    HW219440   2.207   0.413  10.062 -0.9792  0.8029 -0.6918
 2603SOL     OW19441   2.124   4.057   2.900  0.0990  0.1541  0.1594
 2603SOL    HW119442   2.145   3.966   2.917  1.6511  0.8892  2.2285
 2603SOL    HW219443   2.116   4.097   2.987 -1.9933 -0.1456  0.1208
 2604SOL     OW19444   0.816   3.517   5.817 -0.3923 -0.5790 -0.2468
 2604SOL    HW119445   0.880   3.483   5.756 -0.9152 -0.2938 -0.9505
 2604SOL    HW219446   0.778   3.434   5.847 -0.1934 -0.8937 -0.8708
 2605SOL     OW19447   2.068   1.153   1.766  0.4059  0.8468 -0.0779
 2605SOL    HW119448   2.152   1.193   1.790  0.5633  0.8735 -0.6659
 2605SOL    HW219449   2.007   1.208   1.815  1.8738  2.2680  0.1363
 2606SOL     OW19450   1.461   3.423   6.285  0.4601 -0.1533  0.1722
 2606SOL    HW119451   1.516   3.485   6.333  3.1021 -3.4495  1.4703
 2606SOL    HW219452   1.371   3.446   6.308  1.4932  2.6155  1.4483
 2607SOL     OW19453   2.413   2.619   1.690 -0.1609  0.0554 -0.0945
 2607SOL    HW119454   2.375   2.693   1.738  0.6419  0.4676 -0.1031
 2607SOL    HW219455   2.334   2.587   1.645 -0.5565  2.0894 -0.8629
 2608SOL     OW19456   3.126   4.464   8.300  0.3518 -0.2281 -0.7357
 2608SOL    HW119457   3.189   4.455   8.228  2.9269 -0.9773  1.6052
 2608SOL    HW219458   3.042   4.430   8.269  0.1934 -0.9972  0.5389
 2609SOL     OW19459   2.484   0.216  14.503  1.0681  0.0887 -0.5719
 2609SOL    HW119460   2.533   0.145  14.544 -0.0933  0.8985  2.2324
 2609SOL    HW219461   2.464   0.264  14.584 -1.5752 -1.9696 -0.0005
 2610SOL     OW19462   2.701   4.484  11.027 -0.0312  0.1043 -0.0807
 2610SOL    HW119463   2.611   4.451  11.026  0.2498 -0.5743 -3.6314
 2610SOL    HW219464   2.696   4.580  11.026  1.9418  0.2279  3.3386
 2611SOL     OW19465   3.452   0.528   4.751 -0.3710  0.3379  0.3158
 2611SOL    HW119466   3.362   0.535   4.785  0.3549 -1.2157  2.5397
 2611SOL    HW219467   3.471   0.618   4.723  2.3462 -0.5148 -0.5729
 2612SOL     OW19468   0.483   0.075   9.054  0.3556  0.2353 -0.0941
 2612SOL    HW119469   0.477   0.024   8.973  0.8842  0.7721 -0.4649
 2612SOL    HW219470   0.566   0.047   9.091  0.2596  0.6131  0.4091
 2613SOL     OW19471   2.868   2.651  17.501 -0.2013  0.2965 -0.3439
 2613SOL    HW119472   2.961   2.670  17.494  0.1749 -0.7130  1.8615
 2613SOL    HW219473   2.851   2.605  17.418 -0.9136  1.5298 -0.8878
 2614SOL     OW19474   3.848   3.501   5.810  0.2131  0.0249 -0.1092
 2614SOL    HW119475   3.813   3.553   5.883 -0.2123  0.8260 -0.8747
 2614SOL    HW219476   3.768   3.454   5.787 -0.4030  0.8717  0.2578
 2615SOL     OW19477   0.797   0.079   7.675 -0.3425  0.0065  0.1896
 2615SOL    HW119478   0.746   4.735   7.683  0.9821 -0.9318 -0.9248
 2615SOL    HW219479   0.736   0.130   7.621 -0.2367 -2.2591 -2.0491
 2616SOL     OW19480   1.222   2.953   7.788 -0.1654 -0.4207  0.0502
 2616SOL    HW119481   1.208   2.873   7.737  2.4495 -0.1831 -1.0465
 2616SOL    HW219482   1.273   2.908   7.854  0.6478 -0.1119 -0.3692
 2617SOL     OW19483   3.575   3.803   5.532  0.7699  0.0948  0.0347
 2617SOL    HW119484   3.567   3.882   5.585  2.2639  0.6313 -0.5310
 2617SOL    HW219485   3.534   3.742   5.593  0.3039  0.7601  0.3846
 2618SOL     OW19486   3.927   4.681   7.088 -0.1896  0.2784  0.4675
 2618SOL    HW119487   3.928   4.620   7.162 -0.2527  0.2058  0.4102
 2618SOL    HW219488   3.997   4.640   7.036 -0.7656 -1.0794  0.7667
 2619SOL     OW19489   0.736   1.208   3.526 -0.3239  0.0157 -0.2052
 2619SOL    HW119490   0.651   1.200   3.482  0.1782  0.5704 -1.2582
 2619SOL    HW219491   0.704   1.215   3.616 -1.0451  0.5243 -0.5049
 2620SOL     OW19492   3.633   1.663   7.709  0.2811  0.5119  0.1608
 2620SOL    HW119493   3.705   1.724   7.724  1.3057  0.4462 -4.4097
 2620SOL    HW219494   3.624   1.660   7.614  0.4875 -0.2227  0.1682
 2621SOL     OW19495   4.240   3.338   2.580  0.0728  0.3101  0.4512
 2621SOL    HW119496   4.201   3.251   2.580  0.2333  0.2384  0.2255
 2621SOL    HW219497   4.189   3.383   2.647  1.6251 -0.9802  2.5071
 2622SOL     OW19498   1.824   3.030   6.160  0.3489  0.5286  0.1271
 2622SOL    HW119499   1.792   3.117   6.187  2.3402  1.0412  0.8682
 2622SOL    HW219500   1.781   2.972   6.222  0.3070 -1.4035 -1.7471
 2623SOL     OW19501   0.397   0.016   3.085  0.0336  0.4047 -0.2096
 2623SOL    HW119502   0.307   0.008   3.054  0.0124 -0.9066  0.2235
 2623SOL    HW219503   0.429   0.089   3.032 -0.6326  0.7385 -0.1521
 2624SOL     OW19504   1.859   3.029   4.357 -0.6672  0.3260  0.1761
 2624SOL    HW119505   1.866   3.002   4.265 -1.3849  1.6686 -0.2736
 2624SOL    HW219506   1.799   2.973   4.407 -1.7433  1.1344 -0.1983
 2625SOL     OW19507   0.305   1.030  13.611  0.1101  0.0422 -0.1024
 2625SOL    HW119508   0.371   1.042  13.543  0.9272 -0.2904  0.6179
 2625SOL    HW219509   0.348   0.964  13.666 -0.8135  0.2043  0.8147
 2626SOL     OW19510   2.692   0.608   3.233  0.0612 -0.5282 -0.0802
 2626SOL    HW119511   2.759   0.665   3.272  0.9889 -2.2077  0.8532
 2626SOL    HW219512   2.743   0.542   3.185  0.3830  0.3127 -0.8829
 2627SOL     OW19513   4.327   4.270   6.181 -0.2388 -0.1525  0.7998
 2627SOL    HW119514   4.297   4.356   6.149  0.7229  0.0592  0.4630
 2627SOL    HW219515   4.421   4.289   6.182 -0.4481  0.9007  0.9989
 2628SOL     OW19516   4.248   1.372   6.885  0.1448 -0.6780 -0.3286
 2628SOL    HW119517   4.228   1.438   6.818  0.1807  1.4343  1.7791
 2628SOL    HW219518   4.336   1.342   6.863  1.6621  2.4388  1.4908
 2629SOL     OW19519   4.202   1.283   2.766  0.1078  0.1203  0.0302
 2629SOL    HW119520   4.154   1.312   2.844  0.1149  0.8262 -0.2226
 2629SOL    HW219521   4.293   1.293   2.793  0.1275  1.3818 -0.5025
 2630SOL     OW19522   0.404   2.510   6.808 -0.3472  0.3496  0.1240
 2630SOL    HW119523   0.350   2.432   6.804 -1.9963  1.4761  0.4927
 2630SOL    HW219524   0.492   2.474   6.819 -0.7949 -0.4108  1.1613
 2631SOL     OW19525   4.218   1.772  16.037 -0.2303 -0.6149  0.0898
 2631SOL    HW119526   4.139   1.820  16.062 -0.5705 -1.5452  0.7909
 2631SOL    HW219527   4.282   1.803  16.099 -1.2818  0.1179  0.8054
 2632SOL     OW19528   0.123   2.355   8.191  0.4125 -0.1917  0.1379
 2632SOL    HW119529   0.093   2.434   8.145 -2.3442 -0.2237  1.8794
 2632SOL    HW219530   0.192   2.398   8.241  1.6932 -1.5980 -0.4361
 2633SOL     OW19531   2.703   1.948  13.556  0.1806 -0.8107 -0.5736
 2633SOL    HW119532   2.698   1.853  13.568 -0.8241 -0.7684 -0.6802
 2633SOL    HW219533   2.625   1.984  13.597  2.0040  0.4523  1.7352
 2634SOL     OW19534   1.050   4.456   3.167 -0.2249  0.0880  0.6059
 2634SOL    HW119535   0.958   4.466   3.191 -0.4606 -1.6748  0.3939
 2634SOL    HW219536   1.063   4.548   3.144  1.8170 -0.8666 -2.0876
 2635SOL     OW19537   4.342   1.992   4.708  0.2969 -0.1109  0.0698
 2635SOL    HW119538   4.301   2.078   4.722  0.8326  0.0754  0.5059
 2635SOL    HW219539   4.272   1.935   4.738 -0.6090  1.5953  1.1585
 2636SOL     OW19540   3.702   1.418   9.637  0.5358 -0.1483  0.5674
 2636SOL    HW119541   3.782   1.457   9.602  0.3476 -0.7743 -0.5471
 2636SOL    HW219542   3.747   1.337   9.661 -1.7419 -1.2531  1.1959
 2637SOL     OW19543   3.352   0.136   9.179  0.5355  0.1101 -0.3224
 2637SOL    HW119544   3.446   0.120   9.172  0.8425  1.4635  0.6263
 2637SOL    HW219545   3.351   0.231   9.189 -1.3261  0.0494  0.1284
 2638SOL     OW19546   2.213   0.522   5.921 -0.5601 -0.1975 -0.1456
 2638SOL    HW119547   2.153   0.464   5.969 -0.7582  0.1699  0.0509
 2638SOL    HW219548   2.224   0.456   5.852  2.3092  1.1040 -0.9246
 2639SOL     OW19549   0.342   3.298   7.554  0.3672  0.0308 -0.2133
 2639SOL    HW119550   0.399   3.265   7.484 -0.2142 -0.5615 -0.4091
 2639SOL    HW219551   0.271   3.233   7.553 -0.1568  0.6636 -2.8307
 2640SOL     OW19552   2.955   1.461   3.911 -0.0886 -0.4529  0.0998
 2640SOL    HW119553   2.987   1.517   3.981  1.4149 -0.3895 -0.6408
 2640SOL    HW219554   3.024   1.396   3.904  1.4629  1.2317 -0.3049
 2641SOL     OW19555   2.472   3.975   6.274  0.2049 -0.1386  0.0292
 2641SOL    HW119556   2.515   3.940   6.196 -1.8217  0.0605 -1.1694
 2641SOL    HW219557   2.493   3.897   6.327 -0.9108  0.4737  1.3803
 2642SOL     OW19558   4.464   4.151   5.711  0.2742 -0.5377 -0.0342
 2642SOL    HW119559   4.406   4.105   5.651 -0.4580  0.9517 -0.4716
 2642SOL    HW219560   4.542   4.162   5.656 -0.3187 -0.5261 -0.8649
 2643SOL     OW19561   1.565   3.366  15.050 -0.4143  0.1062 -0.1136
 2643SOL    HW119562   1.644   3.331  15.091  0.0927 -0.1295 -1.2907
 2643SOL    HW219563   1.593   3.332  14.965 -1.1941 -1.3315  0.2068
 2644SOL     OW19564   0.290   1.889  11.919 -0.1547  0.1070 -0.5255
 2644SOL    HW119565   0.306   1.965  11.976  0.1582 -1.2492  1.1870
 2644SOL    HW219566   0.232   1.834  11.971 -1.2649  1.0686 -0.7351
 2645SOL     OW19567   4.291   0.579   5.189  0.2691 -0.0702  0.0092
 2645SOL    HW119568   4.267   0.628   5.267  2.5810  2.2833 -0.7647
 2645SOL    HW219569   4.231   0.614   5.123 -1.0559 -1.8934  0.2414
 2646SOL     OW19570   4.188   1.641   6.681  0.0916 -0.1185 -0.0760
 2646SOL    HW119571   4.121   1.578   6.653 -2.5536  2.9431 -0.6925
 2646SOL    HW219572   4.256   1.617   6.618  2.4873 -0.1070  2.5420
 2647SOL     OW19573   4.377   0.873   4.150  0.3806 -0.0193 -0.0995
 2647SOL    HW119574   4.409   0.959   4.176  0.1025  0.0593 -0.0161
 2647SOL    HW219575   4.455   0.837   4.108  0.3508 -0.0236 -0.1503
 2648SOL     OW19576   2.349   0.043   3.533 -0.1991  0.3513 -0.0155
 2648SOL    HW119577   2.370   0.065   3.623  3.4884 -0.9998 -0.5175
 2648SOL    HW219578   2.355   0.126   3.486 -2.4479  0.7026  0.3413
 2649SOL     OW19579   2.151   2.912   6.808  1.0122  0.4670 -0.4725
 2649SOL    HW119580   2.136   2.903   6.902  1.4078 -0.1838 -0.4639
 2649SOL    HW219581   2.085   2.852   6.776  3.8151 -1.6306 -2.3611
 2650SOL     OW19582   2.586   3.715   8.283 -0.4896  0.0805 -0.4415
 2650SOL    HW119583   2.528   3.675   8.349  0.9435  1.0191  1.3727
 2650SOL    HW219584   2.592   3.803   8.318  0.8237 -1.0106  2.0887
 2651SOL     OW19585   1.418   4.302   4.757  0.5672  0.1956 -0.5630
 2651SOL    HW119586   1.419   4.248   4.678  0.0337 -1.6274  0.6810
 2651SOL    HW219587   1.470   4.378   4.733 -0.5425  1.0797 -0.1968
 2652SOL     OW19588   1.643   3.267   2.678  0.4544  0.0847  0.0134
 2652SOL    HW119589   1.574   3.202   2.691  1.3349 -0.6384  1.0147
 2652SOL    HW219590   1.710   3.232   2.735 -0.5342 -0.3050  0.9392
 2653SOL     OW19591   4.698   3.575   8.561  0.3449  0.2694 -0.1866
 2653SOL    HW119592   0.042   3.563   8.510  0.0339 -3.8962  0.2363
 2653SOL    HW219593   4.663   3.634   8.495  1.3176  0.1880 -0.7743
 2654SOL     OW19594   0.579   2.649   7.342  0.6380 -0.3977 -0.7158
 2654SOL    HW119595   0.532   2.616   7.265 -1.0809  0.7151 -0.1616
 2654SOL    HW219596   0.535   2.599   7.411 -1.2903  0.2581 -1.4457
 2655SOL     OW19597   0.673   1.078  16.779 -0.4153  0.5002 -0.4804
 2655SOL    HW119598   0.687   1.057  16.687  1.9464  1.3749 -0.3188
 2655SOL    HW219599   0.582   1.107  16.780 -0.1025  1.4575  0.8207
 2656SOL     OW19600   0.688   2.805  12.265 -0.0516 -0.1683 -0.2027
 2656SOL    HW119601   0.679   2.782  12.173 -0.4916  0.5048 -0.3309
 2656SOL    HW219602   0.734   2.730  12.303  2.8050  2.2134  0.9990
 2657SOL     OW19603   2.620   4.131  15.692 -0.4479  0.3669  0.2471
 2657SOL    HW119604   2.569   4.132  15.773 -0.0383 -1.0085  0.5122
 2657SOL    HW219605   2.655   4.042  15.691 -1.3152  0.0700 -2.5061
 2658SOL     OW19606   1.209   2.703   4.293  0.3930 -0.2648 -0.2322
 2658SOL    HW119607   1.259   2.782   4.276  0.3682 -0.2734 -0.3422
 2658SOL    HW219608   1.200   2.677   4.202  1.2953  1.1965 -0.7317
 2659SOL     OW19609   2.270   4.694   1.886  0.4497 -0.7299  0.2415
 2659SOL    HW119610   2.225   4.675   1.804  1.1337  0.1480 -0.3344
 2659SOL    HW219611   2.195   4.673   1.942 -0.4001  1.6901  0.0471
 2660SOL     OW19612   0.384   0.290   7.253 -0.7604 -0.1555  1.1993
 2660SOL    HW119613   0.317   0.222   7.249 -0.7889 -0.0876  0.4723
 2660SOL    HW219614   0.387   0.313   7.160 -0.1272  0.5827  1.4010
 2661SOL     OW19615   0.519   2.168   3.733  0.2228 -0.3390  0.0375
 2661SOL    HW119616   0.564   2.228   3.793  0.6004 -1.3266  0.7481
 2661SOL    HW219617   0.433   2.209   3.744  1.1816  1.4382  0.9609
 2662SOL     OW19618   3.179   0.907   1.008 -0.1523 -0.1023  0.1298
 2662SOL    HW119619   3.245   0.909   0.939 -0.6733 -1.5735 -0.3843
 2662SOL    HW219620   3.213   0.988   1.048 -1.2492 -0.2239  1.3135
 2663SOL     OW19621   3.169   2.212   9.971  0.2669  0.2653 -0.3446
 2663SOL    HW119622   3.170   2.151  10.044  2.5864  0.7059 -0.0353
 2663SOL    HW219623   3.244   2.181   9.920  0.3066 -1.6547  0.8467
 2664SOL     OW19624   1.677   0.192   6.326  0.0432  0.4032 -0.2284
 2664SOL    HW119625   1.750   0.253   6.314  0.6691  0.0340  1.6339
 2664SOL    HW219626   1.671   0.188   6.422 -2.9328  1.2519 -0.4013
 2665SOL     OW19627   1.724   1.820   8.449 -0.0597 -0.1757  0.2606
 2665SOL    HW119628   1.696   1.731   8.424 -0.7824 -0.6806  2.8774
 2665SOL    HW219629   1.705   1.819   8.543  1.9051 -1.8858  0.6327
 2666SOL     OW19630   1.312   2.721   8.487  0.4529  0.6979  0.1150
 2666SOL    HW119631   1.253   2.739   8.561  0.8284 -1.0257  0.8248
 2666SOL    HW219632   1.250   2.697   8.418 -1.0742 -0.8344  2.0209
 2667SOL     OW19633   1.127   1.596  13.098 -0.2545  0.2354  1.0915
 2667SOL    HW119634   1.189   1.572  13.030  1.1413  0.1125  2.4038
 2667SOL    HW219635   1.125   1.691  13.084 -0.4347 -0.1610 -1.5203
 2668SOL     OW19636   2.863   2.829  14.385  0.2945 -0.3135  0.0228
 2668SOL    HW119637   2.865   2.859  14.294  1.4328  0.7262  0.4044
 2668SOL    HW219638   2.874   2.910  14.434  1.0861 -0.1247 -0.4607
 2669SOL     OW19639   3.527   0.742   4.542 -0.4689  0.7394 -0.7298
 2669SOL    HW119640   3.451   0.776   4.493 -1.3574  1.0417  0.8672
 2669SOL    HW219641   3.579   0.692   4.479 -2.1533 -1.6597 -0.1815
 2670SOL     OW19642   0.629   1.060   8.534  0.0170 -0.4106 -0.1846
 2670SOL    HW119643   0.639   1.139   8.587 -2.5116  0.2262 -0.6417
 2670SOL    HW219644   0.542   1.087   8.504 -1.2482 -3.9382  0.2765
 2671SOL     OW19645   1.509   2.162   6.967 -0.0866 -0.3932  0.4586
 2671SOL    HW119646   1.513   2.255   6.945  3.1407 -0.1311  2.0758
 2671SOL    HW219647   1.483   2.157   7.059  0.6705 -0.0819  0.6925
 2672SOL     OW19648   0.956   1.466   1.898 -0.0431 -0.4461  0.3674
 2672SOL    HW119649   0.983   1.480   1.807 -0.4403  0.3995  0.3761
 2672SOL    HW219650   0.862   1.485   1.897  0.2434  1.0865  2.5566
 2673SOL     OW19651   3.294   4.097   3.784  0.3618  0.7358 -0.0801
 2673SOL    HW119652   3.379   4.142   3.783  0.6561  0.1852 -0.0696
 2673SOL    HW219653   3.316   4.022   3.839  1.0908  1.3236  0.4350
 2674SOL     OW19654   2.012   3.545   0.240 -0.0120  0.1209  0.1244
 2674SOL    HW119655   1.970   3.498   0.311 -0.8687  0.6149 -0.0495
 2674SOL    HW219656   1.954   3.622   0.243 -1.6581 -1.1385  0.3394
 2675SOL     OW19657   3.613   2.400   5.994  0.2068  0.0362 -0.1936
 2675SOL    HW119658   3.688   2.454   6.017  1.3059 -0.6546 -2.1496
 2675SOL    HW219659   3.651   2.322   5.954  0.4318 -0.6395  1.3315
 2676SOL     OW19660   2.685   3.177   1.679  0.0194 -0.3355  0.4264
 2676SOL    HW119661   2.673   3.130   1.761 -0.8084  0.7251  0.9074
 2676SOL    HW219662   2.770   3.219   1.697  0.5230 -0.7923 -0.8854
 2677SOL     OW19663   3.916   0.000   4.558 -0.0225  0.1331 -0.6825
 2677SOL    HW119664   3.995   0.036   4.518  0.7689  0.1670  0.9211
 2677SOL    HW219665   3.951   4.648   4.553 -1.2681 -0.4151  0.2511
 2678SOL     OW19666   3.075   1.380  12.637  0.9601  0.7677  0.4420
 2678SOL    HW119667   3.023   1.304  12.662  2.0359 -0.1670 -0.1508
 2678SOL    HW219668   3.088   1.422  12.722  0.2085  1.5883  0.1475
 2679SOL     OW19669   0.307   0.202   8.369 -0.6675 -0.7212 -0.1089
 2679SOL    HW119670   0.218   0.172   8.384 -1.6424  2.7218  1.0357
 2679SOL    HW219671   0.295   0.213   8.275 -0.6078 -1.4997 -0.2017
 2680SOL     OW19672   0.889   2.136  10.238  0.2534 -0.5122 -0.3541
 2680SOL    HW119673   0.981   2.128  10.262  0.1587 -0.9318 -0.1300
 2680SOL    HW219674   0.897   2.187  10.157  0.0618  0.3714  0.1929
 2681SOL     OW19675   2.986   0.849   3.787 -0.1212  0.1313 -0.7011
 2681SOL    HW119676   3.022   0.858   3.699  0.2005 -0.2952 -0.6136
 2681SOL    HW219677   3.035   0.769   3.807  0.9672  0.5105 -1.8846
 2682SOL     OW19678   2.416   3.464   5.949 -0.2267  0.2237  0.8350
 2682SOL    HW119679   2.448   3.376   5.970  0.5425  0.3424  0.1370
 2682SOL    HW219680   2.491   3.516   5.978 -0.9040  1.1836  0.8574
 2683SOL     OW19681   0.332   0.132   6.102  0.3106 -0.2831  0.1512
 2683SOL    HW119682   0.285   0.144   6.184  0.9384 -1.7214  0.7183
 2683SOL    HW219683   0.415   0.112   6.144  0.7031  0.7930 -0.1094
 2684SOL     OW19684   0.105   4.352   3.867 -0.1565  0.2152  0.0867
 2684SOL    HW119685   0.172   4.418   3.877 -1.0868  1.3753 -1.3827
 2684SOL    HW219686   0.100   4.300   3.948  3.3052 -0.6954 -0.3100
 2685SOL     OW19687   3.201   0.952  16.519  0.0240  0.1894  0.6413
 2685SOL    HW119688   3.130   0.893  16.544 -0.7433  0.6495 -0.4456
 2685SOL    HW219689   3.211   1.013  16.593 -0.9987  1.9281 -0.6302
 2686SOL     OW19690   1.027   1.369   8.074 -0.5926  0.2806  0.0983
 2686SOL    HW119691   1.048   1.302   8.139 -1.9339 -1.0760 -0.8398
 2686SOL    HW219692   1.008   1.313   7.998 -0.2609  1.2863 -0.7324
 2687SOL     OW19693   1.742   2.948   4.893  0.1590  0.1685 -0.2865
 2687SOL    HW119694   1.690   2.963   4.815 -0.7402 -0.7443  0.1235
 2687SOL    HW219695   1.743   3.032   4.939  0.0702 -0.3404  0.6589
 2688SOL     OW19696   4.429   4.548  17.270 -0.1248  0.0210  0.2478
 2688SOL    HW119697   4.382   4.465  17.271 -1.7294  0.9066 -0.7753
 2688SOL    HW219698   4.373   4.596  17.209  1.4458 -0.1265 -1.3142
 2689SOL     OW19699   1.406   1.282  11.362  0.0295 -0.1164 -0.2551
 2689SOL    HW119700   1.328   1.320  11.401  0.4001 -2.4742  2.7693
 2689SOL    HW219701   1.391   1.188  11.369  0.6964 -0.0036  2.8020
 2690SOL     OW19702   2.598   4.137   4.090  0.6553 -0.6301  0.3429
 2690SOL    HW119703   2.635   4.098   4.169 -0.7713 -1.6954  0.4833
 2690SOL    HW219704   2.623   4.067   4.030  0.1208 -1.4184  1.0308
 2691SOL     OW19705   4.069   1.264  12.240  0.3180 -0.0172  0.3299
 2691SOL    HW119706   4.133   1.314  12.292 -0.9954  2.2828 -0.2547
 2691SOL    HW219707   4.115   1.270  12.156 -0.5266 -0.9018 -0.1866
 2692SOL     OW19708   1.099   4.373   3.592  0.0423  0.0235  0.4430
 2692SOL    HW119709   1.166   4.362   3.523 -0.6839 -0.4020 -0.1947
 2692SOL    HW219710   1.057   4.288   3.587  0.9632 -0.4421  0.5293
 2693SOL     OW19711   2.903   3.652   3.864 -0.2866  0.3250  0.5265
 2693SOL    HW119712   2.954   3.684   3.789  2.1549  0.4299  2.2169
 2693SOL    HW219713   2.943   3.707   3.931  0.8459  0.7897 -0.5293
 2694SOL     OW19714   4.348   2.047  16.213  0.5763  0.2463  0.4647
 2694SOL    HW119715   4.312   2.135  16.208  0.9595  0.3202 -0.9262
 2694SOL    HW219716   4.442   2.057  16.220  0.5825 -0.3423  1.1724
 2695SOL     OW19717   4.500   1.666  17.277  0.1217 -0.5184  0.3083
 2695SOL    HW119718   4.461   1.728  17.215  2.3689 -0.4556 -1.0524
 2695SOL    HW219719   4.593   1.689  17.266 -0.5348  0.7153 -2.5886
 2696SOL     OW19720   3.063   0.694   1.105 -0.5436  0.5094  0.0339
 2696SOL    HW119721   3.116   0.765   1.067 -0.7702  0.0498 -1.1234
 2696SOL    HW219722   3.129   0.668   1.170 -1.2065 -1.1645  0.0125
 2697SOL     OW19723   2.524   1.892   2.490 -0.6791  0.2449 -0.1391
 2697SOL    HW119724   2.534   1.815   2.433  0.0754 -2.1652  3.2107
 2697SOL    HW219725   2.428   1.890   2.485 -0.5924  0.1821 -1.7397
 2698SOL     OW19726   4.019   1.076   2.269  0.5591  0.7796  0.6187
 2698SOL    HW119727   4.038   1.130   2.347  0.6131  1.5120  0.0987
 2698SOL    HW219728   3.996   1.153   2.217 -0.2012  0.7862  0.9581
 2699SOL     OW19729   3.568   2.178  17.100 -0.0209 -0.4188 -0.2272
 2699SOL    HW119730   3.613   2.162  17.017 -1.7045 -1.6516 -0.9217
 2699SOL    HW219731   3.480   2.197  17.067 -1.5567 -2.9911  2.3443
 2700SOL     OW19732   3.216   0.304   6.441 -0.3866 -0.4532  0.2177
 2700SOL    HW119733   3.162   0.383   6.433 -0.5275 -0.5569  0.1348
 2700SOL    HW219734   3.274   0.332   6.511 -1.4628 -0.8035  1.2584
 2701SOL     OW19735   0.323   1.997  14.185 -0.2446  0.5077 -0.0209
 2701SOL    HW119736   0.252   1.983  14.249  0.4268  1.1638  0.8714
 2701SOL    HW219737   0.298   2.072  14.131 -1.3729 -0.3080 -0.6206
 2702SOL     OW19738   2.936   0.933   7.762  0.2438  0.4839 -0.1751
 2702SOL    HW119739   2.978   1.019   7.757  2.1645 -0.6059 -2.9374
 2702SOL    HW219740   2.914   0.912   7.671 -0.0181 -1.3085  0.2920
 2703SOL     OW19741   2.002   1.991   6.449  0.2163  0.1646 -0.8964
 2703SOL    HW119742   2.009   2.081   6.481  0.3498 -0.0632 -0.2819
 2703SOL    HW219743   2.091   1.981   6.414  0.6162 -0.1457  0.2106
 2704SOL     OW19744   4.569   1.908   6.698 -0.7318  0.4887 -0.4942
 2704SOL    HW119745   4.592   1.854   6.622  2.6013 -1.4183  1.8792
 2704SOL    HW219746   4.476   1.920   6.679 -1.0223  0.8690  1.1924
 2705SOL     OW19747   1.379   2.212   8.210  0.0890 -0.0004  0.1138
 2705SOL    HW119748   1.361   2.275   8.280 -1.4554 -1.7804  1.3004
 2705SOL    HW219749   1.465   2.244   8.181  0.2150  0.2449  0.7741
 2706SOL     OW19750   0.122   3.463   1.496  0.3416 -0.2332  0.2777
 2706SOL    HW119751   0.200   3.485   1.445  1.1869  2.2714  2.6992
 2706SOL    HW219752   0.056   3.516   1.452 -0.5354 -1.0790  0.5570
 2707SOL     OW19753   2.677   1.597   0.929 -0.7999  0.1433 -0.2443
 2707SOL    HW119754   2.618   1.662   0.891  0.0660  0.6174 -0.7876
 2707SOL    HW219755   2.748   1.589   0.865  0.4921 -1.5252  1.4008
 2708SOL     OW19756   3.610   3.826   3.759  0.6328 -0.7645  0.2763
 2708SOL    HW119757   3.705   3.837   3.753  0.9961 -2.7830  2.4578
 2708SOL    HW219758   3.611   3.782   3.844  0.9141 -1.0286  0.1384
 2709SOL     OW19759   4.674   2.216  12.856  0.0725 -0.1267 -0.2597
 2709SOL    HW119760   4.684   2.128  12.820  1.0588 -0.4236  0.7442
 2709SOL    HW219761   4.643   2.261  12.777 -1.9593 -2.0651 -0.5361
 2710SOL     OW19762   4.014   0.485   2.526 -0.7827 -0.0501  0.0135
 2710SOL    HW119763   4.059   0.427   2.464  1.0625  1.8591 -0.4350
 2710SOL    HW219764   3.968   0.422   2.581  1.7561 -1.9943 -0.0986
 2711SOL     OW19765   2.813   4.286   3.646  0.0047 -0.4181  0.3704
 2711SOL    HW119766   2.848   4.266   3.733 -0.3374  0.0004  0.6053
 2711SOL    HW219767   2.869   4.233   3.590 -1.1868 -0.1451 -1.0486
 2712SOL     OW19768   4.163   1.751   4.416  0.0004  0.4603 -0.0534
 2712SOL    HW119769   4.171   1.777   4.325 -3.0558  1.1359 -0.1047
 2712SOL    HW219770   4.248   1.770   4.457  0.7882 -1.3490 -0.8313
 2713SOL     OW19771   0.691   1.116   5.318 -0.2417 -0.2730  0.2827
 2713SOL    HW119772   0.734   1.081   5.396 -0.2570  0.0372  0.4340
 2713SOL    HW219773   0.670   1.038   5.268  1.5280 -0.8467  0.4236
 2714SOL     OW19774   2.850   2.077   4.380  0.1213 -0.7260  0.1861
 2714SOL    HW119775   2.761   2.102   4.407  0.6794  2.2217 -0.6897
 2714SOL    HW219776   2.899   2.100   4.458 -1.3094  0.9428  0.5897
 2715SOL     OW19777   0.047   1.397   2.879 -0.2859  0.6550  0.0917
 2715SOL    HW119778   0.006   1.342   2.946 -0.6762  1.6117  0.6296
 2715SOL    HW219779   0.128   1.345   2.876  0.0748  1.1063  1.9466
 2716SOL     OW19780   0.061   3.852   3.253 -0.1826 -0.0942  0.8108
 2716SOL    HW119781   0.052   3.757   3.259 -0.8454 -0.0543  0.3542
 2716SOL    HW219782   4.706   3.874   3.270 -0.8460 -1.9733 -0.3244
 2717SOL     OW19783   2.244   2.601   5.092  0.0552  0.0901 -0.5335
 2717SOL    HW119784   2.221   2.665   5.159  0.2046 -0.2299 -0.1803
 2717SOL    HW219785   2.333   2.627   5.066  1.2240 -1.3683  2.0883
 2718SOL     OW19786   2.316   1.277   7.084 -0.3152  0.5895 -0.4532
 2718SOL    HW119787   2.411   1.282   7.093 -0.6901  2.0987  2.6091
 2718SOL    HW219788   2.297   1.325   7.164 -1.2944 -0.0163 -0.3280
 2719SOL     OW19789   2.077   0.968   2.568  0.4731  0.0033 -0.1875
 2719SOL    HW119790   2.065   0.876   2.591  1.2637 -0.1927 -0.5772
 2719SOL    HW219791   2.053   1.022   2.643 -0.0515  1.6053 -1.4876
 2720SOL     OW19792   1.133   1.304   5.200 -0.0952  0.1267 -0.3045
 2720SOL    HW119793   1.108   1.393   5.224 -0.2747 -0.1447  0.5019
 2720SOL    HW219794   1.055   1.267   5.158 -1.8157  1.3838  1.7666
 2721SOL     OW19795   4.376   0.292   5.882 -0.7540  0.0782 -0.6173
 2721SOL    HW119796   4.366   0.374   5.833 -1.4292  0.0002 -0.6082
 2721SOL    HW219797   4.411   0.232   5.816 -1.5568 -0.3988 -0.6083
 2722SOL     OW19798   1.481   3.598   2.358  0.3017 -0.3444  0.4099
 2722SOL    HW119799   1.541   3.524   2.355 -1.1072 -1.3755 -1.7641
 2722SOL    HW219800   1.532   3.663   2.309  0.4861  0.0016  1.0528
 2723SOL     OW19801   4.571   0.196   1.833 -0.4045 -0.0252  0.2723
 2723SOL    HW119802   4.618   0.272   1.798 -0.2828 -0.5442 -0.6653
 2723SOL    HW219803   4.543   0.220   1.922  0.5882  2.8969 -0.1998
 2724SOL     OW19804   2.897   0.945   6.647  0.8955 -0.2512 -0.4093
 2724SOL    HW119805   2.978   0.904   6.619  0.5746 -0.3035 -1.2648
 2724SOL    HW219806   2.852   0.948   6.563  1.1653  0.2225 -0.5372
 2725SOL     OW19807   4.082   1.728   5.101 -0.2420  0.0419 -0.1643
 2725SOL    HW119808   4.156   1.676   5.131 -0.1065 -1.2682 -2.7427
 2725SOL    HW219809   4.137   1.805   5.091 -0.5395  0.2273 -0.4041
 2726SOL     OW19810   2.850   4.452  10.353 -0.1745  0.2278 -0.7296
 2726SOL    HW119811   2.838   4.520  10.287 -0.8514  2.5229  1.7413
 2726SOL    HW219812   2.787   4.490  10.415 -0.5900  0.6419 -1.4107
 2727SOL     OW19813   1.449   3.863   7.386  0.5537  0.8784  0.3167
 2727SOL    HW119814   1.531   3.876   7.337 -0.2587 -0.7674 -1.4695
 2727SOL    HW219815   1.468   3.798   7.453 -0.7997 -2.2182 -2.3190
 2728SOL     OW19816   3.044   1.928   6.820  0.7307  0.3422 -0.0848
 2728SOL    HW119817   2.993   1.849   6.836  1.5764 -0.4823 -1.5511
 2728SOL    HW219818   3.014   1.999   6.878 -0.8866 -1.4017  1.2042
 2729SOL     OW19819   2.390   3.555   4.853  0.2930 -0.6169  0.1066
 2729SOL    HW119820   2.385   3.612   4.776  0.7177  0.4702  0.8892
 2729SOL    HW219821   2.319   3.492   4.843  0.2864 -0.7021  0.7467
 2730SOL     OW19822   2.248   4.691   5.900 -0.0962  0.2932  0.2773
 2730SOL    HW119823   2.217   0.035   5.858  0.3890 -0.2511 -1.1384
 2730SOL    HW219824   2.292   4.728   5.976  1.8041 -1.1495 -0.1289
 2731SOL     OW19825   1.683   0.064   5.559 -0.1722  0.4016 -0.1432
 2731SOL    HW119826   1.628   4.722   5.570  3.4987 -1.8235  2.1824
 2731SOL    HW219827   1.615   0.129   5.577  0.3615  0.3045  2.1636
 2732SOL     OW19828   2.144   3.141  10.909  0.8678  0.2613  0.0156
 2732SOL    HW119829   2.080   3.107  10.971 -1.8802  0.8741 -2.4593
 2732SOL    HW219830   2.224   3.093  10.930  0.8368  0.4842  0.6491
 2733SOL     OW19831   2.051   4.375   1.972  0.0591 -0.4391 -0.0513
 2733SOL    HW119832   2.143   4.387   1.997 -0.0419 -1.3707  0.7819
 2733SOL    HW219833   2.032   4.282   1.971  1.6116 -0.7833  2.0600
 2734SOL     OW19834   1.797   3.149   7.904  0.3810 -0.7507  0.0519
 2734SOL    HW119835   1.736   3.136   7.977 -0.5709  0.6343 -0.4967
 2734SOL    HW219836   1.731   3.175   7.840  0.5981  1.5605  0.7708
 2735SOL     OW19837   0.721   1.494   7.660  0.1752  0.0619 -0.1442
 2735SOL    HW119838   0.670   1.415   7.641  0.3454  0.1370 -0.9449
 2735SOL    HW219839   0.662   1.537   7.722  2.7341  5.0986 -1.1565
 2736SOL     OW19840   0.148   1.271   0.283  0.4784 -0.4677  0.2606
 2736SOL    HW119841   0.241   1.246   0.283  0.7991  0.7075  1.2987
 2736SOL    HW219842   0.103   1.217   0.218  1.5611 -0.3685 -0.5636
 2737SOL     OW19843   3.117   0.246  16.259  0.2881 -0.2184 -0.2407
 2737SOL    HW119844   3.200   0.205  16.283  1.2869  1.8395 -0.1792
 2737SOL    HW219845   3.080   0.256  16.347  1.4176  3.7531 -0.1831
 2738SOL     OW19846   1.700   3.634   5.460  0.3906  0.3502 -0.1795
 2738SOL    HW119847   1.671   3.544   5.481  2.9148 -0.6240 -0.9051
 2738SOL    HW219848   1.636   3.667   5.397  0.5060 -0.3391 -0.6595
 2739SOL     OW19849   2.808   2.423   3.925  0.0046  0.4451 -0.3534
 2739SOL    HW119850   2.786   2.357   3.991  1.6308 -0.5837 -0.8508
 2739SOL    HW219851   2.721   2.443   3.890 -0.5494  1.2285  1.4489
 2740SOL     OW19852   1.726   1.962   6.429  0.5737  0.4311 -1.0426
 2740SOL    HW119853   1.819   1.979   6.439  0.5157 -0.6298  1.2238
 2740SOL    HW219854   1.691   1.977   6.516  2.7658  0.9702 -0.2594
 2741SOL     OW19855   1.931   3.964  14.892 -0.1454  0.1423 -0.5677
 2741SOL    HW119856   1.920   3.927  14.980  1.9407  0.6801 -0.0916
 2741SOL    HW219857   1.970   3.890  14.844 -2.3812  0.1760 -2.4375
 2742SOL     OW19858   2.497   3.763   6.804 -0.4163  1.0142 -0.0011
 2742SOL    HW119859   2.442   3.813   6.744 -0.3646  0.9962 -0.0630
 2742SOL    HW219860   2.489   3.677   6.762 -4.2773  1.8938 -1.0823
 2743SOL     OW19861   2.076   0.240   1.528 -0.0652  0.2800 -0.4015
 2743SOL    HW119862   2.063   0.183   1.452  1.5276 -1.8204  0.9140
 2743SOL    HW219863   2.170   0.251   1.534  0.1972 -2.4140  0.4977
 2744SOL     OW19864   4.484   3.840  16.489  0.6221  0.6440  0.2850
 2744SOL    HW119865   4.447   3.769  16.437  1.8276  0.5159 -0.4009
 2744SOL    HW219866   4.567   3.852  16.443  1.8968 -0.7877  2.2205
 2745SOL     OW19867   4.259   3.474   7.084 -0.0934 -0.2651  0.2772
 2745SOL    HW119868   4.264   3.383   7.055  1.0349 -0.0163 -0.2889
 2745SOL    HW219869   4.235   3.466   7.176 -3.3879 -0.4096 -0.5737
 2746SOL     OW19870   1.887   3.281  17.081 -0.1091 -0.0582  0.0805
 2746SOL    HW119871   1.982   3.278  17.081 -0.1194 -0.3990 -2.4578
 2746SOL    HW219872   1.848   3.347  17.139  0.0955  0.2332 -0.1135
 2747SOL     OW19873   2.485   1.833   4.659  0.4643  0.7125 -0.1568
 2747SOL    HW119874   2.579   1.836   4.642  0.5505  0.8596  0.3712
 2747SOL    HW219875   2.453   1.822   4.569 -1.1020  1.3433  0.3285
 2748SOL     OW19876   4.498   1.303   5.775  0.1679 -0.2934 -0.2225
 2748SOL    HW119877   4.477   1.336   5.862  0.9402 -0.7220  0.1289
 2748SOL    HW219878   4.416   1.271   5.739  0.6960 -0.0267 -1.6670
 2749SOL     OW19879   1.256   3.469   5.231 -0.5714  0.7568  0.5133
 2749SOL    HW119880   1.223   3.538   5.173  0.9861  1.2585  0.2083
 2749SOL    HW219881   1.182   3.410   5.216 -0.3460  0.6900 -0.3555
 2750SOL     OW19882   1.079   3.805  10.492  0.5471  0.1830  0.9855
 2750SOL    HW119883   1.003   3.858  10.516  0.8218  0.8503  0.3970
 2750SOL    HW219884   1.149   3.865  10.517 -1.3872  2.3309  1.2406
 2751SOL     OW19885   2.610   3.862   6.042  0.1748  0.2851 -0.0145
 2751SOL    HW119886   2.544   3.875   5.974  0.0589  1.4999  0.3314
 2751SOL    HW219887   2.686   3.901   5.999  1.0169  0.9531  2.0684
 2752SOL     OW19888   3.626   4.471   9.294 -0.5883 -0.1791  0.5613
 2752SOL    HW119889   3.608   4.521   9.374  0.3293  0.3488  0.4384
 2752SOL    HW219890   3.605   4.545   9.236 -0.4084 -0.5230  0.0543
 2753SOL     OW19891   1.913   0.170   3.077 -0.4572  0.5327  0.9579
 2753SOL    HW119892   1.995   0.213   3.053 -0.5643 -0.2115 -0.6929
 2753SOL    HW219893   1.855   0.177   3.001 -1.7538 -2.0957  1.7162
 2754SOL     OW19894   2.318   2.783   0.998 -0.2461 -0.1560  0.3386
 2754SOL    HW119895   2.283   2.787   0.909  0.4038  0.8998  0.1347
 2754SOL    HW219896   2.402   2.825   0.981  0.4351 -1.2998  0.8936
 2755SOL     OW19897   3.744   0.034   2.135 -0.0830 -0.5769  0.8377
 2755SOL    HW119898   3.674   0.073   2.188  1.9221  2.7522  1.0231
 2755SOL    HW219899   3.819   0.091   2.155 -0.0676  0.4588 -2.2343
 2756SOL     OW19900   3.879   2.639   5.914 -1.0628  0.0815  0.2948
 2756SOL    HW119901   3.921   2.721   5.887 -0.6814  0.0389  0.7663
 2756SOL    HW219902   3.939   2.601   5.978  0.6254 -1.3296 -2.1641
 2757SOL     OW19903   4.437   4.543   2.334  0.0368  0.0805 -0.6320
 2757SOL    HW119904   4.382   4.616   2.306  0.7617  0.8587 -0.0117
 2757SOL    HW219905   4.381   4.508   2.404 -2.1906  1.0234 -1.9395
 2758SOL     OW19906   0.540   3.812   7.984 -0.4961 -0.3861 -0.1199
 2758SOL    HW119907   0.444   3.821   7.987 -0.7468 -2.9031 -0.0468
 2758SOL    HW219908   0.544   3.723   8.021 -0.2330 -0.5180 -0.4749
 2759SOL     OW19909   4.413   2.077   6.316  0.3098  0.3356 -0.4591
 2759SOL    HW119910   4.320   2.059   6.304 -0.0151  1.1291  0.8564
 2759SOL    HW219911   4.447   1.993   6.345  2.4622  0.6863 -1.9942
 2760SOL     OW19912   3.952   3.126   9.134  0.3255 -0.2384 -0.0507
 2760SOL    HW119913   3.913   3.113   9.047 -2.1392  0.3608  0.9402
 2760SOL    HW219914   4.005   3.204   9.118  0.9002 -0.7558 -0.6573
 2761SOL     OW19915   2.602   0.955   4.040  0.2889 -0.7662 -0.2866
 2761SOL    HW119916   2.608   1.040   4.083  2.7483 -0.7569 -0.6413
 2761SOL    HW219917   2.608   0.975   3.946  0.9005 -2.4652 -0.6217
 2762SOL     OW19918   4.544   1.266   8.360 -0.4018 -0.2079 -0.0593
 2762SOL    HW119919   4.634   1.272   8.328 -0.6099 -0.8336 -0.7575
 2762SOL    HW219920   4.520   1.355   8.387  1.7263  0.3633 -0.0381
 2763SOL     OW19921   1.868   3.671   2.189  0.1891  0.6469  0.8284
 2763SOL    HW119922   1.873   3.684   2.284  1.6105 -2.4330  1.1829
 2763SOL    HW219923   1.954   3.705   2.166  0.1981  1.0795  1.5097
 2764SOL     OW19924   0.920   0.451  15.582 -0.0074 -0.3343 -0.1021
 2764SOL    HW119925   0.844   0.468  15.637 -0.9522 -0.4443 -1.3754
 2764SOL    HW219926   0.960   0.538  15.578  1.9181 -1.2473 -0.8896
 2765SOL     OW19927   1.070   3.808  15.763 -0.0829 -0.1266 -0.2031
 2765SOL    HW119928   1.055   3.859  15.842 -0.0819 -0.9781  0.3468
 2765SOL    HW219929   1.149   3.756  15.775  0.8395  1.1259 -0.8789
 2766SOL     OW19930   3.459   4.575  12.742  0.0593  0.0865 -0.1798
 2766SOL    HW119931   3.476   4.517  12.816  2.9784 -0.1194 -0.9995
 2766SOL    HW219932   3.546   4.611  12.725 -0.8021  1.4262 -1.7629
 2767SOL     OW19933   0.881   3.451   8.631 -0.0221  0.1591  0.7199
 2767SOL    HW119934   0.926   3.492   8.705  0.1386 -0.6839  1.0770
 2767SOL    HW219935   0.879   3.361   8.663 -2.0800  0.4973  1.5419
 2768SOL     OW19936   4.099   4.566   8.975 -0.2259  0.3864 -0.4347
 2768SOL    HW119937   4.179   4.532   8.935 -1.2787 -1.5327 -0.9596
 2768SOL    HW219938   4.080   4.640   8.918  1.7597  1.9000  0.8528
 2769SOL     OW19939   2.416   3.410   2.867  0.3977  0.2175  0.1227
 2769SOL    HW119940   2.386   3.340   2.809  1.2578 -0.0141 -0.0504
 2769SOL    HW219941   2.357   3.397   2.941  1.1536  1.5762  0.9618
 2770SOL     OW19942   1.272   3.833  15.080  0.0793  0.1358 -0.2268
 2770SOL    HW119943   1.305   3.743  15.083  0.2846  0.1556 -1.6146
 2770SOL    HW219944   1.237   3.844  14.991 -0.7737 -1.6631 -0.1052
 2771SOL     OW19945   0.655   4.367   0.204  0.3996  0.0544 -0.2343
 2771SOL    HW119946   0.559   4.372   0.201  0.5858  3.3199 -0.6489
 2771SOL    HW219947   0.676   4.365   0.111  1.9380 -1.4354  0.1562
 2772SOL     OW19948   0.403   0.815   3.778  0.1660 -0.0363 -1.0141
 2772SOL    HW119949   0.472   0.812   3.844  0.3953  0.3606 -1.2336
 2772SOL    HW219950   0.432   0.757   3.709  0.4825 -1.6990  0.5227
 2773SOL     OW19951   3.553   3.000   3.710 -0.1460 -0.1096 -0.9076
 2773SOL    HW119952   3.495   3.048   3.770  0.9187 -1.1608  0.9362
 2773SOL    HW219953   3.638   3.031   3.740 -0.8982 -0.0434  1.1655
 2774SOL     OW19954   0.641   4.198  15.068  0.8576 -0.4028 -0.2204
 2774SOL    HW119955   0.548   4.192  15.047  0.6227 -1.4015  1.0882
 2774SOL    HW219956   0.637   4.159  15.156  2.2452 -1.7066 -0.7328
 2775SOL     OW19957   1.874   2.502   5.022  0.7026 -0.0544  0.7280
 2775SOL    HW119958   1.782   2.530   5.016  0.5668 -0.6046  0.1970
 2775SOL    HW219959   1.919   2.581   4.993 -1.6372  1.1190  0.3102
 2776SOL     OW19960   0.667   4.202  16.146  0.3432 -0.1214 -0.5495
 2776SOL    HW119961   0.577   4.226  16.169  0.3250 -1.8237  1.1423
 2776SOL    HW219962   0.702   4.289  16.128  1.3216  0.1131  2.4394
 2777SOL     OW19963   1.997   1.256   7.398  0.6096 -0.5387  0.5281
 2777SOL    HW119964   2.023   1.165   7.387  0.1031 -0.6848  0.5854
 2777SOL    HW219965   1.902   1.258   7.403  0.4343 -2.2302 -2.4732
 2778SOL     OW19966   1.763   2.258   4.597  0.1267  0.3833  0.5680
 2778SOL    HW119967   1.725   2.343   4.621 -1.7920 -1.0253  2.4427
 2778SOL    HW219968   1.699   2.237   4.529  0.1906  0.3690  0.5122
 2779SOL     OW19969   0.733   2.950   5.144  0.0329  0.0620  0.0394
 2779SOL    HW119970   0.746   2.957   5.238  0.9412  0.7361 -0.1311
 2779SOL    HW219971   0.720   2.855   5.136 -0.7363  0.0877  1.0846
 2780SOL     OW19972   1.746   4.191   3.260  0.7209 -0.5136  0.5276
 2780SOL    HW119973   1.769   4.271   3.213  0.4480  0.3062  1.8014
 2780SOL    HW219974   1.790   4.193   3.345  3.6229  1.4924 -0.9882
 2781SOL     OW19975   3.201   1.097   0.726 -0.2650 -0.1187 -0.2295
 2781SOL    HW119976   3.259   1.026   0.751  0.8302 -0.0244 -2.4577
 2781SOL    HW219977   3.158   1.060   0.648  0.9885 -2.3057  0.1373
 2782SOL     OW19978   4.606   4.629   5.880 -0.2201  1.0514  0.2832
 2782SOL    HW119979   4.552   4.557   5.911 -1.4132  1.3014 -1.1822
 2782SOL    HW219980   4.574   4.651   5.792  1.0350 -2.4907 -1.0396
 2783SOL     OW19981   0.570   0.548   7.292  0.1688 -0.4067 -0.0004
 2783SOL    HW119982   0.525   0.610   7.235  0.7249  0.5016  0.5550
 2783SOL    HW219983   0.499   0.545   7.356  0.6641  1.1359  0.6229
 2784SOL     OW19984   1.268   1.931   5.868 -0.4464  0.1364  0.1824
 2784SOL    HW119985   1.289   1.865   5.934 -1.7865  0.0338  0.4999
 2784SOL    HW219986   1.338   1.907   5.807  0.5176  0.3812  1.1747
 2785SOL     OW19987   0.197   3.090  17.596  0.0540  0.2664 -0.4778
 2785SOL    HW119988   0.136   3.017  17.595 -1.8965  1.8646 -0.1171
 2785SOL    HW219989   0.239   3.072  17.680 -0.4882 -0.2004 -0.3103
 2786SOL     OW19990   4.157   2.764   2.429 -0.3104  0.1203 -0.1040
 2786SOL    HW119991   4.064   2.767   2.407  0.2158 -0.5306 -2.4082
 2786SOL    HW219992   4.159   2.722   2.515  1.3369 -0.6327 -0.5247
 2787SOL     OW19993   4.138   2.382   8.203  0.0305  0.2575  0.0877
 2787SOL    HW119994   4.175   2.469   8.211  0.2856  0.3090 -1.5345
 2787SOL    HW219995   4.064   2.389   8.143 -1.2648 -0.9422  1.5525
 2788SOL     OW19996   0.459   0.738   8.491  0.0083  0.6096 -0.6316
 2788SOL    HW119997   0.495   0.698   8.413 -2.0244  1.2752 -1.9073
 2788SOL    HW219998   0.422   0.654   8.516  3.2556 -0.5593  0.2419
 2789SOL     OW19999   4.447   1.298   2.887  0.7903  0.2515  0.5831
 2789SOL    HW120000   4.459   1.323   2.978 -1.6945 -3.9296  2.0947
 2789SOL    HW220001   4.452   1.202   2.883 -1.4333  0.1861 -0.8466
 2790SOL     OW20002   2.627   2.835  11.164 -0.1950 -0.4484 -0.0379
 2790SOL    HW120003   2.588   2.900  11.106 -1.7978  0.3319  1.9019
 2790SOL    HW220004   2.714   2.811  11.132  0.4342 -1.2436  2.2749
 2791SOL     OW20005   1.415   1.945   6.843 -0.0785  0.8903  0.2782
 2791SOL    HW120006   1.345   1.937   6.908  0.5995  0.8743  1.0065
 2791SOL    HW220007   1.465   2.020   6.874 -0.3486  1.4100 -0.5360
 2792SOL     OW20008   2.969   4.139   6.756  0.7206 -0.4020 -0.2350
 2792SOL    HW120009   2.913   4.172   6.826  0.8480  1.3850 -0.9850
 2792SOL    HW220010   2.945   4.047   6.768  0.1338 -0.3763 -1.1526
 2793SOL     OW20011   0.933   4.045  12.843 -0.0526  0.2212  0.0151
 2793SOL    HW120012   0.884   4.094  12.909 -1.6853 -0.7522 -0.4589
 2793SOL    HW220013   0.895   3.960  12.866 -0.9447  0.3227 -1.0559
 2794SOL     OW20014   2.417   4.193  15.267  0.3715 -0.8239  0.0271
 2794SOL    HW120015   2.482   4.218  15.332  0.9557 -1.7381 -0.2032
 2794SOL    HW220016   2.397   4.275  15.223 -1.0470 -1.6489 -0.8942
 2795SOL     OW20017   2.375   3.905   7.969 -0.0149 -0.6242  0.3036
 2795SOL    HW120018   2.439   3.958   8.015 -1.5327  0.1369  1.5237
 2795SOL    HW220019   2.370   3.826   8.022  0.4474  0.2291  1.6270
 2796SOL     OW20020   3.225   1.160   3.622 -0.1492 -0.1397  0.2203
 2796SOL    HW120021   3.144   1.130   3.582 -0.6848  0.5186  0.8072
 2796SOL    HW220022   3.255   1.202   3.542 -1.8074  0.4726 -0.0712
 2797SOL     OW20023   1.049   3.313   5.213 -0.3503 -0.1798 -0.5025
 2797SOL    HW120024   1.051   3.219   5.230  1.6571 -0.4818 -2.3620
 2797SOL    HW220025   0.955   3.330   5.220 -0.1447  0.8353 -0.1404
 2798SOL     OW20026   1.020   1.330   1.016 -0.4983 -0.6415  0.0511
 2798SOL    HW120027   1.000   1.414   0.975 -1.0937 -0.3276  0.9861
 2798SOL    HW220028   0.968   1.348   1.094  0.7763 -0.7405  0.9214
 2799SOL     OW20029   0.633   3.077   1.268  0.4035 -0.1565  0.6349
 2799SOL    HW120030   0.655   3.162   1.232 -0.4538 -0.0642  0.3298
 2799SOL    HW220031   0.577   3.090   1.345  1.5793  0.6146  1.3545
 2800SOL     OW20032   1.992   3.300   5.742  0.7990  0.0658  0.1750
 2800SOL    HW120033   1.932   3.261   5.805 -0.5585 -1.2502 -1.9364
 2800SOL    HW220034   1.973   3.394   5.741  0.7479  0.0350 -1.3660
 2801SOL     OW20035   4.131   4.104   1.076 -0.4121  0.4656 -0.2035
 2801SOL    HW120036   4.208   4.160   1.091  0.5922 -0.6029 -1.3928
 2801SOL    HW220037   4.079   4.172   1.033 -0.9265 -0.1618 -0.5734
 2802SOL     OW20038   0.959   4.105   5.324  0.2124  0.3005  0.4029
 2802SOL    HW120039   0.915   4.108   5.409 -1.0096 -0.0767 -0.2238
 2802SOL    HW220040   0.941   4.192   5.289 -1.6196  0.2038  1.0795
 2803SOL     OW20041   3.550   3.596  13.202  0.5090 -0.4776 -0.0359
 2803SOL    HW120042   3.493   3.619  13.275  0.4722  1.1483 -0.5666
 2803SOL    HW220043   3.507   3.626  13.122  1.8029 -1.0976 -0.9623
 2804SOL     OW20044   1.777   4.080   6.517  0.2495 -0.3644 -0.6561
 2804SOL    HW120045   1.846   4.129   6.562 -0.5138 -0.2231  0.3710
 2804SOL    HW220046   1.839   4.023   6.471 -1.1444 -1.3527 -1.3072
 2805SOL     OW20047   1.527   4.516  15.294 -0.1389  0.3931  0.0453
 2805SOL    HW120048   1.478   4.434  15.299 -0.3598  0.5244  0.0474
 2805SOL    HW220049   1.507   4.548  15.382  0.2622  1.2349 -0.1676
 2806SOL     OW20050   2.958   2.130   1.852 -0.4155  0.3682 -0.5513
 2806SOL    HW120051   3.025   2.198   1.856  0.1029 -0.1860  0.1678
 2806SOL    HW220052   2.991   2.073   1.783  2.0006  1.5608 -0.4036
 2807SOL     OW20053   4.333   2.395   9.538 -0.2641 -0.6859  0.6116
 2807SOL    HW120054   4.269   2.405   9.468  1.3392 -3.6652 -1.2558
 2807SOL    HW220055   4.401   2.346   9.492 -1.9010  0.2355 -2.7480
 2808SOL     OW20056   0.646   2.900   6.089  0.0418  0.1006  0.6667
 2808SOL    HW120057   0.739   2.882   6.104  0.2695 -0.1091 -0.9758
 2808SOL    HW220058   0.603   2.834   6.144 -1.3066  0.8661  0.5233
 2809SOL     OW20059   3.614   0.004   5.054 -0.2439 -0.0408  0.3121
 2809SOL    HW120060   3.536   4.686   5.060  1.0717 -2.2060 -1.8529
 2809SOL    HW220061   3.663   4.706   4.979 -1.6649 -0.9182 -0.2145
 2810SOL     OW20062   1.505   3.460   3.215 -0.2115  0.2404 -0.4874
 2810SOL    HW120063   1.560   3.531   3.248  1.9529 -1.2794 -0.7833
 2810SOL    HW220064   1.433   3.512   3.180 -0.4961  0.0206 -0.2275
 2811SOL     OW20065   1.994   1.434   0.380  0.8286 -0.0749  0.0754
 2811SOL    HW120066   1.969   1.472   0.464 -1.4593 -2.2392  0.3600
 2811SOL    HW220067   2.025   1.347   0.404  0.5049 -0.3892 -0.6618
 2812SOL     OW20068   2.650   1.716   2.900 -0.1461 -0.1771  0.3303
 2812SOL    HW120069   2.679   1.718   2.991  0.0610 -0.2298  0.2642
 2812SOL    HW220070   2.728   1.754   2.861  0.5575 -1.4870  0.4365
 2813SOL     OW20071   3.454   2.518   2.506  0.6918  0.3738  0.1653
 2813SOL    HW120072   3.436   2.490   2.596  0.6054 -0.5266 -0.1302
 2813SOL    HW220073   3.377   2.475   2.468  1.3271  0.2640 -0.9790
 2814SOL     OW20074   4.535   0.276   4.021  0.4663  0.1991  0.0703
 2814SOL    HW120075   4.561   0.191   3.985  1.5054  0.8541 -0.7062
 2814SOL    HW220076   4.553   0.261   4.114  1.2425 -0.9881 -0.2676
 2815SOL     OW20077   3.858   3.472   8.177  0.0064  0.2904  0.2458
 2815SOL    HW120078   3.844   3.553   8.226 -0.7645 -0.3735  1.1048
 2815SOL    HW220079   3.952   3.486   8.164  0.1705 -2.5630 -1.7706
 2816SOL     OW20080   0.716   4.363   7.207  0.1406 -0.2346  0.0269
 2816SOL    HW120081   0.728   4.394   7.117  0.8754  0.8703  0.4980
 2816SOL    HW220082   0.690   4.444   7.252  0.8863  0.8106 -1.4314
 2817SOL     OW20083   0.307   1.592  13.566 -0.1920  0.4862 -0.1307
 2817SOL    HW120084   0.324   1.622  13.656  1.2784 -2.7938  0.7016
 2817SOL    HW220085   0.214   1.608  13.554 -0.2596  0.2375  0.0489
 2818SOL     OW20086   2.743   3.773   1.231  1.0445  0.4120 -0.3045
 2818SOL    HW120087   2.718   3.747   1.320 -1.9466  0.6543 -1.0727
 2818SOL    HW220088   2.837   3.776   1.245  1.0181  0.4606 -0.1330
 2819SOL     OW20089   4.006   2.768  13.857 -0.0610  0.0600  0.1057
 2819SOL    HW120090   4.050   2.772  13.942  0.7986 -1.8344 -0.2384
 2819SOL    HW220091   3.980   2.860  13.857  2.0340  0.6539 -1.9104
 2820SOL     OW20092   2.105   1.026   3.348 -0.8974  0.2243 -0.5581
 2820SOL    HW120093   2.034   0.977   3.308 -1.1182 -0.2296  0.3886
 2820SOL    HW220094   2.183   1.003   3.298 -0.8929  0.1905 -0.5353
 2821SOL     OW20095   1.663   1.065  13.038  0.2994 -0.0034 -0.2592
 2821SOL    HW120096   1.595   1.000  13.056  0.8744 -0.1501  1.3201
 2821SOL    HW220097   1.666   1.110  13.123  3.4505 -0.4733 -0.1325
 2822SOL     OW20098   1.630   1.221  12.841 -0.4948 -0.6763 -0.3194
 2822SOL    HW120099   1.562   1.178  12.790 -3.0035  0.6786  1.8954
 2822SOL    HW220100   1.632   1.152  12.908  0.7557  0.2768  0.6308
 2823SOL     OW20101   4.697   1.845   7.288  0.1050 -0.0124  0.1738
 2823SOL    HW120102   4.707   1.939   7.303 -0.1197  0.1178 -0.4768
 2823SOL    HW220103   0.028   1.832   7.221  1.5912  1.7011  1.3541
 2824SOL     OW20104   4.729   4.509   8.354  0.1524  0.2208  0.4103
 2824SOL    HW120105   4.652   4.452   8.350  0.2418  0.2514 -1.7025
 2824SOL    HW220106   0.037   4.460   8.424 -1.0660 -0.0046  1.0120
 2825SOL     OW20107   1.460   1.906   6.559  0.5196 -0.0508 -0.3646
 2825SOL    HW120108   1.400   1.846   6.603  1.2617 -0.4675  0.0634
 2825SOL    HW220109   1.495   1.959   6.631  0.3776 -1.5306  0.7906
 2826SOL     OW20110   3.009   2.195  12.745  0.1377  0.8279  0.0853
 2826SOL    HW120111   2.972   2.283  12.744  2.3462  1.8000  2.1401
 2826SOL    HW220112   3.056   2.189  12.662  0.5419  1.1786  0.2849
 2827SOL     OW20113   3.467   1.757   7.327  0.1433  0.2312  0.2634
 2827SOL    HW120114   3.447   1.674   7.370 -0.6268  0.9638  1.3206
 2827SOL    HW220115   3.558   1.742   7.302 -0.0899  0.2540 -0.6025
 2828SOL     OW20116   4.444   1.737  13.797 -1.1080 -0.1668  0.1309
 2828SOL    HW120117   4.528   1.781  13.806 -0.2969 -1.4462 -1.2806
 2828SOL    HW220118   4.388   1.810  13.771  0.0629  0.4123 -0.7412
 2829SOL     OW20119   2.480   0.377   5.461 -0.2777 -0.1665  0.2160
 2829SOL    HW120120   2.407   0.344   5.407  0.7023 -1.4215 -0.3375
 2829SOL    HW220121   2.436   0.443   5.515  0.3569  0.3316  0.1110
 2830SOL     OW20122   0.938   4.245  14.973  0.1773  0.1842  0.4402
 2830SOL    HW120123   0.992   4.279  15.045 -1.8991  0.3657  1.8895
 2830SOL    HW220124   0.862   4.201  15.010  0.7181  1.7432  3.4584
 2831SOL     OW20125   1.299   1.103   9.340  0.1232  0.3682 -0.1994
 2831SOL    HW120126   1.335   1.022   9.303  0.7072  0.7436 -0.4556
 2831SOL    HW220127   1.250   1.135   9.264 -0.3664  1.6028  0.6326
 2832SOL     OW20128   1.897   1.605   5.679  0.0862  0.6857 -0.5931
 2832SOL    HW120129   1.825   1.661   5.652 -1.2022 -0.6763  0.0392
 2832SOL    HW220130   1.861   1.554   5.751  1.4802  0.9324  0.2727
 2833SOL     OW20131   4.042   4.670   5.091  0.3391  0.0340 -0.6082
 2833SOL    HW120132   4.006   4.709   5.011  0.5980  0.4200 -0.5371
 2833SOL    HW220133   4.128   4.650   5.054  0.6677 -2.4603  1.6057
 2834SOL     OW20134   4.489   2.328  15.256  0.3531 -0.0908  0.5200
 2834SOL    HW120135   4.541   2.403  15.285 -0.0991 -0.1834  1.5576
 2834SOL    HW220136   4.548   2.299  15.186 -0.8992 -1.1632 -0.0866
 2835SOL     OW20137   0.965   1.841   8.098 -0.3606  0.1807  0.2561
 2835SOL    HW120138   0.909   1.837   8.175 -2.5541  0.8614 -1.3320
 2835SOL    HW220139   1.038   1.895   8.128 -0.0963 -1.1327  1.9524
 2836SOL     OW20140   0.532   2.142  15.019  0.2074 -0.8528 -0.0345
 2836SOL    HW120141   0.463   2.077  15.007  0.6221 -1.2353 -0.3860
 2836SOL    HW220142   0.609   2.088  15.004  1.7282  1.2402  0.2699
 2837SOL     OW20143   4.348   1.983   7.586  0.3583  0.1506  0.1960
 2837SOL    HW120144   4.295   1.966   7.508  0.6002  1.7733 -0.3053
 2837SOL    HW220145   4.431   1.941   7.563 -0.6455 -1.6251 -0.2327
 2838SOL     OW20146   3.479   2.192   4.778  1.2369  0.2565 -0.0324
 2838SOL    HW120147   3.434   2.160   4.700  1.6189  0.9000 -0.5194
 2838SOL    HW220148   3.556   2.135   4.782  0.9636 -0.1694 -0.9026
 2839SOL     OW20149   1.875   3.137  16.837 -0.0184 -0.3526 -0.3860
 2839SOL    HW120150   1.866   3.192  16.915 -2.4347 -1.3802  0.0774
 2839SOL    HW220151   1.817   3.064  16.860 -2.8129  1.7399 -0.6702
 2840SOL     OW20152   0.034   0.601   0.571  0.3109  0.0881 -0.2259
 2840SOL    HW120153   0.125   0.600   0.598  0.0803 -1.1324  0.5195
 2840SOL    HW220154   0.006   0.513   0.598  0.9204 -0.1943 -0.5298
 2841SOL     OW20155   1.372   0.221   6.616  0.1680 -0.5656 -0.5223
 2841SOL    HW120156   1.308   0.157   6.649 -1.0671  0.9959  0.1401
 2841SOL    HW220157   1.349   0.302   6.661  0.7798 -1.2628  1.0295
 2842SOL     OW20158   3.824   0.982   5.366 -0.2648  0.6036 -0.7876
 2842SOL    HW120159   3.919   0.990   5.362 -0.4547  2.1728 -1.8822
 2842SOL    HW220160   3.795   1.069   5.392 -0.9919 -0.0805  0.7184
 2843SOL     OW20161   0.437   3.258   6.712  0.3113 -0.2072  0.0282
 2843SOL    HW120162   0.384   3.280   6.789  2.3272 -0.7755  1.5740
 2843SOL    HW220163   0.453   3.343   6.670  0.9505 -0.5019 -0.3173
 2844SOL     OW20164   0.406   0.724   0.817  1.0291  0.0043  0.2184
 2844SOL    HW120165   0.477   0.668   0.786  2.6177  2.8226 -1.2341
 2844SOL    HW220166   0.441   0.743   0.904 -2.2566 -0.8606  1.7285
 2845SOL     OW20167   0.642   3.175  15.785 -0.0639  0.1459 -0.0494
 2845SOL    HW120168   0.714   3.168  15.723  0.1291  0.4309  0.1428
 2845SOL    HW220169   0.685   3.228  15.852  0.8949 -0.8559  0.1066
 2846SOL     OW20170   4.225   3.782   3.565 -0.5902 -0.5061 -0.3078
 2846SOL    HW120171   4.311   3.752   3.536 -0.2678 -0.2306  0.3684
 2846SOL    HW220172   4.211   3.851   3.500  1.6119  2.7844  2.6522
 2847SOL     OW20173   0.672   3.106   6.765  0.5313 -0.2123  0.1236
 2847SOL    HW120174   0.593   3.159   6.752  0.6662  0.2249  1.0812
 2847SOL    HW220175   0.716   3.105   6.680 -0.7071  1.3741 -0.5488
 2848SOL     OW20176   1.068   2.632   6.733  0.3289 -0.0026  0.1676
 2848SOL    HW120177   1.041   2.706   6.788 -0.1285 -0.5394  0.6589
 2848SOL    HW220178   0.992   2.577   6.751  0.9641 -0.8122  0.3874
 2849SOL     OW20179   4.141   0.017   3.976 -0.2106 -0.1924  0.9069
 2849SOL    HW120180   4.096   0.031   4.059  0.8763  1.4538  1.2052
 2849SOL    HW220181   4.086   0.064   3.913  1.2643  1.6323  0.9831
 2850SOL     OW20182   1.287   3.091  15.143 -0.1509  0.0196  0.0590
 2850SOL    HW120183   1.364   3.055  15.186 -0.4472 -2.0995 -1.1573
 2850SOL    HW220184   1.299   3.083  15.048  1.3946  3.4468 -0.0320
 2851SOL     OW20185   1.175   1.835  14.469  0.0447 -0.1953 -0.2395
 2851SOL    HW120186   1.134   1.919  14.448 -0.5272 -0.9374 -2.0270
 2851SOL    HW220187   1.114   1.809  14.538  0.3639  1.7378  0.7826
 2852SOL     OW20188   2.227   2.949   7.664  0.0751 -0.0429  0.0689
 2852SOL    HW120189   2.309   2.995   7.683  0.1773 -1.1079  2.2962
 2852SOL    HW220190   2.168   3.023   7.652 -0.1690  0.2685  3.0105
 2853SOL     OW20191   0.862   3.063   6.553 -0.1969 -0.1136 -0.5668
 2853SOL    HW120192   0.892   2.972   6.545 -3.5110 -1.1594 -1.0642
 2853SOL    HW220193   0.947   3.098   6.582  0.7706 -1.2200 -2.0472
 2854SOL     OW20194   3.080   2.364  11.865  0.0183 -0.1947 -0.4034
 2854SOL    HW120195   2.989   2.339  11.875  0.5635 -2.4411 -0.9231
 2854SOL    HW220196   3.062   2.449  11.826  0.2878 -0.5508 -1.3066
 2855SOL     OW20197   2.882   4.491  16.920 -0.4985  0.0737 -0.2700
 2855SOL    HW120198   2.831   4.492  17.001 -1.0082  1.7061 -0.6197
 2855SOL    HW220199   2.814   4.513  16.858 -0.7042 -0.7022 -0.3267
 2856SOL     OW20200   3.526   1.565   4.733 -0.2532 -0.4553 -0.3016
 2856SOL    HW120201   3.609   1.556   4.685 -0.0693 -1.3565  0.1955
 2856SOL    HW220202   3.559   1.591   4.819  1.9703  2.8368 -2.1308
 2857SOL     OW20203   1.516   3.398   0.265 -0.2051 -0.0345  0.4785
 2857SOL    HW120204   1.454   3.448   0.213  1.0863  0.1380 -0.8797
 2857SOL    HW220205   1.467   3.317   0.277 -0.9318 -0.0627 -2.8954
 2858SOL     OW20206   3.847   1.615   5.990  0.2279  0.1007  0.1409
 2858SOL    HW120207   3.878   1.567   5.913  0.6893  2.1740 -0.9583
 2858SOL    HW220208   3.776   1.552   6.001  0.2283  0.0575 -0.1047
 2859SOL     OW20209   0.618   4.154   7.801  0.3981 -0.1922 -0.4838
 2859SOL    HW120210   0.550   4.197   7.750 -0.2105  1.7486  1.9371
 2859SOL    HW220211   0.680   4.228   7.803 -0.5195  0.5576  0.2556
 2860SOL     OW20212   4.211   2.363  12.900 -0.3017  0.0446 -0.0559
 2860SOL    HW120213   4.191   2.299  12.831 -0.4497  0.5679 -0.5020
 2860SOL    HW220214   4.211   2.444  12.848  2.4461  0.3009  0.3538
 2861SOL     OW20215   3.137   2.165   8.730  0.1240 -0.3305  0.1495
 2861SOL    HW120216   3.185   2.162   8.647  0.1157 -0.0158  0.1368
 2861SOL    HW220217   3.208   2.143   8.789 -0.5047 -2.3843  0.1754
 2862SOL     OW20218   3.847   3.452   9.745 -0.3756 -0.0216  0.2734
 2862SOL    HW120219   3.930   3.421   9.780 -1.4236 -2.6492  0.4493
 2862SOL    HW220220   3.878   3.484   9.661 -0.1790 -0.1136  0.3124
 2863SOL     OW20221   4.699   0.988   5.348  0.2482 -0.1817  0.1417
 2863SOL    HW120222   0.057   0.995   5.334  0.0017  1.4185 -0.7272
 2863SOL    HW220223   4.709   0.912   5.405  0.3291  1.1358  1.8756
 2864SOL     OW20224   2.034   3.627  12.608 -0.1310  0.0099 -0.2473
 2864SOL    HW120225   2.028   3.710  12.654 -0.4045  0.9381 -1.9374
 2864SOL    HW220226   2.029   3.571  12.685 -0.1803  0.8717  0.3789
 2865SOL     OW20227   3.470   1.394   3.606 -0.0893 -0.5316 -0.3320
 2865SOL    HW120228   3.478   1.463   3.672 -2.1421 -2.3361  1.8108
 2865SOL    HW220229   3.401   1.436   3.554 -0.0928  1.8774  1.6073
 2866SOL     OW20230   1.962   1.383  13.316 -0.4325  0.1377  0.6281
 2866SOL    HW120231   2.056   1.401  13.325 -0.5287  1.9039 -1.9703
 2866SOL    HW220232   1.954   1.376  13.221 -3.4899 -2.2635  1.0921
 2867SOL     OW20233   1.026   3.280   2.257  0.4536 -0.3412 -0.1866
 2867SOL    HW120234   0.991   3.348   2.200 -2.6995 -1.7469  0.0755
 2867SOL    HW220235   1.122   3.291   2.254  0.4948 -0.2659  1.2282
 2868SOL     OW20236   2.211   1.300   2.599 -0.0975  0.1233  0.1631
 2868SOL    HW120237   2.166   1.290   2.516  0.0281  0.7481  0.0183
 2868SOL    HW220238   2.147   1.259   2.658  1.0127 -0.5796  0.8802
 2869SOL     OW20239   2.024   3.601  13.727 -0.5997  0.0154 -0.9046
 2869SOL    HW120240   1.982   3.567  13.805  2.5793  2.0105  1.6563
 2869SOL    HW220241   2.117   3.584  13.742 -1.2019 -2.2758  0.1935
 2870SOL     OW20242   2.007   0.712   4.267 -0.1703  0.2128  0.5904
 2870SOL    HW120243   2.100   0.705   4.286 -0.3874 -0.1973  1.4808
 2870SOL    HW220244   1.967   0.747   4.346  2.9281  1.2339  1.7048
 2871SOL     OW20245   2.614   1.053  14.553 -0.0866 -0.2137 -0.0436
 2871SOL    HW120246   2.693   1.075  14.505  0.5477  1.1197  1.6022
 2871SOL    HW220247   2.638   0.962  14.574 -0.7505 -0.3264  0.2398
 2872SOL     OW20248   1.753   1.943   8.036  0.2624 -0.3208 -0.2106
 2872SOL    HW120249   1.795   1.878   8.091  1.0665  1.6442  1.4570
 2872SOL    HW220250   1.804   1.926   7.957 -0.7456 -1.3217 -0.6538
 2873SOL     OW20251   0.004   0.104   0.579 -0.3208 -1.0367  0.4405
 2873SOL    HW120252   0.095   0.133   0.583 -0.4756 -0.5808  0.6644
 2873SOL    HW220253   4.711   0.102   0.488  1.7447 -1.5662 -0.2069
 2874SOL     OW20254   1.252   0.261   1.481 -0.2613  0.2897 -0.4018
 2874SOL    HW120255   1.304   0.301   1.411 -1.1805  0.6879 -0.8515
 2874SOL    HW220256   1.205   0.340   1.504 -0.2578  0.0658  0.3759
 2875SOL     OW20257   2.818   1.456  13.666 -0.2521 -0.3307  0.1924
 2875SOL    HW120258   2.793   1.367  13.642 -3.1238  0.9602 -1.6509
 2875SOL    HW220259   2.913   1.444  13.664 -0.1744  0.3522 -0.2088
 2876SOL     OW20260   4.491   0.306   9.108  0.4988  0.0321 -0.1600
 2876SOL    HW120261   4.578   0.266   9.112  0.4370  0.1579  3.0076
 2876SOL    HW220262   4.478   0.302   9.013  2.6480  2.2442 -0.5456
 2877SOL     OW20263   1.909   3.552  14.796  0.0681 -0.3348 -0.3739
 2877SOL    HW120264   1.979   3.506  14.749  1.5932  1.0145  0.5683
 2877SOL    HW220265   1.932   3.536  14.887 -0.7220  0.1776 -0.0797
 2878SOL     OW20266   2.649   3.466   6.435  0.5861  0.1978  0.1667
 2878SOL    HW120267   2.734   3.461   6.479  0.9726  0.3507 -0.5520
 2878SOL    HW220268   2.648   3.557   6.404 -0.0485 -0.2676 -1.1724
 2879SOL     OW20269   1.607   3.801   7.809 -0.1865 -0.3921 -0.2078
 2879SOL    HW120270   1.644   3.882   7.775  0.9604 -1.0427 -0.5010
 2879SOL    HW220271   1.558   3.835   7.884 -0.2928 -1.8828  0.4081
 2880SOL     OW20272   3.093   0.598   3.803 -0.3980 -0.4603  0.0152
 2880SOL    HW120273   3.089   0.532   3.733  1.9368  1.2994 -1.7393
 2880SOL    HW220274   3.031   0.556   3.863  1.1684 -1.7061  0.7502
 2881SOL     OW20275   0.931   0.713  13.827 -0.4212 -0.3242  0.2380
 2881SOL    HW120276   0.963   0.800  13.804  0.8255  0.8899  6.4498
 2881SOL    HW220277   1.003   0.677  13.879  0.0750 -0.1971 -0.3587
 2882SOL     OW20278   2.952   3.956   2.516  0.7628  0.3688  0.0049
 2882SOL    HW120279   3.004   4.024   2.472  2.9170  0.0403  2.0487
 2882SOL    HW220280   3.022   3.929   2.574  0.1673  1.4886  1.2541
 2883SOL     OW20281   1.678   0.799   3.049  0.0717 -0.0382 -0.2950
 2883SOL    HW120282   1.685   0.887   3.011 -1.1695  0.8359  1.4378
 2883SOL    HW220283   1.595   0.768   3.013  0.2002 -0.0781 -0.5548
 2884SOL     OW20284   4.658   4.590   6.271  0.2683 -0.6192 -0.1785
 2884SOL    HW120285   4.578   4.622   6.311 -0.1300  0.2489 -1.6409
 2884SOL    HW220286   4.644   4.496   6.268  1.8629 -0.8633  0.1298
 2885SOL     OW20287   1.694   2.114   0.525 -0.3029 -0.0885 -0.3461
 2885SOL    HW120288   1.664   2.047   0.586  0.1125  0.4943  0.4984
 2885SOL    HW220289   1.760   2.157   0.579 -1.7635  0.6870  0.8241
 2886SOL     OW20290   4.168   0.658  14.193  0.5701  0.0338  0.1380
 2886SOL    HW120291   4.075   0.643  14.209  0.0716  1.1262 -1.7930
 2886SOL    HW220292   4.204   0.663  14.282 -3.7201 -2.2604  2.0320
 2887SOL     OW20293   1.082   4.453   6.861 -0.1085  0.4530 -0.3247
 2887SOL    HW120294   1.052   4.462   6.951  0.6092 -0.3853 -0.0150
 2887SOL    HW220295   1.177   4.451   6.864 -0.1905  0.6064  2.3158
 2888SOL     OW20296   1.021   2.784   0.202  0.2555  0.5284  0.5881
 2888SOL    HW120297   1.006   2.834   0.121  1.3270 -2.4237 -1.4230
 2888SOL    HW220298   1.074   2.714   0.164 -2.5764 -0.8024 -0.9433
 2889SOL     OW20299   4.536   0.343  17.059 -0.2736 -0.1562 -0.8379
 2889SOL    HW120300   4.469   0.408  17.083  0.9991  0.0307  2.2091
 2889SOL    HW220301   4.600   0.334  17.130 -1.3895 -0.6214  0.1090
 2890SOL     OW20302   0.294   0.832   9.797 -0.0816 -0.2956  0.5506
 2890SOL    HW120303   0.200   0.832   9.816  0.0067 -1.1653  0.9658
 2890SOL    HW220304   0.332   0.800   9.879 -1.5196 -2.7453  0.2670
 2891SOL     OW20305   1.603   4.584   6.751  0.3643 -0.2272 -0.0546
 2891SOL    HW120306   1.590   4.490   6.737  1.9043 -0.4063 -0.3771
 2891SOL    HW220307   1.694   4.585   6.783  0.1499  1.1058  0.5126
 2892SOL     OW20308   1.549   0.435   3.887 -0.1668 -0.0590 -0.4445
 2892SOL    HW120309   1.544   0.412   3.979 -0.1845 -0.1972 -0.4794
 2892SOL    HW220310   1.457   0.426   3.861  0.2337 -0.2092 -1.8097
 2893SOL     OW20311   4.192   3.266   0.632  0.0747 -0.1054 -0.3331
 2893SOL    HW120312   4.261   3.295   0.573  1.3457 -2.7115 -0.1153
 2893SOL    HW220313   4.231   3.267   0.719 -2.0113  0.7515  0.5976
 2894SOL     OW20314   2.585   3.246   4.618 -0.3158  0.1956 -0.1040
 2894SOL    HW120315   2.569   3.215   4.707  0.8453 -1.2316 -0.3918
 2894SOL    HW220316   2.497   3.250   4.580 -0.0556 -0.3817 -0.7845
 2895SOL     OW20317   3.895   3.614   3.714  0.5974  0.3371  0.9327
 2895SOL    HW120318   3.879   3.708   3.706 -0.6168  0.0830  0.3248
 2895SOL    HW220319   3.985   3.605   3.745  1.2998 -1.5903 -1.6239
 2896SOL     OW20320   2.502   4.589   9.146  0.1406 -0.3040 -0.6101
 2896SOL    HW120321   2.495   4.494   9.158 -1.4664  0.1585  2.0349
 2896SOL    HW220322   2.412   4.612   9.168  0.0747 -0.4372 -0.7373
 2897SOL     OW20323   3.684   2.219   5.123 -0.0270 -0.4925  0.6150
 2897SOL    HW120324   3.762   2.261   5.158 -0.0058 -0.2702  0.3079
 2897SOL    HW220325   3.668   2.174   5.206 -0.4152  3.3165  2.6130
 2898SOL     OW20326   2.880   4.357  11.486 -0.2548 -0.5977  0.2655
 2898SOL    HW120327   2.972   4.333  11.482  0.3985  1.6791  1.3539
 2898SOL    HW220328   2.860   4.330  11.396 -1.7229 -0.1677  0.4628
 2899SOL     OW20329   4.615   0.275   7.872  0.0198 -0.0515  0.9562
 2899SOL    HW120330   4.528   0.239   7.853  0.4223  0.2426 -1.4909
 2899SOL    HW220331   4.659   0.225   7.803 -0.1792 -0.2697  0.9869
 2900SOL     OW20332   0.310   2.231   5.293 -0.1365 -0.0607 -0.2515
 2900SOL    HW120333   0.271   2.299   5.348  0.5172  1.5010 -1.7283
 2900SOL    HW220334   0.333   2.162   5.354 -0.2051  0.2458  0.1240
 2901SOL     OW20335   0.052   2.971   4.773  0.0036 -0.4038 -0.6002
 2901SOL    HW120336   0.111   2.897   4.760  0.7141  0.1900 -0.7541
 2901SOL    HW220337   4.709   2.941   4.728 -0.7550 -0.6295  0.8931
 2902SOL     OW20338   0.801   1.581   6.805 -1.0256 -0.0399  0.3843
 2902SOL    HW120339   0.787   1.646   6.875 -1.8338  1.2939 -1.0024
 2902SOL    HW220340   0.770   1.622   6.724 -0.6530 -1.5766 -0.5188
 2903SOL     OW20341   2.242   3.604   5.808  0.3232 -0.3336 -0.1910
 2903SOL    HW120342   2.276   3.542   5.873  0.0838  1.0714  1.2944
 2903SOL    HW220343   2.304   3.591   5.736  0.2352 -1.2935 -0.0928
 2904SOL     OW20344   2.191   0.830   5.995 -0.0552 -0.0880 -1.3236
 2904SOL    HW120345   2.185   0.735   5.999  0.1094 -0.0740 -0.7515
 2904SOL    HW220346   2.198   0.836   5.900 -0.0582  2.2977 -1.1641
 2905SOL     OW20347   1.929   3.604  10.015 -0.2325 -1.1532 -0.0202
 2905SOL    HW120348   1.841   3.574  10.036 -1.4102  2.6397  0.4557
 2905SOL    HW220349   1.962   3.616  10.104 -0.2824  0.6037 -0.2337
 2906SOL     OW20350   0.496   0.796   2.395  0.2557 -0.0270 -0.3525
 2906SOL    HW120351   0.510   0.701   2.396  1.4712  0.1549 -0.3781
 2906SOL    HW220352   0.406   0.816   2.368  0.9469 -1.1017 -3.5082
 2907SOL     OW20353   4.507   3.338   4.103  0.5248 -0.7181 -0.6768
 2907SOL    HW120354   4.490   3.425   4.066 -2.1686 -0.9077  0.1057
 2907SOL    HW220355   4.456   3.283   4.045 -0.8787  0.3863 -0.4750
 2908SOL     OW20356   1.729   1.276  12.421  0.7164 -0.0624 -0.0679
 2908SOL    HW120357   1.720   1.186  12.453  1.7837  0.1727  0.9331
 2908SOL    HW220358   1.796   1.306  12.482  0.2630  0.8483 -0.0299
 2909SOL     OW20359   2.485   4.150   0.431  0.0965  0.2479  0.2132
 2909SOL    HW120360   2.516   4.071   0.474  0.9178  0.0454 -0.7654
 2909SOL    HW220361   2.541   4.161   0.355  0.0820 -0.3781  0.1122
 2910SOL     OW20362   4.246   2.277   3.644 -0.6066 -0.0180 -0.0230
 2910SOL    HW120363   4.258   2.250   3.735 -2.2316 -1.2114 -0.1676
 2910SOL    HW220364   4.257   2.199   3.589 -0.6836 -0.4025  0.5056
 2911SOL     OW20365   4.391   0.158   6.520 -0.3718  0.2569 -0.2905
 2911SOL    HW120366   4.402   0.240   6.569  2.0060 -0.2264 -0.0250
 2911SOL    HW220367   4.333   0.187   6.449 -0.4623  2.7715  0.8168
 2912SOL     OW20368   3.557   3.337  12.481  1.3052  0.3410  0.2156
 2912SOL    HW120369   3.647   3.304  12.471  1.3340 -0.1506  2.0549
 2912SOL    HW220370   3.564   3.418  12.431 -1.3181 -0.3370 -1.2732
 2913SOL     OW20371   1.355   2.921   4.772 -0.2888  0.5112  0.0688
 2913SOL    HW120372   1.416   2.972   4.718  0.9932 -1.8769 -0.7266
 2913SOL    HW220373   1.389   2.949   4.857  0.9558 -1.2115  0.1396
 2914SOL     OW20374   1.429   1.404  15.365  0.0012 -0.3380  0.0986
 2914SOL    HW120375   1.347   1.354  15.364 -0.4718  0.3918  2.4216
 2914SOL    HW220376   1.416   1.442  15.278 -4.0412 -0.7848  0.5117
 2915SOL     OW20377   0.416   4.543  14.941  0.0930 -0.1271  0.7919
 2915SOL    HW120378   0.403   4.551  15.036  1.7159  2.8108  0.7658
 2915SOL    HW220379   0.333   4.576  14.907 -0.0305  0.6570  1.8427
 2916SOL     OW20380   1.954   2.091  16.581 -0.0040 -0.4477  0.1942
 2916SOL    HW120381   1.998   2.060  16.660 -1.1504 -3.2840 -0.2767
 2916SOL    HW220382   1.871   2.112  16.625 -0.5822 -0.0258 -1.0956
 2917SOL     OW20383   0.918   4.101   4.152  0.2814  0.9125 -0.0300
 2917SOL    HW120384   0.890   4.174   4.097  1.2445  1.8707  0.7583
 2917SOL    HW220385   0.845   4.101   4.214  0.0174 -0.5613 -0.3492
 2918SOL     OW20386   4.695   0.278  14.193 -0.2083 -0.0521 -0.1727
 2918SOL    HW120387   0.038   0.256  14.143 -0.1601 -0.4081  0.0580
 2918SOL    HW220388   0.007   0.287  14.276 -1.5768 -1.4649  0.7795
 2919SOL     OW20389   2.453   2.590  12.403  0.0364 -0.2827  0.0419
 2919SOL    HW120390   2.494   2.675  12.415 -2.7562  0.6932  2.5827
 2919SOL    HW220391   2.361   2.617  12.411  0.1990  0.3081 -0.0911
 2920SOL     OW20392   2.314   4.560  13.274  0.1735  0.3007 -0.1850
 2920SOL    HW120393   2.372   4.630  13.302  1.7836 -1.4564  0.8539
 2920SOL    HW220394   2.352   4.483  13.316 -0.8112 -0.1199 -0.0759
 2921SOL     OW20395   3.460   1.449   1.927  0.6953  0.1212 -0.2197
 2921SOL    HW120396   3.405   1.399   1.987 -0.1943 -1.3014 -2.2452
 2921SOL    HW220397   3.551   1.421   1.939  0.8798  1.5156  1.8407
 2922SOL     OW20398   3.984   3.190   8.153  0.3970  0.5536  0.4035
 2922SOL    HW120399   4.009   3.226   8.068 -0.1550  0.3075  0.1378
 2922SOL    HW220400   3.909   3.245   8.175 -0.6645  0.0611 -2.0280
 2923SOL     OW20401   2.857   1.836   6.237  0.1378  0.2618  0.8758
 2923SOL    HW120402   2.856   1.872   6.148 -1.8189  0.6679  1.0782
 2923SOL    HW220403   2.796   1.766   6.213  0.8638 -0.3134  0.6726
 2924SOL     OW20404   4.655   0.524   7.140 -0.3958  0.6480  0.2957
 2924SOL    HW120405   4.683   0.437   7.111 -0.2549  0.2009  1.8162
 2924SOL    HW220406   4.708   0.575   7.078  2.3395 -2.5432  0.0046
 2925SOL     OW20407   3.016   0.933   6.313 -0.6362  0.0432  0.6665
 2925SOL    HW120408   2.941   0.983   6.344 -1.0307 -0.8386  1.1323
 2925SOL    HW220409   2.975   0.849   6.294  0.2369 -0.4228  0.8292
 2926SOL     OW20410   1.764   0.419   7.830  0.0383 -0.5066  0.0284
 2926SOL    HW120411   1.820   0.474   7.884 -1.9326 -0.1513  1.6975
 2926SOL    HW220412   1.748   0.474   7.752 -1.5059 -0.6091  0.2701
 2927SOL     OW20413   4.209   1.282   8.973 -0.0672  1.1573 -0.0393
 2927SOL    HW120414   4.296   1.322   8.976  0.1283  0.7174  0.0699
 2927SOL    HW220415   4.203   1.269   8.878 -0.9728 -0.3661  0.2246
 2928SOL     OW20416   4.275   1.557   2.683 -0.3806  0.1223 -0.8292
 2928SOL    HW120417   4.236   1.569   2.770  0.5048  2.2674 -0.7295
 2928SOL    HW220418   4.336   1.630   2.669  1.6083 -1.1024  1.5947
 2929SOL     OW20419   3.582   0.528   6.633 -0.3616 -0.3576 -0.4939
 2929SOL    HW120420   3.550   0.556   6.718  0.4510 -0.9105 -0.0055
 2929SOL    HW220421   3.645   0.600   6.626 -0.3719 -0.5383 -2.3764
 2930SOL     OW20422   0.874   0.066   4.530 -0.5879 -0.6434 -0.1929
 2930SOL    HW120423   0.865   4.735   4.463 -1.9543 -0.1137 -0.5474
 2930SOL    HW220424   0.964   0.092   4.510 -0.7997 -1.3129 -1.9695
 2931SOL     OW20425   2.823   0.882  14.422 -0.3317 -0.6154 -0.5159
 2931SOL    HW120426   2.895   0.840  14.470  0.5698  0.0714 -1.2472
 2931SOL    HW220427   2.755   0.816  14.431  1.6023 -2.5293  0.2229
 2932SOL     OW20428   3.344   1.145   4.064 -0.0547  0.5264  0.2625
 2932SOL    HW120429   3.292   1.094   4.003 -0.0873  1.4799 -0.5185
 2932SOL    HW220430   3.419   1.168   4.008 -0.0559  0.3534  0.1921
 2933SOL     OW20431   2.369   1.935   9.868 -0.5232  0.2720  0.8576
 2933SOL    HW120432   2.319   1.908   9.791 -2.7851 -0.8135  2.6955
 2933SOL    HW220433   2.319   2.010   9.902 -0.6708  0.6278 -0.1226
 2934SOL     OW20434   1.199   0.769  13.926 -0.2010 -0.0863 -0.0730
 2934SOL    HW120435   1.262   0.698  13.929  0.6947  0.7006 -0.1720
 2934SOL    HW220436   1.192   0.786  13.832 -0.2682  1.2139  0.1600
 2935SOL     OW20437   1.683   1.472   0.345  0.0021 -0.1469 -0.4720
 2935SOL    HW120438   1.678   1.418   0.267 -3.1805  0.4307 -0.6730
 2935SOL    HW220439   1.726   1.410   0.403  0.7547 -0.2188 -1.1130
 2936SOL     OW20440   1.855   4.333   9.944 -0.2119  0.1326  0.4094
 2936SOL    HW120441   1.774   4.298   9.905 -0.8699  1.7317  0.3455
 2936SOL    HW220442   1.836   4.343  10.037 -1.7051 -1.4099  0.2690
 2937SOL     OW20443   3.773   1.918   6.246  0.5747  0.2233  0.0652
 2937SOL    HW120444   3.723   1.961   6.177 -0.0568 -2.7735 -1.3571
 2937SOL    HW220445   3.792   1.981   6.315 -1.2567  0.4489  0.3530
 2938SOL     OW20446   0.436   2.463   4.000  0.2629  0.4923  0.7997
 2938SOL    HW120447   0.530   2.477   4.011  0.1911  0.9200  0.8711
 2938SOL    HW220448   0.426   2.370   4.020 -1.9124  0.1820 -1.7807
 2939SOL     OW20449   0.389   1.365  17.494  0.0981  0.5337  0.2591
 2939SOL    HW120450   0.428   1.440  17.449  0.9256 -0.4992 -0.7331
 2939SOL    HW220451   0.296   1.363  17.468 -0.3704 -0.7812  2.0289
 2940SOL     OW20452   3.461   0.134   4.797  1.0252 -0.1175 -0.7786
 2940SOL    HW120453   3.448   0.039   4.803  2.4866 -0.1588  1.3307
 2940SOL    HW220454   3.374   0.163   4.826  0.4722 -0.6633 -1.8833
 2941SOL     OW20455   1.776   3.594   9.514 -0.4616 -0.1177 -0.5648
 2941SOL    HW120456   1.820   3.521   9.557 -1.6354 -1.2156 -1.2494
 2941SOL    HW220457   1.692   3.591   9.559 -0.6617  0.2458 -0.9045
 2942SOL     OW20458   3.743   3.495   3.282  0.1706  0.0066 -0.3299
 2942SOL    HW120459   3.785   3.517   3.198  1.4741  1.3182  0.6608
 2942SOL    HW220460   3.813   3.532   3.336  0.3740 -0.9426  0.0449
 2943SOL     OW20461   4.243   4.096   4.300  0.2907 -0.4144 -0.2705
 2943SOL    HW120462   4.174   4.158   4.277  2.9678  2.1796 -1.2393
 2943SOL    HW220463   4.294   4.094   4.219  1.8345  0.0686  0.6734
 2944SOL     OW20464   4.115   1.056  16.368  0.2975 -0.6259 -0.6507
 2944SOL    HW120465   4.050   1.048  16.438  0.3887 -0.2403 -0.5239
 2944SOL    HW220466   4.105   0.982  16.308  0.6194  0.9086 -2.6024
 2945SOL     OW20467   0.176   3.755   2.629 -0.4902 -0.0672  0.4563
 2945SOL    HW120468   0.160   3.679   2.573 -1.6362  0.2524  0.3393
 2945SOL    HW220469   0.168   3.726   2.720  0.2002 -2.6256 -0.3087
 2946SOL     OW20470   0.105   2.856  16.401 -0.6508 -0.1983 -0.5501
 2946SOL    HW120471   0.072   2.814  16.321 -1.0620 -1.4195  0.2566
 2946SOL    HW220472   0.042   2.822  16.464  0.2535  0.9258  0.9402
 2947SOL     OW20473   2.413   0.075  17.140  0.6796 -0.0111  0.2798
 2947SOL    HW120474   2.444   0.071  17.050 -1.1336 -1.4682 -0.2889
 2947SOL    HW220475   2.391   4.719  17.155 -0.8910  0.3810  0.3887
 2948SOL     OW20476   3.598   4.505  10.774 -0.0895  0.2061 -1.0169
 2948SOL    HW120477   3.594   4.410  10.760 -0.7038 -0.0955  1.1265
 2948SOL    HW220478   3.544   4.519  10.852  0.0472 -0.8681 -0.7301
 2949SOL     OW20479   4.699   0.535   2.715  0.1539 -0.4274  0.6101
 2949SOL    HW120480   4.718   0.442   2.714  1.5817 -0.1343  1.3063
 2949SOL    HW220481   4.655   0.540   2.800 -0.4801 -0.4144  0.2874
 2950SOL     OW20482   3.719   1.836   9.831  0.2104 -0.3836  0.2491
 2950SOL    HW120483   3.773   1.800   9.901 -0.0535 -0.5052  0.3909
 2950SOL    HW220484   3.652   1.767   9.824 -0.1728 -0.0182  0.3485
 2951SOL     OW20485   4.172   3.459   6.359  0.8628  0.1655  0.0374
 2951SOL    HW120486   4.191   3.553   6.362 -0.5338  0.4396  0.3070
 2951SOL    HW220487   4.141   3.454   6.269 -0.4385 -0.1970  0.5031
 2952SOL     OW20488   4.078   0.897   5.073  0.1741  0.7727  0.0232
 2952SOL    HW120489   4.057   0.809   5.041 -1.2519  0.6528  1.2693
 2952SOL    HW220490   4.144   0.918   5.007  1.9690 -0.5114  1.4326
 2953SOL     OW20491   2.648   2.735  17.672 -0.6248  0.2491  0.1657
 2953SOL    HW120492   2.661   2.830  17.672 -0.1294  0.1802 -2.9333
 2953SOL    HW220493   2.731   2.716  17.628 -1.3501  2.6474 -2.2241
 2954SOL     OW20494   1.173   1.837   4.636 -0.2339 -0.3977  0.4376
 2954SOL    HW120495   1.231   1.814   4.563 -0.2685 -0.3643  0.3991
 2954SOL    HW220496   1.201   1.927   4.656  1.0697 -0.8659  0.7119
 2955SOL     OW20497   1.926   0.999   8.787 -0.3105  0.0215 -0.0115
 2955SOL    HW120498   2.019   0.978   8.798 -0.7565 -1.0975  1.5991
 2955SOL    HW220499   1.899   0.954   8.867  1.3963  0.0705  0.5925
 2956SOL     OW20500   3.633   3.703   4.013 -0.1379 -0.1381  0.4761
 2956SOL    HW120501   3.623   3.768   4.083  2.4947 -3.1041  3.6045
 2956SOL    HW220502   3.567   3.640   4.041 -0.8446  0.1172 -0.6307
 2957SOL     OW20503   1.305   3.190   1.477 -0.3413  0.0177  0.8924
 2957SOL    HW120504   1.262   3.274   1.495 -1.6236 -0.3606 -0.4020
 2957SOL    HW220505   1.311   3.149   1.563  1.7761  1.8724  1.6508
 2958SOL     OW20506   0.284   3.111   3.384 -0.2514 -0.7744  0.0682
 2958SOL    HW120507   0.366   3.152   3.412 -0.4402 -0.2273 -0.1760
 2958SOL    HW220508   0.222   3.170   3.426  0.6518  1.9236 -2.4196
 2959SOL     OW20509   3.469   2.022   7.311  0.2719  0.1535 -0.3218
 2959SOL    HW120510   3.485   2.040   7.403  1.0838  0.3618 -0.5099
 2959SOL    HW220511   3.446   1.930   7.323  0.2652  0.2849  0.6580
 2960SOL     OW20512   0.604   3.547  10.975 -0.1771  0.3782 -0.7752
 2960SOL    HW120513   0.697   3.534  10.992 -0.5887 -2.6450 -0.6786
 2960SOL    HW220514   0.595   3.518  10.884  0.1046 -1.0567 -0.3547
 2961SOL     OW20515   2.189   3.788  13.903 -0.1084  0.1612 -0.4363
 2961SOL    HW120516   2.096   3.804  13.887  0.1082  1.7652 -0.1574
 2961SOL    HW220517   2.230   3.864  13.861  1.8486 -0.4803  0.3033
 2962SOL     OW20518   3.643   3.656   4.932 -0.0401  0.2129  0.0804
 2962SOL    HW120519   3.715   3.673   4.992 -0.2552 -2.6519  1.1843
 2962SOL    HW220520   3.688   3.589   4.881  0.8058 -0.5351  1.8076
 2963SOL     OW20521   4.189   2.529   1.737  0.7606 -0.0622  0.4638
 2963SOL    HW120522   4.201   2.442   1.777  1.2153  0.0006  0.4651
 2963SOL    HW220523   4.156   2.583   1.809 -1.7891 -1.9696  0.7294
 2964SOL     OW20524   1.540   3.591   4.259 -0.1790  0.4939 -0.0593
 2964SOL    HW120525   1.456   3.572   4.216 -0.0601 -0.2554  0.0386
 2964SOL    HW220526   1.587   3.635   4.189  0.4672  1.5724  1.0370
 2965SOL     OW20527   4.125   2.747   9.474 -0.1716  0.0367  0.2444
 2965SOL    HW120528   4.194   2.710   9.529 -0.3301 -0.6205 -0.0010
 2965SOL    HW220529   4.115   2.670   9.418 -0.8847 -0.4469  1.0374
 2966SOL     OW20530   4.611   2.578   3.918  0.1689 -0.7419  0.0592
 2966SOL    HW120531   4.667   2.565   3.995  0.5402 -0.3303 -0.1371
 2966SOL    HW220532   4.676   2.616   3.858 -1.4956  0.9800 -0.6719
 2967SOL     OW20533   3.409   4.619   1.807  0.6036  0.0658 -0.4412
 2967SOL    HW120534   3.452   4.557   1.748  0.1017 -0.3665 -0.3514
 2967SOL    HW220535   3.352   4.570   1.867  1.9277 -0.0618  0.7176
 2968SOL     OW20536   0.534   3.910   8.975 -0.3016 -0.2079  0.0184
 2968SOL    HW120537   0.459   3.869   8.932  1.7503 -1.4153 -2.4687
 2968SOL    HW220538   0.548   3.989   8.923  1.3340 -0.6033 -0.1516
 2969SOL     OW20539   3.693   0.048   4.447  0.1590 -0.5610 -0.2404
 2969SOL    HW120540   3.778   0.035   4.490 -0.2086 -1.0379  0.3393
 2969SOL    HW220541   3.657   0.121   4.496  1.3294 -1.1343  1.4939
 2970SOL     OW20542   4.317   4.533  13.692  0.4604  0.8501  0.5283
 2970SOL    HW120543   4.370   4.455  13.706 -0.8782 -0.4023 -1.3252
 2970SOL    HW220544   4.248   4.523  13.757  0.2430  2.1783  0.5045
 2971SOL     OW20545   0.097   0.390  10.981 -0.2927  0.5684 -0.2151
 2971SOL    HW120546   0.047   0.417  10.903 -0.7352  2.2110  0.6429
 2971SOL    HW220547   0.179   0.436  10.964  0.2008 -0.8137 -1.5383
 2972SOL     OW20548   3.579   2.471   6.935 -0.3794 -0.4272 -0.6235
 2972SOL    HW120549   3.485   2.453   6.943 -0.1713  0.0554  2.7829
 2972SOL    HW220550   3.609   2.393   6.981 -1.1202 -0.9850 -1.0844
 2973SOL     OW20551   2.924   4.024   7.521 -0.3964  0.2133  0.4039
 2973SOL    HW120552   2.995   4.075   7.559  0.1853 -0.7050  0.5567
 2973SOL    HW220553   2.889   4.087   7.458  0.3615  0.9637  0.7425
 2974SOL     OW20554   1.473   2.871   5.539  0.1173 -0.5695 -0.1984
 2974SOL    HW120555   1.506   2.957   5.514 -0.3165  0.1673  1.7351
 2974SOL    HW220556   1.498   2.869   5.632  2.2555  1.5199 -0.7277
 2975SOL     OW20557   4.726   4.605   7.088 -0.2031 -0.6117  0.1853
 2975SOL    HW120558   4.639   4.622   7.052  0.1312  1.0813  0.1668
 2975SOL    HW220559   4.718   4.514   7.115  4.3251 -1.4601 -1.3585
 2976SOL     OW20560   0.902   3.414   4.193 -0.6936  0.1276  0.4578
 2976SOL    HW120561   0.909   3.507   4.170  0.7152  0.1777  1.0483
 2976SOL    HW220562   0.928   3.375   4.110  0.0124 -0.1398  0.8018
 2977SOL     OW20563   2.611   1.709   3.700 -0.2589 -0.8600  0.1737
 2977SOL    HW120564   2.614   1.624   3.654  1.8307 -1.1199  0.8242
 2977SOL    HW220565   2.688   1.699   3.755 -1.2001 -0.5990  1.5592
 2978SOL     OW20566   0.235   0.853   3.464  0.3739  0.1528 -0.2459
 2978SOL    HW120567   0.161   0.882   3.518  0.6554 -1.2604  0.8899
 2978SOL    HW220568   0.188   0.800   3.401  0.8465  0.3768 -0.7898
 2979SOL     OW20569   2.123   2.659  11.224  0.0833 -0.3577  0.2640
 2979SOL    HW120570   2.197   2.599  11.227  0.3482  0.0005  1.1016
 2979SOL    HW220571   2.058   2.602  11.183  3.1068 -4.0448  0.5885
 2980SOL     OW20572   1.949   4.004   3.392 -0.1693  0.0233  0.1460
 2980SOL    HW120573   1.895   4.050   3.456  1.3178 -0.1962  1.5496
 2980SOL    HW220574   2.012   3.961   3.450  0.7536  1.0158 -0.1142
 2981SOL     OW20575   4.400   3.154   6.336 -0.3170 -0.8442 -0.0169
 2981SOL    HW120576   4.444   3.071   6.322  0.3590 -0.4497 -0.2685
 2981SOL    HW220577   4.380   3.199   6.253 -0.2813 -0.2236  0.3075
 2982SOL     OW20578   1.958   0.547  12.128  0.1575  0.0054 -0.1288
 2982SOL    HW120579   1.941   0.554  12.222  2.8512  1.0282  0.2877
 2982SOL    HW220580   2.025   0.482  12.148  0.0621 -0.0934 -0.1318
 2983SOL     OW20581   1.285   3.502   1.404 -0.0637  0.2546 -0.2796
 2983SOL    HW120582   1.369   3.470   1.370 -0.1154 -0.8027  0.6039
 2983SOL    HW220583   1.312   3.529   1.492 -1.3541 -0.8376  0.4419
 2984SOL     OW20584   0.556   2.374  12.725  1.0757  0.2660 -1.0768
 2984SOL    HW120585   0.620   2.400  12.791  0.5006 -0.6860 -0.1363
 2984SOL    HW220586   0.604   2.298  12.693  0.4933 -0.7317  0.4059
 2985SOL     OW20587   3.716   3.539   1.444 -0.0295 -0.4120 -0.2963
 2985SOL    HW120588   3.759   3.462   1.409 -0.8113 -0.4573 -1.1663
 2985SOL    HW220589   3.756   3.551   1.530  0.0827 -0.8131 -0.2945
 2986SOL     OW20590   1.151   4.632   7.409 -0.3572 -0.1623 -0.0190
 2986SOL    HW120591   1.208   4.693   7.456 -0.0755 -1.0447  0.7765
 2986SOL    HW220592   1.115   4.699   7.351  2.8423  3.0269  1.6379
 2987SOL     OW20593   0.913   2.005  14.706  0.4341  0.1468  0.5469
 2987SOL    HW120594   0.985   1.945  14.727  0.1796  0.3201  1.9100
 2987SOL    HW220595   0.919   2.018  14.612 -4.0191 -1.2881  0.0387
 2988SOL     OW20596   4.643   3.649  16.908  0.4657 -0.2854  0.0926
 2988SOL    HW120597   4.579   3.623  16.973  0.0128  0.2962 -0.1175
 2988SOL    HW220598   4.716   3.623  16.964 -0.2008  2.5431  2.2450
 2989SOL     OW20599   1.400   3.570  11.103 -0.5423  0.4561 -0.3350
 2989SOL    HW120600   1.380   3.505  11.170 -0.2687  0.9834  0.2540
 2989SOL    HW220601   1.342   3.531  11.037 -0.1586 -0.0404 -0.3781
 2990SOL     OW20602   1.901   3.433  13.919 -0.2191  0.0495 -0.5653
 2990SOL    HW120603   1.837   3.464  13.855 -0.2391  1.9053  0.3548
 2990SOL    HW220604   1.865   3.462  14.003  2.2575  0.7418  0.2386
 2991SOL     OW20605   3.761   4.173   0.961  0.2044  0.1660  0.5087
 2991SOL    HW120606   3.840   4.227   0.965  2.2770 -2.8206  0.0027
 2991SOL    HW220607   3.798   4.089   0.987  1.6373  0.2130 -1.3381
 2992SOL     OW20608   0.833   2.769   8.558 -0.7856  0.2423  0.2066
 2992SOL    HW120609   0.918   2.811   8.568  0.0758 -1.2457 -0.9122
 2992SOL    HW220610   0.850   2.692   8.613 -2.2822 -1.1957 -1.3263
 2993SOL     OW20611   4.065   4.658   0.401 -0.0047  0.4219 -0.9162
 2993SOL    HW120612   4.153   4.664   0.438  0.6752  0.1104 -2.4653
 2993SOL    HW220613   4.083   4.640   0.309 -1.3262 -3.9999 -0.3083
 2994SOL     OW20614   4.358   0.059   0.436 -0.0027  0.6155  0.6630
 2994SOL    HW120615   4.433   0.117   0.449  0.6605  0.1541 -1.1097
 2994SOL    HW220616   4.383   0.006   0.361  1.0647  0.6974  0.9578
 2995SOL     OW20617   3.355   2.535   9.834 -0.5658  0.5299  0.0223
 2995SOL    HW120618   3.397   2.578   9.760 -1.8324  1.0149 -0.4212
 2995SOL    HW220619   3.416   2.467   9.862 -1.6196 -0.9500 -1.2777
 2996SOL     OW20620   0.866   3.233   0.920  0.6479  0.1355 -0.5061
 2996SOL    HW120621   0.950   3.192   0.941  0.7874  0.9285  0.4856
 2996SOL    HW220622   0.844   3.163   0.859  1.8435 -0.2140 -0.5375
 2997SOL     OW20623   1.552   3.403   9.125  0.0218 -0.1391  0.4186
 2997SOL    HW120624   1.595   3.381   9.208 -1.1535 -1.6177  0.6410
 2997SOL    HW220625   1.497   3.324   9.129 -0.8066  0.5037  1.7572
 2998SOL     OW20626   4.150   4.522   7.127  0.8738  0.3120 -0.1434
 2998SOL    HW120627   4.090   4.492   7.195  0.3819  0.4378 -0.5203
 2998SOL    HW220628   4.177   4.610   7.153 -1.0087  0.7684  0.2115
 2999SOL     OW20629   0.302   3.725   5.551 -0.0231 -0.6438 -0.4610
 2999SOL    HW120630   0.281   3.818   5.549  0.6832 -0.4559  1.2027
 2999SOL    HW220631   0.315   3.715   5.645 -1.2950 -0.0106 -0.2176
 3000SOL     OW20632   3.637   4.209   9.178 -0.0943  0.1166 -0.6259
 3000SOL    HW120633   3.544   4.226   9.192 -0.1535 -0.7487  0.0519
 3000SOL    HW220634   3.671   4.296   9.197 -0.3187  0.0370  0.1201
 3001SOL     OW20635   2.739   1.211   4.832  0.0503  0.0132 -0.0267
 3001SOL    HW120636   2.797   1.136   4.817 -0.0023  0.2730 -1.5177
 3001SOL    HW220637   2.806   1.278   4.845 -0.0330 -0.1858  1.4730
 3002SOL     OW20638   3.810   3.240   4.285 -0.1968  0.0200 -0.1494
 3002SOL    HW120639   3.747   3.262   4.354  0.6823  1.9498  0.0559
 3002SOL    HW220640   3.821   3.146   4.299 -0.0602 -0.0542 -0.7591
 3003SOL     OW20641   2.560   0.247   9.646 -0.4091  0.0615  0.3740
 3003SOL    HW120642   2.550   0.339   9.621 -0.5274 -0.4625 -1.5793
 3003SOL    HW220643   2.480   0.220   9.692 -0.4972 -1.1568 -0.4823
 3004SOL     OW20644   0.778   4.488   3.191  1.3882  0.4412 -0.2326
 3004SOL    HW120645   0.734   4.563   3.151  1.3793  1.2490  1.3082
 3004SOL    HW220646   0.735   4.413   3.149  0.0921  0.2532  1.4118
 3005SOL     OW20647   4.390   4.724  12.379 -0.2249  0.3990 -0.1927
 3005SOL    HW120648   4.320   4.659  12.383 -0.3935  0.6926  1.3255
 3005SOL    HW220649   4.462   4.663  12.365 -0.2614  0.7765 -2.0720
 3006SOL     OW20650   3.690   1.942   8.335 -0.3426  0.2108 -0.3667
 3006SOL    HW120651   3.602   1.918   8.365  1.4557 -3.0418  2.1909
 3006SOL    HW220652   3.683   2.038   8.337 -1.2822  0.0739  2.1646
 3007SOL     OW20653   0.705   4.298   6.396 -0.1799  0.0900 -0.4283
 3007SOL    HW120654   0.782   4.340   6.357 -0.1961 -0.9084 -1.5361
 3007SOL    HW220655   0.722   4.204   6.388 -1.4977 -0.0762 -1.1923
 3008SOL     OW20656   4.633   0.524   5.596 -0.3258 -0.0748 -0.9029
 3008SOL    HW120657   4.541   0.524   5.623  0.5565 -0.1072  2.1080
 3008SOL    HW220658   4.680   0.517   5.679 -2.4263  3.0533  0.5611
 3009SOL     OW20659   1.142   3.591  16.349  0.4282 -0.4626  0.0610
 3009SOL    HW120660   1.086   3.547  16.412 -1.4200  2.8500  0.7494
 3009SOL    HW220661   1.151   3.525  16.281 -1.7550 -0.3304 -0.3485
 3010SOL     OW20662   1.751   1.471   4.364  0.1207 -0.1776  0.4015
 3010SOL    HW120663   1.830   1.420   4.347 -0.4275 -0.1624 -2.2335
 3010SOL    HW220664   1.764   1.560   4.330 -2.7605 -0.0175 -0.3286
 3011SOL     OW20665   0.843   2.413   3.624  0.1754  0.5100  0.1013
 3011SOL    HW120666   0.868   2.362   3.547  0.4002  0.9803 -0.1382
 3011SOL    HW220667   0.755   2.434   3.593 -0.3857 -0.1024  1.2967
 3012SOL     OW20668   0.147   1.967  14.388 -0.0545  0.4876 -0.0116
 3012SOL    HW120669   0.054   1.964  14.411 -0.0734  0.4309 -0.0972
 3012SOL    HW220670   0.188   1.985  14.473  0.9224 -0.8167 -0.1981
 3013SOL     OW20671   0.879   4.024  14.614 -0.7006 -0.7641  0.2209
 3013SOL    HW120672   0.835   4.095  14.661  0.0766 -2.1092  3.0017
 3013SOL    HW220673   0.807   3.967  14.588 -1.3142 -0.2054  0.7031
 3014SOL     OW20674   0.226   2.983  10.037 -0.1174 -0.1133  0.3264
 3014SOL    HW120675   0.251   2.977  10.129 -2.5770  0.2557  1.0165
 3014SOL    HW220676   0.282   3.056  10.013  0.6030 -1.0295 -0.7862
 3015SOL     OW20677   1.494   2.284   6.039  0.2562  0.0039 -0.0447
 3015SOL    HW120678   1.492   2.337   6.119 -2.7023 -1.5407  0.8979
 3015SOL    HW220679   1.587   2.264   6.032  0.7027  1.5875  1.2111
 3016SOL     OW20680   0.679   2.678   5.234  0.2381 -0.6775  0.3772
 3016SOL    HW120681   0.689   2.629   5.152 -0.4294  1.8686 -1.2176
 3016SOL    HW220682   0.761   2.648   5.274  0.7204  1.6170  1.1176
 3017SOL     OW20683   1.276   4.475   4.320  0.3221 -0.2132  0.2196
 3017SOL    HW120684   1.358   4.477   4.271 -0.5053 -1.7424 -1.2619
 3017SOL    HW220685   1.224   4.431   4.252  0.7393 -0.2655 -0.0655
 3018SOL     OW20686   1.734   2.882   7.128  0.0790  0.5610 -0.0605
 3018SOL    HW120687   1.721   2.811   7.066 -1.2123  1.4454 -0.8124
 3018SOL    HW220688   1.650   2.904   7.167  0.3223 -1.2298  1.4655
 3019SOL     OW20689   4.585   3.032   9.088 -0.0735 -0.4128  0.4349
 3019SOL    HW120690   4.559   2.965   9.151 -1.1309 -0.8025 -0.4095
 3019SOL    HW220691   4.573   2.991   9.002  1.6482 -1.6829  0.8067
 3020SOL     OW20692   2.680   3.581   7.807 -0.0260  0.0805 -0.1484
 3020SOL    HW120693   2.638   3.611   7.727 -4.4962 -3.8985  0.6802
 3020SOL    HW220694   2.613   3.581   7.877 -0.3941 -0.8853 -0.5016
 3021SOL     OW20695   1.542   2.516   3.725  0.1446  0.2750  0.0373
 3021SOL    HW120696   1.480   2.571   3.676 -0.0671 -1.5439 -1.7461
 3021SOL    HW220697   1.587   2.466   3.656 -0.0073  0.3736 -0.1351
 3022SOL     OW20698   2.801   1.653   9.370  0.0198  0.4260 -0.4546
 3022SOL    HW120699   2.778   1.568   9.408  0.3861  0.9016  0.8486
 3022SOL    HW220700   2.815   1.629   9.279 -0.0485  3.7331 -1.3434
 3023SOL     OW20701   2.453   0.185  17.625 -0.8518  0.1439 -0.0891
 3023SOL    HW120702   2.462   0.152  17.535  0.2747 -1.7853  0.7298
 3023SOL    HW220703   2.360   0.175  17.646 -1.1097 -3.5619 -3.1057
 3024SOL     OW20704   2.506   0.296   1.130 -0.1421  0.4894 -0.2739
 3024SOL    HW120705   2.521   0.202   1.129 -1.9348  0.2034 -0.6255
 3024SOL    HW220706   2.415   0.296   1.099  0.0357  2.4423 -0.8127
 3025SOL     OW20707   0.718   3.277  16.047  0.8817 -0.0382 -0.3057
 3025SOL    HW120708   0.682   3.364  16.063  2.0196  0.1936  0.9581
 3025SOL    HW220709   0.776   3.269  16.123  1.3666 -1.2683 -0.8095
 3026SOL     OW20710   0.566   4.200   3.914 -0.1753 -0.1081 -0.1701
 3026SOL    HW120711   0.600   4.289   3.908  1.3715 -0.6453  0.3543
 3026SOL    HW220712   0.600   4.150   3.839  0.3842  0.0109  0.0036
 3027SOL     OW20713   3.353   3.397   7.663 -0.4302  0.1186  0.7682
 3027SOL    HW120714   3.421   3.451   7.702  1.1996 -3.0159  2.2862
 3027SOL    HW220715   3.287   3.466   7.662  0.9895  1.4539 -0.8487
 3028SOL     OW20716   1.353   2.848   1.698 -0.7137 -0.2305 -0.2605
 3028SOL    HW120717   1.403   2.861   1.617  0.1710  2.5975  0.7359
 3028SOL    HW220718   1.324   2.758   1.683 -0.5256 -0.5341  1.2027
 3029SOL     OW20719   1.113   0.396  11.296 -0.6815  0.7616 -0.0931
 3029SOL    HW120720   1.025   0.395  11.259  0.2621 -1.0628 -2.2941
 3029SOL    HW220721   1.102   0.320  11.354  1.3518  0.7612  0.2883
 3030SOL     OW20722   3.834   1.336   7.021  0.1903 -0.1900 -0.3544
 3030SOL    HW120723   3.814   1.404   6.957  2.1978  1.2430  0.5486
 3030SOL    HW220724   3.747   1.305   7.048 -0.5411  2.5377  0.4238
 3031SOL     OW20725   1.771   4.300   5.013 -0.4246 -0.0008 -0.1698
 3031SOL    HW120726   1.715   4.369   5.049 -1.0486  0.8844 -2.8161
 3031SOL    HW220727   1.835   4.356   4.970  2.4143 -1.0485  2.6709
 3032SOL     OW20728   0.592   3.365   0.953 -0.1444 -0.2806 -0.4252
 3032SOL    HW120729   0.613   3.397   1.041  2.1463 -0.5504 -0.8711
 3032SOL    HW220730   0.673   3.318   0.932 -0.5511 -1.6239  1.0910
 3033SOL     OW20731   4.175   0.568   1.589  0.1055  0.2173  0.3349
 3033SOL    HW120732   4.256   0.586   1.636 -0.3506  1.2725  0.7185
 3033SOL    HW220733   4.118   0.543   1.662  1.8053 -0.5024  1.4230
 3034SOL     OW20734   2.632   1.827  16.798 -0.1478  0.5657 -0.0172
 3034SOL    HW120735   2.559   1.822  16.859 -1.1283 -0.5554 -1.2702
 3034SOL    HW220736   2.702   1.844  16.860 -0.9547 -1.1802  1.3708
 3035SOL     OW20737   4.717   2.737   2.537  0.0726 -0.0296 -0.1155
 3035SOL    HW120738   0.067   2.739   2.578 -0.8447 -0.4282  1.8314
 3035SOL    HW220739   4.733   2.728   2.443  0.8481 -0.9751  0.1057
 3036SOL     OW20740   4.480   1.851   4.512  0.6727 -0.2488  0.4833
 3036SOL    HW120741   4.568   1.855   4.551 -0.7084  0.8475  3.5157
 3036SOL    HW220742   4.432   1.913   4.566  1.6028  0.9600 -0.0737
 3037SOL     OW20743   4.345   2.608   6.889  0.4077  0.1297 -0.2905
 3037SOL    HW120744   4.434   2.579   6.906  0.5338  0.5631 -0.1967
 3037SOL    HW220745   4.365   2.674   6.822 -0.0428  2.0812  1.4848
 3038SOL     OW20746   0.839   0.294   3.898 -0.2929 -0.3267  0.2167
 3038SOL    HW120747   0.890   0.330   3.826 -1.1404 -1.0747 -0.7500
 3038SOL    HW220748   0.911   0.283   3.962  2.0045  0.7997 -2.1915
 3039SOL     OW20749   2.529   3.817  16.437 -0.0764 -0.7851 -0.2735
 3039SOL    HW120750   2.436   3.827  16.419  0.2531 -1.3908 -2.2553
 3039SOL    HW220751   2.575   3.839  16.356  2.7290 -0.1826  1.4681
 3040SOL     OW20752   4.206   3.253   0.228  0.1681  0.6991  0.5790
 3040SOL    HW120753   4.259   3.261   0.307 -0.4434  1.4406  0.9179
 3040SOL    HW220754   4.194   3.159   0.217 -0.6364  1.0046 -1.1916
 3041SOL     OW20755   3.995   4.623   2.724 -0.1515 -0.4166 -0.4111
 3041SOL    HW120756   3.916   4.669   2.696 -0.8970 -1.5137 -0.0780
 3041SOL    HW220757   4.066   4.687   2.714  1.9252 -2.9575 -1.8711
 3042SOL     OW20758   0.983   0.736  14.684 -0.0211 -0.0405  0.8694
 3042SOL    HW120759   0.920   0.669  14.657 -1.1199  0.9317  1.0180
 3042SOL    HW220760   1.004   0.777  14.600  4.4493 -1.6130  1.2563
 3043SOL     OW20761   4.603   4.520   3.128 -0.9751  0.2032 -0.2117
 3043SOL    HW120762   4.624   4.455   3.195  1.2783  0.2670 -0.8586
 3043SOL    HW220763   4.589   4.460   3.054  3.0017  1.0281 -1.6685
 3044SOL     OW20764   3.126   0.723   2.369  0.3428 -0.5094  0.4273
 3044SOL    HW120765   3.206   0.678   2.343  1.1076  0.9315  0.2638
 3044SOL    HW220766   3.089   0.658   2.429  0.0020 -0.7159  0.0038
 3045SOL     OW20767   0.781   4.709  12.514 -0.0015 -0.0767 -0.0905
 3045SOL    HW120768   0.864   0.020  12.525 -0.2040  0.5731 -1.3036
 3045SOL    HW220769   0.744   4.702  12.601 -0.8803 -1.7988 -0.5955
 3046SOL     OW20770   1.334   2.636   8.826 -0.4216 -0.4330  0.2939
 3046SOL    HW120771   1.301   2.579   8.896  0.2863 -1.6284 -0.3361
 3046SOL    HW220772   1.303   2.582   8.753 -1.7424 -0.1280  0.6271
 3047SOL     OW20773   2.137   2.059   6.972  0.8432 -0.6843  0.0556
 3047SOL    HW120774   2.117   2.084   6.882  1.1604  0.2382  0.2404
 3047SOL    HW220775   2.184   2.138   7.000 -3.2350  2.2938 -1.4599
 3048SOL     OW20776   0.010   4.248   0.178 -0.1056  0.1368 -0.2752
 3048SOL    HW120777   0.054   4.329   0.154  0.1335 -0.1696 -0.8466
 3048SOL    HW220778   4.718   4.221   0.091  1.1093  0.4242 -0.7476
 3049SOL     OW20779   4.116   1.474   7.389  0.3141  0.0477  0.3490
 3049SOL    HW120780   4.033   1.521   7.394 -0.6073 -1.3491 -2.0153
 3049SOL    HW220781   4.176   1.547   7.406 -0.1130  0.5869 -0.4226
 3050SOL     OW20782   3.369   4.087  12.671  0.2280  0.1476  0.2644
 3050SOL    HW120783   3.461   4.112  12.678  0.3624  0.3111 -2.0268
 3050SOL    HW220784   3.323   4.170  12.654  0.8318  0.2474 -0.8806
 3051SOL     OW20785   1.563   3.126   8.053 -0.0417 -0.3383  0.0934
 3051SOL    HW120786   1.479   3.167   8.030 -0.9044 -1.7030  0.8497
 3051SOL    HW220787   1.551   3.068   8.128  2.6417 -0.8915  0.0871
 3052SOL     OW20788   1.524   1.849   6.224  0.3327 -0.0552 -0.4006
 3052SOL    HW120789   1.517   1.921   6.285  0.6491  0.5293 -1.0515
 3052SOL    HW220790   1.617   1.855   6.201  0.7232 -1.3413  0.7854
 3053SOL     OW20791   1.366   4.293  15.332  0.6705  0.3186  0.2811
 3053SOL    HW120792   1.333   4.234  15.265  0.9865  1.7916 -1.1853
 3053SOL    HW220793   1.429   4.234  15.373  2.9648  2.9557  0.6108
 3054SOL     OW20794   0.405   3.198   9.102 -0.1867  0.4059  0.1049
 3054SOL    HW120795   0.423   3.192   9.196 -3.5798  3.3568  0.9522
 3054SOL    HW220796   0.430   3.289   9.090 -0.4287  0.8200  2.6510
 3055SOL     OW20797   1.837   0.862   5.935  0.3382 -0.4245 -0.0181
 3055SOL    HW120798   1.769   0.796   5.923 -0.2087 -0.4149  2.9850
 3055SOL    HW220799   1.883   0.830   6.013  2.8982 -0.7253 -1.6391
 3056SOL     OW20800   2.213   3.585   6.767  0.1952  0.3449  0.2210
 3056SOL    HW120801   2.254   3.625   6.844  2.2955 -2.3209  0.4730
 3056SOL    HW220802   2.239   3.494   6.781  1.9621  0.7157 -0.5848
 3057SOL     OW20803   3.341   2.019   7.065  0.3347 -0.6857  0.4099
 3057SOL    HW120804   3.260   2.070   7.063  0.2725 -0.9612 -3.1494
 3057SOL    HW220805   3.378   2.053   7.146 -1.2425  1.1208  0.3612
 3058SOL     OW20806   1.055   0.122  13.369 -0.1829 -0.5430  0.1972
 3058SOL    HW120807   1.013   0.089  13.289 -0.0687 -1.1883  0.4034
 3058SOL    HW220808   1.119   0.055  13.391 -2.3146 -2.8870 -0.7477
 3059SOL     OW20809   2.217   2.326  13.752  0.2939 -0.4524 -0.3571
 3059SOL    HW120810   2.149   2.314  13.685 -0.3856 -0.1682  0.2823
 3059SOL    HW220811   2.289   2.272  13.720  1.3509  0.7144  0.0518
 3060SOL     OW20812   0.929   3.840   9.374  0.3369 -0.4753 -0.5102
 3060SOL    HW120813   0.978   3.903   9.322  0.8563  0.6821  1.3857
 3060SOL    HW220814   0.991   3.768   9.360  0.0272 -0.9688  0.6346
 3061SOL     OW20815   4.578   2.828   8.840  0.2210  0.2421  0.1350
 3061SOL    HW120816   4.537   2.751   8.880  2.1353 -0.3209  1.0307
 3061SOL    HW220817   4.503   2.867   8.795  0.6860 -0.3420 -1.1181
 3062SOL     OW20818   2.612   0.050   6.669 -0.0194 -0.2596  0.2823
 3062SOL    HW120819   2.700   0.014   6.668  0.7639  1.6060  1.7480
 3062SOL    HW220820   2.564   4.707   6.646 -0.7061  0.4809 -0.8438
 3063SOL     OW20821   0.888   3.134   6.160  0.3038 -0.0025  0.1169
 3063SOL    HW120822   0.815   3.125   6.221  0.6813  2.0376  0.8403
 3063SOL    HW220823   0.905   3.046   6.125  1.8756  1.2079 -2.1258
 3064SOL     OW20824   1.253   2.050   2.660 -0.1171 -0.5595 -0.2972
 3064SOL    HW120825   1.328   2.011   2.615  0.5249  0.2116  0.1029
 3064SOL    HW220826   1.305   2.066   2.739  2.1224 -3.5110 -1.1493
 3065SOL     OW20827   1.963   3.729   3.027 -0.3342 -0.2869 -0.0531
 3065SOL    HW120828   2.007   3.736   3.112 -0.2189  1.5796 -0.2751
 3065SOL    HW220829   1.894   3.795   3.020  1.0803  1.4269  2.3650
 3066SOL     OW20830   2.109   3.717   9.411  0.4430  0.2999 -0.2176
 3066SOL    HW120831   2.072   3.763   9.486 -0.9022 -0.4583 -0.4188
 3066SOL    HW220832   2.169   3.783   9.377 -1.4171  1.7543 -0.6255
 3067SOL     OW20833   2.278   0.195   3.953  0.2112  0.1780  0.0529
 3067SOL    HW120834   2.263   0.251   3.876 -1.5794  0.7241  0.7867
 3067SOL    HW220835   2.356   0.238   3.987 -0.6215  2.3024 -0.7533
 3068SOL     OW20836   2.992   3.268   8.499  0.2089  0.2195 -0.4295
 3068SOL    HW120837   2.929   3.298   8.565 -0.5939 -0.9072 -0.6769
 3068SOL    HW220838   3.018   3.183   8.532  1.4050  0.6239 -0.3377
 3069SOL     OW20839   0.972   3.079   1.950 -0.3385  0.2628 -0.2523
 3069SOL    HW120840   1.007   3.031   1.874 -2.0244  0.3356 -1.0786
 3069SOL    HW220841   1.035   3.149   1.962  0.9040 -1.0242  0.7900
 3070SOL     OW20842   3.394   1.839   3.031 -0.6959 -0.2824  0.1344
 3070SOL    HW120843   3.331   1.909   3.012  1.1766  0.7045 -2.4177
 3070SOL    HW220844   3.337   1.781   3.081  1.1017 -1.5345  0.7112
 3071SOL     OW20845   0.877   4.382  15.426  0.4920  0.1067 -0.2960
 3071SOL    HW120846   0.940   4.368  15.356  0.9599 -1.6625  0.4619
 3071SOL    HW220847   0.842   4.463  15.390 -0.4881  0.4421  1.3674
 3072SOL     OW20848   1.768   3.137   5.801 -0.3765  0.1587 -0.0319
 3072SOL    HW120849   1.708   3.145   5.876  0.3388 -3.1605  0.8628
 3072SOL    HW220850   1.704   3.124   5.731 -0.6838 -0.6555  0.3960
 3073SOL     OW20851   1.111   3.703   1.993  0.3213  0.2604  0.1328
 3073SOL    HW120852   1.204   3.714   1.970  0.2140  1.6744  0.3712
 3073SOL    HW220853   1.099   3.767   2.063  1.2093 -1.1522  1.5768
 3074SOL     OW20854   2.068   4.648  12.223  0.3188  0.0542 -0.3276
 3074SOL    HW120855   2.015   4.651  12.303  0.3186  0.0481 -0.3274
 3074SOL    HW220856   2.021   4.580  12.174 -3.2057  1.9904  0.3493
 3075SOL     OW20857   0.474   0.574  15.879  0.1394  0.0668 -0.6367
 3075SOL    HW120858   0.409   0.543  15.942  0.7134 -0.8895 -0.5207
 3075SOL    HW220859   0.434   0.660  15.863  0.6374  0.4894  0.4502
 3076SOL     OW20860   3.572   1.194   7.034  0.0253  0.1046  0.5141
 3076SOL    HW120861   3.566   1.236   6.948  0.1694 -1.7771 -0.4189
 3076SOL    HW220862   3.610   1.108   7.017 -0.3322  0.1260 -0.3879
 3077SOL     OW20863   3.682   3.887   9.120  0.8433 -0.0617  0.3624
 3077SOL    HW120864   3.717   3.803   9.151  1.5928  0.0002 -0.3106
 3077SOL    HW220865   3.732   3.909   9.041 -0.1870 -0.2499 -0.3368
 3078SOL     OW20866   0.960   4.496  15.818  0.5775  0.0543 -0.0425
 3078SOL    HW120867   1.034   4.489  15.758  0.2520  0.9658 -0.5412
 3078SOL    HW220868   0.929   4.586  15.809 -0.1314 -0.4434 -2.6357
 3079SOL     OW20869   0.342   1.127   2.502  0.2241 -0.5200 -0.0839
 3079SOL    HW120870   0.258   1.126   2.547  1.5337 -0.9449  2.4016
 3079SOL    HW220871   0.382   1.203   2.545  0.4331  0.0637 -1.3137
 3080SOL     OW20872   2.173   1.693   9.857  0.1913  0.3989 -0.2843
 3080SOL    HW120873   2.094   1.696   9.911  0.9863  0.6269  0.8669
 3080SOL    HW220874   2.242   1.684   9.923 -0.4244 -2.5158 -0.0200
 3081SOL     OW20875   4.322   0.050   5.660 -0.3675  0.2923 -0.1013
 3081SOL    HW120876   4.233   0.082   5.645 -0.3661  0.5693  0.4806
 3081SOL    HW220877   4.296   4.702   5.697  0.1522 -0.4363 -1.3996
 3082SOL     OW20878   0.007   3.626   2.415  0.2807 -0.4913  0.4481
 3082SOL    HW120879   4.702   3.561   2.472  1.4927 -0.8352  0.9332
 3082SOL    HW220880   0.064   3.570   2.362  0.5207 -0.6752  0.9021
 3083SOL     OW20881   2.278   3.082   3.748  0.6356  0.2923 -0.0606
 3083SOL    HW120882   2.347   3.140   3.714  0.1598  1.4569  0.9604
 3083SOL    HW220883   2.329   3.024   3.804 -0.3938  0.0435  0.6025
 3084SOL     OW20884   4.332   0.653   3.404  0.4104  0.3730  0.3208
 3084SOL    HW120885   4.267   0.607   3.351  1.0466  1.1019 -1.0952
 3084SOL    HW220886   4.395   0.585   3.428 -0.4059 -0.0244  1.3260
 3085SOL     OW20887   2.806   3.227  13.068 -0.3908  0.2936  0.0184
 3085SOL    HW120888   2.759   3.245  12.986 -1.7054  1.6310  1.0776
 3085SOL    HW220889   2.854   3.310  13.069 -1.8296  1.1245 -0.5182
 3086SOL     OW20890   4.643   2.827   4.556  0.3036  1.0209 -0.5754
 3086SOL    HW120891   4.687   2.744   4.539 -2.5569 -0.5033 -0.5144
 3086SOL    HW220892   4.568   2.810   4.499 -0.1725 -0.2131  0.4182
 3087SOL     OW20893   2.241   2.175   3.833  0.1402 -0.3717  0.0691
 3087SOL    HW120894   2.260   2.245   3.770 -0.5824 -0.4655 -0.2536
 3087SOL    HW220895   2.217   2.227   3.909  1.2503 -2.4346  1.8225
 3088SOL     OW20896   1.730   0.445  12.846  0.4891 -0.6567  0.1552
 3088SOL    HW120897   1.687   0.435  12.761 -0.2392  1.5186  0.2621
 3088SOL    HW220898   1.725   0.353  12.874 -2.7000 -0.3858  0.4843
 3089SOL     OW20899   0.754   3.691  17.011 -0.1330 -0.0939  0.2238
 3089SOL    HW120900   0.709   3.774  17.018  2.4262  1.2804  0.4975
 3089SOL    HW220901   0.827   3.716  16.953  0.9766  0.4707  1.8524
 3090SOL     OW20902   4.681   1.852  12.733  0.2599 -0.2846  0.4734
 3090SOL    HW120903   4.692   1.763  12.698 -1.8291 -0.4595  0.3115
 3090SOL    HW220904   0.024   1.896  12.702  0.4137 -0.3893  0.7137
 3091SOL     OW20905   1.707   0.055   4.869 -0.0374 -0.0074  0.1983
 3091SOL    HW120906   1.694   0.147   4.847 -0.9047  0.2292  1.6800
 3091SOL    HW220907   1.679   0.071   4.959  1.6062 -1.1600  0.9014
 3092SOL     OW20908   2.647   2.461   9.698 -0.5316 -0.1672 -0.1814
 3092SOL    HW120909   2.677   2.540   9.744  1.2883 -0.5491 -0.6826
 3092SOL    HW220910   2.646   2.403   9.774  1.4992 -0.1969 -0.1753
 3093SOL     OW20911   3.555   2.432   0.392 -0.0710 -0.3203 -0.0315
 3093SOL    HW120912   3.606   2.385   0.326 -0.9000 -0.0971 -0.8345
 3093SOL    HW220913   3.490   2.367   0.420  1.7045 -2.3449 -0.5445
 3094SOL     OW20914   4.331   2.803  15.367  0.4991 -0.0936 -0.5217
 3094SOL    HW120915   4.371   2.890  15.367 -0.7205  0.4734 -1.8151
 3094SOL    HW220916   4.261   2.833  15.308  1.7418 -0.6860 -2.3100
 3095SOL     OW20917   1.441   0.455  14.269  0.1348  0.4052 -0.2805
 3095SOL    HW120918   1.525   0.422  14.302  1.6050  0.3662 -4.1395
 3095SOL    HW220919   1.445   0.545  14.301  0.1813  0.4671 -0.4653
 3096SOL     OW20920   2.968   4.650   2.942  0.4110  0.1468 -0.2363
 3096SOL    HW120921   2.891   4.594   2.947  1.1455 -0.6690  1.7974
 3096SOL    HW220922   3.023   4.615   3.012 -1.5824 -0.5843  0.9526
 3097SOL     OW20923   3.747   0.125   1.288  0.0048 -0.2642  0.7087
 3097SOL    HW120924   3.662   0.134   1.246 -0.0497 -1.3149  0.5864
 3097SOL    HW220925   3.789   0.070   1.222  4.1121  2.8720  0.7272
 3098SOL     OW20926   1.371   2.208   3.105  0.1733 -0.0030  0.0890
 3098SOL    HW120927   1.428   2.158   3.163 -2.4856 -0.8880  1.9231
 3098SOL    HW220928   1.310   2.249   3.166 -1.3644 -1.0583 -0.7463
 3099SOL     OW20929   0.550   3.626   7.649  0.3133  0.2658 -0.3395
 3099SOL    HW120930   0.620   3.683   7.682 -1.0053  0.8755  1.4312
 3099SOL    HW220931   0.597   3.544   7.637 -0.1870 -0.3382  1.8573
 3100SOL     OW20932   2.367   4.336   4.096 -0.5107  0.1660  0.4219
 3100SOL    HW120933   2.406   4.251   4.116  1.6293  1.0248 -0.1355
 3100SOL    HW220934   2.274   4.314   4.096 -0.6064  0.5731 -0.5959
 3101SOL     OW20935   0.511   3.853   8.381  0.1087  0.1832 -0.5406
 3101SOL    HW120936   0.424   3.813   8.380 -0.3913  1.2697 -1.3383
 3101SOL    HW220937   0.538   3.838   8.290 -0.0555  0.1246 -0.5803
 3102SOL     OW20938   3.023   0.267   9.020  0.1761 -0.0507  0.3280
 3102SOL    HW120939   3.080   0.331   8.977 -0.6304  0.7633  0.4658
 3102SOL    HW220940   2.940   0.270   8.974  0.4774 -2.2314 -0.3269
 3103SOL     OW20941   2.004   0.097   5.532  0.5033  0.1164 -0.0862
 3103SOL    HW120942   1.912   0.075   5.548  0.1157  0.4784 -1.7855
 3103SOL    HW220943   1.996   0.191   5.518  1.1120 -0.0863 -1.8388
 3104SOL     OW20944   2.466   3.551   3.744 -0.2888 -0.0181  0.6154
 3104SOL    HW120945   2.493   3.513   3.828 -0.2046  0.5517  0.8470
 3104SOL    HW220946   2.544   3.538   3.691  0.0863 -0.7970  1.3580
 3105SOL     OW20947   4.601   1.122   2.561  0.3006 -0.2765 -0.2632
 3105SOL    HW120948   4.562   1.210   2.570  1.1664  0.0527  0.2411
 3105SOL    HW220949   4.525   1.071   2.533  2.6622 -2.9461 -1.8117
 3106SOL     OW20950   3.474   4.610   0.342  0.5750 -0.2530 -0.3887
 3106SOL    HW120951   3.395   4.594   0.395  1.5993 -1.4848  0.7692
 3106SOL    HW220952   3.498   4.692   0.385 -2.7085  0.4230  0.2270
 3107SOL     OW20953   4.061   0.005   5.686 -0.1453 -0.3753 -0.1343
 3107SOL    HW120954   3.986   0.019   5.628 -0.5331  1.4077  0.7577
 3107SOL    HW220955   4.015   4.718   5.767  0.3413 -0.1367  0.2151
 3108SOL     OW20956   4.273   3.487   1.952  0.1039  0.3669  0.8855
 3108SOL    HW120957   4.192   3.536   1.934 -0.0730 -0.6960 -1.2217
 3108SOL    HW220958   4.342   3.544   1.917  1.3585 -1.0871  0.9992
 3109SOL     OW20959   2.258   2.284   9.243 -0.6516  0.0829 -0.0620
 3109SOL    HW120960   2.354   2.280   9.245 -0.7548 -1.4493  1.2108
 3109SOL    HW220961   2.226   2.214   9.186  0.0637 -0.7238  0.5316
 3110SOL     OW20962   1.198   4.388   8.475  0.1581 -0.2229 -0.1297
 3110SOL    HW120963   1.169   4.430   8.395  0.0194 -0.7382 -0.3526
 3110SOL    HW220964   1.256   4.319   8.442  1.1371 -0.5398  2.2341
 3111SOL     OW20965   0.478   1.449  16.719 -0.0117 -0.0560 -0.1649
 3111SOL    HW120966   0.424   1.373  16.739  0.1355 -0.4033 -1.1020
 3111SOL    HW220967   0.537   1.455  16.795  0.8445  2.3431 -1.0166
 3112SOL     OW20968   2.563   3.858  17.237 -0.3897 -0.1035 -0.1132
 3112SOL    HW120969   2.479   3.903  17.236  0.7004  1.9262  1.0695
 3112SOL    HW220970   2.578   3.849  17.143  0.7238  0.1918  0.0292
 3113SOL     OW20971   1.848   4.678   6.452  0.3369  0.0750 -0.1181
 3113SOL    HW120972   1.771   4.667   6.395  0.4955 -2.3037  0.1128
 3113SOL    HW220973   1.914   4.650   6.388  0.2888  0.8194 -0.4977
 3114SOL     OW20974   0.893   4.327   5.974 -0.4067 -0.4598 -0.6736
 3114SOL    HW120975   0.977   4.373   5.975 -1.2616  1.1870 -2.6211
 3114SOL    HW220976   0.848   4.400   5.930  0.1654 -0.9057 -2.0177
 3115SOL     OW20977   1.501   4.104   6.281 -0.1388 -0.3393 -0.1996
 3115SOL    HW120978   1.512   4.199   6.286  1.6037 -0.5276 -0.3921
 3115SOL    HW220979   1.443   4.080   6.354 -0.6024 -0.6975 -0.6890
 3116SOL     OW20980   1.053   3.380   6.075  0.5001 -0.1458  0.4654
 3116SOL    HW120981   1.044   3.306   6.135 -1.1657 -1.0879 -0.9176
 3116SOL    HW220982   0.983   3.429   6.118 -0.7327 -0.3349 -1.3327
 3117SOL     OW20983   1.961   4.628   1.950 -0.1810 -0.7407 -0.2697
 3117SOL    HW120984   2.000   4.542   1.939  1.2015 -0.3253  1.2543
 3117SOL    HW220985   1.907   4.629   1.871 -0.7926  0.6984  0.1558
 3118SOL     OW20986   3.635   0.049   9.748  0.2204 -0.7458  0.1212
 3118SOL    HW120987   3.611   0.069   9.838 -2.0974 -1.0849 -0.4152
 3118SOL    HW220988   3.708   0.111   9.742 -1.5111  1.1826 -0.8805
 3119SOL     OW20989   3.712   2.357  11.455  0.2575 -0.2215  0.1604
 3119SOL    HW120990   3.636   2.329  11.507 -1.4675  0.5932 -1.9288
 3119SOL    HW220991   3.736   2.268  11.430 -1.9273 -0.5500 -0.7628
 3120SOL     OW20992   3.833   3.645   2.807  0.2065 -0.6570 -0.1290
 3120SOL    HW120993   3.825   3.570   2.749  0.4369 -0.9824  0.2539
 3120SOL    HW220994   3.903   3.693   2.763  0.9175 -0.0280  1.6602
 3121SOL     OW20995   1.284   3.495   4.046  0.3402 -0.6892 -0.3808
 3121SOL    HW120996   1.234   3.512   4.126 -1.5087  1.8837 -2.0845
 3121SOL    HW220997   1.271   3.577   3.999 -1.3135 -1.2623 -0.9489
 3122SOL     OW20998   4.732   2.202   8.005  0.4389  0.5056 -0.2878
 3122SOL    HW120999   0.027   2.268   8.066  0.7657  0.5288 -0.4780
 3122SOL    HW221000   4.695   2.144   8.071  2.0980 -0.0961  0.1131
 3123SOL     OW21001   2.849   1.075   5.191 -1.1467  0.1732 -0.5302
 3123SOL    HW121002   2.899   1.086   5.110 -1.7229 -0.9246 -1.0416
 3123SOL    HW221003   2.780   1.015   5.163 -0.5670 -0.8227  0.1765
 3124SOL     OW21004   3.494   3.383  16.390  0.8243  0.5646 -0.0620
 3124SOL    HW121005   3.408   3.344  16.403  0.3808  1.0707 -1.4930
 3124SOL    HW221006   3.542   3.311  16.348 -3.0175 -1.5449 -0.8549
 3125SOL     OW21007   2.692   2.737   5.293 -0.1904  0.3603  0.3810
 3125SOL    HW121008   2.666   2.821   5.330  2.5767  0.7267  1.4734
 3125SOL    HW221009   2.620   2.677   5.310 -0.6452  1.0588  0.9217
 3126SOL     OW21010   4.710   1.794   8.746  0.4385  0.1191 -0.3848
 3126SOL    HW121011   4.717   1.869   8.687  1.9159  1.2065  1.1645
 3126SOL    HW221012   0.032   1.823   8.816 -1.7797  0.5805  1.2932
 3127SOL     OW21013   1.882   2.246   0.997  0.2680 -0.0128  0.0433
 3127SOL    HW121014   1.930   2.198   1.064 -0.4364  2.0155  2.0108
 3127SOL    HW221015   1.913   2.334   1.019 -1.1340  0.0912  1.5991
 3128SOL     OW21016   1.603   0.848   7.359  0.7683 -0.2196  0.3880
 3128SOL    HW121017   1.508   0.835   7.357  0.6853  0.6726 -1.0910
 3128SOL    HW221018   1.616   0.896   7.277  0.8059  1.3022  1.2852
 3129SOL     OW21019   3.243   2.118   5.273  0.1083 -0.0931  1.1075
 3129SOL    HW121020   3.269   2.167   5.195  0.8574 -1.3212  0.5997
 3129SOL    HW221021   3.193   2.192   5.309  0.3679  0.3892  0.4823
 3130SOL     OW21022   4.416   1.397   6.000 -0.3161 -0.1922 -0.1928
 3130SOL    HW121023   4.392   1.478   6.047  1.5313  0.0286  0.3842
 3130SOL    HW221024   4.509   1.400   6.022 -1.1210 -0.7526  3.3150
 3131SOL     OW21025   3.045   3.666   3.434 -0.1126  0.3599  0.6781
 3131SOL    HW121026   3.048   3.726   3.508  1.8476  0.5611  0.4451
 3131SOL    HW221027   2.985   3.715   3.378 -0.6576 -1.6797 -0.5201
 3132SOL     OW21028   3.381   0.905   0.802  0.1794 -0.2722  0.0687
 3132SOL    HW121029   3.458   0.952   0.834 -1.6039  1.2644  2.1264
 3132SOL    HW221030   3.418   0.835   0.749  0.1254  0.6935 -1.2220
 3133SOL     OW21031   3.819   4.638   3.757  0.6694  0.0297  0.0720
 3133SOL    HW121032   3.881   4.689   3.704  0.6367  1.2712  1.2569
 3133SOL    HW221033   3.835   4.673   3.844 -0.0745  1.7531 -0.4810
 3134SOL     OW21034   3.251   3.617   9.255  0.0939 -0.3549 -0.0166
 3134SOL    HW121035   3.172   3.633   9.307  0.0246  0.8788 -0.4988
 3134SOL    HW221036   3.316   3.668   9.303  0.4436 -0.2116 -0.6386
 3135SOL     OW21037   0.428   3.299   8.380  0.4831 -0.0357 -0.3347
 3135SOL    HW121038   0.436   3.213   8.422  1.1983  0.6844  0.9698
 3135SOL    HW221039   0.421   3.350   8.460  0.5043 -1.4810  0.5819
 3136SOL     OW21040   4.243   3.125   3.819  0.3058 -0.1613  0.1585
 3136SOL    HW121041   4.212   3.138   3.909 -0.5665  3.1314 -0.6004
 3136SOL    HW221042   4.219   3.037   3.789 -1.6071  0.6265 -0.6748
 3137SOL     OW21043   4.609   3.380   2.474  0.1676 -0.5991  0.2180
 3137SOL    HW121044   4.578   3.291   2.483  1.6646 -0.9317  2.0579
 3137SOL    HW221045   4.591   3.409   2.385 -0.0165  0.0735  0.4754
 3138SOL     OW21046   3.604   0.254   4.601 -0.3571  0.1390  0.1860
 3138SOL    HW121047   3.536   0.317   4.578 -0.6495 -0.2557 -0.0186
 3138SOL    HW221048   3.569   0.219   4.683 -0.0974  0.6039  0.5023
 3139SOL     OW21049   2.058   2.370   3.190  0.8097 -0.1383  0.0512
 3139SOL    HW121050   2.025   2.432   3.125 -0.1522 -3.6226 -2.7369
 3139SOL    HW221051   1.985   2.343   3.245  2.0376 -0.7088  1.4161
 3140SOL     OW21052   4.713   4.641   9.843 -0.1491  0.4439  1.1282
 3140SOL    HW121053   0.034   4.565   9.831 -3.0531 -1.7313  1.1490
 3140SOL    HW221054   4.687   4.622   9.933 -0.4400  0.5859  1.0726
 3141SOL     OW21055   2.670   4.651   4.584 -0.2507  0.1752 -0.1739
 3141SOL    HW121056   2.603   4.657   4.515 -2.6014 -0.0606  2.0950
 3141SOL    HW221057   2.617   4.667   4.662  1.5024 -0.1269  1.0706
 3142SOL     OW21058   1.157   0.810   2.937 -0.2648 -0.6263  0.0553
 3142SOL    HW121059   1.085   0.844   2.990 -1.5551 -1.0646 -1.4092
 3142SOL    HW221060   1.173   0.886   2.881 -0.2277 -1.0824 -0.5430
 3143SOL     OW21061   3.104   4.326   7.654  0.0394  0.2892 -0.1745
 3143SOL    HW121062   3.141   4.259   7.712 -1.3709  0.3268  0.7686
 3143SOL    HW221063   3.037   4.360   7.713 -0.4576 -2.4841  0.8904
 3144SOL     OW21064   1.058   3.415  13.808  0.0191  0.0905 -0.1796
 3144SOL    HW121065   1.076   3.501  13.846 -0.6948  0.6773 -1.1833
 3144SOL    HW221066   1.123   3.424  13.738  0.5229  0.3187  0.3164
 3145SOL     OW21067   1.627   2.201  13.310  0.6171  0.3187 -0.3156
 3145SOL    HW121068   1.648   2.140  13.381 -0.2457  0.1343 -0.2217
 3145SOL    HW221069   1.648   2.156  13.228 -0.3222  0.7914 -0.8231
 3146SOL     OW21070   0.638   0.004   5.828 -0.2917 -0.0412  0.4150
 3146SOL    HW121071   0.604   4.727   5.739  2.8277  0.0583 -0.7718
 3146SOL    HW221072   0.552   0.012   5.870 -1.4782 -0.1560 -1.9581
 3147SOL     OW21073   3.053   1.693  16.336 -0.2768  0.7300 -0.5626
 3147SOL    HW121074   3.140   1.660  16.315 -0.3716 -0.0561  0.2930
 3147SOL    HW221075   3.040   1.759  16.267  2.0574  1.4421 -0.3180
 3148SOL     OW21076   1.485   4.294  11.731  0.3232  0.1143 -0.8462
 3148SOL    HW121077   1.423   4.343  11.677 -0.2742 -1.2473 -1.4020
 3148SOL    HW221078   1.546   4.253  11.670  1.4059  0.4185  0.0345
 3149SOL     OW21079   3.900   2.493   8.105  0.3790 -0.1727  0.1255
 3149SOL    HW121080   3.804   2.487   8.104  0.3146  0.6658  1.1933
 3149SOL    HW221081   3.905   2.584   8.078 -0.6222 -0.3438 -0.6375
 3150SOL     OW21082   2.276   4.068   3.367 -0.2504  0.2154 -0.1780
 3150SOL    HW121083   2.208   4.103   3.310 -0.5896  2.4883  1.6181
 3150SOL    HW221084   2.275   4.126   3.443  0.8894 -1.1297  0.8761
 3151SOL     OW21085   2.802   2.930   7.881 -0.0836  0.6451 -0.2088
 3151SOL    HW121086   2.841   2.880   7.953  2.7147  2.6724 -0.3518
 3151SOL    HW221087   2.790   3.006   7.938  0.4940 -0.4663  1.3902
 3152SOL     OW21088   2.095   4.097   5.250 -0.2820  0.5206 -0.2008
 3152SOL    HW121089   2.021   4.059   5.202 -0.5947  0.0630  0.6474
 3152SOL    HW221090   2.117   4.183   5.214 -0.9398  0.2540 -1.2452
 3153SOL     OW21091   2.802   2.426  14.270  0.2558 -0.4377 -0.2109
 3153SOL    HW121092   2.846   2.417  14.355  1.3739  0.9641 -0.6435
 3153SOL    HW221093   2.856   2.497  14.235  0.9086  0.0692  1.8164
 3154SOL     OW21094   3.707   0.957  10.642  0.3900 -0.5416  0.2721
 3154SOL    HW121095   3.706   0.920  10.553 -1.8333 -0.7507  0.3655
 3154SOL    HW221096   3.767   1.030  10.632  1.1288 -1.2172 -0.2287
 3155SOL     OW21097   4.329   0.616   4.447 -0.6192  0.0151 -0.5942
 3155SOL    HW121098   4.235   0.633   4.447 -1.0197 -2.2361  0.5425
 3155SOL    HW221099   4.334   0.549   4.379 -1.3122  0.5042 -1.1311
 3156SOL     OW21100   0.231   3.760   1.684  0.0397  0.5172 -0.0107
 3156SOL    HW121101   0.258   3.695   1.749 -1.5986  0.0633  0.2199
 3156SOL    HW221102   0.314   3.777   1.640 -0.5658 -1.9376 -2.0739
 3157SOL     OW21103   1.070   1.696  15.076 -0.3275 -0.9363 -0.1647
 3157SOL    HW121104   1.144   1.676  15.018  1.1879  0.7864  1.1671
 3157SOL    HW221105   1.098   1.663  15.161 -2.1027  0.1756  0.8589
 3158SOL     OW21106   2.721   2.536   4.716  0.3167  0.3703  0.2394
 3158SOL    HW121107   2.691   2.477   4.784 -3.6415  1.2051 -0.7715
 3158SOL    HW221108   2.647   2.551   4.657  0.2987 -0.0550  0.1545
 3159SOL     OW21109   0.854   4.712   6.535  0.1001  0.2105  0.0288
 3159SOL    HW121110   0.836   4.637   6.592  3.8919 -0.2842  0.5670
 3159SOL    HW221111   0.816   4.680   6.453 -0.6867 -3.0494  1.6731
 3160SOL     OW21112   1.712   0.434   5.508 -0.1998  0.2255 -0.3958
 3160SOL    HW121113   1.698   0.498   5.439  0.2291 -0.7470 -1.3868
 3160SOL    HW221114   1.681   0.354   5.466  2.0731  0.0194 -1.7082
 3161SOL     OW21115   3.421   4.550   5.068 -0.1785 -0.7957  0.3323
 3161SOL    HW121116   3.336   4.521   5.102 -0.7144  0.0940 -0.2547
 3161SOL    HW221117   3.476   4.478   5.100 -0.5443 -0.9116  0.6964
 3162SOL     OW21118   2.283   0.149  12.708 -0.0484 -0.4047 -0.0366
 3162SOL    HW121119   2.274   0.055  12.722 -0.9395 -0.2592  0.3501
 3162SOL    HW221120   2.202   0.183  12.672  0.1108 -1.0035 -0.9690
 3163SOL     OW21121   0.250   2.785   2.611  0.5932  0.0992  0.3190
 3163SOL    HW121122   0.337   2.764   2.578  0.9422  2.1737 -0.1267
 3163SOL    HW221123   0.272   2.859   2.669  0.1327  1.3741 -1.1242
 3164SOL     OW21124   4.599   0.508   4.279 -0.0338  0.4037 -0.4780
 3164SOL    HW121125   4.642   0.587   4.247 -2.2757  1.7929 -0.0593
 3164SOL    HW221126   4.587   0.525   4.373 -1.0843 -2.7203 -0.0346
 3165SOL     OW21127   0.574   4.171  10.085  0.0713  0.2230 -0.0769
 3165SOL    HW121128   0.645   4.224  10.048 -0.1067  1.8217  1.8953
 3165SOL    HW221129   0.558   4.110  10.012  1.1572  1.3539 -1.2689
 3166SOL     OW21130   4.125   4.441   3.227  0.9243 -0.1701  0.1449
 3166SOL    HW121131   4.177   4.424   3.148 -2.6518  0.0993 -2.2688
 3166SOL    HW221132   4.050   4.485   3.188  1.2431 -1.2833 -1.7587
 3167SOL     OW21133   1.795   2.554   3.847  0.1442 -0.4985  0.2825
 3167SOL    HW121134   1.841   2.480   3.808  0.4743 -0.1937  0.0928
 3167SOL    HW221135   1.705   2.532   3.823 -0.6920 -0.1140  3.0490
 3168SOL     OW21136   3.358   0.620  15.214  0.3666  0.1222  0.0840
 3168SOL    HW121137   3.409   0.700  15.223  0.8849 -0.0742 -1.1126
 3168SOL    HW221138   3.345   0.607  15.308  0.1377 -1.2355 -0.1339
 3169SOL     OW21139   0.643   3.696   9.125  0.0973  0.5719 -0.1669
 3169SOL    HW121140   0.722   3.734   9.086 -0.5819  1.9230 -0.2454
 3169SOL    HW221141   0.580   3.755   9.082  2.7899  1.7219 -2.5945
 3170SOL     OW21142   4.507   4.527  11.308  0.1307 -0.6768  0.8762
 3170SOL    HW121143   4.415   4.504  11.295  0.8196 -2.1561 -1.3040
 3170SOL    HW221144   4.503   4.617  11.276 -0.5026 -1.7189 -1.9784
 3171SOL     OW21145   3.346   0.367   1.115 -0.0036  0.1850 -0.5140
 3171SOL    HW121146   3.377   0.440   1.061 -0.4438  0.0369 -0.9628
 3171SOL    HW221147   3.273   0.342   1.058  0.5304 -0.8431 -0.7389
 3172SOL     OW21148   2.776   0.239   4.786 -0.5903 -0.2029  0.4601
 3172SOL    HW121149   2.779   0.248   4.691  0.4229  0.5375  0.5580
 3172SOL    HW221150   2.702   0.296   4.808 -1.8243 -1.1847 -1.1577
 3173SOL     OW21151   1.749   3.277   1.209  0.0693 -0.0787 -0.6598
 3173SOL    HW121152   1.830   3.254   1.254 -0.0655 -1.2550 -1.0069
 3173SOL    HW221153   1.689   3.204   1.226 -0.7436  0.5389 -0.8974
 3174SOL     OW21154   1.282   4.561  16.327 -0.3787  0.7679 -0.3623
 3174SOL    HW121155   1.203   4.594  16.286 -0.7944  0.9946  0.6206
 3174SOL    HW221156   1.300   4.626  16.395 -0.7383 -1.1965  1.6268
 3175SOL     OW21157   2.536   4.582  17.257  0.3959  0.0002 -0.1854
 3175SOL    HW121158   2.452   4.566  17.214 -0.4340  1.3594  0.9437
 3175SOL    HW221159   2.601   4.582  17.186  0.0266 -1.3842 -0.5213
 3176SOL     OW21160   2.129   1.741  12.266 -0.1066 -0.2486 -0.0293
 3176SOL    HW121161   2.197   1.712  12.328 -0.7198 -0.8248  0.3789
 3176SOL    HW221162   2.159   1.828  12.240  1.0517 -0.5431  0.3174
 3177SOL     OW21163   4.149   0.291   4.388 -0.1152 -0.3582 -0.1518
 3177SOL    HW121164   4.226   0.245   4.423 -0.6493  0.3916  2.0264
 3177SOL    HW221165   4.191   0.344   4.321  1.1595 -0.5958  0.4496
 3178SOL     OW21166   0.301   0.774  10.214 -0.4262  0.7566  0.2468
 3178SOL    HW121167   0.223   0.829  10.217 -1.5929 -0.9484  1.0900
 3178SOL    HW221168   0.368   0.840  10.193  1.3991 -0.4431  2.2401
 3179SOL     OW21169   3.195   3.638   4.105 -0.6063  0.0581 -0.4952
 3179SOL    HW121170   3.282   3.601   4.097 -0.5553  0.8429 -3.4350
 3179SOL    HW221171   3.141   3.562   4.081 -0.6246  0.3129 -1.2303
 3180SOL     OW21172   4.186   0.201   8.735 -0.4728  0.1324  0.9554
 3180SOL    HW121173   4.190   0.255   8.656 -0.3057  0.2043  1.0140
 3180SOL    HW221174   4.175   0.265   8.806  0.9821 -0.2781  1.5428
 3181SOL     OW21175   0.663   4.733   0.824  0.1002 -0.1446  0.7196
 3181SOL    HW121176   0.625   0.062   0.882 -0.2247 -0.0108  0.3576
 3181SOL    HW221177   0.639   4.659   0.880  1.1111 -0.1450  1.1446
 3182SOL     OW21178   3.692   1.144  15.159  0.0540  0.4048 -0.4055
 3182SOL    HW121179   3.643   1.125  15.238 -0.5143 -0.0211 -0.8674
 3182SOL    HW221180   3.660   1.083  15.093  0.2012 -0.1734  0.0644
 3183SOL     OW21181   1.212   4.262   6.286  0.0730  0.7423 -0.0384
 3183SOL    HW121182   1.207   4.201   6.359 -1.8406  0.3456 -0.5214
 3183SOL    HW221183   1.287   4.224   6.240 -0.3264 -1.3840  1.1115
 3184SOL     OW21184   4.716   1.180   1.326  0.5569 -0.2810  0.0186
 3184SOL    HW121185   0.056   1.227   1.292 -0.9061  0.8716 -1.6635
 3184SOL    HW221186   0.002   1.176   1.419 -1.2177  3.0699  0.5819
 3185SOL     OW21187   1.097   2.889   6.939 -0.2152 -0.2880  0.2428
 3185SOL    HW121188   1.132   2.978   6.936 -0.9080 -0.0806 -1.9253
 3185SOL    HW221189   1.006   2.897   6.968  0.3623 -1.3042  2.2930
 3186SOL     OW21190   1.188   3.921   1.425 -0.1411 -0.1359 -0.1499
 3186SOL    HW121191   1.269   3.969   1.410  0.0081 -0.9847 -1.9888
 3186SOL    HW221192   1.193   3.861   1.350 -2.9779  0.6721 -0.9757
 3187SOL     OW21193   4.558   1.449   2.605 -0.4314 -0.3740 -0.7158
 3187SOL    HW121194   4.518   1.463   2.691  1.4549  0.8017 -0.0357
 3187SOL    HW221195   4.515   1.516   2.551 -1.9005  0.7639  1.8629
 3188SOL     OW21196   1.304   4.594  17.296 -0.4040 -0.5670  0.4436
 3188SOL    HW121197   1.262   4.607  17.381 -2.1239 -2.1401 -0.1678
 3188SOL    HW221198   1.328   4.685  17.276  1.1723 -1.2533 -0.8026
 3189SOL     OW21199   0.529   0.034   5.121  0.5933 -1.0198 -0.1105
 3189SOL    HW121200   0.458   0.038   5.185 -0.8848 -1.0660 -1.7581
 3189SOL    HW221201   0.556   4.678   5.117  0.4815 -1.0447 -0.2622
 3190SOL     OW21202   2.775   1.111  16.352 -0.1581  0.5273  0.5574
 3190SOL    HW121203   2.751   1.188  16.403  0.3385  1.5764 -0.7897
 3190SOL    HW221204   2.687   1.074  16.344 -0.3774  1.1299  0.1712
 3191SOL     OW21205   1.328   3.930   5.872  0.0828  0.4046  0.2388
 3191SOL    HW121206   1.274   3.952   5.796  0.5416 -0.8707 -0.4548
 3191SOL    HW221207   1.343   3.840   5.844  0.8330  0.2829  1.0475
 3192SOL     OW21208   0.067   3.574   7.010 -0.4109 -0.4911  0.6482
 3192SOL    HW121209   0.034   3.533   6.930 -0.3958 -0.2981  0.5431
 3192SOL    HW221210   0.013   3.525   7.073 -0.5151 -0.7375  0.3703
 3193SOL     OW21211   0.225   3.608   6.650  0.3756 -0.2872 -0.2645
 3193SOL    HW121212   0.184   3.611   6.563 -1.3114 -0.0288  0.5335
 3193SOL    HW221213   0.291   3.677   6.653 -2.2712  2.2077  0.6511
 3194SOL     OW21214   1.700   2.714   6.923 -0.7462  0.2094 -0.2554
 3194SOL    HW121215   1.693   2.802   6.887  2.9122  0.2322 -0.9518
 3194SOL    HW221216   1.687   2.667   6.841 -1.6131 -0.9015  0.5212
 3195SOL     OW21217   1.085   2.410  15.319  0.0574  0.3032  0.1241
 3195SOL    HW121218   1.097   2.505  15.312 -2.6970  0.4714 -2.2971
 3195SOL    HW221219   1.082   2.393  15.225 -0.1930 -0.3897  0.2611
 3196SOL     OW21220   2.069   0.147   8.994  0.2403  0.4490 -0.3555
 3196SOL    HW121221   1.986   0.127   9.038  1.0010  1.7765  1.7030
 3196SOL    HW221222   2.045   0.155   8.902 -2.0347  0.7979  0.2773
 3197SOL     OW21223   1.515   1.430  15.631  0.0046  0.1307  0.0357
 3197SOL    HW121224   1.570   1.352  15.635 -0.5371 -0.2669 -0.4219
 3197SOL    HW221225   1.502   1.440  15.537 -0.0162  0.6546  0.0958
 3198SOL     OW21226   2.306   3.301   6.500  0.0344 -0.0963 -0.4603
 3198SOL    HW121227   2.246   3.253   6.558  1.0086  0.8593  1.3345
 3198SOL    HW221228   2.360   3.345   6.565 -0.9249 -1.6183  1.3919
 3199SOL     OW21229   0.907   3.672   2.604  0.1725 -0.0828  0.0513
 3199SOL    HW121230   0.884   3.679   2.512  1.1822  0.6514 -0.1492
 3199SOL    HW221231   0.907   3.765   2.626  0.1520 -0.2833  0.8995
 3200SOL     OW21232   1.886   4.557   4.950  0.2742  0.4696  0.1079
 3200SOL    HW121233   1.821   4.610   4.904  0.2347 -0.0485 -0.4348
 3200SOL    HW221234   1.877   4.601   5.034  0.0486  1.3401 -0.3627
 3201SOL     OW21235   0.229   3.069  15.298 -0.3645  0.0377 -0.3576
 3201SOL    HW121236   0.225   3.137  15.231 -0.1356  0.2582 -0.1496
 3201SOL    HW221237   0.282   3.109  15.367 -0.5671 -2.2025  1.1255
 3202SOL     OW21238   1.594   1.697   5.962  0.0938 -0.6670  0.0818
 3202SOL    HW121239   1.648   1.623   5.989 -0.7713 -0.5697  2.1130
 3202SOL    HW221240   1.649   1.762   6.006 -2.5299  0.3069  1.9174
 3203SOL     OW21241   1.573   3.703   5.774 -0.7515  0.2453 -0.0481
 3203SOL    HW121242   1.482   3.690   5.745 -0.1641 -0.2959 -1.6481
 3203SOL    HW221243   1.557   3.730   5.864  0.8737 -0.2987  0.4071
 3204SOL     OW21244   3.392   4.095   4.249  0.3756  0.8715 -0.9937
 3204SOL    HW121245   3.460   4.146   4.205  2.5611 -0.1305  1.2240
 3204SOL    HW221246   3.397   4.134   4.336  2.6271  0.9666 -1.1574
 3205SOL     OW21247   2.466   1.977   1.784 -0.3985  0.6196  0.5284
 3205SOL    HW121248   2.499   1.891   1.811  0.2055  0.1378 -1.7633
 3205SOL    HW221249   2.540   2.030   1.813  0.1629  0.6432 -0.9534
 3206SOL     OW21250   0.444   0.524   5.679 -0.0445  0.3479  0.1560
 3206SOL    HW121251   0.530   0.501   5.714 -0.5722 -2.9375 -0.7017
 3206SOL    HW221252   0.446   0.619   5.686 -0.1116  0.3692 -0.1119
 3207SOL     OW21253   0.086   4.189   1.323 -0.5985 -0.3903 -0.2731
 3207SOL    HW121254   0.141   4.116   1.350  0.1585  0.2952  0.0218
 3207SOL    HW221255   0.056   4.159   1.237 -0.5293 -1.2048 -0.0084
 3208SOL     OW21256   3.010   2.189  14.599  0.7405  0.0058 -0.3681
 3208SOL    HW121257   3.100   2.188  14.630  1.2535  1.4002 -1.8258
 3208SOL    HW221258   3.025   2.263  14.540  1.7655 -0.1591 -0.3006
 3209SOL     OW21259   3.482   4.517   6.035 -0.5583  0.2510 -0.0412
 3209SOL    HW121260   3.564   4.501   6.082 -0.6388  0.6404  0.2328
 3209SOL    HW221261   3.521   4.540   5.951  3.6291  2.5983  2.5579
 3210SOL     OW21262   0.310   0.784  12.914  0.1569 -0.4263 -0.5704
 3210SOL    HW121263   0.236   0.822  12.867 -1.5987 -1.2694  1.5361
 3210SOL    HW221264   0.342   0.716  12.855 -0.8863 -0.9458 -0.5473
 3211SOL     OW21265   4.253   3.868   5.201 -0.2617  0.3582 -0.1860
 3211SOL    HW121266   4.291   3.953   5.179  0.2371  0.8192  2.4490
 3211SOL    HW221267   4.179   3.863   5.140 -1.4941  1.2628  1.2305
 3212SOL     OW21268   1.333   4.032   2.409 -0.4990 -0.1930  0.0693
 3212SOL    HW121269   1.422   4.000   2.425 -0.9635 -1.8567 -0.5817
 3212SOL    HW221270   1.295   4.004   2.492  0.7334 -0.7150  0.4644
 3213SOL     OW21271   1.017   4.377   6.556 -0.6697  0.8727  0.0464
 3213SOL    HW121272   1.013   4.439   6.484 -0.0122  0.0890 -0.6701
 3213SOL    HW221273   1.035   4.437   6.628 -0.2853  1.5087 -0.5870
 3214SOL     OW21274   3.040   1.446  12.922 -0.1823  0.2103  0.0202
 3214SOL    HW121275   3.024   1.530  12.965  2.2347  1.2824 -1.1488
 3214SOL    HW221276   3.098   1.406  12.987  1.3192  1.6294 -0.4565
 3215SOL     OW21277   1.281   1.372  12.316  0.3039 -0.4877  0.1005
 3215SOL    HW121278   1.227   1.451  12.313 -1.3872 -1.6638 -0.3711
 3215SOL    HW221279   1.279   1.347  12.409 -1.9758 -1.3253 -0.1781
 3216SOL     OW21280   3.230   2.472   4.619  0.2203 -0.1308 -0.0570
 3216SOL    HW121281   3.291   2.543   4.642 -0.4044 -0.0381  1.3349
 3216SOL    HW221282   3.234   2.421   4.700 -0.5582 -0.4864 -0.2462
 3217SOL     OW21283   1.905   3.577   9.279 -0.2475  0.2322 -0.2279
 3217SOL    HW121284   1.879   3.601   9.368  0.6659 -0.8677  0.3349
 3217SOL    HW221285   1.987   3.626   9.268 -0.6197  0.9152  0.0505
 3218SOL     OW21286   4.735   2.257   3.327  0.1647 -0.1187  0.2668
 3218SOL    HW121287   0.047   2.252   3.410 -1.8280  1.7405  1.5226
 3218SOL    HW221288   4.722   2.351   3.322  0.9402 -0.0736 -0.8243
 3219SOL     OW21289   0.661   0.328   0.758 -0.0571  0.1739  0.8008
 3219SOL    HW121290   0.713   0.257   0.721 -0.3614 -0.0943  0.8939
 3219SOL    HW221291   0.588   0.288   0.805  0.5502 -1.6346  0.1786
 3220SOL     OW21292   4.463   1.693   8.077  0.1246  0.0537  0.3076
 3220SOL    HW121293   4.538   1.744   8.048  0.9342 -0.3450  1.6569
 3220SOL    HW221294   4.411   1.757   8.125  1.1888  0.9586  0.2259
 3221SOL     OW21295   1.886   1.189  11.441  0.1530 -0.0683 -0.7027
 3221SOL    HW121296   1.945   1.192  11.516 -1.4304 -3.0632  0.6364
 3221SOL    HW221297   1.811   1.244  11.465  0.1351 -0.3130 -0.2149
 3222SOL     OW21298   4.551   0.608   2.497 -0.7888 -0.6768  0.6364
 3222SOL    HW121299   4.606   0.579   2.569  1.9262  1.2659 -0.6485
 3222SOL    HW221300   4.612   0.573   2.432  0.8935  2.4079  0.5372
 3223SOL     OW21301   0.819   0.952   0.349 -0.1868 -0.0780  0.2559
 3223SOL    HW121302   0.860   1.039   0.353  1.2000 -0.6832 -0.9106
 3223SOL    HW221303   0.832   0.929   0.258  1.3515  1.6376  0.0248
 3224SOL     OW21304   0.994   3.547   2.148 -0.4007  0.4041 -0.0676
 3224SOL    HW121305   1.036   3.595   2.078  0.0354  0.0766 -0.0293
 3224SOL    HW221306   1.076   3.522   2.191 -1.6518  1.4948  2.9818
 3225SOL     OW21307   2.864   0.317   8.200  0.0639 -0.4267 -0.9182
 3225SOL    HW121308   2.857   0.309   8.295  2.4592  3.6812 -0.3978
 3225SOL    HW221309   2.822   0.402   8.187  1.5060  0.1112 -2.1267
 3226SOL     OW21310   4.659   1.420   5.043  0.5002 -0.0633 -0.1158
 3226SOL    HW121311   4.657   1.344   5.101 -2.6097 -0.4926 -0.7395
 3226SOL    HW221312   4.619   1.384   4.963  1.2827 -1.8167  0.2841
 3227SOL     OW21313   1.378   0.246   8.595  0.3401  0.2879 -0.0687
 3227SOL    HW121314   1.299   0.217   8.549  0.3662 -1.6185  1.0772
 3227SOL    HW221315   1.344   0.311   8.656 -0.6775 -0.0520 -0.2728
 3228SOL     OW21316   1.221   3.395   2.890  0.2395  0.0913  0.5034
 3228SOL    HW121317   1.264   3.426   2.970  0.7604 -0.6746  0.5157
 3228SOL    HW221318   1.189   3.476   2.851  3.5001  1.0320 -0.2625
 3229SOL     OW21319   1.698   0.770   8.088 -0.1311 -0.4473 -0.1423
 3229SOL    HW121320   1.767   0.796   8.149  1.8771 -1.3940 -1.9808
 3229SOL    HW221321   1.725   0.681   8.063  1.3283 -0.0770  0.0934
 3230SOL     OW21322   2.837   3.933   6.320 -0.3545 -0.6679  0.4998
 3230SOL    HW121323   2.924   3.968   6.297 -0.3947 -1.6081 -1.0484
 3230SOL    HW221324   2.814   3.881   6.243 -0.6431  0.8288 -0.4509
 3231SOL     OW21325   3.841   3.914   1.082 -0.5751  0.4207 -0.6320
 3231SOL    HW121326   3.895   3.936   1.158 -0.0517  1.6341 -1.3352
 3231SOL    HW221327   3.763   3.879   1.124  0.0996 -1.2844 -0.7953
 3232SOL     OW21328   2.850   3.527  13.763  0.0662 -0.5320  0.0458
 3232SOL    HW121329   2.827   3.504  13.673  1.2898 -0.6812 -0.2231
 3232SOL    HW221330   2.861   3.620  13.746 -1.0625 -0.2227  0.9528
 3233SOL     OW21331   0.565   4.092  10.354  0.2098 -0.5289 -0.4453
 3233SOL    HW121332   0.545   4.120  10.265 -0.8701 -1.7806 -0.5979
 3233SOL    HW221333   0.493   4.030  10.365 -0.1726 -0.1315 -0.7008
 3234SOL     OW21334   0.161   2.151   9.008  0.0041  0.0875  0.1771
 3234SOL    HW121335   0.181   2.080   8.947  1.7699  0.4813  0.3178
 3234SOL    HW221336   0.242   2.158   9.058 -1.5917  0.3890  2.7068
 3235SOL     OW21337   2.510   4.061   8.142  0.6885  0.5990  0.4902
 3235SOL    HW121338   2.524   4.026   8.229  0.8170 -1.9325 -0.5420
 3235SOL    HW221339   2.589   4.114   8.137 -0.5410  2.3516 -0.6606
 3236SOL     OW21340   0.228   4.541   4.287 -0.1035 -0.2455  0.4457
 3236SOL    HW121341   0.165   4.488   4.336 -1.8199  1.1565 -0.2208
 3236SOL    HW221342   0.312   4.512   4.322  0.8288 -1.6503 -2.9474
 3237SOL     OW21343   1.040   3.266   6.346 -0.1229 -0.1125  0.1915
 3237SOL    HW121344   0.986   3.193   6.316  0.4255 -0.4255 -0.0371
 3237SOL    HW221345   1.053   3.248   6.440  2.3959 -1.9468 -0.4853
 3238SOL     OW21346   0.136   0.912   3.909  0.2186  0.1993 -0.2931
 3238SOL    HW121347   0.208   0.884   3.852 -0.2084 -2.4266  0.4461
 3238SOL    HW221348   0.101   0.985   3.859  1.5406  1.1306  0.1471
 3239SOL     OW21349   4.005   2.972   0.829  0.7211 -0.2388 -0.3982
 3239SOL    HW121350   3.987   3.066   0.822  0.7683 -0.2615 -0.8381
 3239SOL    HW221351   4.078   2.976   0.890 -0.8260  2.4434  1.3094
 3240SOL     OW21352   4.068   0.744   9.112  0.1058  0.7371  0.2886
 3240SOL    HW121353   4.031   0.689   9.043  0.3641 -0.4325  1.0720
 3240SOL    HW221354   4.099   0.678   9.174  1.3830  0.5549 -0.5578
 3241SOL     OW21355   4.680   3.334   5.859 -0.0367 -0.4136  0.5340
 3241SOL    HW121356   4.670   3.267   5.792 -0.1767 -0.4954  0.6370
 3241SOL    HW221357   4.647   3.417   5.824 -0.2796 -0.9575 -0.5205
 3242SOL     OW21358   2.817   3.481   3.172 -0.3417 -0.4346  0.0084
 3242SOL    HW121359   2.781   3.453   3.257 -1.4456 -1.1786 -0.6983
 3242SOL    HW221360   2.734   3.496   3.126  0.7984  0.0995 -1.8513
 3243SOL     OW21361   0.709   0.900   5.845 -0.0132  0.2516  0.3506
 3243SOL    HW121362   0.741   0.990   5.849 -2.3584  1.0484  1.4482
 3243SOL    HW221363   0.777   0.861   5.900  1.6172  1.0829 -1.0758
 3244SOL     OW21364   4.674   4.110   0.406  0.7883  0.2134  0.5293
 3244SOL    HW121365   4.580   4.090   0.400  0.3536  2.8969 -1.5129
 3244SOL    HW221366   4.672   4.183   0.344 -2.3450 -1.1373 -0.9569
 3245SOL     OW21367   1.028   0.283   4.064 -0.0886  0.8458 -0.6867
 3245SOL    HW121368   1.118   0.284   4.031  0.9990 -0.3391  2.1998
 3245SOL    HW221369   1.036   0.296   4.159 -1.7069  2.3379 -0.7478
 3246SOL     OW21370   3.400   3.924   3.390  0.0962 -0.4426  0.3799
 3246SOL    HW121371   3.446   3.911   3.307  1.7922 -1.0308  1.4036
 3246SOL    HW221372   3.455   3.875   3.451 -1.1906  1.1342  2.7913
 3247SOL     OW21373   1.863   4.263   3.012 -0.1102 -0.4446 -0.7525
 3247SOL    HW121374   1.871   4.171   3.039  0.4265 -0.4992 -1.1032
 3247SOL    HW221375   1.912   4.255   2.930 -0.1197 -0.6550 -0.7390
 3248SOL     OW21376   3.546   2.897  13.541 -0.2394  0.3826  0.4390
 3248SOL    HW121377   3.580   2.955  13.609 -1.9649  1.8124  0.0721
 3248SOL    HW221378   3.561   2.816  13.589  1.2522  0.6686  0.4438
 3249SOL     OW21379   3.838   3.200  15.853  0.0124 -0.7250 -0.1385
 3249SOL    HW121380   3.856   3.178  15.762 -0.4610 -0.0861 -0.3871
 3249SOL    HW221381   3.883   3.283  15.866 -1.5298  0.2888 -1.2652
 3250SOL     OW21382   2.354   0.127  15.433 -0.0951  0.4619  0.9361
 3250SOL    HW121383   2.271   0.168  15.458 -0.9504  0.3116 -1.5872
 3250SOL    HW221384   2.388   0.095  15.516  0.9808  0.1518  0.3830
 3251SOL     OW21385   1.362   3.620  12.181 -0.1424  0.1593  0.1381
 3251SOL    HW121386   1.436   3.652  12.234  0.0427  0.1779 -0.1312
 3251SOL    HW221387   1.313   3.701  12.178 -1.8345 -0.9315 -1.4152
 3252SOL     OW21388   3.729   0.275   6.736 -1.2703  0.2450 -0.0081
 3252SOL    HW121389   3.819   0.304   6.753 -2.2455  2.9320  0.6561
 3252SOL    HW221390   3.691   0.353   6.694  0.6389  0.8850 -0.5532
 3253SOL     OW21391   3.934   0.686   8.160 -0.4450  0.1183 -0.3321
 3253SOL    HW121392   3.957   0.769   8.203 -1.7226  0.2135  0.1520
 3253SOL    HW221393   3.992   0.673   8.085  0.8760  1.1322  0.5157
 3254SOL     OW21394   2.362   2.167   2.612 -0.0104  0.0791  0.0178
 3254SOL    HW121395   2.361   2.253   2.655 -0.4682  0.3609 -0.5563
 3254SOL    HW221396   2.453   2.143   2.590  0.6594  2.2873  0.3690
 3255SOL     OW21397   1.872   0.267   5.184 -0.5066  0.0242  0.0097
 3255SOL    HW121398   1.787   0.275   5.228  0.2058 -0.2570  1.4350
 3255SOL    HW221399   1.888   0.360   5.167  4.0489 -0.6407  0.6298
 3256SOL     OW21400   2.833   2.433  12.978  0.5398 -0.3690 -0.1494
 3256SOL    HW121401   2.889   2.363  13.012  0.5672 -1.0179 -1.5452
 3256SOL    HW221402   2.818   2.397  12.891  1.7612 -0.5806 -0.2744
 3257SOL     OW21403   4.130   2.757  10.607  0.1086 -0.4886  0.2114
 3257SOL    HW121404   4.133   2.756  10.702  1.1558  1.5697  0.2013
 3257SOL    HW221405   4.041   2.731  10.584  0.1430  0.5946 -1.1995
 3258SOL     OW21406   3.295   3.733   6.849 -0.0147 -0.0759  0.0676
 3258SOL    HW121407   3.339   3.653   6.820 -1.6393 -0.0634 -2.4881
 3258SOL    HW221408   3.376   3.785   6.849  0.0654 -0.1991  1.1087
 3259SOL     OW21409   0.323   2.723   8.218  0.9094 -0.3972  0.2197
 3259SOL    HW121410   0.293   2.759   8.301  0.4595  1.8392 -0.9092
 3259SOL    HW221411   0.352   2.633   8.237  0.4232 -0.0303  2.7099
 3260SOL     OW21412   1.047   0.309   1.790 -0.4601 -0.5266 -0.2793
 3260SOL    HW121413   1.135   0.315   1.828 -1.0314  0.0308  0.9230
 3260SOL    HW221414   1.001   0.389   1.812 -0.7300 -0.2159 -1.9511
 3261SOL     OW21415   0.171   0.954   8.229  0.0598 -0.1012  0.6888
 3261SOL    HW121416   0.149   0.868   8.192 -1.3315  0.8763 -0.7478
 3261SOL    HW221417   0.256   0.967   8.187  0.2166 -0.2922  0.9469
 3262SOL     OW21418   1.518   0.295   2.843 -0.2309  0.2600 -0.1084
 3262SOL    HW121419   1.592   0.236   2.835 -0.3543 -0.0050  0.6670
 3262SOL    HW221420   1.463   0.253   2.778  1.4976 -0.8223 -0.8492
 3263SOL     OW21421   0.241   1.333  15.439  1.1744 -0.1824  0.4854
 3263SOL    HW121422   0.188   1.360  15.515  0.0881 -1.2084  0.0890
 3263SOL    HW221423   0.235   1.407  15.379 -0.4513 -0.8497 -0.1791
 3264SOL     OW21424   3.412   0.281   4.070  0.6275  0.4784 -0.0323
 3264SOL    HW121425   3.432   0.243   4.156  0.8328  1.5271  0.3877
 3264SOL    HW221426   3.480   0.243   4.014  1.5779 -0.2676  1.6166
 3265SOL     OW21427   0.145   3.517   4.689 -0.4184  0.1365 -0.0791
 3265SOL    HW121428   0.143   3.422   4.701 -0.3128 -0.0431 -1.5048
 3265SOL    HW221429   0.056   3.544   4.715 -0.7224 -1.7492  0.8260
 3266SOL     OW21430   0.873   0.022   4.250  0.0542 -0.6979 -0.5380
 3266SOL    HW121431   0.911   0.110   4.253  0.5284 -0.9335  0.2972
 3266SOL    HW221432   0.910   4.729   4.167  1.1871 -0.9265  0.0506
 3267SOL     OW21433   3.976   3.788   9.279 -0.1557 -0.2550 -0.0219
 3267SOL    HW121434   3.962   3.838   9.359  1.8178  1.4483 -0.7622
 3267SOL    HW221435   3.905   3.724   9.289 -1.0538  0.9728  1.5045
 3268SOL     OW21436   0.317   1.467  15.989 -0.3715 -0.3189  0.6153
 3268SOL    HW121437   0.328   1.378  15.954 -2.5055 -0.1186 -0.6024
 3268SOL    HW221438   0.363   1.466  16.072 -0.3875  2.4281  0.6591
 3269SOL     OW21439   3.332   3.405   4.707  0.1268  0.0863  0.1177
 3269SOL    HW121440   3.398   3.471   4.688  0.5303 -0.5588 -0.6830
 3269SOL    HW221441   3.361   3.357   4.785  1.1839  1.9710  0.8883
 3270SOL     OW21442   2.734   0.875   3.495 -0.1007  0.1864  0.6567
 3270SOL    HW121443   2.780   0.889   3.413 -0.0502  1.7572  0.9585
 3270SOL    HW221444   2.797   0.813   3.532 -0.9703 -1.2969 -0.3505
 3271SOL     OW21445   0.226   0.649  17.308 -0.3836  0.2484 -0.0143
 3271SOL    HW121446   0.140   0.645  17.265  0.0608 -0.0199 -0.8731
 3271SOL    HW221447   0.220   0.574  17.367  0.5629  0.1391 -0.0598
 3272SOL     OW21448   3.231   1.234   2.351 -0.0660  0.5178 -0.4554
 3272SOL    HW121449   3.301   1.170   2.363 -0.3879  0.1952 -0.2965
 3272SOL    HW221450   3.157   1.185   2.316 -0.2229  0.0868  0.4758
 3273SOL     OW21451   3.636   3.187   8.537 -0.0350  0.5974  0.0063
 3273SOL    HW121452   3.674   3.253   8.595 -0.4487  0.8998 -0.0687
 3273SOL    HW221453   3.542   3.187   8.554  0.1954  2.8165  1.2686
 3274SOL     OW21454   4.447   3.830   5.449  0.3247  0.0323 -0.2050
 3274SOL    HW121455   4.520   3.840   5.388  0.0673 -1.9588 -0.8359
 3274SOL    HW221456   4.372   3.876   5.411  0.4294 -0.1742 -0.6653
 3275SOL     OW21457   0.505   4.459   6.126  0.4694  0.0915  0.2681
 3275SOL    HW121458   0.414   4.440   6.151 -0.0536  1.7277 -0.3524
 3275SOL    HW221459   0.524   4.383   6.072  2.2952  0.7122  0.0469
 3276SOL     OW21460   4.695   3.883   7.196 -0.0384  0.0202 -0.6299
 3276SOL    HW121461   4.655   3.851   7.116  0.2720 -2.5296  0.2544
 3276SOL    HW221462   4.707   3.799   7.239 -1.5076  0.1190 -0.0607
 3277SOL     OW21463   0.481   0.828   3.298 -0.2593  0.5053 -0.2038
 3277SOL    HW121464   0.445   0.885   3.366  1.1774  1.1661  0.0143
 3277SOL    HW221465   0.448   0.743   3.324 -1.7940  1.2714  0.3478
 3278SOL     OW21466   2.122   1.383   4.273 -0.1723 -0.2949  0.4499
 3278SOL    HW121467   2.082   1.468   4.252  0.2445 -0.3496 -0.5675
 3278SOL    HW221468   2.198   1.405   4.327 -1.0966  0.3690  1.5106
 3279SOL     OW21469   4.459   2.054   5.903 -0.4054 -0.6858  0.4839
 3279SOL    HW121470   4.500   2.118   5.845  0.8775 -0.4910  1.5892
 3279SOL    HW221471   4.474   2.108   5.981  0.8579 -0.4395  0.0832
 3280SOL     OW21472   3.414   3.670  12.968 -0.0072 -0.6396  0.7488
 3280SOL    HW121473   3.452   3.599  12.917 -0.7157  2.0590 -3.6065
 3280SOL    HW221474   3.401   3.736  12.899 -1.3777 -1.0017  0.6610
 3281SOL     OW21475   3.682   2.302   7.375  0.0516  0.2002 -0.8555
 3281SOL    HW121476   3.751   2.241   7.401 -0.1978  0.7575  1.0752
 3281SOL    HW221477   3.667   2.290   7.281 -3.0383  0.2207 -0.3854
 3282SOL     OW21478   3.203   2.350   5.416 -0.1783  0.1200  0.2106
 3282SOL    HW121479   3.148   2.427   5.398  0.9914  1.1418  1.0640
 3282SOL    HW221480   3.194   2.347   5.511 -2.3888 -1.9122 -0.0579
 3283SOL     OW21481   2.974   1.788  12.511 -0.4983 -0.1568  0.0085
 3283SOL    HW121482   2.983   1.810  12.604  2.5514  0.3987 -0.4134
 3283SOL    HW221483   2.968   1.877  12.477 -0.9283 -0.8447 -1.7429
 3284SOL     OW21484   1.315   1.150   5.999 -0.0301  0.1268 -0.3992
 3284SOL    HW121485   1.293   1.241   5.978  1.3934  0.3300 -1.0700
 3284SOL    HW221486   1.381   1.123   5.935  0.5361 -0.5636  0.4743
 3285SOL     OW21487   0.699   1.188   6.418 -0.5689  0.0394 -0.1105
 3285SOL    HW121488   0.750   1.146   6.486  0.2795  1.7650  0.3099
 3285SOL    HW221489   0.766   1.194   6.350  0.6535 -0.7257  1.0468
 3286SOL     OW21490   1.108   1.316  15.129  0.1043 -0.2440 -0.0836
 3286SOL    HW121491   1.190   1.341  15.087  0.5296 -0.2504  0.7334
 3286SOL    HW221492   1.130   1.308  15.222  1.3387 -0.8656 -0.4278
 3287SOL     OW21493   0.115   4.442   9.801 -0.0327  0.0864  0.1465
 3287SOL    HW121494   0.166   4.411   9.727  0.2751  1.5784 -0.2710
 3287SOL    HW221495   0.099   4.359   9.846 -0.6498  0.7760  1.1998
 3288SOL     OW21496   2.050   4.152   5.559 -0.1277  0.0846  0.2339
 3288SOL    HW121497   2.074   4.128   5.648  0.4329 -1.8558 -0.4392
 3288SOL    HW221498   2.097   4.085   5.509 -1.1161 -0.6985  0.3542
 3289SOL     OW21499   4.325   0.467   6.339 -0.0860  0.1384  0.0255
 3289SOL    HW121500   4.308   0.558   6.317  1.8974  0.8829  1.5155
 3289SOL    HW221501   4.257   0.469   6.407 -1.1757  1.3602 -1.1042
 3290SOL     OW21502   1.085   1.197   8.258  0.2112 -0.9425 -0.3258
 3290SOL    HW121503   1.145   1.126   8.237 -0.0505 -1.2185 -0.1377
 3290SOL    HW221504   1.000   1.155   8.269  0.2435 -0.3576  2.0248
 3291SOL     OW21505   3.717   2.147   9.185 -0.2543 -0.1648 -0.1490
 3291SOL    HW121506   3.751   2.136   9.096  1.4596  1.4796  0.2947
 3291SOL    HW221507   3.629   2.110   9.184  0.2333 -1.4125  2.1699
 3292SOL     OW21508   0.368   2.317   1.126  0.2200  0.4241 -0.5559
 3292SOL    HW121509   0.410   2.292   1.044 -0.3175  1.6692 -1.1999
 3292SOL    HW221510   0.334   2.232   1.156 -0.4177  1.3492  1.3441
 3293SOL     OW21511   3.087   0.540   9.055 -0.2067 -0.2191 -0.3273
 3293SOL    HW121512   3.081   0.627   9.017  2.2162  0.2030  0.2138
 3293SOL    HW221513   3.001   0.520   9.091  0.6718  0.8951  2.3570
 3294SOL     OW21514   2.597   0.688   6.538 -0.2485  0.0545  0.2542
 3294SOL    HW121515   2.689   0.688   6.511  0.1956  2.0394  1.6621
 3294SOL    HW221516   2.557   0.757   6.485  0.0713  0.0830  0.0446
 3295SOL     OW21517   0.316   3.101   4.390 -0.5854 -0.4254  0.3503
 3295SOL    HW121518   0.328   3.103   4.485 -1.1034  1.4083  0.3760
 3295SOL    HW221519   0.247   3.035   4.395 -1.7683  0.8079  0.4582
 3296SOL     OW21520   0.838   0.861   6.106 -0.0345  0.1298  0.4232
 3296SOL    HW121521   0.931   0.885   6.103 -0.2940  1.3960  2.6821
 3296SOL    HW221522   0.837   0.800   6.179  0.4060  0.7386  0.9360
 3297SOL     OW21523   4.164   2.972   0.241  0.0791 -0.2061 -0.4474
 3297SOL    HW121524   4.151   2.985   0.335  0.9705 -0.0995 -0.3397
 3297SOL    HW221525   4.147   2.878   0.228  0.8201 -0.7082  2.2854
 3298SOL     OW21526   1.120   4.116  12.636 -0.1884  0.1673 -0.1319
 3298SOL    HW121527   1.144   4.203  12.668 -2.5792  0.6062  0.4461
 3298SOL    HW221528   1.053   4.086  12.697  0.0844  0.0140  0.0960
 3299SOL     OW21529   0.893   0.641   9.976  0.0148  0.2808  0.7298
 3299SOL    HW121530   0.855   0.554   9.990  0.3720  0.2895  1.7905
 3299SOL    HW221531   0.977   0.613   9.939 -0.2071 -0.3606  0.7074
 3300SOL     OW21532   3.561   4.663   5.813  0.3867 -0.5156 -0.1305
 3300SOL    HW121533   3.534   0.004   5.864  1.4648 -0.4039  0.2576
 3300SOL    HW221534   3.601   4.700   5.734  1.4233 -1.9371 -0.2757
 3301SOL     OW21535   0.615   3.138   2.651 -0.3598  0.0017  0.1524
 3301SOL    HW121536   0.691   3.191   2.625  0.2800 -1.0470 -0.0988
 3301SOL    HW221537   0.651   3.050   2.641  2.5927  1.0497  1.6233
 3302SOL     OW21538   1.662   2.944   3.398 -0.2571  0.3647 -0.2939
 3302SOL    HW121539   1.693   2.856   3.420 -2.1412 -0.4967 -1.1108
 3302SOL    HW221540   1.731   2.981   3.343 -0.2092 -0.5008 -0.8243
 3303SOL     OW21541   2.387   4.555   8.315 -0.6837  0.2043  0.3444
 3303SOL    HW121542   2.369   4.567   8.408  0.7856 -2.6367  1.0163
 3303SOL    HW221543   2.331   4.478   8.298 -0.1182 -0.6616  2.4251
 3304SOL     OW21544   4.646   1.327   8.076  0.3382  0.0235 -0.4407
 3304SOL    HW121545   4.568   1.328   8.130 -0.1310  1.1751 -1.1448
 3304SOL    HW221546   4.667   1.233   8.079  1.1734  0.2016 -0.5708
 3305SOL     OW21547   3.726   2.018   9.427  0.3876  0.0173  0.2792
 3305SOL    HW121548   3.720   2.082   9.356  1.1895 -1.0200 -0.7322
 3305SOL    HW221549   3.676   2.059   9.497  0.6236 -1.0681  1.0848
 3306SOL     OW21550   0.292   0.278   3.301 -0.3189  0.0107 -0.2882
 3306SOL    HW121551   0.254   0.213   3.360  0.0693 -0.2233 -0.2982
 3306SOL    HW221552   0.212   0.310   3.259 -0.4055  0.2658  0.0776
 3307SOL     OW21553   3.411   1.176   6.381 -0.1599 -0.4905 -0.4842
 3307SOL    HW121554   3.417   1.087   6.348  1.4309 -0.1166 -1.1641
 3307SOL    HW221555   3.372   1.220   6.305  1.3854  1.8552  0.0722
 3308SOL     OW21556   1.212   1.446   3.214  0.0232 -0.3124 -0.4385
 3308SOL    HW121557   1.226   1.442   3.119  0.8882 -0.5901 -0.2977
 3308SOL    HW221558   1.159   1.368   3.225  0.2440 -0.2662  0.9812
 3309SOL     OW21559   2.117   0.187  11.725 -0.6562 -0.0676  0.6412
 3309SOL    HW121560   2.197   0.217  11.681 -0.7755 -0.1027  0.3948
 3309SOL    HW221561   2.078   0.146  11.647  1.6437  2.8693 -2.0914
 3310SOL     OW21562   4.710   3.092   5.267  0.2696 -0.3922 -0.2297
 3310SOL    HW121563   4.659   3.047   5.200  0.1196  0.1239 -0.4601
 3310SOL    HW221564   0.057   3.097   5.219  0.3461  0.8892  0.0501
 3311SOL     OW21565   3.123   1.926   2.766 -0.1358  0.0351  0.5156
 3311SOL    HW121566   3.132   1.957   2.676  1.7279 -0.7116  0.4502
 3311SOL    HW221567   3.165   1.841   2.749 -0.1329  0.2179 -0.3953
 3312SOL     OW21568   3.230   0.646  15.478  0.1054 -0.1118 -0.4172
 3312SOL    HW121569   3.139   0.620  15.467  0.4212 -0.8691 -1.2406
 3312SOL    HW221570   3.234   0.728  15.528  2.2803  0.6951 -1.8896
 3313SOL     OW21571   3.140   0.729   6.062 -0.1627  0.4284  0.5269
 3313SOL    HW121572   3.066   0.731   6.123 -0.4547  0.9546  0.1594
 3313SOL    HW221573   3.085   0.717   5.984 -0.0845  0.6898  0.4318
 3314SOL     OW21574   2.096   4.217   5.854  0.3151 -0.3071  0.3400
 3314SOL    HW121575   2.122   4.292   5.907  2.5065 -1.2718  0.6430
 3314SOL    HW221576   2.112   4.137   5.904  0.6876 -0.9745 -0.8644
 3315SOL     OW21577   1.667   1.539  10.537 -0.3582  0.0850  0.1442
 3315SOL    HW121578   1.724   1.480  10.487  0.5794  3.5452 -2.8797
 3315SOL    HW221579   1.673   1.502  10.625  1.0827  0.3532  0.1575
 3316SOL     OW21580   0.412   2.938   3.602  0.1894  0.4712  0.1647
 3316SOL    HW121581   0.467   2.875   3.555 -0.3780 -0.3403  0.5977
 3316SOL    HW221582   0.359   2.958   3.525 -1.3280 -1.6703  0.6623
 3317SOL     OW21583   0.810   0.516   2.939 -0.2388 -0.3753 -0.2913
 3317SOL    HW121584   0.798   0.423   2.918 -2.2626 -0.2706  0.3897
 3317SOL    HW221585   0.800   0.559   2.854  0.4475  0.7260  0.1947
 3318SOL     OW21586   3.708   2.109   3.817 -0.2966  0.3767 -0.4561
 3318SOL    HW121587   3.626   2.156   3.800 -0.7986 -0.0185  0.8888
 3318SOL    HW221588   3.680   2.053   3.889  0.1513 -1.1239 -1.4470
 3319SOL     OW21589   1.659   2.679  10.458  0.3854  0.4623 -0.5025
 3319SOL    HW121590   1.595   2.663  10.389 -0.3700  0.5907  0.1699
 3319SOL    HW221591   1.704   2.596  10.473 -0.7925 -0.5554 -2.5865
 3320SOL     OW21592   1.678   3.307   4.348 -0.0424  0.0865  0.2572
 3320SOL    HW121593   1.671   3.398   4.317 -0.0673  0.1197  0.3595
 3320SOL    HW221594   1.702   3.285   4.258  0.0681  1.1418  0.0233
 3321SOL     OW21595   3.405   3.606  13.415 -0.2025  0.0065  0.2378
 3321SOL    HW121596   3.423   3.522  13.458 -2.4527 -0.6673 -0.1350
 3321SOL    HW221597   3.327   3.639  13.460  2.6039  4.0549  2.1064
 3322SOL     OW21598   0.124   4.450   2.286 -0.1278  0.2496 -0.1124
 3322SOL    HW121599   0.155   4.484   2.202 -0.7170 -0.3852 -0.5814
 3322SOL    HW221600   0.149   4.517   2.350 -2.0560 -0.9773  1.9190
 3323SOL     OW21601   2.496   3.087   9.116 -0.1084 -0.0153  0.0830
 3323SOL    HW121602   2.417   3.037   9.136  0.0260 -1.0036 -1.8154
 3323SOL    HW221603   2.549   3.077   9.195 -0.6425  1.5778  0.6445
 3324SOL     OW21604   0.566   4.538   7.388  0.0666  0.0696  0.3650
 3324SOL    HW121605   0.533   4.543   7.478  0.9101 -1.2272  0.7370
 3324SOL    HW221606   0.617   4.619   7.381  0.0649 -0.0345 -0.9283
 3325SOL     OW21607   2.147   3.198  13.379 -0.0622  0.2264 -0.3774
 3325SOL    HW121608   2.150   3.165  13.289 -0.7360 -1.6487  0.2970
 3325SOL    HW221609   2.173   3.290  13.378  0.4883  0.0793  0.0088
 3326SOL     OW21610   0.225   0.479  13.819  0.4076  1.0052  0.7671
 3326SOL    HW121611   0.309   0.518  13.794  1.3872 -1.7554 -0.3202
 3326SOL    HW221612   0.225   0.494  13.914  0.9181 -1.7192  1.1886
 3327SOL     OW21613   1.324   2.663   0.874 -0.2171  0.1058 -1.0217
 3327SOL    HW121614   1.248   2.617   0.910 -1.2293  3.0368  0.6262
 3327SOL    HW221615   1.364   2.589   0.829  1.3944  0.4527 -0.1670
 3328SOL     OW21616   3.973   3.435   8.519  0.3951  0.2510  0.1790
 3328SOL    HW121617   4.059   3.421   8.479 -0.3393 -0.9848 -0.9997
 3328SOL    HW221618   3.942   3.518   8.484 -2.3584 -1.3220 -1.1859
 3329SOL     OW21619   0.121   1.791  12.096 -0.1907 -0.0005  0.0316
 3329SOL    HW121620   0.156   1.704  12.112 -1.6685 -0.9187 -1.7307
 3329SOL    HW221621   0.059   1.797  12.169 -0.3769  0.3743 -0.1574
 3330SOL     OW21622   0.013   0.191   3.700 -1.0145  0.2133 -0.0041
 3330SOL    HW121623   4.657   0.201   3.726 -1.9969 -1.4856 -2.8389
 3330SOL    HW221624   0.038   0.275   3.662  0.4956  0.3547  1.3206
 3331SOL     OW21625   3.245   2.855   8.861  0.1744  0.4227  0.1031
 3331SOL    HW121626   3.284   2.775   8.825  0.0171 -0.5918  2.1927
 3331SOL    HW221627   3.325   2.907   8.855 -1.3726  2.5943 -1.6225
 3332SOL     OW21628   1.520   1.695   6.790 -0.4107 -0.0962 -0.3668
 3332SOL    HW121629   1.473   1.773   6.820 -0.5234 -0.5504  0.6323
 3332SOL    HW221630   1.599   1.733   6.752 -0.3991 -0.3194 -0.5651
 3333SOL     OW21631   3.671   0.964   2.805 -0.0139 -0.1637  0.0853
 3333SOL    HW121632   3.749   0.968   2.750 -1.6881  2.1011 -2.1462
 3333SOL    HW221633   3.650   1.057   2.817 -0.3282  0.0119 -1.8638
 3334SOL     OW21634   1.365   1.391  15.055  0.0012  0.4632  0.1442
 3334SOL    HW121635   1.364   1.475  15.009 -0.9796  1.6065  2.2456
 3334SOL    HW221636   1.448   1.348  15.036  0.0621  0.3384  0.7026
 3335SOL     OW21637   0.632   2.724   4.034  0.2521 -0.1203  0.0943
 3335SOL    HW121638   0.658   2.760   3.949  1.5555 -0.1081  0.5030
 3335SOL    HW221639   0.604   2.807   4.071  2.1505 -0.3234  1.9581
 3336SOL     OW21640   3.610   1.614  10.420 -0.2227 -0.1306 -0.0137
 3336SOL    HW121641   3.681   1.594  10.482 -0.3493 -1.7989 -0.4116
 3336SOL    HW221642   3.612   1.546  10.354 -1.9219 -0.9946  0.8278
 3337SOL     OW21643   0.172   4.725   5.004 -0.2129  0.1091  0.2575
 3337SOL    HW121644   0.241   4.718   4.937 -0.8428  1.4395 -0.5315
 3337SOL    HW221645   0.219   0.039   5.070  0.7319  3.4087 -2.8996
 3338SOL     OW21646   3.008   0.203   9.278 -0.1682  0.2581  0.1783
 3338SOL    HW121647   3.089   0.249   9.297  0.1655  0.2805 -1.3078
 3338SOL    HW221648   2.981   0.234   9.192  1.0807 -0.7827 -0.5970
 3339SOL     OW21649   4.579   0.444   0.104 -0.6640 -0.6295  0.1376
 3339SOL    HW121650   4.629   0.494   0.170 -0.4507 -0.0844 -0.4404
 3339SOL    HW221651   4.653   0.406   0.056 -0.6946  1.7709 -1.7976
 3340SOL     OW21652   2.425   0.474   7.314 -0.2368 -0.0506  0.0003
 3340SOL    HW121653   2.455   0.384   7.313  1.5802  0.5070  2.8748
 3340SOL    HW221654   2.381   0.481   7.230 -0.9526  2.3236  0.5638
 3341SOL     OW21655   2.621   3.090  11.387  0.3910  0.3327  0.4338
 3341SOL    HW121656   2.678   3.167  11.388  0.2517  0.4448 -1.4326
 3341SOL    HW221657   2.625   3.077  11.293 -1.3639  0.3387  0.3515
 3342SOL     OW21658   0.378   4.688   3.679 -0.1359  0.6079 -0.0282
 3342SOL    HW121659   0.336   4.730   3.754  0.4050  1.2862 -0.1057
 3342SOL    HW221660   0.467   4.724   3.680  0.5729 -1.1889  0.9447
 3343SOL     OW21661   3.827   4.124   4.503  0.1320  0.7505  0.5615
 3343SOL    HW121662   3.802   4.186   4.433  2.6867  1.7167  0.5094
 3343SOL    HW221663   3.810   4.036   4.468 -0.4157  0.8801  0.5024
 3344SOL     OW21664   2.685   1.855   9.702  0.1378 -0.0966  0.3377
 3344SOL    HW121665   2.598   1.819   9.687 -1.0125  1.2172  3.8190
 3344SOL    HW221666   2.703   1.810   9.784 -1.0434  2.4179  1.9886
 3345SOL     OW21667   0.294   2.066   5.012 -0.5281 -0.5279 -1.1081
 3345SOL    HW121668   0.253   2.119   5.079 -0.8990 -0.4293 -1.4111
 3345SOL    HW221669   0.321   2.139   4.956  0.3706 -0.0221  0.0068
 3346SOL     OW21670   0.293   0.145   4.431  0.1199  0.1029  0.0024
 3346SOL    HW121671   0.225   0.082   4.458 -1.8659  1.6479 -1.4200
 3346SOL    HW221672   0.367   0.087   4.414 -2.3755 -2.7827 -1.0104
 3347SOL     OW21673   3.867   1.185   7.363 -0.5284  0.5319  0.8435
 3347SOL    HW121674   3.958   1.158   7.355 -0.3275  1.1613  1.0083
 3347SOL    HW221675   3.825   1.106   7.330  1.6901  0.2002 -1.1361
 3348SOL     OW21676   4.224   1.997   3.601  0.1066 -0.9300 -0.1740
 3348SOL    HW121677   4.214   1.957   3.687  1.5735  0.1962  0.4988
 3348SOL    HW221678   4.313   1.969   3.581 -0.1019 -2.1420  0.5505
 3349SOL     OW21679   4.160   4.609   2.178  0.3609  0.0065 -0.2884
 3349SOL    HW121680   4.173   4.529   2.127 -0.0580 -0.0514 -0.3054
 3349SOL    HW221681   4.182   4.674   2.112 -0.2264  2.0572  1.5159
 3350SOL     OW21682   1.381   4.368  13.934  0.6549 -0.3725  0.4644
 3350SOL    HW121683   1.376   4.276  13.957  0.9286 -0.1424  1.4442
 3350SOL    HW221684   1.298   4.401  13.968  1.0385 -1.1618  2.1960
 3351SOL     OW21685   0.265   0.760  15.851  0.2732 -0.0945 -0.1956
 3351SOL    HW121686   0.228   0.811  15.923 -0.4929 -0.1538 -0.5550
 3351SOL    HW221687   0.315   0.832  15.814  0.7063 -0.0223  0.5288
 3352SOL     OW21688   3.001   3.075  15.633  0.7851  0.2387 -0.3952
 3352SOL    HW121689   3.043   3.045  15.552 -1.2146 -3.7408  0.0235
 3352SOL    HW221690   3.053   3.144  15.673  0.0355 -0.0580  1.0791
 3353SOL     OW21691   4.391   0.053   6.060 -0.0394  0.4863  0.9396
 3353SOL    HW121692   4.485   0.043   6.073 -0.2253 -1.4722  0.7730
 3353SOL    HW221693   4.384   0.131   6.004 -0.8408 -1.8302 -2.2010
 3354SOL     OW21694   3.070   3.205   0.043 -0.3497 -0.4296 -0.7224
 3354SOL    HW121695   3.162   3.220   0.020 -0.6445  2.8439  0.2201
 3354SOL    HW221696   3.076   3.152   0.123  0.5189  0.9220  0.1207
 3355SOL     OW21697   1.143   1.383  11.379  0.1020  0.0911  0.0202
 3355SOL    HW121698   1.155   1.429  11.296 -1.8957 -0.1006 -0.3768
 3355SOL    HW221699   1.114   1.296  11.351  0.6997 -0.2008  0.3086
 3356SOL     OW21700   3.787   3.752   5.981 -0.1481 -0.0417 -0.3345
 3356SOL    HW121701   3.817   3.748   6.072 -0.9069  1.0949 -0.0222
 3356SOL    HW221702   3.693   3.746   5.996  0.0046 -0.0418  0.6337
 3357SOL     OW21703   3.879   3.923   2.911  0.1261  0.0160 -0.4647
 3357SOL    HW121704   3.932   3.985   2.861 -0.2332 -0.3678 -1.3145
 3357SOL    HW221705   3.943   3.860   2.945  0.5084  0.3105 -0.6276
 3358SOL     OW21706   2.397   2.325  16.979  0.1152  0.5224 -0.5879
 3358SOL    HW121707   2.336   2.280  16.921 -0.7815 -1.8835  2.1985
 3358SOL    HW221708   2.329   2.352  17.042  0.1614  1.0872 -0.7760
 3359SOL     OW21709   0.336   2.373   3.752  0.2988 -0.2057 -0.1105
 3359SOL    HW121710   0.299   2.304   3.806  1.4709 -0.7484 -0.0140
 3359SOL    HW221711   0.356   2.437   3.821 -2.0256  0.7028 -0.2784
 3360SOL     OW21712   3.835   0.377   3.321  0.5119 -0.9514  0.4784
 3360SOL    HW121713   3.864   0.449   3.265 -2.1727 -0.7338 -0.6297
 3360SOL    HW221714   3.743   0.378   3.297  1.1582 -0.1254 -1.9593
 3361SOL     OW21715   1.626   4.367  11.201  0.2090 -0.3543  0.1921
 3361SOL    HW121716   1.627   4.314  11.122 -0.7696 -1.7816  1.1372
 3361SOL    HW221717   1.553   4.343  11.259  0.8690 -0.7465  0.8689
 3362SOL     OW21718   0.348   2.227   6.172  0.2281  0.1211  0.1684
 3362SOL    HW121719   0.344   2.250   6.265 -2.3281 -0.4354  0.1753
 3362SOL    HW221720   0.423   2.167   6.172  1.9475  2.2777 -1.1355
 3363SOL     OW21721   3.472   2.525  11.697  0.3508 -0.4107  0.3146
 3363SOL    HW121722   3.485   2.437  11.662  1.0216  0.4307 -1.5324
 3363SOL    HW221723   3.433   2.509  11.783  0.8264  0.4922  0.7077
 3364SOL     OW21724   2.130   1.517   6.550  0.3243  0.1679  0.3569
 3364SOL    HW121725   2.080   1.480   6.477  2.0623 -2.8204  0.6753
 3364SOL    HW221726   2.199   1.450   6.550  0.6927  0.5493  1.7560
 3365SOL     OW21727   1.923   3.358  15.401  0.1834  0.1227 -0.0774
 3365SOL    HW121728   1.898   3.344  15.310  1.4180  1.0440 -0.5488
 3365SOL    HW221729   1.867   3.293  15.443 -0.5450  0.4723 -0.5137
 3366SOL     OW21730   1.883   1.407   5.328 -0.4281  0.3987 -0.4269
 3366SOL    HW121731   1.875   1.375   5.418 -0.3178 -1.2028 -0.9857
 3366SOL    HW221732   1.908   1.324   5.287 -0.6859  1.0325 -1.8733
 3367SOL     OW21733   4.422   2.381   5.667 -0.4875 -0.2846 -0.0411
 3367SOL    HW121734   4.448   2.351   5.754 -0.8184 -1.9286 -0.5229
 3367SOL    HW221735   4.398   2.472   5.684  1.8704  0.0970  1.2437
 3368SOL     OW21736   1.860   3.240   8.215 -0.3465  0.2737 -0.9378
 3368SOL    HW121737   1.871   3.326   8.174  1.0828  0.4326 -0.2119
 3368SOL    HW221738   1.796   3.202   8.155 -0.1115 -2.2486  0.3848
 3369SOL     OW21739   3.895   4.068   7.921  0.9853  0.5418  0.0672
 3369SOL    HW121740   3.928   4.157   7.930 -0.6041  1.1289  0.0280
 3369SOL    HW221741   3.828   4.066   7.990  1.6042  0.8293  0.6743
 3370SOL     OW21742   0.509   2.401   5.208  0.3886 -0.1738  0.6334
 3370SOL    HW121743   0.583   2.340   5.207  0.1368 -0.4447 -2.9939
 3370SOL    HW221744   0.445   2.340   5.244  0.3924 -0.6360 -0.1364
 3371SOL     OW21745   0.891   0.231   0.080 -0.4843 -0.3713  0.1294
 3371SOL    HW121746   0.910   0.317   0.118  2.3478 -1.4219  1.1172
 3371SOL    HW221747   0.977   0.205   0.047  0.4200  2.0764  0.5366
 3372SOL     OW21748   1.072   0.061   6.373 -0.1600  0.3430  0.1197
 3372SOL    HW121749   1.103   4.720   6.325 -1.2471  1.0625 -1.7234
 3372SOL    HW221750   1.027   0.019   6.446 -1.0234 -2.0342 -1.7491
 3373SOL     OW21751   3.059   1.315  13.687  0.3511 -0.4211  0.7777
 3373SOL    HW121752   3.145   1.354  13.672  0.3985 -0.8608 -0.1125
 3373SOL    HW221753   3.034   1.349  13.773 -0.2069  0.2813  0.3397
 3374SOL     OW21754   3.577   4.313   8.681 -0.3474 -0.1766 -0.0824
 3374SOL    HW121755   3.547   4.276   8.764 -2.6880  1.6050 -0.1468
 3374SOL    HW221756   3.501   4.368   8.665 -0.3067 -0.3837 -0.9986
 3375SOL     OW21757   4.065   3.738  13.800  0.1756 -0.7927 -0.1054
 3375SOL    HW121758   4.050   3.648  13.772 -0.7298 -0.8419  0.5618
 3375SOL    HW221759   4.024   3.733  13.886  0.5526  0.1084  0.1290
 3376SOL     OW21760   2.143   2.679   8.181  0.1637  0.3940  0.1734
 3376SOL    HW121761   2.092   2.655   8.259  0.2558 -0.8234 -0.1484
 3376SOL    HW221762   2.227   2.705   8.218  1.0567 -1.2105 -0.7552
 3377SOL     OW21763   4.226   0.426   7.736 -0.0408 -0.5215 -0.5286
 3377SOL    HW121764   4.176   0.462   7.809  1.3087 -1.5402  0.9118
 3377SOL    HW221765   4.251   0.501   7.682 -0.1880  0.7360  1.1426
 3378SOL     OW21766   2.674   1.202   8.315 -0.3256 -0.0276  0.6069
 3378SOL    HW121767   2.582   1.225   8.303 -0.0765  0.6730  0.0471
 3378SOL    HW221768   2.661   1.109   8.297  0.2706 -0.5233  2.6891
 3379SOL     OW21769   0.947   0.441   7.709  0.4290 -0.6604  0.3521
 3379SOL    HW121770   0.853   0.422   7.699  0.2647  0.6177 -0.5888
 3379SOL    HW221771   0.958   0.514   7.647 -0.0261  0.6696  1.8526
 3380SOL     OW21772   0.653   4.578  10.929 -0.0423  0.6459  0.3176
 3380SOL    HW121773   0.574   4.524  10.916 -0.5063  0.6999  3.0643
 3380SOL    HW221774   0.677   4.583  10.836  0.0207  0.7921  0.3429
 3381SOL     OW21775   1.296   1.643  15.248 -0.3518 -0.1414 -0.0851
 3381SOL    HW121776   1.347   1.700  15.191 -1.6558 -0.3218 -1.4422
 3381SOL    HW221777   1.344   1.655  15.330 -1.3476  1.5088  0.2674
 3382SOL     OW21778   3.945   1.957   3.831  0.0814 -0.4934  0.0214
 3382SOL    HW121779   3.857   1.992   3.814 -0.3961 -1.9030 -0.3782
 3382SOL    HW221780   3.938   1.870   3.792  0.6089  0.0689 -1.3282
 3383SOL     OW21781   0.988   3.144   7.716  0.2566 -0.5505  0.0914
 3383SOL    HW121782   0.938   3.156   7.796 -2.4876 -1.2056 -1.5112
 3383SOL    HW221783   1.036   3.063   7.735  0.2327 -1.0010 -1.7630
 3384SOL     OW21784   3.453   2.605   3.670  0.0243  0.3413  0.1990
 3384SOL    HW121785   3.394   2.531   3.656 -0.1230  0.4494  0.2579
 3384SOL    HW221786   3.470   2.618   3.763 -0.9173  0.4802  0.3462
 3385SOL     OW21787   1.165   4.508  14.978 -0.0960 -0.4859  0.1061
 3385SOL    HW121788   1.249   4.547  15.001  0.7054 -1.5943 -0.9701
 3385SOL    HW221789   1.203   4.423  14.957 -0.8618 -1.0075  0.8670
 3386SOL     OW21790   1.496   4.525  11.881 -0.1934  0.0546 -0.3559
 3386SOL    HW121791   1.549   4.489  11.952  3.1501 -0.2009 -2.9716
 3386SOL    HW221792   1.502   4.441  11.835 -0.1795  0.0852 -0.4100
 3387SOL     OW21793   2.670   3.588  16.396 -0.4550 -0.2110 -0.6600
 3387SOL    HW121794   2.631   3.671  16.422 -1.7500 -0.8269 -0.5839
 3387SOL    HW221795   2.762   3.607  16.411 -0.4058 -0.4416 -0.6628
 3388SOL     OW21796   1.030   2.443  15.931  0.1150 -0.2624 -0.0513
 3388SOL    HW121797   0.959   2.382  15.949 -0.3979  0.0781 -0.8817
 3388SOL    HW221798   0.989   2.529  15.938  0.0469 -0.0467 -2.8029
 3389SOL     OW21799   1.046   0.416   8.190 -0.3244  0.2286  0.6550
 3389SOL    HW121800   1.033   0.462   8.107  0.9576  1.2376  1.0088
 3389SOL    HW221801   1.071   0.331   8.153 -2.1892  0.3860 -0.9782
 3390SOL     OW21802   3.408   2.102   3.175 -0.0049 -0.5124 -0.4605
 3390SOL    HW121803   3.454   2.019   3.187  0.6538  0.0257  0.6220
 3390SOL    HW221804   3.331   2.076   3.124 -0.5963  0.3143  0.0150
 3391SOL     OW21805   0.950   0.104   8.327 -0.4982 -0.6665 -0.0369
 3391SOL    HW121806   0.889   0.166   8.366  0.4745 -0.0985  0.5792
 3391SOL    HW221807   0.895   0.031   8.299 -1.7200 -0.0894  0.8873
 3392SOL     OW21808   4.610   1.746   5.725 -0.4567 -0.0017 -0.0193
 3392SOL    HW121809   4.639   1.806   5.794 -0.4163 -1.8350  1.5509
 3392SOL    HW221810   4.515   1.753   5.723 -0.5378 -1.3499 -0.7584
 3393SOL     OW21811   2.951   1.512  12.454  0.5587  0.1372  0.4017
 3393SOL    HW121812   2.973   1.605  12.457 -2.7031  0.8079  3.4153
 3393SOL    HW221813   3.025   1.478  12.503 -0.7804 -2.2223  0.7742
 3394SOL     OW21814   0.302   1.077   7.100 -0.0894  0.6030 -0.4552
 3394SOL    HW121815   0.337   1.091   7.187 -0.0718 -0.7618 -0.2372
 3394SOL    HW221816   0.216   1.043   7.123  0.9779 -0.1247  2.4311
 3395SOL     OW21817   1.613   1.645  11.853  0.2786 -0.2977 -0.5559
 3395SOL    HW121818   1.550   1.593  11.803 -0.1402  0.4676 -0.8354
 3395SOL    HW221819   1.564   1.666  11.932  2.0458 -0.8075  0.6659
 3396SOL     OW21820   4.407   2.944   3.279 -0.0367 -0.2437  0.1154
 3396SOL    HW121821   4.346   2.889   3.328  0.4926 -0.1164  0.9335
 3396SOL    HW221822   4.380   3.032   3.305  0.8714 -0.5019  1.9714
 3397SOL     OW21823   3.443   3.832  17.283 -0.0223  0.0011  0.1870
 3397SOL    HW121824   3.400   3.747  17.270  2.2644 -0.9154 -1.4087
 3397SOL    HW221825   3.397   3.871  17.358 -0.4790 -0.7198  0.2862
 3398SOL     OW21826   0.920   0.301  13.965  0.1248  0.2138  0.2088
 3398SOL    HW121827   0.926   0.222  13.910 -0.1328 -0.8595  1.7358
 3398SOL    HW221828   0.968   0.276  14.044 -0.6196 -0.6662  0.3785
 3399SOL     OW21829   1.765   0.437  16.241 -0.6798 -0.2148 -0.0045
 3399SOL    HW121830   1.700   0.503  16.216 -1.7810 -1.4086 -0.3052
 3399SOL    HW221831   1.845   0.489  16.238 -0.6330 -0.2629  0.5060
 3400SOL     OW21832   4.584   0.982   2.916 -0.4717  0.5791 -0.6359
 3400SOL    HW121833   4.661   0.928   2.896 -0.2056  1.2141 -1.2848
 3400SOL    HW221834   4.531   0.979   2.837  1.1116 -1.1798 -1.6319
 3401SOL     OW21835   2.544   0.810  13.917 -0.2006 -0.4472 -0.1399
 3401SOL    HW121836   2.499   0.892  13.895  1.7316 -0.2821 -3.4566
 3401SOL    HW221837   2.634   0.841  13.919 -0.8238  1.2242  1.6539
 3402SOL     OW21838   1.215   4.042  17.266 -0.4297 -0.2686 -0.5131
 3402SOL    HW121839   1.216   4.137  17.278  0.6001 -0.3992  0.4419
 3402SOL    HW221840   1.177   4.016  17.350  0.0068  0.9199  0.0510
 3403SOL     OW21841   4.123   2.719   8.682  0.0069  0.2940  0.0213
 3403SOL    HW121842   4.048   2.660   8.681 -0.6769  1.1686 -0.6158
 3403SOL    HW221843   4.122   2.730   8.777  0.9740 -2.3904  0.3328
 3404SOL     OW21844   2.124   3.639  12.357 -0.8877  0.1188 -0.2325
 3404SOL    HW121845   2.109   3.728  12.324 -1.3413  0.4170  0.7674
 3404SOL    HW221846   2.090   3.641  12.446  1.4228  0.7723  0.6410
 3405SOL     OW21847   3.474   0.653   6.338 -0.1016 -0.9057  0.0273
 3405SOL    HW121848   3.484   0.653   6.243 -2.1221  0.9596 -0.1770
 3405SOL    HW221849   3.477   0.559   6.356  2.4401 -0.5263  1.6140
 3406SOL     OW21850   2.204   1.352   5.850 -0.2054 -0.1455  0.4905
 3406SOL    HW121851   2.284   1.337   5.799  0.3337  1.7365  0.7757
 3406SOL    HW221852   2.215   1.436   5.895  0.7823 -0.1648  0.2897
 3407SOL     OW21853   1.988   2.085   3.647 -0.0396  0.3117  0.6490
 3407SOL    HW121854   2.025   2.099   3.734  0.0851  0.1789  0.6185
 3407SOL    HW221855   1.905   2.045   3.669 -0.1829  0.9779  1.3089
 3408SOL     OW21856   0.884   0.488  15.292 -0.1682  0.1783  0.1052
 3408SOL    HW121857   0.969   0.481  15.247 -0.0044  1.0373  0.2686
 3408SOL    HW221858   0.925   0.475  15.377  0.0401  1.6822  0.2359
 3409SOL     OW21859   3.354   0.597  14.515  0.1375 -0.1188 -0.0323
 3409SOL    HW121860   3.416   0.670  14.514  1.2373 -1.0590 -0.2958
 3409SOL    HW221861   3.345   0.595  14.610 -0.8270  1.1005 -0.1044
 3410SOL     OW21862   3.887   1.864   7.782  0.3944  0.9251 -0.4009
 3410SOL    HW121863   3.878   1.922   7.858 -0.9667  0.7827 -0.4642
 3410SOL    HW221864   3.948   1.905   7.721 -0.6561  0.9873 -1.4080
 3411SOL     OW21865   1.737   4.645   2.739 -0.5356  0.2311  0.1500
 3411SOL    HW121866   1.821   4.607   2.767 -0.2685 -0.6028 -1.8043
 3411SOL    HW221867   1.721   4.603   2.655 -0.4480 -1.4871  0.9837
 3412SOL     OW21868   2.829   2.812   1.039  0.7090 -0.2756  0.1801
 3412SOL    HW121869   2.889   2.855   1.099  0.6849 -0.9019  0.6583
 3412SOL    HW221870   2.828   2.881   0.973 -0.8153 -0.5738 -0.1037
 3413SOL     OW21871   0.810   2.399  13.769 -0.4958  0.0242 -0.2956
 3413SOL    HW121872   0.823   2.436  13.856 -2.4269 -1.4512  0.6527
 3413SOL    HW221873   0.826   2.476  13.714 -1.1335  0.6003  0.3259
 3414SOL     OW21874   2.726   4.306   0.413 -0.3506  0.0758 -0.7609
 3414SOL    HW121875   2.785   4.231   0.423  1.4731  1.5904  0.0577
 3414SOL    HW221876   2.716   4.315   0.508  1.6960 -0.4026 -0.4967
 3415SOL     OW21877   1.124   2.151  12.867  0.2629 -0.0026 -0.3152
 3415SOL    HW121878   1.135   2.162  12.962 -2.0097  1.3019 -0.2024
 3415SOL    HW221879   1.043   2.201  12.854  0.2885  0.2094  0.3140
 3416SOL     OW21880   1.771   0.756   8.353 -0.0937  0.1630 -0.0566
 3416SOL    HW121881   1.748   0.842   8.388  0.4925  0.3007 -0.0094
 3416SOL    HW221882   1.688   0.710   8.364  1.5575 -2.4896  1.2196
 3417SOL     OW21883   0.861   0.975   9.228 -0.2583 -0.1525  0.2576
 3417SOL    HW121884   0.858   1.047   9.166 -0.5740  0.1792  0.6547
 3417SOL    HW221885   0.783   0.929   9.198 -0.9546  1.5273 -0.4988
 3418SOL     OW21886   1.735   1.390   8.222 -0.0011 -0.3741  0.3150
 3418SOL    HW121887   1.788   1.415   8.298  1.1080 -0.4617 -0.4298
 3418SOL    HW221888   1.790   1.338   8.164 -1.4667  1.3447 -2.6302
 3419SOL     OW21889   3.415   3.283  10.229 -0.0254 -0.0557  0.1015
 3419SOL    HW121890   3.388   3.342  10.299  1.4467  1.2369 -0.4187
 3419SOL    HW221891   3.342   3.221  10.231 -1.1311  1.2389  0.2009
 3420SOL     OW21892   2.056   4.216   1.526 -0.0060 -0.0601  0.4599
 3420SOL    HW121893   2.139   4.264   1.517 -0.3520  0.4654  0.1038
 3420SOL    HW221894   2.007   4.288   1.488 -0.2133 -1.5303 -2.0984
 3421SOL     OW21895   3.059   1.380   9.122 -0.2092  0.1878 -0.7091
 3421SOL    HW121896   2.969   1.406   9.143 -1.0552 -1.8552 -1.6957
 3421SOL    HW221897   3.093   1.383   9.211 -1.1599 -0.6433 -0.3084
 3422SOL     OW21898   0.302   1.754  17.128  0.3962 -0.4233  0.1973
 3422SOL    HW121899   0.335   1.829  17.077  0.4098  0.1224  1.0125
 3422SOL    HW221900   0.319   1.682  17.067  1.6969  0.0699 -0.0343
 3423SOL     OW21901   3.580   3.446   5.805 -0.5021 -0.2115 -0.2583
 3423SOL    HW121902   3.530   3.528   5.804  0.7933  0.5817  0.6101
 3423SOL    HW221903   3.595   3.431   5.899 -1.1387 -0.1749 -0.1460
 3424SOL     OW21904   3.728   1.016   3.843 -0.0750  0.2054  0.3570
 3424SOL    HW121905   3.633   1.020   3.833  0.0428 -1.2492 -1.3484
 3424SOL    HW221906   3.733   0.921   3.851  1.3753  0.1455 -1.2596
 3425SOL     OW21907   1.239   3.881  14.591 -0.4550 -0.0042 -0.2526
 3425SOL    HW121908   1.305   3.872  14.660 -0.4808  1.1122 -0.0744
 3425SOL    HW221909   1.226   3.976  14.583 -0.6528 -0.0082  0.0031
 3426SOL     OW21910   4.299   2.624   5.640 -0.0882  0.3204  0.0947
 3426SOL    HW121911   4.368   2.674   5.597  1.6637 -1.8162  0.4425
 3426SOL    HW221912   4.220   2.663   5.601 -0.5219  0.5043  1.1701
 3427SOL     OW21913   2.191   2.293   7.104  0.0628  0.0696 -0.0683
 3427SOL    HW121914   2.218   2.295   7.196 -1.1104  2.6320  0.2389
 3427SOL    HW221915   2.100   2.325   7.099  0.0052 -0.2114 -0.8305
 3428SOL     OW21916   0.382   4.722   1.475 -0.3187  0.0656  0.1509
 3428SOL    HW121917   0.304   0.027   1.439 -1.4753 -1.0731  1.3543
 3428SOL    HW221918   0.448   0.030   1.421 -2.2045  1.0073 -1.3943
 3429SOL     OW21919   3.139   1.573   4.908 -0.6338  0.3369 -0.8448
 3429SOL    HW121920   3.203   1.507   4.880  0.5654  0.7408  0.9481
 3429SOL    HW221921   3.156   1.595   5.000  0.1645  0.3836 -1.0049
 3430SOL     OW21922   2.935   0.463   1.002 -0.0644 -0.5910 -0.1316
 3430SOL    HW121923   2.902   0.514   0.928 -0.3052  0.7758  0.9109
 3430SOL    HW221924   2.974   0.530   1.058  0.2208 -1.8485  1.1650
 3431SOL     OW21925   0.034   3.816   9.542  0.5612  0.3449 -0.1961
 3431SOL    HW121926   0.068   3.749   9.601 -1.6417  2.9669  3.9992
 3431SOL    HW221927   0.077   3.896   9.572  1.8345 -0.4993  0.2239
 3432SOL     OW21928   4.051   1.129   9.170  0.0980 -0.0200  1.1569
 3432SOL    HW121929   4.121   1.158   9.112 -1.5351  1.7122  0.0704
 3432SOL    HW221930   3.983   1.189   9.140  0.1024 -0.5689  0.0393
 3433SOL     OW21931   3.879   3.458   6.482 -0.1147  0.8453 -0.2540
 3433SOL    HW121932   3.911   3.408   6.557  0.1157  0.4676 -0.6070
 3433SOL    HW221933   3.965   3.493   6.458  1.6271 -2.9295  0.6113
 3434SOL     OW21934   1.139   0.852  12.648 -0.5357 -0.5276  0.0481
 3434SOL    HW121935   1.105   0.941  12.640 -0.6884 -0.7926 -2.1494
 3434SOL    HW221936   1.173   0.841  12.737 -0.6102 -1.8057 -0.0769
 3435SOL     OW21937   2.856   2.173   8.159 -0.0732 -0.5898 -0.0518
 3435SOL    HW121938   2.928   2.154   8.219 -0.5690 -0.7037  0.5023
 3435SOL    HW221939   2.834   2.083   8.133  0.5979 -1.0834  1.1327
 3436SOL     OW21940   1.637   0.164   7.878  0.3045  0.9102  0.4512
 3436SOL    HW121941   1.551   0.204   7.892 -1.2608 -1.7712 -1.4860
 3436SOL    HW221942   1.672   0.239   7.829 -0.0678  0.6486 -0.2244
 3437SOL     OW21943   0.981   0.741   7.343  0.2139  0.2129  0.3831
 3437SOL    HW121944   0.933   0.724   7.261  0.7111  0.8157 -0.0380
 3437SOL    HW221945   0.957   0.834   7.343 -0.1484  0.1194  0.4267
 3438SOL     OW21946   4.175   2.228  14.279  0.0743 -0.5150  0.5421
 3438SOL    HW121947   4.088   2.203  14.310 -1.3716  0.9628 -2.3282
 3438SOL    HW221948   4.135   2.295  14.225 -1.5676 -1.5357  0.4927
 3439SOL     OW21949   3.982   2.873  15.743  0.4460 -0.1501  0.3059
 3439SOL    HW121950   4.064   2.924  15.738  0.2555  0.3296  1.8093
 3439SOL    HW221951   3.944   2.880  15.656 -0.0744 -1.4777  0.4328
 3440SOL     OW21952   0.122   3.906  12.218  0.4050 -0.0506  0.0106
 3440SOL    HW121953   0.143   3.822  12.177 -0.2621  0.6470 -1.7695
 3440SOL    HW221954   0.198   3.964  12.210  1.4470 -1.5883 -1.4583
 3441SOL     OW21955   1.358   0.872   6.555  0.1823  0.0786  0.1303
 3441SOL    HW121956   1.438   0.913   6.522 -0.3104  1.8069  1.1000
 3441SOL    HW221957   1.366   0.895   6.647 -0.2709  1.0597 -0.0807
 3442SOL     OW21958   1.393   1.654   8.585 -0.0780  0.2336  0.2586
 3442SOL    HW121959   1.452   1.582   8.611 -0.6393 -0.1300  0.5266
 3442SOL    HW221960   1.415   1.641   8.493  0.0981  2.5713 -0.0241
 3443SOL     OW21961   1.621   1.521   7.863 -0.3048  0.4091  0.6405
 3443SOL    HW121962   1.568   1.584   7.813 -1.1648 -0.6885  0.1850
 3443SOL    HW221963   1.631   1.446   7.805  0.4453  0.4879  0.6683
 3444SOL     OW21964   0.532   3.608   0.697 -0.1995 -0.0181 -0.6105
 3444SOL    HW121965   0.562   3.659   0.621  2.2354 -1.5533 -0.6844
 3444SOL    HW221966   0.605   3.627   0.755 -0.3673 -2.2950  0.3294
 3445SOL     OW21967   3.926   1.563   9.474  0.1006  0.0411 -0.1010
 3445SOL    HW121968   4.021   1.568   9.472  0.2263 -1.8803  0.7131
 3445SOL    HW221969   3.901   1.650   9.506 -1.3542 -0.3779 -0.0958
 3446SOL     OW21970   3.041   1.266   5.994  0.4099  0.0671  0.0454
 3446SOL    HW121971   3.077   1.353   6.008 -1.3916  1.2035 -2.2785
 3446SOL    HW221972   3.090   1.223   6.064 -0.0932  0.0629  0.3863
 3447SOL     OW21973   0.391   4.687   2.730 -0.6541 -0.2129 -0.3241
 3447SOL    HW121974   0.486   4.695   2.721 -1.1386  3.0658 -2.6925
 3447SOL    HW221975   0.373   4.618   2.794  1.0616 -0.3675 -0.0180
 3448SOL     OW21976   4.417   1.847   0.543 -0.5033 -0.6334  0.2605
 3448SOL    HW121977   4.325   1.825   0.555 -0.6455  0.8460  1.7891
 3448SOL    HW221978   4.466   1.766   0.556 -1.8949 -1.7819 -1.6284
 3449SOL     OW21979   2.239   0.055   4.831  0.4080  0.2954  0.0744
 3449SOL    HW121980   2.157   0.092   4.864  0.2500  0.3318 -0.3512
 3449SOL    HW221981   2.245   4.731   4.905  3.7170  0.8158  0.2342
 3450SOL     OW21982   2.541   3.028   5.110 -0.0672  0.5029  0.3752
 3450SOL    HW121983   2.630   3.057   5.090  0.1710 -0.8051 -0.4387
 3450SOL    HW221984   2.487   3.106   5.117  0.0162  0.7483 -1.8292
 3451SOL     OW21985   1.419   2.913   2.889  0.0647 -0.2762  0.0767
 3451SOL    HW121986   1.428   2.823   2.920  0.7382  0.1169  1.0216
 3451SOL    HW221987   1.459   2.966   2.958 -1.8006 -1.1499  1.8073
 3452SOL     OW21988   3.842   0.942  13.145  0.2762 -0.0548  0.5295
 3452SOL    HW121989   3.889   1.025  13.135 -0.6119  0.6072  1.8421
 3452SOL    HW221990   3.875   0.903  13.064  3.3700 -1.0399  2.2906
 3453SOL     OW21991   1.575   1.372   3.710  0.2523 -0.0183 -0.0105
 3453SOL    HW121992   1.596   1.319   3.633  1.3375  0.2471  0.1000
 3453SOL    HW221993   1.509   1.324   3.761 -0.1577  2.0955  1.4607
 3454SOL     OW21994   2.882   0.185   7.376 -0.5254  0.0102  0.2509
 3454SOL    HW121995   2.924   0.255   7.327  0.2529 -1.0809 -0.6483
 3454SOL    HW221996   2.926   0.105   7.347 -0.4132 -0.0083  0.4743
 3455SOL     OW21997   0.679   2.869   1.076 -0.0471  0.5948 -0.0666
 3455SOL    HW121998   0.635   2.907   1.000  0.3220  0.1400 -0.5017
 3455SOL    HW221999   0.658   2.934   1.144 -0.7860  0.1304  0.1426
 3456SOL     OW22000   0.967   4.156   0.575  0.5062 -0.3916 -0.1315
 3456SOL    HW122001   1.029   4.207   0.524 -0.2861 -0.6322 -1.3363
 3456SOL    HW222002   0.898   4.158   0.509  0.0349 -0.0862  0.3690
 3457SOL     OW22003   4.163   1.384  10.648 -0.4344 -0.3255  0.4411
 3457SOL    HW122004   4.141   1.295  10.675  0.0435  0.3239  2.9307
 3457SOL    HW222005   4.197   1.413  10.732 -0.8762 -1.8217  1.1218
 3458SOL     OW22006   0.216   1.060   6.333 -0.3176  0.2008 -0.1368
 3458SOL    HW122007   0.141   1.092   6.383  0.0194  1.4997 -0.4599
 3458SOL    HW222008   0.267   1.141   6.327  1.4970 -0.9097  0.2326
 3459SOL     OW22009   3.327   2.858  16.518 -0.2236 -0.7681  0.2293
 3459SOL    HW122010   3.260   2.896  16.462  0.0830 -1.1506 -0.3986
 3459SOL    HW222011   3.388   2.807  16.465  0.2733  1.8062 -1.6574
 3460SOL     OW22012   0.064   0.040   8.415  0.0414 -0.0912 -0.2948
 3460SOL    HW122013   0.111   4.715   8.472  0.0876 -0.9867 -1.2843
 3460SOL    HW222014   0.038   4.713   8.347 -2.7072 -0.7046  1.3211
 3461SOL     OW22015   2.577   0.689  17.363  0.0897 -0.0650  0.3679
 3461SOL    HW122016   2.628   0.608  17.357 -1.1064 -0.8742  1.0957
 3461SOL    HW222017   2.647   0.747  17.393  0.4605  1.3045 -3.1026
 3462SOL     OW22018   2.430   2.988  11.028 -0.1201 -0.1755 -0.3640
 3462SOL    HW122019   2.465   2.964  10.942 -1.2707 -0.0594 -0.8586
 3462SOL    HW222020   2.359   2.929  11.052  0.7346 -0.3657  1.7604
 3463SOL     OW22021   0.927   3.570  16.035  0.0906  0.4485 -0.4537
 3463SOL    HW122022   0.951   3.651  16.079 -0.1052  1.4905 -2.2788
 3463SOL    HW222023   0.834   3.581  16.016 -0.3642 -1.6366  0.5349
 3464SOL     OW22024   3.315   0.100  16.359 -0.1242  0.5657 -0.1115
 3464SOL    HW122025   3.409   0.121  16.353 -0.1428  0.5131 -0.5218
 3464SOL    HW222026   3.310   0.006  16.379 -4.1320  0.8370  0.1645
 3465SOL     OW22027   4.692   4.346   7.175 -0.1018 -0.4048 -0.0395
 3465SOL    HW122028   4.603   4.366   7.203  0.1833  1.0841 -0.2294
 3465SOL    HW222029   4.689   4.252   7.195 -1.6259 -0.2631  0.3958
 3466SOL     OW22030   4.365   0.146   1.658 -0.4373  0.1305 -0.0055
 3466SOL    HW122031   4.447   0.162   1.704  0.9730 -0.4954 -2.2789
 3466SOL    HW222032   4.343   0.232   1.623  1.8188  1.1810  1.1587
 3467SOL     OW22033   2.591   3.826  17.574  0.3299  0.0592 -0.8581
 3467SOL    HW122034   2.658   3.883  17.538  0.6872 -0.5172 -1.0954
 3467SOL    HW222035   2.628   3.739  17.557 -1.0168 -0.3409 -1.7250
 3468SOL     OW22036   0.521   3.370   8.145  0.2127 -0.0461  0.2956
 3468SOL    HW122037   0.454   3.334   8.087  1.5573  0.2235 -1.4128
 3468SOL    HW222038   0.494   3.336   8.231  1.0895 -0.7550  0.2973
 3469SOL     OW22039   4.647   3.417  15.759 -0.2786 -0.0631  0.7479
 3469SOL    HW122040   4.620   3.505  15.731  0.8975  0.1796  0.3880
 3469SOL    HW222041   4.723   3.427  15.815  2.3019  1.1407 -2.9626
 3470SOL     OW22042   4.287   2.909   2.047 -0.1932 -0.3462 -0.4027
 3470SOL    HW122043   4.369   2.922   1.999  0.1160 -1.2127 -0.1161
 3470SOL    HW222044   4.304   2.971   2.118  1.4291  0.3011 -1.3533
 3471SOL     OW22045   3.883   2.768   8.054 -0.3280 -0.4464  0.2052
 3471SOL    HW122046   3.882   2.838   7.989  0.4099 -0.5758  0.0518
 3471SOL    HW222047   3.817   2.812   8.108  0.2510 -0.3380  0.8224
 3472SOL     OW22048   4.477   2.987  11.185  0.1165  0.1124  0.2526
 3472SOL    HW122049   4.482   2.956  11.276  0.0821 -2.0951 -0.4999
 3472SOL    HW222050   4.431   3.070  11.198  0.0171  0.1449 -0.3209
 3473SOL     OW22051   0.287   1.835   2.359 -0.1188 -0.1326 -0.5561
 3473SOL    HW122052   0.226   1.818   2.286 -0.6946  0.5379 -0.2246
 3473SOL    HW222053   0.367   1.858   2.312  0.1928  0.3764  0.2411
 3474SOL     OW22054   1.898   3.443   5.409  0.2371  0.2128  0.1789
 3474SOL    HW122055   1.869   3.527   5.444  2.2408 -0.0362  2.4743
 3474SOL    HW222056   1.986   3.468   5.382  0.0720 -0.5804 -1.0662
 3475SOL     OW22057   0.412   3.701  12.633 -0.3675 -0.4038 -0.2777
 3475SOL    HW122058   0.476   3.689  12.703  0.6907  0.4135 -1.1078
 3475SOL    HW222059   0.364   3.775  12.671 -0.3328 -0.7327  0.4122
 3476SOL     OW22060   0.539   0.064   8.168 -0.3081 -0.0760  0.4173
 3476SOL    HW122061   0.488   0.046   8.090  0.6528 -0.8765 -0.0177
 3476SOL    HW222062   0.478   0.100   8.233 -0.7305 -0.8316  0.4312
 3477SOL     OW22063   4.395   4.694  12.027 -0.3276  0.5013  0.5558
 3477SOL    HW122064   4.334   4.690  11.954  0.9802 -4.0512 -0.2603
 3477SOL    HW222065   4.415   0.050  12.042 -0.2539  0.6950 -0.8030
 3478SOL     OW22066   1.581   1.123   0.655 -0.4643 -0.4530  0.9297
 3478SOL    HW122067   1.601   1.063   0.583  0.4330 -1.8602  2.3724
 3478SOL    HW222068   1.493   1.099   0.685  0.3846 -4.1293  0.4865
 3479SOL     OW22069   1.647   1.550   5.329 -0.3976 -0.6087 -0.2514
 3479SOL    HW122070   1.581   1.503   5.380 -0.9125  1.4431  0.9650
 3479SOL    HW222071   1.722   1.492   5.331 -0.0126 -0.0641  0.8206
 3480SOL     OW22072   1.933   1.145  12.824  0.4385  0.2178  0.0214
 3480SOL    HW122073   1.852   1.172  12.779  0.3392 -1.5952 -0.8631
 3480SOL    HW222074   1.916   1.053  12.842 -2.6626  0.4449 -1.6415
 3481SOL     OW22075   2.795   2.346   2.658  0.0522  0.2802  0.0539
 3481SOL    HW122076   2.740   2.385   2.589 -0.9642 -2.4470 -0.6790
 3481SOL    HW222077   2.787   2.254   2.632 -1.7925  0.2903  0.5445
 3482SOL     OW22078   0.402   1.272   4.625  0.7507 -0.6365 -0.1701
 3482SOL    HW122079   0.408   1.357   4.668 -3.4108 -0.7204  0.5928
 3482SOL    HW222080   0.311   1.273   4.593  0.3584  0.3000  0.9622
 3483SOL     OW22081   0.437   0.602   6.863  0.0797 -0.4497 -0.3224
 3483SOL    HW122082   0.384   0.673   6.898  0.6266  0.0925 -0.5801
 3483SOL    HW222083   0.392   0.584   6.780 -2.5557  0.1326  0.9827
 3484SOL     OW22084   4.624   3.829   7.896  0.4088 -0.1862  0.3927
 3484SOL    HW122085   4.625   3.755   7.957  2.8915 -0.1423  0.3682
 3484SOL    HW222086   4.655   3.894   7.959 -0.0469 -0.4932  0.9410
 3485SOL     OW22087   3.191   2.072   3.751 -0.5292  0.4402 -0.5957
 3485SOL    HW122088   3.137   2.108   3.680 -2.7665  1.5142  1.6414
 3485SOL    HW222089   3.130   2.087   3.823 -0.4226  1.1417 -0.6579
 3486SOL     OW22090   1.435   1.518   7.525  0.0205  0.2806 -0.1603
 3486SOL    HW122091   1.387   1.599   7.543 -0.1932 -0.0572  0.7816
 3486SOL    HW222092   1.426   1.526   7.430  2.4867  0.5610 -0.3761
 3487SOL     OW22093   0.004   1.693   3.633 -0.0172  0.0830  0.0381
 3487SOL    HW122094   4.666   1.692   3.692  0.5016  0.9897  0.6967
 3487SOL    HW222095   0.057   1.615   3.652 -0.2237  0.4569  2.1141
 3488SOL     OW22096   2.252   3.945  13.426  0.3624  0.1417  0.0035
 3488SOL    HW122097   2.199   3.912  13.499 -1.7160  0.6291 -1.3096
 3488SOL    HW222098   2.261   4.036  13.452 -0.2385  0.2602 -0.2254
 3489SOL     OW22099   4.449   0.506   1.968  0.6409  0.5429 -0.3091
 3489SOL    HW122100   4.446   0.422   2.014  1.0797  0.1502 -0.9889
 3489SOL    HW222101   4.533   0.541   1.995  0.3515 -2.3652  4.2511
 3490SOL     OW22102   0.355   3.423   5.909  0.0409 -0.1288  0.5044
 3490SOL    HW122103   0.420   3.356   5.930 -0.7679 -0.4692  1.9473
 3490SOL    HW222104   0.287   3.376   5.861 -1.6889  1.0857  1.7519
 3491SOL     OW22105   2.690   0.138   0.014 -1.1051 -0.2554 -0.0994
 3491SOL    HW122106   2.597   0.142  17.738 -0.9774  1.9831 -0.2873
 3491SOL    HW222107   2.706   0.046  17.736 -2.1759 -0.3569 -0.4317
 3492SOL     OW22108   3.605   4.354  13.302  0.1821  0.7201  0.0357
 3492SOL    HW122109   3.644   4.425  13.250  1.4475 -0.9428 -1.3327
 3492SOL    HW222110   3.561   4.401  13.372 -0.0295  2.6311 -1.3685
 3493SOL     OW22111   2.654   2.128   2.554 -0.4768 -0.5721  0.0902
 3493SOL    HW122112   2.658   2.178   2.472  1.8042 -0.1606  0.4456
 3493SOL    HW222113   2.635   2.041   2.520 -0.1236 -0.8285  0.5540
 3494SOL     OW22114   2.668   0.930   4.567 -0.3285 -0.6838 -0.6052
 3494SOL    HW122115   2.661   0.992   4.494  1.5014  2.0500  1.5115
 3494SOL    HW222116   2.743   0.954   4.621 -0.9833 -0.7135  0.3109
 3495SOL     OW22117   1.382   3.619   9.149 -0.4910  0.0087  0.5026
 3495SOL    HW122118   1.432   3.696   9.121  0.5823 -0.6685  0.5374
 3495SOL    HW222119   1.449   3.551   9.155  0.4714  0.9678  0.5978
 3496SOL     OW22120   2.382   3.388   7.565  0.1647 -0.2168  0.1682
 3496SOL    HW122121   2.339   3.424   7.487  0.0325 -1.4881 -0.3499
 3496SOL    HW222122   2.476   3.390   7.546  0.1353 -2.7000 -0.2346
 3497SOL     OW22123   3.936   4.412   5.167  0.3503  0.1617 -0.1474
 3497SOL    HW122124   3.986   4.487   5.135 -0.6429  0.7764 -0.2728
 3497SOL    HW222125   3.882   4.399   5.089  1.6644 -0.4402 -0.9590
 3498SOL     OW22126   0.940   2.028  13.405 -0.2828 -0.3799  0.3913
 3498SOL    HW122127   0.914   2.107  13.359  1.3979  0.4407  0.8598
 3498SOL    HW222128   1.019   2.054  13.453 -0.6761 -0.1494  0.9226
 3499SOL     OW22129   3.584   2.075  10.281  0.4689  0.1340 -0.1681
 3499SOL    HW122130   3.525   2.088  10.355 -0.5441 -0.1635 -0.9132
 3499SOL    HW222131   3.532   2.047  10.206 -0.6785 -0.0800  0.7048
 3500SOL     OW22132   1.623   0.298  10.741  0.1101 -0.5081  0.2317
 3500SOL    HW122133   1.664   0.366  10.794 -0.6354  0.3228 -0.2585
 3500SOL    HW222134   1.542   0.318  10.788  0.2503 -0.6283  0.5256
 3501SOL     OW22135   0.074   1.955   8.510 -0.2613 -0.2832 -0.4128
 3501SOL    HW122136   0.134   1.996   8.448 -0.8165 -0.0086 -0.7627
 3501SOL    HW222137   0.020   2.024   8.548 -0.7022 -1.2023  0.6444
 3502SOL     OW22138   0.649   0.312   5.551  0.4279  0.3616  0.2484
 3502SOL    HW122139   0.600   0.344   5.626  0.6610 -0.5631  0.8001
 3502SOL    HW222140   0.588   0.339   5.482 -0.5900  0.2208  1.1146
 3503SOL     OW22141   4.402   1.867   5.236  0.2769 -0.3355  0.6146
 3503SOL    HW122142   4.344   1.859   5.311 -1.8736  0.2837 -0.9800
 3503SOL    HW222143   4.427   1.775   5.234  1.2239  0.0119 -2.8904
 3504SOL     OW22144   4.722   3.795   8.380 -0.1151 -0.2149  0.1074
 3504SOL    HW122145   4.688   3.803   8.291  0.4926  0.9538 -0.0091
 3504SOL    HW222146   4.659   3.848   8.428 -0.0735  0.6866 -0.8393
 3505SOL     OW22147   4.065   2.047   9.084 -0.1509 -0.8960 -0.1704
 3505SOL    HW122148   4.147   2.056   9.037 -0.5429  1.4275 -0.4150
 3505SOL    HW222149   4.097   1.989   9.153 -0.0585  1.5699  1.8648
 3506SOL     OW22150   1.303   0.740  10.061  0.5733 -0.0294 -0.4274
 3506SOL    HW122151   1.304   0.772  10.151 -1.1160 -0.0809 -0.3929
 3506SOL    HW222152   1.343   0.809  10.008 -0.1282  0.7385  0.0450
 3507SOL     OW22153   3.570   1.731   4.386 -0.1708  0.4408 -0.1091
 3507SOL    HW122154   3.570   1.664   4.317  1.6217 -0.7032  0.9968
 3507SOL    HW222155   3.509   1.695   4.451 -2.8054  0.4670 -2.5502
 3508SOL     OW22156   0.812   1.616   5.134  0.2047 -0.0122 -0.4779
 3508SOL    HW122157   0.765   1.624   5.217  0.4088  1.8896 -0.5364
 3508SOL    HW222158   0.766   1.663   5.065  0.4197 -0.2666 -0.7932
 3509SOL     OW22159   3.565   3.251   4.390  0.4373 -0.2611 -0.2671
 3509SOL    HW122160   3.533   3.336   4.359  0.8316  0.3024  0.8568
 3509SOL    HW222161   3.487   3.205   4.358  0.7216 -0.6519 -0.4046
 3510SOL     OW22162   3.463   0.562   5.625 -0.0993  0.3339  0.0746
 3510SOL    HW122163   3.477   0.644   5.578 -1.0143  0.7493  0.5380
 3510SOL    HW222164   3.541   0.515   5.595  0.6702 -0.1375  2.7753
 3511SOL     OW22165   0.139   1.454   3.506 -0.4014 -0.2887  0.1193
 3511SOL    HW122166   0.128   1.395   3.581  0.5892 -0.5881  0.0257
 3511SOL    HW222167   0.047   1.467   3.482 -0.7358  2.1031  2.8684
 3512SOL     OW22168   2.254   3.919   0.319 -0.4709  0.1364  0.1111
 3512SOL    HW122169   2.203   3.911   0.400 -2.3371  1.5094 -0.9316
 3512SOL    HW222170   2.334   3.869   0.336 -1.4538 -0.2523  3.5504
 3513SOL     OW22171   4.022   4.000   3.340  0.1473  0.0232 -0.2137
 3513SOL    HW122172   3.993   4.029   3.254 -0.4552 -0.0725 -0.0400
 3513SOL    HW222173   3.940   3.968   3.378  0.3212  0.1446  0.2711
 3514SOL     OW22174   2.731   4.627  17.654  0.2902 -0.0755 -0.3858
 3514SOL    HW122175   2.641   4.625  17.623  0.9168 -1.3785 -2.1469
 3514SOL    HW222176   2.771   4.604  17.570  3.1523 -1.2731  1.2863
 3515SOL     OW22177   2.384   3.824   4.934 -0.2918 -0.1571 -0.3175
 3515SOL    HW122178   2.464   3.852   4.978  0.2600 -1.7186 -0.3262
 3515SOL    HW222179   2.379   3.730   4.947 -3.3350 -0.0008 -0.2027
 3516SOL     OW22180   1.824   0.809   5.038  0.4852  0.4330 -0.0335
 3516SOL    HW122181   1.819   0.800   4.943  1.5599 -0.9325  0.0338
 3516SOL    HW222182   1.757   0.875   5.057  0.6284 -0.1488  2.5653
 3517SOL     OW22183   4.239   0.506  12.781 -0.9091  0.3928 -0.4014
 3517SOL    HW122184   4.265   0.591  12.818  2.4156 -0.4113 -0.8500
 3517SOL    HW222185   4.277   0.452  12.850  2.2343  1.4922 -1.2603
 3518SOL     OW22186   3.430   3.741   5.068  0.1458 -0.3589  0.5893
 3518SOL    HW122187   3.476   3.795   5.132  0.6697  2.0602 -1.8337
 3518SOL    HW222188   3.503   3.698   5.024 -0.9199 -0.5648 -0.9899
 3519SOL     OW22189   1.660   2.646   7.455  0.3447  0.1238  0.0441
 3519SOL    HW122190   1.673   2.675   7.365 -2.1061 -0.9719 -0.6633
 3519SOL    HW222191   1.653   2.727   7.505  0.1917 -0.0995  0.3872
 3520SOL     OW22192   0.573   3.655   4.804 -0.0842  0.3867  0.5672
 3520SOL    HW122193   0.532   3.569   4.807  0.4510  0.0942 -0.4445
 3520SOL    HW222194   0.661   3.633   4.833 -0.5330 -1.6035  0.4338
 3521SOL     OW22195   3.066   3.205   5.036 -0.2337 -0.0503 -0.3336
 3521SOL    HW122196   3.059   3.222   4.942  1.8805 -0.0771 -0.5087
 3521SOL    HW222197   3.126   3.273   5.067  0.0060  0.2806 -1.5222
 3522SOL     OW22198   1.880   4.075   5.105 -0.3104 -0.1086  0.3040
 3522SOL    HW122199   1.879   4.168   5.083 -1.9847 -0.4017 -0.8596
 3522SOL    HW222200   1.788   4.056   5.126 -0.1413 -1.1224  0.1465
 3523SOL     OW22201   2.129   0.127   6.277 -0.2458  0.1605 -0.4573
 3523SOL    HW122202   2.120   0.180   6.356  2.5128 -1.5832  1.0594
 3523SOL    HW222203   2.085   0.043   6.294 -1.8682  1.0650 -0.2362
 3524SOL     OW22204   0.843   4.044  16.014 -0.1446 -0.2334  0.1288
 3524SOL    HW122205   0.781   4.092  16.068 -1.0455 -2.4209  1.0057
 3524SOL    HW222206   0.896   4.116  15.977  1.0712 -2.0898 -1.7817
 3525SOL     OW22207   0.335   0.813   7.858  0.1935 -0.0494  0.1001
 3525SOL    HW122208   0.251   0.856   7.877 -0.0422 -1.7457  2.8741
 3525SOL    HW222209   0.299   0.761   7.786 -0.9176  0.6519  0.1491
 3526SOL     OW22210   0.979   1.193   7.140  0.4719 -0.4303  0.4200
 3526SOL    HW122211   0.924   1.269   7.158  0.4055 -0.0951 -1.2244
 3526SOL    HW222212   1.069   1.224   7.144  0.2879 -0.0379  1.4811
 3527SOL     OW22213   4.002   2.823   6.192  0.4816 -0.0281 -0.0139
 3527SOL    HW122214   3.921   2.838   6.144  0.4741 -1.4315 -0.4201
 3527SOL    HW222215   4.037   2.752   6.138  1.0094  1.9891 -2.3586
 3528SOL     OW22216   4.168   1.209   8.338  0.0366  0.3646 -0.8857
 3528SOL    HW122217   4.222   1.216   8.259  1.1789 -0.2139 -0.1517
 3528SOL    HW222218   4.243   1.195   8.395 -0.8277  1.2013  0.4693
 3529SOL     OW22219   2.406   2.007   8.228 -0.4461 -0.4269  0.1411
 3529SOL    HW122220   2.355   2.088   8.233 -0.8762 -0.6486 -0.6755
 3529SOL    HW222221   2.418   2.008   8.133  0.1251  0.3084  0.2275
 3530SOL     OW22222   0.293   0.579   2.637  0.9248 -0.3306  0.1303
 3530SOL    HW122223   0.223   0.644   2.628  0.6525 -0.0283  4.2036
 3530SOL    HW222224   0.275   0.524   2.713  0.3074 -0.4852 -0.1305
 3531SOL     OW22225   3.321   1.251   7.144  0.5964 -0.1835 -0.1161
 3531SOL    HW122226   3.274   1.168   7.158  1.9980 -0.8276  0.7834
 3531SOL    HW222227   3.407   1.230   7.109  0.9830  0.3707  0.5092
 3532SOL     OW22228   0.375   3.621   3.509  0.2590 -0.3114 -0.6071
 3532SOL    HW122229   0.383   3.554   3.441 -0.1088 -1.8511  0.8685
 3532SOL    HW222230   0.299   3.593   3.561 -0.5088 -0.6549 -1.9272
 3533SOL     OW22231   2.369   3.567   3.231 -0.0711  0.2389  0.3911
 3533SOL    HW122232   2.286   3.520   3.240 -0.8953  1.4479 -0.7072
 3533SOL    HW222233   2.396   3.593   3.319  2.5140  0.4018 -0.4469
 3534SOL     OW22234   3.540   0.820   2.236 -0.6421  0.2710 -0.0677
 3534SOL    HW122235   3.581   0.735   2.253 -1.1321  0.1596  0.5555
 3534SOL    HW222236   3.618   0.874   2.232 -1.7897  2.0578  1.7020
 3535SOL     OW22237   2.755   2.171   6.390  0.5520  0.2458  0.1040
 3535SOL    HW122238   2.808   2.243   6.355 -0.7311 -0.0846 -2.4936
 3535SOL    HW222239   2.700   2.145   6.316  1.1263 -0.1641 -0.1816
 3536SOL     OW22240   3.242   0.990   7.231  0.1933  0.5546  0.3565
 3536SOL    HW122241   3.151   0.960   7.222  0.0443  1.3929 -1.0552
 3536SOL    HW222242   3.279   0.913   7.274  2.2424  2.3274  1.7462
 3537SOL     OW22243   4.333   0.847   1.811 -0.2248  0.2600  0.2323
 3537SOL    HW122244   4.377   0.816   1.732 -1.1714  2.1222 -1.0003
 3537SOL    HW222245   4.411   0.861   1.865 -0.1217 -2.5811  0.8524
 3538SOL     OW22246   2.439   4.659   3.969  0.1133  0.0699 -0.0533
 3538SOL    HW122247   2.425   0.015   3.987 -1.3002 -0.1795  0.1284
 3538SOL    HW222248   2.350   4.630   3.945  0.8111 -1.3983 -0.8936
 3539SOL     OW22249   4.051   2.851   5.840 -0.3023  0.0392 -0.5785
 3539SOL    HW122250   4.142   2.835   5.865 -0.2641  2.2322  0.7160
 3539SOL    HW222251   4.042   2.821   5.749  0.6681 -0.1426 -0.6113
 3540SOL     OW22252   1.914   2.719  16.163 -0.5976  0.2267 -0.5815
 3540SOL    HW122253   1.964   2.661  16.106  0.1117  1.7554 -1.5004
 3540SOL    HW222254   1.905   2.803  16.119  1.3980 -0.4616 -2.3166
 3541SOL     OW22255   3.717   4.409   7.265  0.5674 -0.0674 -0.3876
 3541SOL    HW122256   3.686   4.491   7.225  0.6474 -0.0173 -0.3475
 3541SOL    HW222257   3.793   4.442   7.314 -0.4191  3.9154 -1.4973
 3542SOL     OW22258   1.235   2.037  10.049 -0.1613  0.4964 -0.1992
 3542SOL    HW122259   1.268   2.089   9.976  0.9398 -0.8862 -0.6748
 3542SOL    HW222260   1.185   1.972   9.999 -1.1029  0.4903  0.7434
 3543SOL     OW22261   3.722   4.066   4.093  0.1394 -0.0130 -0.0735
 3543SOL    HW122262   3.797   4.052   4.035 -0.1488 -1.1655 -0.1863
 3543SOL    HW222263   3.765   4.108   4.167  0.7009 -1.8814  0.6584
 3544SOL     OW22264   1.331   1.121   5.301 -0.3493  0.2618 -0.0986
 3544SOL    HW122265   1.406   1.140   5.244 -0.6625  1.9838  0.0674
 3544SOL    HW222266   1.277   1.197   5.277 -2.9314 -1.2440  1.0219
 3545SOL     OW22267   2.125   3.151   6.643 -0.0786  0.4071 -0.1531
 3545SOL    HW122268   2.150   3.089   6.711 -2.2237 -1.0978 -0.7305
 3545SOL    HW222269   2.083   3.225   6.686  1.9469  0.2217  2.1525
 3546SOL     OW22270   2.924   4.326   7.863 -0.5104 -0.2390  0.0601
 3546SOL    HW122271   2.984   4.386   7.908  0.1650 -0.7561 -0.1426
 3546SOL    HW222272   2.870   4.291   7.934  0.2929 -1.2602  0.1682
 3547SOL     OW22273   2.675   4.573  14.481  0.1602 -0.0992 -0.1765
 3547SOL    HW122274   2.759   4.611  14.455  0.3444  0.0845  0.6834
 3547SOL    HW222275   2.717   4.489  14.499  0.6249 -0.0503 -1.0356
 3548SOL     OW22276   4.366   1.434   2.289 -0.6343  0.0436  0.0670
 3548SOL    HW122277   4.324   1.373   2.228 -1.2536  0.5174  0.0202
 3548SOL    HW222278   4.349   1.393   2.374 -0.0056 -1.8405 -0.7021
 3549SOL     OW22279   4.693   2.131  10.829 -0.0039 -0.3090 -0.0448
 3549SOL    HW122280   4.698   2.173  10.915  0.5330  1.6672 -1.0346
 3549SOL    HW222281   4.680   2.204  10.767 -1.5888 -0.7747 -0.2602
 3550SOL     OW22282   0.092   4.172   9.323 -0.1692 -0.4039 -0.0366
 3550SOL    HW122283   4.735   4.181   9.346  0.5630  2.3312  1.8286
 3550SOL    HW222284   0.096   4.224   9.242  1.7424  1.0188  0.9920
 3551SOL     OW22285   0.141   3.542  10.750 -0.2788 -0.1177 -0.0943
 3551SOL    HW122286   0.192   3.623  10.740 -1.9378  1.0470  0.9345
 3551SOL    HW222287   0.063   3.565  10.699  0.4378  1.2140 -0.6106
 3552SOL     OW22288   0.250   2.600   4.974  1.1567 -0.0331  0.1554
 3552SOL    HW122289   0.212   2.655   5.044  1.1115  1.2723 -0.8963
 3552SOL    HW222290   0.312   2.657   4.930  2.2309 -0.6029  0.9432
 3553SOL     OW22291   3.725   1.406   3.928  0.2604  0.5146 -0.0174
 3553SOL    HW122292   3.746   1.351   4.003  0.4641  1.9475  0.9783
 3553SOL    HW222293   3.799   1.376   3.875  0.1011  2.1520 -1.1792
 3554SOL     OW22294   2.663   3.059   1.918 -0.0869 -0.0817 -0.5537
 3554SOL    HW122295   2.610   3.104   1.983  0.6192  1.3422 -0.9488
 3554SOL    HW222296   2.742   3.039   1.968  0.5772  2.7057 -0.5101
 3555SOL     OW22297   4.294   3.520   7.765  0.4185  0.0625 -0.4512
 3555SOL    HW122298   4.330   3.608   7.761 -0.0836  0.2302 -1.2654
 3555SOL    HW222299   4.203   3.549   7.771 -0.4516 -3.4065  3.0165
 3556SOL     OW22300   2.247   0.439   4.402  0.1620  0.7266  0.0275
 3556SOL    HW122301   2.322   0.389   4.436  0.8535  1.4390 -0.4632
 3556SOL    HW222302   2.194   0.459   4.480  0.7429 -0.5475  0.7527
 3557SOL     OW22303   0.677   0.328  11.472 -0.2302  0.3764 -0.2085
 3557SOL    HW122304   0.635   0.323  11.386  1.5130  1.8712 -1.1509
 3557SOL    HW222305   0.599   0.307  11.523  0.1181  0.6598  0.4388
 3558SOL     OW22306   3.282   0.565   5.328 -0.0134  0.1955 -0.5259
 3558SOL    HW122307   3.343   0.638   5.338 -0.0025 -0.0457  1.1621
 3558SOL    HW222308   3.286   0.527   5.416 -3.9076 -1.1806 -0.9183
 3559SOL     OW22309   1.528   1.886   7.552  0.3573 -0.4749  0.6486
 3559SOL    HW122310   1.615   1.883   7.513  0.7919  1.0343  1.5119
 3559SOL    HW222311   1.553   1.820   7.617 -1.7718 -0.1199  1.8576
 3560SOL     OW22312   2.585   1.292   7.136 -0.5736  0.1767 -0.1691
 3560SOL    HW122313   2.538   1.267   7.215  0.3764  0.9054  0.6160
 3560SOL    HW222314   2.639   1.214   7.121 -0.6391 -0.1226  1.1660
 3561SOL     OW22315   0.118   1.171   2.653 -0.4073  0.3448 -0.0582
 3561SOL    HW122316   0.026   1.145   2.663  0.1130 -2.3474 -2.0235
 3561SOL    HW222317   0.138   1.199   2.742 -0.9540 -1.7015  0.7166
 3562SOL     OW22318   2.139   3.825   4.704 -0.0617 -0.1439  0.2570
 3562SOL    HW122319   2.087   3.875   4.766 -2.8688 -1.6636 -0.8677
 3562SOL    HW222320   2.224   3.862   4.727 -1.1697  1.6787  1.4134
 3563SOL     OW22321   1.405   1.068  10.931  0.0316  0.2004  0.1575
 3563SOL    HW122322   1.389   1.156  10.965 -1.9721  0.5390 -1.6701
 3563SOL    HW222323   1.500   1.070  10.943  0.2247  0.7476 -1.4330
 3564SOL     OW22324   3.106   4.647  16.901 -0.1208  0.0770  0.5262
 3564SOL    HW122325   3.079   4.725  16.950  1.3879  0.7273  0.3376
 3564SOL    HW222326   3.033   4.588  16.914  1.0327 -1.1342  1.5388
 3565SOL     OW22327   3.174   4.561  16.366  0.5303  0.4161 -0.2546
 3565SOL    HW122328   3.120   4.618  16.313 -0.9250 -0.0984  0.6732
 3565SOL    HW222329   3.115   4.537  16.438  0.9442  0.4382  0.0991
 3566SOL     OW22330   0.520   2.975  16.260  0.2263  0.2236 -0.1240
 3566SOL    HW122331   0.542   3.065  16.285 -0.2940  0.5636 -0.8866
 3566SOL    HW222332   0.494   2.993  16.170 -1.1093 -0.1357  0.2009
 3567SOL     OW22333   2.352   3.407   3.472  0.0745  0.4081  0.3048
 3567SOL    HW122334   2.268   3.408   3.517 -0.9577 -2.2648 -1.6163
 3567SOL    HW222335   2.417   3.440   3.534  0.0007 -0.0161  0.6046
 3568SOL     OW22336   1.801   1.852   2.269 -0.3176 -0.4908 -0.1236
 3568SOL    HW122337   1.840   1.807   2.343 -1.2722 -0.7980  0.1962
 3568SOL    HW222338   1.872   1.884   2.213 -1.3581  0.1198 -1.1059
 3569SOL     OW22339   0.107   2.276  13.225 -0.5781  0.2934 -0.0482
 3569SOL    HW122340   0.015   2.257  13.209 -0.8597  1.0751  0.6324
 3569SOL    HW222341   0.134   2.193  13.264  2.1852  0.5367 -1.4375
 3570SOL     OW22342   3.082   0.711   2.731 -0.3111 -0.1485  0.2100
 3570SOL    HW122343   3.043   0.792   2.696  2.1826  1.8512  2.1020
 3570SOL    HW222344   3.019   0.650   2.691  0.7712 -0.8393 -0.4241
 3571SOL     OW22345   3.775   3.253   7.053 -0.1397  0.3828 -0.0195
 3571SOL    HW122346   3.807   3.320   7.113 -1.1099  0.8718 -0.0466
 3571SOL    HW222347   3.764   3.173   7.105  0.9819 -0.4943 -1.1395
 3572SOL     OW22348   2.036   2.430   5.245  1.0375  0.0477 -0.3727
 3572SOL    HW122349   1.993   2.440   5.160  2.7115 -4.1912 -1.7271
 3572SOL    HW222350   2.055   2.523   5.255 -1.2730  0.2191  2.5892
 3573SOL     OW22351   0.019   4.693   1.704 -0.4534  0.4382  0.5498
 3573SOL    HW122352   4.676   4.716   1.751 -0.6733  0.1159  0.3383
 3573SOL    HW222353   0.070   4.636   1.761 -1.5507 -1.2412 -0.1271
 3574SOL     OW22354   2.532   1.980   5.626 -0.1282  0.1386  0.0535
 3574SOL    HW122355   2.484   1.938   5.697  1.5702  0.9407  1.7061
 3574SOL    HW222356   2.527   2.075   5.641 -0.6359  0.3514 -1.5328
 3575SOL     OW22357   1.064   2.338  16.988 -0.1113 -0.1120  0.0705
 3575SOL    HW122358   1.155   2.366  17.001  0.1380 -1.9045  2.1149
 3575SOL    HW222359   1.041   2.412  16.931  1.5170  2.0242  2.2112
 3576SOL     OW22360   1.439   3.011   8.566  0.8207  0.3656  0.2987
 3576SOL    HW122361   1.400   2.955   8.498 -1.6565 -2.1212  3.7520
 3576SOL    HW222362   1.388   3.091   8.561  2.1181  1.2627  1.2444
 3577SOL     OW22363   3.795   1.651   5.451  0.2762 -0.2943 -0.1828
 3577SOL    HW122364   3.724   1.591   5.472  0.8944  0.1446  3.1368
 3577SOL    HW222365   3.782   1.739   5.485  2.4117  0.6017 -1.6981
 3578SOL     OW22366   1.870   3.494  15.100  0.1097 -0.1561  0.2063
 3578SOL    HW122367   1.782   3.533  15.103  0.0701 -0.3323  1.5319
 3578SOL    HW222368   1.856   3.400  15.092  3.7346 -0.6904  0.1848
 3579SOL     OW22369   1.998   3.706   7.004  0.1594 -0.4472  0.4005
 3579SOL    HW122370   2.047   3.788   7.016  1.9029 -1.5986  1.2061
 3579SOL    HW222371   2.068   3.644   7.025  0.3809 -1.1639 -2.3859
 3580SOL     OW22372   1.155   1.231   3.981  0.4132 -0.2428 -0.2357
 3580SOL    HW122373   1.120   1.320   3.978  1.2597  0.1558  2.4549
 3580SOL    HW222374   1.076   1.185   3.952 -1.2181  1.7358  1.1215
 3581SOL     OW22375   0.072   4.303   6.395 -0.0460 -0.2872 -0.4307
 3581SOL    HW122376   0.129   4.364   6.348  0.4376  1.1520  2.0482
 3581SOL    HW222377   0.033   4.370   6.451 -0.1556 -0.2257 -0.5813
 3582SOL     OW22378   0.601   0.092  14.510  0.2192  0.0907 -0.2731
 3582SOL    HW122379   0.638   0.004  14.513  0.6040  0.1767 -2.6774
 3582SOL    HW222380   0.540   0.086  14.437  0.1684 -0.6770 -0.1668
 3583SOL     OW22381   1.390   0.704   0.604 -0.1989 -0.0894  0.0748
 3583SOL    HW122382   1.467   0.760   0.593 -1.1937  0.8777 -2.0309
 3583SOL    HW222383   1.424   0.635   0.661  1.0922  0.6556  0.1934
 3584SOL     OW22384   4.537   1.120   4.205  0.0141 -0.3005  0.3978
 3584SOL    HW122385   4.608   1.160   4.155  0.4075 -1.1110  0.2981
 3584SOL    HW222386   4.573   1.060   4.270 -0.4480 -0.4944  0.4794
 3585SOL     OW22387   3.540   0.564   3.750  0.1642 -0.5925  0.4975
 3585SOL    HW122388   3.474   0.565   3.681  0.1048  1.1779  0.5880
 3585SOL    HW222389   3.611   0.549   3.688  0.8948 -2.7835  1.8440
 3586SOL     OW22390   4.448   3.653   3.974  0.5628 -0.1706 -0.8795
 3586SOL    HW122391   4.415   3.739   4.000  1.6095 -0.4548  1.4326
 3586SOL    HW222392   4.517   3.686   3.917 -0.8702 -1.2326 -3.2389
 3587SOL     OW22393   0.426   1.970   9.082 -0.4536  0.9179 -0.1700
 3587SOL    HW122394   0.513   1.949   9.116  0.7823  0.7134 -3.4567
 3587SOL    HW222395   0.425   2.065   9.092  0.3494  0.9079 -0.0272
 3588SOL     OW22396   4.492   3.703   6.896 -0.4760 -0.1737 -0.2677
 3588SOL    HW122397   4.560   3.645   6.860  0.2351 -0.4347  1.5074
 3588SOL    HW222398   4.516   3.786   6.854  0.2308 -0.1349  0.2066
 3589SOL     OW22399   0.568   1.725   3.807  0.2732 -0.5298 -0.2712
 3589SOL    HW122400   0.530   1.669   3.740 -0.2302 -0.8736  0.2986
 3589SOL    HW222401   0.522   1.806   3.786 -1.8748 -1.3530  1.2940
 3590SOL     OW22402   1.853   3.303   6.778  0.6213  0.5763 -0.1289
 3590SOL    HW122403   1.788   3.331   6.843  0.4871 -1.9742  0.8207
 3590SOL    HW222404   1.922   3.255   6.823  0.8195  1.8479  0.9176
 3591SOL     OW22405   4.736   3.482  14.406 -0.0357 -0.1648  0.5784
 3591SOL    HW122406   0.012   3.390  14.427  0.3997  0.2791  2.2238
 3591SOL    HW222407   4.733   3.511  14.497 -4.6892  0.2102  0.2996
 3592SOL     OW22408   0.922   1.970  12.532 -0.4995  0.1041  0.0690
 3592SOL    HW122409   0.977   1.927  12.598 -2.9481 -0.4258  1.7938
 3592SOL    HW222410   0.973   2.048  12.516 -1.5852  0.7171 -0.3843
 3593SOL     OW22411   1.074   0.876   4.307  0.0796  0.2326 -0.3482
 3593SOL    HW122412   1.109   0.965   4.315  0.9037  0.0713 -1.9564
 3593SOL    HW222413   1.046   0.853   4.395  2.0100 -0.0832  0.1806
 3594SOL     OW22414   1.821   0.477   6.900 -0.5311  0.1800 -0.5814
 3594SOL    HW122415   1.754   0.529   6.855 -3.3837 -1.6988  1.5249
 3594SOL    HW222416   1.891   0.542   6.899 -1.3135  1.0233  1.6759
 3595SOL     OW22417   4.193   0.821   4.666  0.1134  0.3431 -0.2984
 3595SOL    HW122418   4.200   0.733   4.629 -0.6436  0.4616 -0.7273
 3595SOL    HW222419   4.190   0.871   4.584  0.7824  1.3685  0.3024
 3596SOL     OW22420   0.508   3.826  10.247 -0.7031 -0.7348 -0.2556
 3596SOL    HW122421   0.559   3.777  10.312  0.6225  1.7177  0.5642
 3596SOL    HW222422   0.537   3.783  10.167 -0.4091  0.2302 -0.6731
 3597SOL     OW22423   4.308   1.714  15.798 -0.0547  0.2766  0.1052
 3597SOL    HW122424   4.389   1.692  15.844 -1.8959 -0.9830  2.7588
 3597SOL    HW222425   4.255   1.710  15.877  0.1849 -0.0901  0.2458
 3598SOL     OW22426   0.276   2.687   7.243  0.5231 -0.0999  0.5287
 3598SOL    HW122427   0.207   2.621   7.246  1.3868 -0.9556  1.5215
 3598SOL    HW222428   0.226   2.768   7.251 -2.5460 -1.5712 -3.2710
 3599SOL     OW22429   2.581   4.722   2.181  0.0145 -0.5260 -0.2437
 3599SOL    HW122430   2.498   0.027   2.159  0.3082  0.0756 -0.2406
 3599SOL    HW222431   2.564   4.687   2.268  1.4983 -0.0922  0.2348
 3600SOL     OW22432   0.164   2.210   2.488 -0.1935  0.2067  0.3544
 3600SOL    HW122433   0.189   2.122   2.515  0.7224  0.6854  1.0770
 3600SOL    HW222434   0.212   2.272   2.544  0.1271  0.5571 -0.3130
 3601SOL     OW22435   1.446   2.657   4.792 -0.0696  0.2581  0.2715
 3601SOL    HW122436   1.408   2.744   4.783 -3.4029 -1.1375  1.0828
 3601SOL    HW222437   1.385   2.598   4.748  3.6180 -1.8792 -2.0218
 3602SOL     OW22438   0.548   0.853   6.414  0.3315  0.3713 -0.0491
 3602SOL    HW122439   0.575   0.917   6.480 -0.1072  0.8975 -0.3803
 3602SOL    HW222440   0.548   0.904   6.333 -2.6794 -1.1448 -1.0146
 3603SOL     OW22441   4.484   1.661   6.119 -0.7816  0.4403 -0.3214
 3603SOL    HW122442   4.433   1.701   6.049 -0.8460  0.8864 -0.0221
 3603SOL    HW222443   4.575   1.675   6.092 -0.2301 -2.2814  0.1309
 3604SOL     OW22444   4.006   0.201   5.942  0.4842 -0.1998  0.6390
 3604SOL    HW122445   3.961   0.117   5.935 -1.5269  0.7485  2.2132
 3604SOL    HW222446   4.010   0.235   5.853 -1.5682 -1.4365  0.0884
 3605SOL     OW22447   0.558   4.023   1.525  0.4444  0.8817  0.8771
 3605SOL    HW122448   0.513   4.076   1.590  1.0310  3.1043 -0.5147
 3605SOL    HW222449   0.648   4.042   1.550  0.3844  1.1041  0.9226
 3606SOL     OW22450   3.660   1.344   0.898 -0.3336  0.1385 -0.0051
 3606SOL    HW122451   3.671   1.397   0.819  2.7284  0.5985  0.7295
 3606SOL    HW222452   3.728   1.277   0.898  1.2638  1.7618 -0.8963
 3607SOL     OW22453   0.542   1.523  11.787  0.6554  0.0080 -0.1124
 3607SOL    HW122454   0.509   1.589  11.726 -0.3178 -0.2904  0.1005
 3607SOL    HW222455   0.540   1.447  11.728  0.9583  0.1266 -0.2779
 3608SOL     OW22456   1.980   2.133  15.488  0.3293  0.2533  0.1259
 3608SOL    HW122457   1.923   2.123  15.564 -1.0346 -0.6968 -1.0222
 3608SOL    HW222458   2.072   2.143  15.512  0.1820  1.6132  0.1100
 3609SOL     OW22459   3.409   1.738  17.480  0.0594  0.4005 -0.2029
 3609SOL    HW122460   3.379   1.659  17.435 -0.2396  1.8194 -2.4899
 3609SOL    HW222461   3.499   1.744  17.448  0.0462 -2.4378 -0.7882
 3610SOL     OW22462   3.498   2.015  11.714 -0.3836  0.3132  0.4969
 3610SOL    HW122463   3.499   1.987  11.806 -1.1257  4.0582  1.6226
 3610SOL    HW222464   3.435   1.948  11.689  1.1490  0.3044 -3.2218
 3611SOL     OW22465   1.009   2.997   2.907 -0.8951 -0.2363  0.5221
 3611SOL    HW122466   0.916   2.975   2.901 -0.6068 -1.4950  0.6356
 3611SOL    HW222467   1.010   3.090   2.930  2.4460  0.6053 -2.8829
 3612SOL     OW22468   2.149   2.072   0.710 -0.3304 -0.4004  0.3639
 3612SOL    HW122469   2.221   2.010   0.701  0.8382  1.1605 -0.9342
 3612SOL    HW222470   2.152   2.131   0.634 -0.0767  0.7402  1.2652
 3613SOL     OW22471   1.259   2.457   8.653 -0.4505  0.2824  0.1359
 3613SOL    HW122472   1.175   2.431   8.616 -0.4430 -2.9663  2.3750
 3613SOL    HW222473   1.296   2.375   8.685 -0.7069  0.1089 -0.0102
 3614SOL     OW22474   1.020   1.662  13.424  0.0993  1.0303 -0.0565
 3614SOL    HW122475   0.969   1.698  13.351 -0.8317 -1.9561 -0.8668
 3614SOL    HW222476   0.963   1.594  13.459  1.5216 -0.3652 -0.4626
 3615SOL     OW22477   2.031   3.020  17.562 -0.1374 -0.1821  0.3367
 3615SOL    HW122478   2.083   3.096  17.591  1.5372 -1.1084 -0.2481
 3615SOL    HW222479   1.963   3.057  17.505  0.7424 -0.2935 -0.7793
 3616SOL     OW22480   0.609   2.968   7.556  0.0110 -0.3208  0.3421
 3616SOL    HW122481   0.533   2.965   7.498  1.1969  0.8675 -1.2722
 3616SOL    HW222482   0.679   3.010   7.505 -0.4099  1.7083  1.4426
 3617SOL     OW22483   4.087   2.184   9.947 -0.2444  0.4365  0.2618
 3617SOL    HW122484   4.084   2.271   9.907 -0.0295  1.5274  2.6612
 3617SOL    HW222485   4.120   2.134   9.872 -0.4341  0.2427  0.3078
 3618SOL     OW22486   3.908   2.915   7.009 -0.1260  0.7852  0.2526
 3618SOL    HW122487   3.822   2.945   6.981 -0.2174  0.0453 -0.2649
 3618SOL    HW222488   3.892   2.834   7.058 -2.0403 -1.2502 -3.7172
 3619SOL     OW22489   1.504   3.891   9.107  0.1752  0.0759  0.4124
 3619SOL    HW122490   1.518   3.891   9.201 -0.3987 -1.3292  0.4910
 3619SOL    HW222491   1.439   3.961   9.104  0.9812  0.7923 -0.3222
 3620SOL     OW22492   2.930   1.818   8.802 -0.0936 -0.1444 -0.2026
 3620SOL    HW122493   2.922   1.803   8.708  0.9103 -1.1529 -0.1298
 3620SOL    HW222494   2.870   1.893   8.808 -1.5141 -1.2005 -1.1765
 3621SOL     OW22495   4.222   4.025   7.104  0.5805  0.3826 -0.6165
 3621SOL    HW122496   4.255   3.935   7.108 -1.0521 -0.1908 -0.1581
 3621SOL    HW222497   4.188   4.027   7.015 -0.7276 -1.0693 -0.1605
 3622SOL     OW22498   4.340   0.876   6.772  0.2540  0.3172  0.4493
 3622SOL    HW122499   4.397   0.906   6.842  0.2045 -0.3826  0.7870
 3622SOL    HW222500   4.401   0.889   6.699  0.2887  0.0540  0.4342
 3623SOL     OW22501   1.806   1.555   7.231 -0.4534  0.5243  0.9177
 3623SOL    HW122502   1.728   1.579   7.181  0.0051 -1.4537 -0.7400
 3623SOL    HW222503   1.843   1.486   7.176  1.6261  1.0744  1.6201
 3624SOL     OW22504   1.425   1.250   1.290 -0.1386 -0.3280  0.5050
 3624SOL    HW122505   1.352   1.223   1.234 -0.3256  0.7863  0.2120
 3624SOL    HW222506   1.407   1.229   1.382 -2.0344 -0.2492  0.1449
 3625SOL     OW22507   2.445   3.999  11.984 -0.6784  0.2056 -0.3835
 3625SOL    HW122508   2.353   4.022  11.994 -0.3705  2.6481 -3.1653
 3625SOL    HW222509   2.443   3.920  11.931 -0.7301 -0.0546  0.0086
 3626SOL     OW22510   3.849   2.894   2.510 -0.3753 -0.6743 -0.0183
 3626SOL    HW122511   3.880   2.880   2.420  0.8031  0.1492  0.2571
 3626SOL    HW222512   3.790   2.821   2.525  1.1092 -1.2716  2.9224
 3627SOL     OW22513   1.879   3.512   8.167 -0.2182  0.5092  0.3753
 3627SOL    HW122514   1.905   3.568   8.094  0.8467  0.6403  0.8489
 3627SOL    HW222515   1.817   3.569   8.212 -0.9052  1.8546 -2.2848
 3628SOL     OW22516   0.032   4.349   6.851  0.4274 -0.2190  0.0535
 3628SOL    HW122517   0.019   4.436   6.813  0.5560  0.1894  0.9463
 3628SOL    HW222518   0.103   4.364   6.914  0.0528 -0.8652  0.6184
 3629SOL     OW22519   1.786   3.807   3.694  0.1367  0.0673  0.0282
 3629SOL    HW122520   1.862   3.864   3.683  0.3737 -0.0573  0.9931
 3629SOL    HW222521   1.799   3.745   3.622  1.6654  0.4645 -0.0363
 3630SOL     OW22522   0.188   4.575   6.332 -0.0647 -0.7532  0.0318
 3630SOL    HW122523   0.223   4.557   6.245 -2.4898 -1.6889 -0.7269
 3630SOL    HW222524   0.096   4.588   6.309 -0.5952  0.5073  2.8133
 3631SOL     OW22525   3.601   2.404   7.974  0.3408  0.3404  0.3966
 3631SOL    HW122526   3.587   2.329   8.031 -0.6284 -0.5422 -1.0207
 3631SOL    HW222527   3.510   2.436   7.978 -0.2802 -1.7741  3.2221
 3632SOL     OW22528   3.947   1.316   2.154  0.1564 -0.3247  0.1131
 3632SOL    HW122529   3.870   1.373   2.157  0.3739 -0.1967  2.5605
 3632SOL    HW222530   4.010   1.379   2.119  2.0878 -1.9328  0.7118
 3633SOL     OW22531   3.840   4.236   8.664 -0.3799 -0.2585  0.7078
 3633SOL    HW122532   3.747   4.242   8.685 -0.0514  0.2728  2.0054
 3633SOL    HW222533   3.875   4.293   8.731 -0.6691  1.1379 -0.3255
 3634SOL     OW22534   0.646   1.694   5.335  0.0799 -0.2652 -0.2029
 3634SOL    HW122535   0.622   1.700   5.427 -1.8320 -0.4999 -0.6728
 3634SOL    HW222536   0.646   1.789   5.319 -0.1396 -0.4325 -1.2448
 3635SOL     OW22537   3.122   4.047   7.733 -0.1448  0.5319 -0.6137
 3635SOL    HW122538   3.208   4.062   7.771 -1.0686 -0.1169  1.7597
 3635SOL    HW222539   3.111   3.954   7.752  0.0376  0.6443  0.0715
 3636SOL     OW22540   3.547   3.863   4.227 -0.0417 -0.5072  0.1328
 3636SOL    HW122541   3.615   3.922   4.196  0.2788 -0.1172  1.6176
 3636SOL    HW222542   3.478   3.922   4.258  0.3644 -0.8207  1.6052
 3637SOL     OW22543   4.558   0.042   3.152 -0.1540  0.8871  0.3388
 3637SOL    HW122544   4.466   0.061   3.172 -0.3741 -0.4232  0.5469
 3637SOL    HW222545   4.565   4.683   3.147  2.4711  1.1522 -1.2519
 3638SOL     OW22546   3.593   1.267   9.172  0.3600 -0.1943  0.1164
 3638SOL    HW122547   3.655   1.259   9.100  1.9335 -1.0375  1.5838
 3638SOL    HW222548   3.649   1.314   9.234 -0.5901  0.4920  0.4642
 3639SOL     OW22549   1.105   2.946   2.448  0.4379 -0.7227 -0.1479
 3639SOL    HW122550   1.109   2.955   2.544 -1.1705  0.9037 -0.2268
 3639SOL    HW222551   1.200   2.950   2.436  0.1887 -0.5881 -1.9871
 3640SOL     OW22552   2.250   1.195   7.722  0.1254 -0.2592  0.6243
 3640SOL    HW122553   2.254   1.289   7.702  2.1124  0.5990  5.1482
 3640SOL    HW222554   2.162   1.174   7.752 -0.6112  0.9003 -0.6890
 3641SOL     OW22555   0.665   3.264  11.129 -1.0297  0.1669  0.0125
 3641SOL    HW122556   0.589   3.211  11.102 -1.3232  0.5403  0.1095
 3641SOL    HW222557   0.619   3.335  11.174  1.0095 -0.2057  2.6959
 3642SOL     OW22558   3.094   1.071   9.055  0.4425 -0.3930  0.0891
 3642SOL    HW122559   3.044   1.152   9.044  0.6783 -0.2474  0.0992
 3642SOL    HW222560   3.023   1.007   9.068  0.7505 -0.8724 -0.5872
 3643SOL     OW22561   3.621   2.112   4.158  0.7843  0.6149  0.1169
 3643SOL    HW122562   3.624   2.033   4.105  0.6460  1.8281 -1.7144
 3643SOL    HW222563   3.532   2.096   4.191  0.1929  1.3759 -1.1230
 3644SOL     OW22564   3.026   2.661   8.421  0.5937 -0.3433  1.0858
 3644SOL    HW122565   2.989   2.598   8.482  2.6582 -3.1418 -0.5046
 3644SOL    HW222566   3.037   2.733   8.482 -2.1667 -2.2829  3.8287
 3645SOL     OW22567   0.037   0.900   9.917 -0.4030  0.6341  0.1279
 3645SOL    HW122568   0.017   0.808   9.932 -0.4245  0.3196 -1.8280
 3645SOL    HW222569   0.055   0.925  10.008  0.2463  0.3860  0.0677
 3646SOL     OW22570   0.054   0.729   8.143 -0.1823  0.2868 -0.1296
 3646SOL    HW122571   0.074   0.671   8.216  1.5161 -1.3608 -1.9314
 3646SOL    HW222572   0.036   0.662   8.077 -1.1844 -0.2034  0.6325
 3647SOL     OW22573   3.108   4.540   3.766  0.2749  0.2077 -0.0790
 3647SOL    HW122574   3.074   4.452   3.780  1.6570  0.0729  2.4326
 3647SOL    HW222575   3.200   4.535   3.791  0.1162  0.3826  0.5433
 3648SOL     OW22576   3.057   0.083  15.529  0.0935  0.5546  0.0467
 3648SOL    HW122577   3.030   0.003  15.484  1.8182  0.0358 -0.0472
 3648SOL    HW222578   3.030   0.150  15.466 -0.3555 -0.4375 -0.8261
 3649SOL     OW22579   4.684   0.737   8.557 -0.3117 -0.0975 -0.1752
 3649SOL    HW122580   4.711   0.687   8.634  0.2082 -0.0091 -0.2989
 3649SOL    HW222581   0.032   0.776   8.532 -0.6143  0.5071 -0.2663
 3650SOL     OW22582   2.604   2.242   2.125 -0.9667 -0.3106  0.1629
 3650SOL    HW122583   2.598   2.308   2.194  0.6730  0.4386 -0.4114
 3650SOL    HW222584   2.648   2.170   2.170 -1.4396 -1.6486 -1.5175
 3651SOL     OW22585   1.764   1.959  11.052  0.4328 -0.3908  0.3523
 3651SOL    HW122586   1.698   1.901  11.013 -1.0881 -0.7474  3.3901
 3651SOL    HW222587   1.767   1.923  11.141 -1.7940 -0.2192  0.5049
 3652SOL     OW22588   2.656   0.900  11.079 -0.3746  0.1093 -0.1350
 3652SOL    HW122589   2.703   0.862  11.006 -1.8324 -0.4750 -0.7770
 3652SOL    HW222590   2.728   0.909  11.141  2.5747 -0.2124 -3.5329
 3653SOL     OW22591   0.516   1.876   8.471 -0.3074 -0.6546 -0.1267
 3653SOL    HW122592   0.475   1.844   8.391 -3.8593  1.6326  0.8150
 3653SOL    HW222593   0.563   1.797   8.499 -0.8009  0.1225  2.9307
 3654SOL     OW22594   3.874   0.142   7.411  0.2947 -0.1701 -0.3157
 3654SOL    HW122595   3.913   0.229   7.415  0.4804 -0.1401 -2.7087
 3654SOL    HW222596   3.892   0.117   7.320  1.5841  4.5269 -1.3562
 3655SOL     OW22597   2.731   1.702  11.718 -0.2731 -0.4318  0.1749
 3655SOL    HW122598   2.648   1.693  11.671  0.1893 -2.0431 -0.3454
 3655SOL    HW222599   2.727   1.629  11.781 -0.7727 -0.2880  0.3062
 3656SOL     OW22600   3.748   0.683   7.918  1.0587  0.2112  0.2963
 3656SOL    HW122601   3.657   0.658   7.937  0.7436  2.5899  1.9072
 3656SOL    HW222602   3.792   0.667   8.001  0.1165 -0.3494  0.6839
 3657SOL     OW22603   4.173   0.884   8.515  0.0042 -0.4498  0.2177
 3657SOL    HW122604   4.247   0.930   8.477 -0.6427  1.1210  0.8875
 3657SOL    HW222605   4.095   0.924   8.475 -0.1812 -1.2368 -0.2227
 3658SOL     OW22606   0.712   2.612  12.531  0.3118  0.0899 -0.7460
 3658SOL    HW122607   0.780   2.669  12.568 -0.0172  0.1823 -0.2804
 3658SOL    HW222608   0.746   2.523  12.524  1.7504  0.7066 -1.4754
 3659SOL     OW22609   4.157   0.757   2.990 -1.0453  0.2106 -0.2159
 3659SOL    HW122610   4.176   0.818   3.062  0.1722  1.3852 -1.5288
 3659SOL    HW222611   4.116   0.823   2.934 -1.9891 -0.5093 -0.3783
 3660SOL     OW22612   4.322   2.672  15.595  0.2552  0.0587  0.3226
 3660SOL    HW122613   4.346   2.755  15.635 -2.4639  1.2223 -0.4224
 3660SOL    HW222614   4.313   2.703  15.505  1.6317 -1.4159 -0.3260
 3661SOL     OW22615   3.031   0.687   5.817  0.1149 -0.0317  0.3314
 3661SOL    HW122616   3.009   0.756   5.754  1.2499  0.2774  0.2818
 3661SOL    HW222617   2.956   0.629   5.801  1.3217 -1.7214  0.8385
 3662SOL     OW22618   1.100   0.216   7.999 -0.1826  0.0551  0.1415
 3662SOL    HW122619   1.096   0.124   8.024 -0.3031 -0.2098 -0.8446
 3662SOL    HW222620   1.039   0.212   7.925  0.9220 -0.8152 -0.7210
 3663SOL     OW22621   3.650   2.694   8.686  0.5176  0.1039  0.7046
 3663SOL    HW122622   3.655   2.790   8.685 -0.0118  0.1282 -0.1685
 3663SOL    HW222623   3.556   2.676   8.696  0.5605 -0.7424 -0.3537
 3664SOL     OW22624   1.721   1.794   8.728  0.2213  0.4799 -0.3229
 3664SOL    HW122625   1.740   1.878   8.770  0.6154  0.0420  0.3766
 3664SOL    HW222626   1.681   1.747   8.801 -1.0468  0.3701 -1.0886
 3665SOL     OW22627   0.095   1.273   8.393 -0.0413  0.0154  0.3115
 3665SOL    HW122628   0.091   1.344   8.456 -0.9746  0.0028  0.2772
 3665SOL    HW222629   0.120   1.315   8.311 -1.8024 -1.3326 -0.9219
 3666SOL     OW22630   0.328   4.587   4.686  0.4452 -0.5347 -0.0572
 3666SOL    HW122631   0.373   4.579   4.602  1.3324 -0.2598  0.3981
 3666SOL    HW222632   0.252   4.537   4.657  0.0838  0.1514 -0.3106
 3667SOL     OW22633   2.031   3.674  17.637 -0.7357  0.0037 -0.3911
 3667SOL    HW122634   2.041   3.750  17.695 -0.4171  1.0482 -1.8225
 3667SOL    HW222635   2.057   3.604  17.696  0.2174  1.2102  0.6317
 3668SOL     OW22636   0.014   0.815   0.753 -0.1405 -0.1892 -0.1972
 3668SOL    HW122637   4.734   0.751   0.684  1.6375 -0.4146 -0.4195
 3668SOL    HW222638   0.101   0.848   0.728 -1.5139  2.8155 -1.0582
 3669SOL     OW22639   2.941   0.895   2.588 -0.0045  0.1986  0.0188
 3669SOL    HW122640   2.854   0.936   2.595  0.4701  1.5776 -2.0432
 3669SOL    HW222641   2.955   0.899   2.494 -2.4313 -1.7792 -0.4274
 3670SOL     OW22642   0.391   1.383   8.260  0.1507  0.6142  0.0288
 3670SOL    HW122643   0.464   1.392   8.198  1.1876  1.4498  1.3538
 3670SOL    HW222644   0.309   1.379   8.211 -0.5369  1.2712  1.1111
 3671SOL     OW22645   2.350   3.869  12.272  0.4706 -0.1873 -0.4787
 3671SOL    HW122646   2.356   3.906  12.360 -0.4554 -1.9436  0.3194
 3671SOL    HW222647   2.257   3.855  12.251  0.0597 -0.1880  1.2862
 3672SOL     OW22648   0.292   4.184   8.761  0.3851 -0.0019 -0.1364
 3672SOL    HW122649   0.201   4.214   8.756  0.1875 -0.6571 -0.4582
 3672SOL    HW222650   0.284   4.089   8.768  1.9310 -0.0466  0.9093
 3673SOL     OW22651   3.359   3.169   2.046 -0.0506 -0.5217 -0.0848
 3673SOL    HW122652   3.413   3.223   1.987  0.4781 -1.0039 -0.0460
 3673SOL    HW222653   3.368   3.222   2.124  0.9079 -0.2130 -0.4018
 3674SOL     OW22654   4.166   0.917   8.188  0.2064  0.0185 -0.0364
 3674SOL    HW122655   4.239   0.978   8.178 -0.9388  1.7512  1.9780
 3674SOL    HW222656   4.187   0.851   8.123 -2.9257 -0.4112 -0.6310
 3675SOL     OW22657   0.882   3.933   2.651 -0.5841  0.3513 -0.1437
 3675SOL    HW122658   0.794   3.945   2.686 -0.9497  0.4103 -1.0996
 3675SOL    HW222659   0.897   4.011   2.598  1.2601  0.2510  0.2040
 3676SOL     OW22660   3.227   4.036  11.840 -0.0566  0.1255 -0.1759
 3676SOL    HW122661   3.304   4.068  11.792 -0.1532 -0.3345 -0.6383
 3676SOL    HW222662   3.167   4.107  11.815 -0.8365  0.5240  2.8623
 3677SOL     OW22663   2.529   2.908   4.569  0.0638  0.1254 -0.3166
 3677SOL    HW122664   2.563   2.910   4.659 -0.3990 -1.5216 -0.1096
 3677SOL    HW222665   2.436   2.923   4.586 -0.1586 -1.7315  0.0641
 3678SOL     OW22666   3.092   1.312   5.432  0.4020  0.5822 -0.0762
 3678SOL    HW122667   3.110   1.294   5.340  0.8662  2.2834 -0.3153
 3678SOL    HW222668   3.179   1.308   5.472 -0.1907  0.2870  1.1842
 3679SOL     OW22669   0.318   2.701   6.138  0.5740  0.4876  0.0093
 3679SOL    HW122670   0.401   2.660   6.163 -0.5285 -0.8278  1.4808
 3679SOL    HW222671   0.283   2.742   6.216 -0.9657 -0.5846 -0.1243
 3680SOL     OW22672   1.119   4.155   2.282  0.1136  0.3466 -0.4007
 3680SOL    HW122673   1.059   4.142   2.355 -0.7240  1.0087 -0.9846
 3680SOL    HW222674   1.200   4.125   2.324  1.7433  4.3312 -0.7046
 3681SOL     OW22675   1.152   1.595   0.696  0.3167  0.1848 -0.1952
 3681SOL    HW122676   1.058   1.605   0.713  0.4153 -0.6418  0.8490
 3681SOL    HW222677   1.170   1.688   0.679 -0.6913  0.5427  0.6566
 3682SOL     OW22678   3.387   0.450   0.843  0.4188 -0.2641 -0.0560
 3682SOL    HW122679   3.327   0.385   0.878  0.3228 -0.8375 -1.2788
 3682SOL    HW222680   3.420   0.412   0.762  2.2289  0.5445  0.2865
 3683SOL     OW22681   1.589   2.911   7.507  0.2966 -0.4657  0.0939
 3683SOL    HW122682   1.577   2.927   7.601  1.0459  0.0656  0.0991
 3683SOL    HW222683   1.676   2.951   7.501 -0.6884  1.9720  1.8734
 3684SOL     OW22684   1.058   0.674   7.622 -0.0592  0.3380 -0.2154
 3684SOL    HW122685   1.151   0.671   7.645  0.5758 -0.4970 -2.9348
 3684SOL    HW222686   1.056   0.735   7.548 -1.3417 -1.5408 -1.7176
 3685SOL     OW22687   3.050   1.468   6.767 -0.1892 -0.1521  0.9338
 3685SOL    HW122688   3.070   1.382   6.728  1.5577 -1.1883  4.1377
 3685SOL    HW222689   3.102   1.462   6.847 -0.1500  0.1409  0.9279
 3686SOL     OW22690   0.259   2.545   1.781 -0.4065  0.3041 -0.0198
 3686SOL    HW122691   0.265   2.636   1.754 -1.7680 -0.0986 -1.7132
 3686SOL    HW222692   0.249   2.545   1.876  2.1835 -1.4373  0.2663
 3687SOL     OW22693   0.964   3.338  11.948  0.2183 -0.1069 -0.4522
 3687SOL    HW122694   0.879   3.379  11.965  0.2386  0.0360 -0.6906
 3687SOL    HW222695   0.982   3.277  12.019 -0.9402  0.5541  0.4136
 3688SOL     OW22696   3.617   1.989  15.513 -0.1752  0.3210 -0.3201
 3688SOL    HW122697   3.649   1.906  15.479 -0.9264 -0.1048  0.0244
 3688SOL    HW222698   3.629   2.051  15.441 -0.7908  0.4029 -0.3491
 3689SOL     OW22699   0.138   0.122  11.065 -0.3778  0.2753  0.2036
 3689SOL    HW122700   0.176   0.068  10.995  1.0110  1.9391 -0.3355
 3689SOL    HW222701   0.110   0.197  11.014  0.5664 -0.2149 -1.0433
 3690SOL     OW22702   4.299   1.510   0.550 -0.5991 -0.0367 -0.1969
 3690SOL    HW122703   4.350   1.480   0.474  0.2233  0.8732 -0.0071
 3690SOL    HW222704   4.367   1.554   0.601 -0.2323  0.0149 -0.7260
 3691SOL     OW22705   3.018   2.106  12.463  0.0952 -0.0751  0.1814
 3691SOL    HW122706   3.007   2.182  12.404 -1.8785 -0.6336 -0.1588
 3691SOL    HW222707   3.107   2.103  12.498  1.2589  1.8897 -2.5281
 3692SOL     OW22708   1.252   4.052   8.227  0.3832  0.0255  0.3392
 3692SOL    HW122709   1.268   4.044   8.321 -0.0275 -1.5127  0.2775
 3692SOL    HW222710   1.344   4.049   8.200  0.1138  2.5707 -0.8617
 3693SOL     OW22711   0.917   1.743   7.210 -0.1454 -0.4961  0.4681
 3693SOL    HW122712   0.848   1.728   7.276  1.1304 -0.7564  1.7332
 3693SOL    HW222713   0.954   1.827   7.238 -0.3254  0.0031 -0.8137
 3694SOL     OW22714   2.972   2.443   7.663 -0.0342  0.2365 -0.4375
 3694SOL    HW122715   2.904   2.474   7.722 -2.1192 -0.4058 -2.5205
 3694SOL    HW222716   2.920   2.424   7.585  0.6033 -1.9781 -0.3243
 3695SOL     OW22717   2.801   3.605  12.248 -0.3657  0.2132 -0.1182
 3695SOL    HW122718   2.719   3.597  12.200 -0.6682  0.2414  0.3833
 3695SOL    HW222719   2.833   3.516  12.236  0.4246  0.5131 -0.2206
 3696SOL     OW22720   4.517   1.033   0.006 -0.6439  0.1058  0.0343
 3696SOL    HW122721   4.523   1.092  17.674 -1.0982  1.2522  0.8986
 3696SOL    HW222722   4.606   1.048   0.038  0.9498 -2.4543 -3.1250
 3697SOL     OW22723   0.145   2.174   3.120  0.1011  0.3097 -0.2836
 3697SOL    HW122724   0.130   2.081   3.135 -0.9898 -0.0145 -3.4329
 3697SOL    HW222725   0.093   2.210   3.192 -0.9281 -2.3946  0.3219
 3698SOL     OW22726   1.333   3.925   5.354  0.1168  0.2314  0.3624
 3698SOL    HW122727   1.251   3.941   5.306  0.9809 -0.6401 -1.4378
 3698SOL    HW222728   1.331   3.991   5.423  1.0468  1.6010 -0.9372
 3699SOL     OW22729   0.748   0.949  14.342 -0.5903 -0.3270  0.0347
 3699SOL    HW122730   0.756   0.863  14.384 -2.3720  0.6004  2.2943
 3699SOL    HW222731   0.656   0.965  14.325 -0.1649 -0.0357 -1.9667
 3700SOL     OW22732   2.464   0.153   9.208 -0.2907 -0.4802 -0.3848
 3700SOL    HW122733   2.516   0.131   9.285 -1.8579 -0.6477  0.6290
 3700SOL    HW222734   2.404   0.078   9.205  0.6995 -1.3807  2.0214
 3701SOL     OW22735   1.343   3.141   7.605  0.3111 -0.0981 -0.2521
 3701SOL    HW122736   1.298   3.066   7.643 -2.3932  0.3489 -2.5698
 3701SOL    HW222737   1.331   3.207   7.672  3.3081 -1.8564  2.0070
 3702SOL     OW22738   0.829   2.440  15.231  0.2600  0.3088 -0.4588
 3702SOL    HW122739   0.912   2.414  15.271  1.8607  3.1636 -1.9192
 3702SOL    HW222740   0.844   2.534  15.227 -1.0344  0.6387  2.8239
 3703SOL     OW22741   2.556   4.150   2.473  0.4685  0.2708  0.0261
 3703SOL    HW122742   2.587   4.077   2.526 -0.8340 -0.2151  0.1062
 3703SOL    HW222743   2.619   4.146   2.401 -0.4695 -0.1730 -0.7672
 3704SOL     OW22744   0.201   4.185   2.225  0.2440  0.2312 -0.0159
 3704SOL    HW122745   0.180   4.274   2.252 -0.4695  0.5622 -1.6336
 3704SOL    HW222746   0.170   4.139   2.303  2.6703 -0.7459  0.3796
 3705SOL     OW22747   4.284   3.077   6.712 -0.1564 -0.3369 -0.4059
 3705SOL    HW122748   4.297   2.983   6.725  0.2676 -0.1737  0.3949
 3705SOL    HW222749   4.192   3.080   6.686 -0.2450  0.6000  0.0411
 3706SOL     OW22750   0.630   3.834   2.147  0.2250 -0.3058 -0.1422
 3706SOL    HW122751   0.638   3.803   2.057 -1.4310 -0.5746 -0.1928
 3706SOL    HW222752   0.535   3.820   2.154 -0.0635  2.4274  1.3680
 3707SOL     OW22753   3.809   0.351  17.681  0.2401  0.4237  0.1344
 3707SOL    HW122754   3.839   0.291   0.006  0.4583  3.2222  2.5011
 3707SOL    HW222755   3.892   0.397  17.666  1.7028 -1.9902  0.8646
 3708SOL     OW22756   4.130   3.042   0.494 -0.6772  0.0899 -0.1387
 3708SOL    HW122757   4.204   3.103   0.492  0.8683 -1.7804  0.2993
 3708SOL    HW222758   4.074   3.100   0.545  1.7258  0.8944  1.5454
 3709SOL     OW22759   1.959   0.473   2.702  0.1687 -0.7406  0.4774
 3709SOL    HW122760   1.927   0.465   2.792 -1.3997  1.6951  0.1138
 3709SOL    HW222761   1.931   0.386   2.672 -1.4255 -0.4131  1.0224
 3710SOL     OW22762   3.464   2.672   5.081  0.6652 -0.2731 -0.2697
 3710SOL    HW122763   3.419   2.587   5.084 -0.2706  0.2325  0.0070
 3710SOL    HW222764   3.391   2.727   5.108  2.2751  0.9897  1.5553
 3711SOL     OW22765   2.859   1.014   1.313  0.3755 -0.5358  0.5146
 3711SOL    HW122766   2.808   0.948   1.267  0.4360 -0.6494  0.6086
 3711SOL    HW222767   2.868   1.082   1.247 -1.1136 -0.3114  0.5470
 3712SOL     OW22768   4.534   1.817   7.530 -0.5551 -0.1565  0.0292
 3712SOL    HW122769   4.574   1.739   7.568 -2.0969 -1.3043 -0.7162
 3712SOL    HW222770   4.589   1.836   7.454 -0.4476 -0.9108 -0.0826
 3713SOL     OW22771   0.635   0.208   7.197  0.0285  0.2644  0.3071
 3713SOL    HW122772   0.549   0.244   7.219 -0.4585  0.3831 -1.7672
 3713SOL    HW222773   0.687   0.280   7.162 -2.8856  0.6428 -3.1935
 3714SOL     OW22774   0.406   1.983   6.631 -0.4046 -0.2730  0.4034
 3714SOL    HW122775   0.464   1.950   6.563  0.1577 -1.7066  1.5652
 3714SOL    HW222776   0.442   2.070   6.647 -1.4328  0.2596 -0.1983
 3715SOL     OW22777   3.064   1.722   9.549  0.1224  0.2045 -0.4151
 3715SOL    HW122778   2.978   1.691   9.576 -0.5612  1.3079 -1.3456
 3715SOL    HW222779   3.061   1.721   9.453 -0.9980 -1.2706 -0.3572
 3716SOL     OW22780   2.331   1.178   3.638 -0.1349 -0.5221 -0.1716
 3716SOL    HW122781   2.316   1.246   3.704 -0.6709  0.4826 -1.3191
 3716SOL    HW222782   2.308   1.103   3.693  0.1355 -0.4543  0.0354
 3717SOL     OW22783   0.756   1.980   4.735  0.2468  0.8182 -0.3289
 3717SOL    HW122784   0.820   1.910   4.752 -0.5050  0.4584  1.0107
 3717SOL    HW222785   0.769   1.990   4.641  1.5920  1.7737 -0.0524
 3718SOL     OW22786   1.338   3.343   7.804  0.2426  0.1096 -0.8014
 3718SOL    HW122787   1.271   3.404   7.775 -0.7941 -1.1062 -0.9821
 3718SOL    HW222788   1.349   3.364   7.897 -0.7770  1.6168 -1.0183
 3719SOL     OW22789   4.438   0.136  16.676  1.0646 -0.1624 -0.8216
 3719SOL    HW122790   4.485   0.147  16.593  1.6160  0.0793 -0.4746
 3719SOL    HW222791   4.402   0.048  16.674  1.5281 -0.3271 -2.0777
 3720SOL     OW22792   2.746   0.431   6.648  0.6046 -0.3301 -0.3326
 3720SOL    HW122793   2.657   0.461   6.631 -0.3174 -2.3884  0.7759
 3720SOL    HW222794   2.748   0.346   6.602  2.0904 -0.0034 -0.8730
 3721SOL     OW22795   1.028   0.085  10.700 -0.0140  0.4842  0.1183
 3721SOL    HW122796   0.951   0.113  10.750 -0.1513 -0.1001  0.2348
 3721SOL    HW222797   1.064   0.041  10.777  0.0150  0.5693  0.1531
 3722SOL     OW22798   3.784   1.786   2.987 -0.3110  0.5199  0.5889
 3722SOL    HW122799   3.853   1.848   3.009  0.2267  0.7018 -1.5881
 3722SOL    HW222800   3.798   1.710   3.043  0.2080 -0.7735 -1.2783
 3723SOL     OW22801   2.609   0.873   2.297 -0.0516  0.3134  0.3134
 3723SOL    HW122802   2.567   0.882   2.382  0.7292 -1.8385  0.9153
 3723SOL    HW222803   2.608   0.963   2.263  0.0134  0.0259 -0.4477
 3724SOL     OW22804   1.785   1.839   6.157  0.6737 -0.8965 -0.4500
 3724SOL    HW122805   1.839   1.915   6.135  1.1849 -0.3606  2.6281
 3724SOL    HW222806   1.808   1.807   6.244  1.5667  2.8075  0.6790
 3725SOL     OW22807   4.182   2.130   8.796  0.0880 -0.0593 -0.4710
 3725SOL    HW122808   4.158   2.196   8.732 -0.8373  1.7030  1.6914
 3725SOL    HW222809   4.167   2.056   8.737 -0.4269  0.6224 -1.1986
 3726SOL     OW22810   3.563   4.591  15.184  0.0536  0.3551  0.1911
 3726SOL    HW122811   3.517   4.675  15.190  1.3914  1.0758  0.4040
 3726SOL    HW222812   3.655   4.616  15.190  0.5141 -1.3108  0.0527
 3727SOL     OW22813   4.697   0.344  16.640 -0.5409  0.0666  0.1522
 3727SOL    HW122814   4.636   0.351  16.713 -0.3427  0.0252  0.3207
 3727SOL    HW222815   0.047   0.337  16.682  0.4633  1.2704 -1.6674
 3728SOL     OW22816   0.953   1.707  13.713  0.0641 -0.1702 -0.5934
 3728SOL    HW122817   0.865   1.673  13.696 -0.3877  0.5575  0.2924
 3728SOL    HW222818   0.925   1.768  13.781  0.7481  1.3176 -1.6512
 3729SOL     OW22819   1.515   4.567  13.773 -0.3720  0.1171 -0.0923
 3729SOL    HW122820   1.610   4.559  13.773 -0.4688 -1.0101 -1.6336
 3729SOL    HW222821   1.478   4.501  13.832 -2.4048  1.4683  0.1490
 3730SOL     OW22822   0.069   3.049   7.970 -0.0149 -0.7126  0.1996
 3730SOL    HW122823   0.163   3.033   7.968 -0.2670 -2.2214  0.1909
 3730SOL    HW222824   0.042   3.002   8.049  1.7185  2.8225  2.8627
 3731SOL     OW22825   1.350   3.840   4.346  0.6242  0.1650  0.4635
 3731SOL    HW122826   1.412   3.788   4.295  1.4362  0.6008  0.9959
 3731SOL    HW222827   1.379   3.929   4.325 -0.3025  0.4646  0.4431
 3732SOL     OW22828   3.325   1.110   2.609 -0.1983  0.6400  0.4177
 3732SOL    HW122829   3.235   1.140   2.596 -0.5205 -0.3834  0.2795
 3732SOL    HW222830   3.346   1.043   2.544 -2.6143  1.8602 -1.6521
 3733SOL     OW22831   1.380   0.549  12.158  0.5171 -0.0421 -0.5785
 3733SOL    HW122832   1.306   0.584  12.107 -0.9709  1.1800  2.4019
 3733SOL    HW222833   1.422   0.477  12.111 -2.8234 -2.1694 -0.3503
 3734SOL     OW22834   1.144   3.262  13.209 -0.1395  0.6453 -0.3460
 3734SOL    HW122835   1.162   3.322  13.281 -1.7597  1.0431 -0.2799
 3734SOL    HW222836   1.089   3.323  13.160 -1.2024 -0.4468 -0.5193
 3735SOL     OW22837   1.698   4.407   7.340  0.1067 -0.1971 -0.4783
 3735SOL    HW122838   1.618   4.429   7.388  0.8269 -0.9696  1.0750
 3735SOL    HW222839   1.772   4.417   7.400 -0.2998 -2.2261  0.3422
 3736SOL     OW22840   2.174   1.775  12.755 -0.8104 -0.9960 -0.1581
 3736SOL    HW122841   2.152   1.723  12.678  1.7265 -2.1397 -0.1264
 3736SOL    HW222842   2.248   1.729  12.795  0.7207  0.0035 -1.8189
 3737SOL     OW22843   2.334   1.617   8.868  0.1428 -0.1459 -0.2779
 3737SOL    HW122844   2.418   1.607   8.912 -0.0501 -0.8700 -0.0638
 3737SOL    HW222845   2.355   1.667   8.789 -0.6807  0.7865  0.0918
 3738SOL     OW22846   2.620   3.800   7.040 -0.0792  0.2618  0.2379
 3738SOL    HW122847   2.571   3.766   6.966 -2.3341  2.0210  0.9246
 3738SOL    HW222848   2.606   3.895   7.040  1.9252  0.5612 -0.5654
 3739SOL     OW22849   2.615   1.475   3.988 -0.5366 -0.2831  0.5660
 3739SOL    HW122850   2.534   1.478   4.039 -0.6778 -0.1444  0.3305
 3739SOL    HW222851   2.616   1.570   3.976  1.3124 -0.5056 -1.0545
 3740SOL     OW22852   1.737   2.634   1.867  0.3953  0.1712  0.0415
 3740SOL    HW122853   1.727   2.629   1.962 -1.4903  1.6542 -0.0850
 3740SOL    HW222854   1.680   2.710   1.853  0.5017  0.2800  0.2029
 3741SOL     OW22855   3.785   3.366   9.393 -0.3666  0.4142 -0.0178
 3741SOL    HW122856   3.865   3.332   9.352  0.0249  0.1873  0.9321
 3741SOL    HW222857   3.824   3.437   9.444  1.1972  0.3882 -1.1697
 3742SOL     OW22858   4.432   1.667   9.152  0.4127 -0.3303 -0.2628
 3742SOL    HW122859   4.423   1.667   9.057  1.6392  3.2056 -0.3504
 3742SOL    HW222860   4.380   1.589   9.173 -1.2848  1.5463  2.4189
 3743SOL     OW22861   4.503   0.556   0.915 -0.2502  0.3628 -0.4333
 3743SOL    HW122862   4.461   0.470   0.910 -1.7228  1.1964 -2.0740
 3743SOL    HW222863   4.595   0.531   0.930 -0.0714  2.3349  1.7485
 3744SOL     OW22864   3.549   2.723   7.124 -0.0463  0.7852 -0.3569
 3744SOL    HW122865   3.579   2.804   7.082  0.6900  1.6897  1.8760
 3744SOL    HW222866   3.464   2.739   7.163 -0.6841  0.0584 -1.4585
 3745SOL     OW22867   4.677   3.262  10.209  0.5400  0.8999 -0.1172
 3745SOL    HW122868   4.682   3.174  10.247 -1.4661  1.4902  1.5609
 3745SOL    HW222869   4.593   3.251  10.166  0.6256 -0.9347  0.1892
 3746SOL     OW22870   2.653   2.645   6.768 -0.1003  0.0756 -0.1011
 3746SOL    HW122871   2.609   2.584   6.827 -0.2413  1.6012  1.3881
 3746SOL    HW222872   2.740   2.649   6.809 -0.0366  1.1423 -0.3266
 3747SOL     OW22873   1.688   0.312   9.273 -0.4049  0.0361  0.7366
 3747SOL    HW122874   1.617   0.360   9.229 -1.1235  0.7639  2.7205
 3747SOL    HW222875   1.642   0.229   9.278 -1.5416  0.6213  0.1963
 3748SOL     OW22876   3.523   1.147   8.904  0.5276  0.0793  0.1490
 3748SOL    HW122877   3.500   1.238   8.884 -0.3689 -0.1641  0.0873
 3748SOL    HW222878   3.552   1.147   8.995  0.3015 -0.5058  0.2195
 3749SOL     OW22879   2.990   3.969   0.661 -0.0775 -0.4947  0.3873
 3749SOL    HW122880   3.035   4.045   0.697 -0.1352 -0.5587  0.5979
 3749SOL    HW222881   3.069   3.925   0.630  0.5201  0.1324  1.0023
 3750SOL     OW22882   4.706   2.248   9.171 -0.4274  0.5338 -0.2013
 3750SOL    HW122883   0.020   2.223   9.094  1.2445  0.1430  1.0006
 3750SOL    HW222884   4.733   2.340   9.173 -1.9080  0.9396  1.3396
 3751SOL     OW22885   3.045   1.948   1.665  0.1660  0.3273  0.5421
 3751SOL    HW122886   3.100   1.966   1.590 -1.5324 -0.0767 -0.7940
 3751SOL    HW222887   3.006   1.862   1.650 -0.7269  1.3126 -2.7511
 3752SOL     OW22888   4.156   2.245   2.539  0.0281 -0.2700 -0.5004
 3752SOL    HW122889   4.088   2.248   2.471 -0.1953  0.7071 -0.2316
 3752SOL    HW222890   4.215   2.312   2.503  2.0264 -1.4094  0.6785
 3753SOL     OW22891   0.103   3.846   4.009  0.2801 -0.4076 -0.4176
 3753SOL    HW122892   0.040   3.819   3.942  0.4038 -0.6136 -0.4540
 3753SOL    HW222893   0.120   3.767   4.061  2.3547  0.3671  0.0967
 3754SOL     OW22894   2.496   0.374  16.426 -0.4123 -0.2478  0.0911
 3754SOL    HW122895   2.488   0.371  16.331 -0.5947 -2.3978  0.1747
 3754SOL    HW222896   2.420   0.426  16.453 -1.1073 -0.7487 -0.9018
 3755SOL     OW22897   2.257   4.463   6.187 -0.1519 -0.3683 -0.6650
 3755SOL    HW122898   2.265   4.380   6.234 -0.9333 -0.3530 -0.4981
 3755SOL    HW222899   2.346   4.498   6.188 -0.1444 -0.3382 -1.9547
 3756SOL     OW22900   1.180   3.066   8.926  0.5098 -0.3516 -0.4985
 3756SOL    HW122901   1.234   3.009   8.871  3.0981  1.1098  0.5520
 3756SOL    HW222902   1.218   3.150   8.901 -2.6887  0.7257 -1.7339
 3757SOL     OW22903   4.486   0.843   4.918  0.1915 -0.1637 -0.2343
 3757SOL    HW122904   4.494   0.775   4.986  3.0192  0.5075  0.1005
 3757SOL    HW222905   4.563   0.841   4.861  1.5947 -0.4024  1.6805
 3758SOL     OW22906   2.454   3.100   7.628  0.0097  0.4451  0.0729
 3758SOL    HW122907   2.454   3.195   7.621  0.5062  0.3052 -1.7035
 3758SOL    HW222908   2.541   3.087   7.665  0.4858 -0.0840 -1.2445
 3759SOL     OW22909   0.846   4.310   0.901 -0.3564 -0.2984  0.5100
 3759SOL    HW122910   0.833   4.262   0.982 -0.4770  0.9771  1.2378
 3759SOL    HW222911   0.852   4.236   0.840  1.4142  0.7686 -0.6104
 3760SOL     OW22912   0.499   2.945  10.624  0.0983  0.1624  0.5810
 3760SOL    HW122913   0.487   2.995  10.704  1.1989 -1.7009  1.9059
 3760SOL    HW222914   0.574   2.899  10.661  0.6158  0.0313 -0.6232
 3761SOL     OW22915   3.057   1.672  10.009 -0.1362 -0.1069  0.2596
 3761SOL    HW122916   3.088   1.705   9.925 -0.7230  0.5189  0.2888
 3761SOL    HW222917   3.099   1.586  10.003 -3.3401 -1.5551 -1.4298
 3762SOL     OW22918   0.581   3.628   6.349 -0.0636 -0.0170  0.5394
 3762SOL    HW122919   0.515   3.694   6.329  0.2312 -0.4609 -1.9088
 3762SOL    HW222920   0.655   3.679   6.381  0.9780 -0.6449 -0.8473
 3763SOL     OW22921   1.700   4.452   7.083 -0.0553 -0.1769 -0.5021
 3763SOL    HW122922   1.709   4.421   7.173 -0.9478  0.6857 -0.1305
 3763SOL    HW222923   1.692   4.547   7.084  1.8714  0.0069 -1.9824
 3764SOL     OW22924   3.634   0.338   1.900 -0.2306 -0.0444 -0.1486
 3764SOL    HW122925   3.561   0.320   1.958 -0.5686  0.7970 -0.3109
 3764SOL    HW222926   3.664   0.428   1.917 -1.5100  0.1693  0.9779
 3765SOL     OW22927   1.190   3.051  15.482 -0.1885  0.1490  0.0616
 3765SOL    HW122928   1.238   3.020  15.558  1.0053 -0.5666 -0.9940
 3765SOL    HW222929   1.205   3.145  15.488 -2.3617  0.5689 -1.0375
 3766SOL     OW22930   4.545   0.191   8.410  0.0442 -0.0169  0.5425
 3766SOL    HW122931   4.560   0.212   8.318  2.1082  3.5745  1.6637
 3766SOL    HW222932   4.636   0.173   8.432  0.5222 -0.1342 -1.5836
 3767SOL     OW22933   0.431   0.565   3.021  0.3027 -0.1218  0.6135
 3767SOL    HW122934   0.348   0.552   2.975  0.2674  0.0292  0.6320
 3767SOL    HW222935   0.494   0.534   2.956  0.9964 -1.0285  1.7209
 3768SOL     OW22936   2.024   3.848  12.738  0.0911  0.3180  0.3272
 3768SOL    HW122937   1.957   3.834  12.805  0.0957  3.8711  1.1007
 3768SOL    HW222938   2.099   3.867  12.794  1.1640 -0.5595 -0.8264
 3769SOL     OW22939   2.199   4.461   9.543 -0.2175  0.1319 -0.1834
 3769SOL    HW122940   2.224   4.402   9.614  2.6769 -0.3948 -1.6856
 3769SOL    HW222941   2.190   4.408   9.464  2.0373 -0.4793 -0.0288
 3770SOL     OW22942   1.721   3.779   3.958 -0.0779  0.1648  0.3983
 3770SOL    HW122943   1.737   3.788   3.864 -1.7829 -1.7542 -0.0876
 3770SOL    HW222944   1.749   3.688   3.969 -0.9697 -0.3948 -1.9576
 3771SOL     OW22945   2.222   0.356   3.717  0.1001  0.2542 -0.4515
 3771SOL    HW122946   2.190   0.445   3.726 -1.8001 -0.5094  0.2554
 3771SOL    HW222947   2.284   0.371   3.646  2.9192  0.1806  1.9878
 3772SOL     OW22948   4.188   1.982   5.117 -0.1172 -0.3882  0.3475
 3772SOL    HW122949   4.201   2.072   5.087  2.1557 -0.9063 -0.1596
 3772SOL    HW222950   4.252   1.978   5.188 -1.6464  0.7043  1.8111
 3773SOL     OW22951   0.733   0.801   1.329 -0.3434 -0.2597 -0.0050
 3773SOL    HW122952   0.653   0.750   1.337 -0.1777 -0.4145  0.6333
 3773SOL    HW222953   0.743   0.824   1.236  2.1965 -0.4565  0.2207
 3774SOL     OW22954   1.038   2.858   6.533 -0.2101  0.2703 -0.3876
 3774SOL    HW122955   1.065   2.767   6.541 -2.1727 -0.1464  1.7084
 3774SOL    HW222956   1.128   2.888   6.539  0.5651 -2.0331 -0.9187
 3775SOL     OW22957   2.072   3.158  15.231  0.3884  0.4125  0.1133
 3775SOL    HW122958   2.082   3.063  15.243  1.3269  0.3861 -0.9420
 3775SOL    HW222959   2.106   3.180  15.317  0.9639 -1.9504  0.5064
 3776SOL     OW22960   0.824   0.527  14.601 -0.7755  0.2748 -0.2219
 3776SOL    HW122961   0.789   0.528  14.690  0.9487 -1.0057  0.4837
 3776SOL    HW222962   0.829   0.434  14.577 -0.5847  0.0792  0.5555
 3777SOL     OW22963   2.230   3.824   1.192 -0.0505 -0.0694  0.6331
 3777SOL    HW122964   2.325   3.839   1.193 -0.3127  1.5208  1.1258
 3777SOL    HW222965   2.210   3.830   1.099 -0.5794  2.0687  0.8986
 3778SOL     OW22966   1.723   1.599   3.147 -0.1851  0.1201  0.2586
 3778SOL    HW122967   1.662   1.527   3.165  0.6654 -0.3941  1.1430
 3778SOL    HW222968   1.793   1.550   3.103 -0.1904  1.0201 -0.7364
 3779SOL     OW22969   2.260   0.986   3.808  0.2632 -0.4321 -0.0862
 3779SOL    HW122970   2.275   1.032   3.891  0.8400 -2.6537  1.0198
 3779SOL    HW222971   2.235   0.901   3.843 -0.6536  0.5848  1.7618
 3780SOL     OW22972   0.855   3.451   2.764  0.0210  0.1975  0.0470
 3780SOL    HW122973   0.854   3.393   2.688 -1.0983  0.2084  0.0455
 3780SOL    HW222974   0.851   3.534   2.717 -0.4332 -0.0730 -0.3984
 3781SOL     OW22975   0.201   4.163  10.315 -0.1900  0.3132 -0.1966
 3781SOL    HW122976   0.255   4.103  10.366 -2.4617  0.3044  2.1970
 3781SOL    HW222977   0.123   4.112  10.294  0.5903 -0.6312 -0.7728
 3782SOL     OW22978   1.995   3.527   4.928  0.9564 -0.1034 -0.3206
 3782SOL    HW122979   1.912   3.490   4.898 -0.1328  3.1658 -1.3664
 3782SOL    HW222980   1.976   3.621   4.916  2.2768  0.4029  1.7424
 3783SOL     OW22981   1.611   2.442   5.198 -0.4568 -0.2833  0.0672
 3783SOL    HW122982   1.669   2.487   5.259  0.1506 -1.9707  0.7277
 3783SOL    HW222983   1.601   2.507   5.128  3.6856  1.4482  1.1040
 3784SOL     OW22984   0.277   2.144   4.328  0.3637  0.1713 -0.1567
 3784SOL    HW122985   0.203   2.199   4.303 -0.5021 -0.4206  1.1300
 3784SOL    HW222986   0.235   2.059   4.326  0.7254 -0.0240  0.4588
 3785SOL     OW22987   0.710   1.676   7.375  0.0559  0.1933 -0.1219
 3785SOL    HW122988   0.735   1.704   7.463 -4.4245 -1.1196  1.5590
 3785SOL    HW222989   0.649   1.604   7.389 -1.4046  1.1021 -1.7372
 3786SOL     OW22990   0.995   4.016   4.743  0.1111  0.1942  0.0126
 3786SOL    HW122991   1.025   3.943   4.690  0.2016 -0.9080  1.5970
 3786SOL    HW222992   1.057   4.014   4.816 -1.3557  2.8118  1.3420
 3787SOL     OW22993   4.138   4.393  10.850 -0.6300  0.4405 -0.4758
 3787SOL    HW122994   4.148   4.349  10.765 -1.2725  1.1644 -0.9191
 3787SOL    HW222995   4.056   4.437  10.830  0.3817  1.4748 -2.3824
 3788SOL     OW22996   2.727   2.706   8.278 -0.3276 -0.9255  0.8250
 3788SOL    HW122997   2.799   2.663   8.324 -0.6270 -5.0115 -2.5282
 3788SOL    HW222998   2.774   2.744   8.204 -0.0171 -2.1474  0.3914
 3789SOL     OW22999   2.664   1.078   3.118  0.2113 -0.4956 -0.1682
 3789SOL    HW123000   2.689   0.988   3.096 -0.4995 -0.5417 -0.7680
 3789SOL    HW223001   2.670   1.123   3.034 -0.5101 -0.7309 -0.3447
 3790SOL     OW23002   2.847   4.428   4.548 -0.1635 -0.2188 -0.4353
 3790SOL    HW123003   2.783   4.479   4.598  1.0977  2.3826 -1.4722
 3790SOL    HW223004   2.916   4.493   4.542 -0.8489  0.5463 -0.0809
 3791SOL     OW23005   2.008   0.384  16.434  0.5204 -0.0300 -0.7719
 3791SOL    HW123006   2.100   0.367  16.449 -0.4572 -2.4323  2.4257
 3791SOL    HW223007   2.022   0.461  16.379 -1.2784  0.2065 -0.8995
 3792SOL     OW23008   0.839   2.763   7.519 -0.1398 -0.0800 -0.4560
 3792SOL    HW123009   0.762   2.811   7.490  0.1092  1.3399  1.2683
 3792SOL    HW223010   0.908   2.807   7.470  0.7366  0.0887  0.9248
 3793SOL     OW23011   2.255   4.380  10.549  0.1002 -0.0729  0.2330
 3793SOL    HW123012   2.298   4.301  10.517 -0.7048 -0.2218 -0.4835
 3793SOL    HW223013   2.312   4.450  10.517 -1.5571  1.3086  0.2814
 3794SOL     OW23014   0.502   1.341  11.617 -0.0723  0.1795  0.2524
 3794SOL    HW123015   0.440   1.282  11.660  1.8134 -2.2106 -0.2485
 3794SOL    HW223016   0.489   1.321  11.524  2.7045  0.8955 -0.3099
 3795SOL     OW23017   0.298   1.909  16.250  0.2197  0.3633 -0.1275
 3795SOL    HW123018   0.247   1.979  16.209 -0.6566 -1.0620 -1.4612
 3795SOL    HW223019   0.283   1.840  16.186  0.1259  0.1850  0.0848
 3796SOL     OW23020   2.175   4.687   1.608  0.0238  0.1428  0.2092
 3796SOL    HW123021   2.222   0.029   1.577 -1.9483  1.8281  1.4547
 3796SOL    HW223022   2.086   4.703   1.578  0.1560  1.2945  0.4309
 3797SOL     OW23023   2.345   2.396   3.687 -0.8332 -0.2466 -0.2523
 3797SOL    HW123024   2.361   2.329   3.622 -1.5161 -0.9538  0.3071
 3797SOL    HW223025   2.289   2.457   3.639  0.3932  1.9736  1.1208
 3798SOL     OW23026   3.167   3.704   5.818 -0.4577 -0.2536  0.0792
 3798SOL    HW123027   3.095   3.680   5.877 -0.7903 -0.8438 -0.5783
 3798SOL    HW223028   3.109   3.704   5.743  0.4146  1.3224 -0.6042
 3799SOL     OW23029   2.910   0.481   4.846  0.2305  0.5382 -0.1348
 3799SOL    HW123030   2.873   0.531   4.773 -1.6860  1.1206  1.2419
 3799SOL    HW223031   2.858   0.401   4.832  0.0445  0.6454 -0.0585
 3800SOL     OW23032   1.073   0.519   7.926 -0.4382  0.0963 -0.0448
 3800SOL    HW123033   1.027   0.486   7.849 -0.2576  0.8462 -0.4770
 3800SOL    HW223034   1.069   0.614   7.920  0.9374  0.2424  1.3630
 3801SOL     OW23035   0.296   1.200  15.931  0.2080  0.7011  0.6960
 3801SOL    HW123036   0.305   1.139  16.004 -1.4108  0.4666  0.6981
 3801SOL    HW223037   0.279   1.149  15.852 -1.7034  1.1237  0.8459
 3802SOL     OW23038   0.383   3.451   7.777  0.3684  0.2406  0.2889
 3802SOL    HW123039   0.367   3.390   7.705  2.8843 -1.1588  0.9388
 3802SOL    HW223040   0.436   3.512   7.726  3.5029 -1.8530  1.0217
 3803SOL     OW23041   2.819   3.026   2.166 -0.6122  0.0048  0.4261
 3803SOL    HW123042   2.871   3.105   2.183 -0.6593  0.5013 -1.7421
 3803SOL    HW223043   2.789   3.006   2.254 -1.4954  1.7272  0.5179
 3804SOL     OW23044   2.887   0.609   3.573 -0.3443  0.3885 -0.1078
 3804SOL    HW123045   2.920   0.563   3.496 -0.7929 -0.4461  0.2032
 3804SOL    HW223046   2.965   0.664   3.583 -0.8630  1.1545 -0.2614
 3805SOL     OW23047   0.957   2.445   3.056  0.4082  0.2220 -0.0757
 3805SOL    HW123048   0.874   2.410   3.089  0.5933 -1.1956 -1.0940
 3805SOL    HW223049   0.968   2.393   2.977 -2.0480  0.9072 -0.8539
 3806SOL     OW23050   3.564   4.317   5.143 -0.4108 -0.0592 -0.1798
 3806SOL    HW123051   3.651   4.275   5.139  0.1308  0.9357  1.3370
 3806SOL    HW223052   3.513   4.241   5.117  0.9584 -0.4798 -1.6520
 3807SOL     OW23053   2.679   2.081   1.898  0.5986  0.3647  0.5420
 3807SOL    HW123054   2.660   2.141   1.970 -2.2055 -1.0774  0.9749
 3807SOL    HW223055   2.771   2.105   1.885  0.3602  0.2453 -1.4971
 3808SOL     OW23056   4.438   3.726   1.936 -0.2230 -0.3502  0.0019
 3808SOL    HW123057   4.498   3.744   2.008 -1.0546  0.0204  0.6048
 3808SOL    HW223058   4.408   3.814   1.910 -0.5716 -1.2074 -2.5111
 3809SOL     OW23059   1.962   1.498  16.866 -0.3252  0.1227 -0.5417
 3809SOL    HW123060   1.981   1.571  16.925 -0.8460 -0.2057  0.0270
 3809SOL    HW223061   1.883   1.538  16.829 -1.3385 -1.6028 -0.2350
 3810SOL     OW23062   2.168   0.611  13.128  0.6864  0.1948 -0.3073
 3810SOL    HW123063   2.108   0.538  13.115 -0.6097  1.3652 -0.9151
 3810SOL    HW223064   2.115   0.687  13.101 -0.0782 -1.2996 -3.0130
 3811SOL     OW23065   2.320   3.366   4.302 -0.2368 -0.9724 -0.0398
 3811SOL    HW123066   2.230   3.396   4.317  1.0257  2.3169  1.0184
 3811SOL    HW223067   2.315   3.295   4.366 -2.1639 -0.8432 -0.0510
 3812SOL     OW23068   1.661   2.584   5.807 -0.2803 -0.1079 -0.0305
 3812SOL    HW123069   1.726   2.545   5.865 -0.1703  0.3644  0.1689
 3812SOL    HW223070   1.705   2.655   5.761 -0.0967  0.3625  0.8675
 3813SOL     OW23071   0.833   4.135   1.096 -0.2371  0.2339  0.0839
 3813SOL    HW123072   0.846   4.049   1.056  0.2942  0.4190 -0.1329
 3813SOL    HW223073   0.859   4.123   1.187  0.9692 -0.9721 -0.4172
 3814SOL     OW23074   1.943   2.445   2.725  0.2223  0.2682  0.2123
 3814SOL    HW123075   1.893   2.479   2.651 -0.9349 -0.2111  0.7623
 3814SOL    HW223076   1.875   2.382   2.752 -0.4837 -0.0766 -2.3101
 3815SOL     OW23077   0.906   1.200   1.843  0.2064  0.1873  0.0737
 3815SOL    HW123078   0.945   1.184   1.758  0.4169  0.1870  0.1707
 3815SOL    HW223079   0.932   1.289   1.867  2.3712 -1.1996  2.9536
 3816SOL     OW23080   1.398   0.570   4.923  0.1918 -0.0930  0.4304
 3816SOL    HW123081   1.314   0.537   4.955 -0.9861  2.0834 -0.4021
 3816SOL    HW223082   1.399   0.562   4.828  1.4885 -1.6436  0.5753
 3817SOL     OW23083   4.520   0.853   9.157 -0.0626  0.2764 -0.7339
 3817SOL    HW123084   4.495   0.760   9.158 -0.5261  0.4626  3.4739
 3817SOL    HW223085   4.447   0.897   9.113 -0.8355 -0.5083 -0.2464
 3818SOL     OW23086   0.071   3.968   0.181  0.3294 -0.5605 -0.1951
 3818SOL    HW123087   0.135   3.992   0.114  0.0283 -1.8169 -0.9304
 3818SOL    HW223088   0.039   4.056   0.199  1.5570 -0.1626  0.0069
 3819SOL     OW23089   4.415   3.558   9.510 -0.7816  0.0476 -0.3432
 3819SOL    HW123090   4.408   3.654   9.513 -0.8883 -0.0483  1.9573
 3819SOL    HW223091   4.505   3.555   9.479  0.0480 -0.9530  2.2317
 3820SOL     OW23092   1.446   4.505  10.077 -0.1517 -0.3502  0.1587
 3820SOL    HW123093   1.355   4.533  10.067  0.1097  0.8320  1.1808
 3820SOL    HW223094   1.495   4.585  10.058  1.1651 -0.2480  3.8975
 3821SOL     OW23095   1.489   4.125   4.525 -0.1891 -0.0098  0.1058
 3821SOL    HW123096   1.405   4.139   4.482  0.2171 -0.3313 -0.7823
 3821SOL    HW223097   1.548   4.144   4.452  0.5643 -2.5685  0.0312
 3822SOL     OW23098   0.149   3.151  17.336  0.0059  0.2428  0.0756
 3822SOL    HW123099   0.098   3.070  17.338  2.2548 -1.1821 -0.1748
 3822SOL    HW223100   0.168   3.164  17.429  0.8929 -0.0675 -0.0641
 3823SOL     OW23101   2.828   2.331  14.825  0.2031 -0.1925 -0.1885
 3823SOL    HW123102   2.816   2.360  14.915 -0.7328  1.1750 -0.7438
 3823SOL    HW223103   2.919   2.301  14.829  0.0593 -0.4621  0.9723
 3824SOL     OW23104   4.350   2.963   8.762 -0.2126  0.1045 -0.0763
 3824SOL    HW123105   4.305   3.045   8.741 -2.0343 -1.2291 -1.3788
 3824SOL    HW223106   4.279   2.934   8.819  1.4209 -2.8591  0.4450
 3825SOL     OW23107   1.166   4.679   2.714 -0.4466 -0.0121  0.0954
 3825SOL    HW123108   1.117   4.677   2.632 -1.2864 -2.4943  0.6511
 3825SOL    HW223109   1.192   4.587   2.720 -1.0960 -0.1624  0.6045
 3826SOL     OW23110   1.638   1.207  12.168 -0.1227  0.2833  0.0106
 3826SOL    HW123111   1.555   1.166  12.191 -0.0116 -0.9246 -1.7666
 3826SOL    HW223112   1.671   1.248  12.249  1.1044  1.1557 -0.9236
 3827SOL     OW23113   3.074   3.570  14.122 -0.0440  0.3356  0.4528
 3827SOL    HW123114   2.979   3.571  14.138  0.0399 -0.1071  0.9946
 3827SOL    HW223115   3.083   3.663  14.101 -0.7884 -0.2415 -2.3866
 3828SOL     OW23116   4.698   0.164   0.113  0.6727  0.0647 -0.0028
 3828SOL    HW123117   4.685   0.213   0.194 -3.7158 -0.2449 -0.5191
 3828SOL    HW223118   0.007   0.228   0.058 -0.2490  1.0528  0.3962
 3829SOL     OW23119   4.045   0.715   7.145 -0.1288  0.0141 -0.4729
 3829SOL    HW123120   3.972   0.764   7.108 -0.2543 -0.4298 -0.8146
 3829SOL    HW223121   4.028   0.630   7.104 -1.6891  0.9804 -1.8076
 3830SOL     OW23122   4.564   1.006  14.097  0.1516  0.7149 -0.4106
 3830SOL    HW123123   4.613   0.963  14.027 -1.1553 -0.9582 -0.2862
 3830SOL    HW223124   4.555   0.931  14.155 -0.9701  1.0125 -0.1921
 3831SOL     OW23125   1.683   2.904   2.331 -0.6929  0.2185  0.2657
 3831SOL    HW123126   1.733   2.822   2.338 -1.8781 -0.6848 -1.7987
 3831SOL    HW223127   1.706   2.936   2.418  1.0138  2.3674 -0.9675
 3832SOL     OW23128   1.467   0.195   5.605 -0.0485  0.3880  0.2995
 3832SOL    HW123129   1.412   0.150   5.542 -0.4660  1.6361 -0.2295
 3832SOL    HW223130   1.398   0.232   5.661 -0.7497 -2.2699  1.1783
 3833SOL     OW23131   4.106   4.366   2.021  0.2728  0.0497 -0.4360
 3833SOL    HW123132   4.139   4.381   1.932 -0.4193  0.6764 -0.5783
 3833SOL    HW223133   4.171   4.300   2.046 -0.8952 -1.2962 -0.9011
 3834SOL     OW23134   4.202   0.394   6.051 -0.4734  0.2226 -0.2167
 3834SOL    HW123135   4.127   0.365   5.999 -0.6563  1.3315 -0.5669
 3834SOL    HW223136   4.269   0.349   6.000  1.1119  1.6855  0.5979
 3835SOL     OW23137   2.830   1.833   8.545 -0.1992  0.0091 -0.0140
 3835SOL    HW123138   2.797   1.923   8.546  2.3605  0.9903 -3.3461
 3835SOL    HW223139   2.813   1.799   8.457  1.3811 -2.2034  0.5484
 3836SOL     OW23140   2.583   1.975   3.658  0.1365 -0.1484  0.1110
 3836SOL    HW123141   2.602   1.888   3.693  1.1832  0.0052 -0.0833
 3836SOL    HW223142   2.669   1.985   3.618  0.8646  4.4775  2.8780
 3837SOL     OW23143   3.219   2.240  17.394 -0.0382  0.2683  0.0706
 3837SOL    HW123144   3.138   2.239  17.446 -1.4331 -0.0741 -2.1231
 3837SOL    HW223145   3.237   2.334  17.397 -1.5353  0.6015 -1.3326
 3838SOL     OW23146   3.198   0.004   4.426 -0.7505  0.0603  0.7164
 3838SOL    HW123147   3.225   4.650   4.444  2.5518  0.6506 -1.2306
 3838SOL    HW223148   3.105   0.005   4.449 -1.0378 -0.3057 -0.4260
 3839SOL     OW23149   2.950   1.595  10.609 -0.5595 -0.1085 -0.0462
 3839SOL    HW123150   3.000   1.613  10.689 -0.8774 -0.3520  0.2096
 3839SOL    HW223151   2.997   1.647  10.544 -1.6903 -0.0964 -0.8650
 3840SOL     OW23152   0.103   3.268   6.808 -0.6928 -0.0068 -0.1761
 3840SOL    HW123153   0.053   3.277   6.727  1.9480 -1.6282 -1.9826
 3840SOL    HW223154   0.130   3.177   6.795 -1.2045 -0.2508  0.4590
 3841SOL     OW23155   1.306   3.382  11.338 -0.1961  0.3765 -0.4245
 3841SOL    HW123156   1.327   3.313  11.275 -1.5089 -2.0618  1.8011
 3841SOL    HW223157   1.385   3.393  11.391 -0.4245 -0.6517  0.1175
 3842SOL     OW23158   0.041   1.651   7.486  0.3717  0.3701 -0.0603
 3842SOL    HW123159   0.048   1.689   7.398 -1.5409  2.2229  0.5824
 3842SOL    HW223160   0.133   1.635   7.505  0.2318 -0.9037 -0.4497
 3843SOL     OW23161   1.675   1.744   5.548  0.3056 -0.1493 -0.3297
 3843SOL    HW123162   1.645   1.695   5.472  0.5242  0.4564 -0.8070
 3843SOL    HW223163   1.707   1.826   5.509  0.1898  0.6320  1.2039
 3844SOL     OW23164   0.194   3.582   9.166 -0.2357 -1.0663  0.4963
 3844SOL    HW123165   0.243   3.663   9.182 -1.3315 -0.2385 -0.3802
 3844SOL    HW223166   0.231   3.528   9.236  1.9569 -1.1190 -0.6814
 3845SOL     OW23167   2.640   0.974  14.227  0.1694  0.4626 -0.3995
 3845SOL    HW123168   2.643   1.069  14.241 -0.8156  0.4422 -0.0487
 3845SOL    HW223169   2.724   0.942  14.261  0.0248  0.3271 -0.1766
 3846SOL     OW23170   1.318   0.134  11.983 -0.8465 -0.1686  0.0303
 3846SOL    HW123171   1.362   0.216  11.959 -0.6068 -0.1713  0.4569
 3846SOL    HW223172   1.244   0.137  11.922  0.3010  1.8344 -1.2857
 3847SOL     OW23173   3.553   2.149   6.733 -0.1850 -0.4175 -0.3394
 3847SOL    HW123174   3.523   2.232   6.694 -1.2288 -0.2355  0.8514
 3847SOL    HW223175   3.491   2.088   6.693 -2.6967  2.7042 -1.2220
 3848SOL     OW23176   2.328   4.429  10.806 -0.2014  0.0362  0.2296
 3848SOL    HW123177   2.309   4.352  10.859  0.6930  1.1100  2.1206
 3848SOL    HW223178   2.300   4.399  10.719 -1.6259 -0.2262  0.7788
 3849SOL     OW23179   0.305   2.230   8.752 -0.4098  0.1924 -0.0850
 3849SOL    HW123180   0.347   2.149   8.723 -1.0882 -0.0503 -0.4028
 3849SOL    HW223181   0.377   2.276   8.794 -0.9691  0.7113  0.3069
 3850SOL     OW23182   1.603   1.421   5.788 -0.1530 -0.0082 -0.2945
 3850SOL    HW123183   1.691   1.423   5.825 -0.1633 -0.2338 -0.2621
 3850SOL    HW223184   1.560   1.481   5.849  0.3224  0.0257  0.0077
 3851SOL     OW23185   4.224   2.573   7.132  0.6731 -0.3255 -0.0431
 3851SOL    HW123186   4.274   2.654   7.147  0.0407 -0.1342  1.0251
 3851SOL    HW223187   4.240   2.562   7.038  1.5204  0.6592 -0.0163
 3852SOL     OW23188   3.335   3.836  12.760 -0.0957  0.1542 -0.1311
 3852SOL    HW123189   3.359   3.925  12.734 -0.2092 -0.3555 -1.9709
 3852SOL    HW223190   3.273   3.820  12.689  0.6585  0.5895 -0.8978
 3853SOL     OW23191   1.868   3.534   2.838 -0.5683  0.2115 -0.5121
 3853SOL    HW123192   1.790   3.512   2.890  0.1257 -0.9602  0.0240
 3853SOL    HW223193   1.908   3.592   2.903  0.7761  0.0940 -1.2635
 3854SOL     OW23194   3.666   3.563   2.186  0.6318  0.6009 -0.7549
 3854SOL    HW123195   3.701   3.517   2.263 -1.8114 -0.9856 -0.5910
 3854SOL    HW223196   3.603   3.501   2.149  0.9733 -0.3838  0.2800
 3855SOL     OW23197   2.450   2.278  13.599 -0.3191 -0.1896 -1.0611
 3855SOL    HW123198   2.443   2.373  13.589 -0.8261  0.0960  1.8843
 3855SOL    HW223199   2.482   2.258  13.511 -0.1865  0.7909 -1.2259
 3856SOL     OW23200   0.360   4.025  12.217  0.0396  0.5989 -0.1657
 3856SOL    HW123201   0.421   3.980  12.275 -0.4617 -0.5559 -0.5424
 3856SOL    HW223202   0.405   4.110  12.215  1.6861 -0.2480  1.7307
 3857SOL     OW23203   3.964   3.142   8.655  0.2704 -0.7130  0.5095
 3857SOL    HW123204   4.057   3.160   8.667  0.6846 -1.3041 -1.8365
 3857SOL    HW223205   3.928   3.231   8.647  0.6824 -0.5618  0.3380
 3858SOL     OW23206   2.394   3.689   2.548  0.4955  0.2123  0.4015
 3858SOL    HW123207   2.334   3.725   2.613 -1.5917 -0.9607 -0.8661
 3858SOL    HW223208   2.340   3.629   2.496  2.8356 -0.6944 -0.9686
 3859SOL     OW23209   3.413   0.588   6.091  0.2949 -0.1134  0.2406
 3859SOL    HW123210   3.321   0.568   6.074  0.3985 -0.3374 -0.0574
 3859SOL    HW223211   3.461   0.552   6.016 -0.8729 -0.3558 -0.3871
 3860SOL     OW23212   4.307   1.955   3.216 -0.5082  0.0030  0.0210
 3860SOL    HW123213   4.216   1.973   3.239 -0.7442 -0.3333 -0.6706
 3860SOL    HW223214   4.350   2.006   3.285 -1.3140  0.9362 -0.1554
 3861SOL     OW23215   0.254   1.495   6.149  0.2627 -0.0961 -0.2839
 3861SOL    HW123216   0.261   1.459   6.237 -0.1923 -0.4417 -0.3893
 3861SOL    HW223217   0.235   1.420   6.092 -0.3574  1.5613 -2.2571
 3862SOL     OW23218   0.936   4.494  14.190  0.0786 -0.1219  0.1221
 3862SOL    HW123219   0.945   4.433  14.116  2.0073  0.4424 -0.1083
 3862SOL    HW223220   1.015   4.474  14.240 -1.0970 -0.8131  1.7261
 3863SOL     OW23221   4.520   1.654   3.789 -0.1475 -0.3563  0.2437
 3863SOL    HW123222   4.517   1.612   3.875 -0.6176 -0.6212  0.0968
 3863SOL    HW223223   4.434   1.629   3.755 -0.7996  2.2655  0.0027
 3864SOL     OW23224   1.319   4.241   0.564  0.0767 -0.2385  0.8328
 3864SOL    HW123225   1.286   4.254   0.653 -1.1497  0.3744  0.2878
 3864SOL    HW223226   1.260   4.295   0.511 -0.1133 -1.0824  0.1849
 3865SOL     OW23227   1.143   2.290   6.519 -0.2082 -0.3718 -0.6639
 3865SOL    HW123228   1.206   2.262   6.452 -0.4730  0.4920 -1.2814
 3865SOL    HW223229   1.142   2.207   6.567 -3.1973 -0.6239 -1.1967
 3866SOL     OW23230   2.417   3.370   4.036 -0.2492 -0.1488 -0.0181
 3866SOL    HW123231   2.387   3.321   4.113  0.6270 -2.0510 -0.8801
 3866SOL    HW223232   2.461   3.300   3.989  1.9273  0.8792  0.5077
 3867SOL     OW23233   4.141   3.822   4.112 -0.5818 -0.7201 -0.1703
 3867SOL    HW123234   4.072   3.756   4.107 -1.4099  0.1116  0.4639
 3867SOL    HW223235   4.150   3.851   4.022  1.8236 -1.2744 -0.1244
 3868SOL     OW23236   1.368   3.237   7.339 -0.4177  0.1558  0.1547
 3868SOL    HW123237   1.365   3.332   7.351  0.3144  0.3041 -0.7914
 3868SOL    HW223238   1.372   3.219   7.433 -0.6074  0.9947  0.3263
 3869SOL     OW23239   4.293   4.543  11.697 -0.4007  0.3094 -0.0205
 3869SOL    HW123240   4.254   4.477  11.755  0.5300  0.6144  0.9361
 3869SOL    HW223241   4.353   4.490  11.645 -1.5903  0.8051 -1.8993
 3870SOL     OW23242   3.492   1.136   8.163 -0.3981 -0.3312  0.0860
 3870SOL    HW123243   3.459   1.107   8.247 -1.5902  1.4798  0.2436
 3870SOL    HW223244   3.519   1.053   8.124 -0.9248 -0.7339  0.6026
 3871SOL     OW23245   1.893   2.543   6.510 -0.4994  0.0808 -0.1612
 3871SOL    HW123246   1.981   2.578   6.516 -0.2538 -0.1215 -2.6866
 3871SOL    HW223247   1.888   2.498   6.426 -1.5200 -2.2933  1.1420
 3872SOL     OW23248   3.029   2.865   1.259  0.0368 -0.1758  0.0499
 3872SOL    HW123249   2.971   2.852   1.334 -0.0960  0.1708  0.0054
 3872SOL    HW223250   3.084   2.920   1.314 -0.5100 -0.1293  0.5542
 3873SOL     OW23251   0.099   1.130   9.560 -0.0578 -0.1764 -0.0472
 3873SOL    HW123252   0.099   1.049   9.509  2.2965 -0.1371 -0.1348
 3873SOL    HW223253   0.027   1.173   9.514 -0.6310 -0.9782  0.1189
 3874SOL     OW23254   1.710   2.548  13.458 -0.2965 -0.6001  0.4481
 3874SOL    HW123255   1.681   2.623  13.510 -2.3416 -0.5853 -0.7102
 3874SOL    HW223256   1.730   2.482  13.524 -1.5727 -3.1826 -1.7486
 3875SOL     OW23257   1.880   4.540   4.523 -0.0907  0.0756  0.1188
 3875SOL    HW123258   1.896   4.524   4.430 -1.3944 -0.5514  0.0148
 3875SOL    HW223259   1.797   4.497   4.541  0.3519  0.4438  3.1267
 3876SOL     OW23260   0.128   0.951   6.678  0.2852  0.1698 -0.1607
 3876SOL    HW123261   0.047   0.913   6.644  0.7426 -0.2758 -0.7706
 3876SOL    HW223262   0.087   1.002   6.748  0.2977 -1.0181  0.7166
 3877SOL     OW23263   2.649   2.555  10.080  0.2902  0.1110 -0.4302
 3877SOL    HW123264   2.663   2.473  10.032 -1.3545 -0.8190  0.6575
 3877SOL    HW223265   2.704   2.610  10.025  2.1809  0.5256  1.8615
 3878SOL     OW23266   0.946   3.697   3.209 -0.3906  0.0692 -0.4520
 3878SOL    HW123267   0.958   3.676   3.116  1.4777  0.7612 -0.3636
 3878SOL    HW223268   0.935   3.609   3.245  0.4347  0.8643  1.6852
 3879SOL     OW23269   2.396   1.108  11.816 -0.2367  0.0720 -0.0360
 3879SOL    HW123270   2.323   1.137  11.762  1.3347  0.4744 -1.9493
 3879SOL    HW223271   2.346   1.094  11.897 -0.4649 -3.1630 -0.7448
 3880SOL     OW23272   2.694   3.350  17.297 -0.1557 -0.1434 -0.4129
 3880SOL    HW123273   2.662   3.439  17.282 -1.7097 -1.0105 -2.3089
 3880SOL    HW223274   2.732   3.328  17.212 -1.6163 -0.6410 -0.9363
 3881SOL     OW23275   3.772   3.057   3.429 -0.5739  0.4386 -0.0605
 3881SOL    HW123276   3.826   3.125   3.469 -2.4693  1.1258  1.3140
 3881SOL    HW223277   3.811   2.982   3.475 -0.7775 -0.3072 -1.0983
 3882SOL     OW23278   4.173   2.563  15.342 -0.2062 -0.6758 -0.1918
 3882SOL    HW123279   4.203   2.653  15.342 -1.1551 -0.3596 -0.1555
 3882SOL    HW223280   4.233   2.508  15.291 -0.9767 -2.6559  0.9982
 3883SOL     OW23281   0.604   1.489   7.100 -0.3867  0.2402  0.0087
 3883SOL    HW123282   0.556   1.557   7.052  0.4390 -0.3770 -1.6954
 3883SOL    HW223283   0.558   1.488   7.184  0.4289  0.6058  0.4567
 3884SOL     OW23284   3.300   1.017   6.620 -0.1616  0.0018 -0.0026
 3884SOL    HW123285   3.309   0.924   6.600 -1.3788 -0.1636  0.1705
 3884SOL    HW223286   3.311   1.062   6.536 -2.1897  1.0114  0.2650
 3885SOL     OW23287   1.408   1.511  11.674 -0.2027  0.2766 -0.2037
 3885SOL    HW123288   1.416   1.572  11.601  1.8696  0.0867 -0.1240
 3885SOL    HW223289   1.315   1.490  11.684  0.4130 -0.9335  3.1546
 3886SOL     OW23290   4.296   1.467  11.376 -0.1905  0.5267  0.3424
 3886SOL    HW123291   4.260   1.554  11.397  0.7596  0.7895  0.8616
 3886SOL    HW223292   4.372   1.471  11.434 -0.0128 -0.9778  0.2044
 3887SOL     OW23293   4.539   2.621   3.416 -0.2280  0.3858 -0.1840
 3887SOL    HW123294   4.463   2.655   3.464  0.2118  0.2873  0.5934
 3887SOL    HW223295   4.507   2.533   3.399 -1.2983  0.8013 -0.3337
 3888SOL     OW23296   4.464   3.301   9.899  0.2364  0.8069 -0.6747
 3888SOL    HW123297   4.492   3.334   9.984 -2.9056  0.0219  0.6732
 3888SOL    HW223298   4.501   3.363   9.836  2.0888 -0.7483 -1.0934
 3889SOL     OW23299   4.618   3.188   9.535 -0.5456  0.1256  0.3299
 3889SOL    HW123300   4.557   3.118   9.557 -0.0441 -0.1753  0.7590
 3889SOL    HW223301   4.610   3.238   9.616  1.0186  1.2387 -0.2091
 3890SOL     OW23302   4.060   1.686   8.202  0.3258 -0.0630 -0.1885
 3890SOL    HW123303   4.153   1.708   8.199  0.2120  0.1256 -2.1688
 3890SOL    HW223304   4.028   1.762   8.253  2.0185 -0.2573  1.1759
 3891SOL     OW23305   0.036   1.991   4.914  0.1541 -0.4753  0.0987
 3891SOL    HW123306   0.129   2.007   4.932  0.1807  0.4584 -0.8469
 3891SOL    HW223307   0.005   1.962   5.000  2.1455 -0.2050  0.9229
 3892SOL     OW23308   2.792   3.809  14.008 -0.3503 -0.3433  0.3961
 3892SOL    HW123309   2.819   3.805  13.917 -0.8783 -0.5746  0.2490
 3892SOL    HW223310   2.872   3.817  14.061 -0.6935  2.4642  0.4973
 3893SOL     OW23311   3.937   0.569   1.934  0.0714 -0.5386 -0.4067
 3893SOL    HW123312   3.923   0.505   1.865  1.4961  1.3921 -2.4796
 3893SOL    HW223313   4.028   0.592   1.916  0.2217 -0.1549  0.8565
 3894SOL     OW23314   2.929   0.059  11.757 -0.3650 -0.1043 -0.0818
 3894SOL    HW123315   2.937   0.018  11.843  1.4548 -3.2857 -1.7561
 3894SOL    HW223316   2.877   4.725  11.719  1.6912 -2.5841  1.7220
 3895SOL     OW23317   2.068   3.544  15.747  0.0207  0.5311 -0.3307
 3895SOL    HW123318   2.029   3.553  15.660 -1.2665 -0.2818  0.1572
 3895SOL    HW223319   2.128   3.477  15.716  0.9862  1.7039 -1.0067
 3896SOL     OW23320   0.125   1.874   3.113  0.0884 -0.2225 -0.4738
 3896SOL    HW123321   0.124   1.778   3.103  1.2138 -0.1791 -0.9698
 3896SOL    HW223322   0.059   1.905   3.050  3.1752 -3.0853 -5.1896
 3897SOL     OW23323   0.184   3.055   2.329 -0.2240 -0.1845  0.5518
 3897SOL    HW123324   0.262   3.050   2.383 -0.0752  1.0644  0.4597
 3897SOL    HW223325   0.172   3.144   2.295  0.6848 -0.7878 -1.3256
 3898SOL     OW23326   1.210   0.788  13.662  0.0745  0.4016 -0.1449
 3898SOL    HW123327   1.220   0.699  13.630 -2.6605  0.1311 -0.2218
 3898SOL    HW223328   1.199   0.830  13.576  0.9152  0.3657 -0.2703
 3899SOL     OW23329   4.082   0.390   3.849 -0.3933  0.3029  0.2581
 3899SOL    HW123330   4.066   0.476   3.810  0.0123  0.0306 -0.5212
 3899SOL    HW223331   4.149   0.423   3.909 -1.4062  1.6946  0.6145
 3900SOL     OW23332   2.478   3.892  12.704  0.1300 -0.1705  0.2451
 3900SOL    HW123333   2.419   3.910  12.778  0.2071  0.7994  0.0700
 3900SOL    HW223334   2.425   3.931  12.634 -0.2753 -0.4271  0.4101
 3901SOL     OW23335   3.429   0.301   2.078 -0.6742 -0.0093 -0.5277
 3901SOL    HW123336   3.384   0.264   2.001 -3.6587  2.2993  0.0797
 3901SOL    HW223337   3.378   0.265   2.150  2.2607 -0.6689  1.2046
 3902SOL     OW23338   3.647   0.911  14.978  0.6466  0.3167 -0.4551
 3902SOL    HW123339   3.605   0.833  14.942  0.3380  0.1768  0.2097
 3902SOL    HW223340   3.715   0.913  14.911 -1.1189  2.2766 -2.1992
 3903SOL     OW23341   4.024   3.572   0.075  0.8963 -0.0515 -0.7205
 3903SOL    HW123342   3.935   3.606   0.064  0.7370 -0.0185  0.6490
 3903SOL    HW223343   4.069   3.657   0.066 -0.3189  0.6504 -0.1831
 3904SOL     OW23344   1.971   0.817  14.328 -0.3184  0.2027  0.1193
 3904SOL    HW123345   2.044   0.847  14.382 -1.2529  0.8549  1.0221
 3904SOL    HW223346   2.014   0.819  14.243  0.2537  2.3156  0.4656
 3905SOL     OW23347   2.554   1.243   3.516 -0.6639 -0.4196  0.3974
 3905SOL    HW123348   2.469   1.208   3.544 -1.6814  0.1097 -2.0719
 3905SOL    HW223349   2.584   1.170   3.461 -2.0316 -1.6901  1.3364
 3906SOL     OW23350   3.337   2.382   6.980  0.1584  0.0483  0.2195
 3906SOL    HW123351   3.300   2.301   6.944  1.0870 -0.1173 -0.3636
 3906SOL    HW223352   3.348   2.350   7.070  0.0617 -0.0552  0.1952
 3907SOL     OW23353   2.403   0.158   6.247 -0.1798 -0.4799 -0.0240
 3907SOL    HW123354   2.425   0.197   6.163  0.5148  1.3627  1.0167
 3907SOL    HW223355   2.307   0.160   6.249 -0.1195  0.7608  2.0646
 3908SOL     OW23356   2.526   3.783   4.638 -0.0419  0.0887  0.1696
 3908SOL    HW123357   2.544   3.867   4.680  2.3211 -0.6186  0.5865
 3908SOL    HW223358   2.483   3.806   4.556  3.4698 -1.8392 -2.2455
 3909SOL     OW23359   3.097   3.155   8.736 -0.3213 -0.9171 -0.3171
 3909SOL    HW123360   3.183   3.144   8.696  0.0908 -0.0162  0.3524
 3909SOL    HW223361   3.113   3.131   8.827 -0.7130  2.2407  0.5546
 3910SOL     OW23362   3.381   0.168   7.850 -0.2155 -0.4457 -0.2071
 3910SOL    HW123363   3.420   0.245   7.810  0.1646 -0.3701  0.3241
 3910SOL    HW223364   3.377   0.116   7.769  2.7893  0.3726 -0.8704
 3911SOL     OW23365   0.811   3.434   1.922 -0.3637  0.1644  0.7425
 3911SOL    HW123366   0.881   3.483   1.878 -1.9187 -0.2280 -2.2086
 3911SOL    HW223367   0.846   3.423   2.010 -1.2362  0.3431  1.1134
 3912SOL     OW23368   2.016   0.121   6.557 -0.1761 -0.1546 -0.6064
 3912SOL    HW123369   1.960   0.049   6.527 -1.5465  0.0401  1.4411
 3912SOL    HW223370   1.970   0.146   6.637  2.0138  3.0239 -0.3116
 3913SOL     OW23371   4.433   0.988   9.992 -0.0789  0.4110  0.5381
 3913SOL    HW123372   4.473   0.911   9.953 -1.5247  0.0413 -0.2418
 3913SOL    HW223373   4.486   1.060   9.957 -1.5093  0.9531 -0.5214
 3914SOL     OW23374   1.999   2.307   6.090  0.2051  0.0978 -0.3498
 3914SOL    HW123375   2.076   2.324   6.144  2.3911 -1.5143 -2.9755
 3914SOL    HW223376   2.020   2.217   6.066  0.9643  0.2117 -0.1193
 3915SOL     OW23377   3.240   4.192  12.077 -0.2642 -0.2859 -0.1390
 3915SOL    HW123378   3.313   4.239  12.038 -1.2598  0.6764 -0.8263
 3915SOL    HW223379   3.232   4.124  12.010  3.3482 -0.0170 -0.8346
 3916SOL     OW23380   4.158   3.513   8.131 -0.2058 -0.7928  0.1967
 3916SOL    HW123381   4.145   3.459   8.053  0.2992 -0.8176  0.1282
 3916SOL    HW223382   4.219   3.584   8.111  0.2049 -0.2676  3.3425
 3917SOL     OW23383   4.581   3.611  13.222 -0.1958  0.1990  0.0174
 3917SOL    HW123384   4.622   3.541  13.172 -0.8018  1.3848 -2.1521
 3917SOL    HW223385   4.629   3.615  13.305 -1.7200  3.4381  0.7616
 3918SOL     OW23386   2.603   0.042   5.268  0.1943  0.3772  0.0480
 3918SOL    HW123387   2.690   0.066   5.237 -1.2197  1.2576 -3.2529
 3918SOL    HW223388   2.618   4.718   5.341  0.1939  3.1745  2.3461
 3919SOL     OW23389   3.105   4.321   5.731  0.0838 -0.4221 -0.0809
 3919SOL    HW123390   3.063   4.242   5.698  1.4897 -0.9008 -0.7014
 3919SOL    HW223391   3.152   4.292   5.809 -0.6110 -0.1300  0.4407
 3920SOL     OW23392   0.000   1.653  12.310  0.1308 -0.1507 -0.1890
 3920SOL    HW123393   0.044   1.680  12.391 -1.0831 -0.6885  0.6419
 3920SOL    HW223394   0.023   1.560  12.305  2.3181  0.3856 -0.4237
 3921SOL     OW23395   0.227   1.855  11.645 -0.2132  0.4586 -0.3227
 3921SOL    HW123396   0.312   1.833  11.606  0.0111 -0.2520  0.5502
 3921SOL    HW223397   0.240   1.841  11.739 -1.2687  0.0716 -0.2292
 3922SOL     OW23398   4.550   1.756  11.481 -0.3062 -0.2856  0.5893
 3922SOL    HW123399   4.481   1.697  11.514  0.2994  0.0176  2.4278
 3922SOL    HW223400   4.600   1.703  11.419  0.3336  2.3625 -1.1418
 3923SOL     OW23401   0.944   0.017   3.163  0.0485 -0.5941  0.0961
 3923SOL    HW123402   0.880   0.051   3.101  0.6223  2.6614  1.3033
 3923SOL    HW223403   1.012   4.735   3.099 -0.8167 -0.2780 -0.9117
 3924SOL     OW23404   0.669   2.418   8.480 -0.4047  0.2121  0.1935
 3924SOL    HW123405   0.645   2.456   8.564 -0.0488 -1.5030  1.0903
 3924SOL    HW223406   0.615   2.339   8.474 -0.3131  0.1187  0.6061
 3925SOL     OW23407   1.994   2.246  12.048 -0.4429  0.2678  0.3363
 3925SOL    HW123408   2.012   2.167  11.997 -1.4044 -0.2700  0.8267
 3925SOL    HW223409   2.072   2.248  12.103 -0.4888  0.1484  0.4062
 3926SOL     OW23410   3.906   2.202   3.420  0.5429  0.1262 -0.0466
 3926SOL    HW123411   3.882   2.250   3.499  0.1718  2.1252 -1.3467
 3926SOL    HW223412   3.827   2.213   3.366  1.0148 -0.1246 -0.7815
 3927SOL     OW23413   3.027   2.194   7.305 -0.2871 -0.1483 -0.2681
 3927SOL    HW123414   2.971   2.117   7.297  0.0637 -0.6103  1.6856
 3927SOL    HW223415   2.964   2.264   7.320 -0.1773  0.3871 -2.4031
 3928SOL     OW23416   3.472   2.354   5.397 -0.3825 -0.0497  0.2032
 3928SOL    HW123417   3.483   2.269   5.440  0.0776 -0.3393 -0.4703
 3928SOL    HW223418   3.378   2.366   5.380 -0.3410  0.4576  0.3373
 3929SOL     OW23419   3.910   4.700   7.617 -0.1719 -0.1801  0.0639
 3929SOL    HW123420   3.991   4.711   7.667 -0.2681 -2.9980  0.8423
 3929SOL    HW223421   3.914   0.043   7.563  0.0547 -0.0608  0.2558
 3930SOL     OW23422   1.664   4.297   1.576  0.0538  0.2126 -0.3959
 3930SOL    HW123423   1.699   4.287   1.665 -0.7277 -0.3537 -0.1508
 3930SOL    HW223424   1.735   4.338   1.526  2.1179 -2.2083  0.5128
 3931SOL     OW23425   2.018   2.689   8.747 -0.6810 -0.0954 -0.4488
 3931SOL    HW123426   2.101   2.719   8.709 -1.2579 -0.7873 -2.2319
 3931SOL    HW223427   1.977   2.774   8.763  0.1883  0.4031 -0.8890
 3932SOL     OW23428   1.099   2.524   6.142 -0.6080  0.4733 -0.0841
 3932SOL    HW123429   1.172   2.489   6.092 -2.5098 -0.9537 -1.8431
 3932SOL    HW223430   1.135   2.576   6.214 -0.7886 -0.0926  0.4153
 3933SOL     OW23431   0.961   2.176  13.847  0.1223 -0.2080 -0.0083
 3933SOL    HW123432   0.924   2.091  13.823 -0.4662 -0.4698  1.8724
 3933SOL    HW223433   0.898   2.242  13.818 -0.3507 -0.4636  0.4476
 3934SOL     OW23434   4.072   1.937  12.324  0.0132 -0.1687 -0.4233
 3934SOL    HW123435   4.108   1.869  12.380 -1.9437 -0.6560  0.2538
 3934SOL    HW223436   4.123   1.941  12.243 -0.0574 -0.8139 -0.5035
 3935SOL     OW23437   0.826   2.653   7.226 -0.1594  0.0971 -0.5494
 3935SOL    HW123438   0.747   2.643   7.280  0.1528  2.2285  0.3085
 3935SOL    HW223439   0.865   2.730   7.267  1.6970 -0.3969 -1.4143
 3936SOL     OW23440   2.679   0.658   8.972 -0.3884  0.0616 -0.0668
 3936SOL    HW123441   2.757   0.605   8.990 -1.1185 -1.3851 -1.1114
 3936SOL    HW223442   2.703   0.727   9.033 -1.4093 -0.8215  1.3427
 3937SOL     OW23443   3.771   1.577  11.289  0.2011 -0.1192 -0.2050
 3937SOL    HW123444   3.766   1.660  11.242 -0.7935  0.1859  0.4446
 3937SOL    HW223445   3.788   1.603  11.380  0.2140 -1.1398  0.0946
 3938SOL     OW23446   1.031   3.767   9.909  0.0506 -0.2897 -0.2253
 3938SOL    HW123447   0.984   3.684   9.900  0.1546 -0.3140 -0.5220
 3938SOL    HW223448   0.955   3.824   9.919  0.3735  0.0830  0.1524
 3939SOL     OW23449   2.762   2.662   9.851  0.4209  0.1006  0.4515
 3939SOL    HW123450   2.767   2.732   9.786  2.4366 -1.4958 -1.1125
 3939SOL    HW223451   2.848   2.626   9.830 -0.8744 -3.5903  1.5604
 3940SOL     OW23452   4.690   1.386  12.333  0.2498  0.1321 -0.0522
 3940SOL    HW123453   4.661   1.348  12.251 -0.5104  0.9875 -0.1845
 3940SOL    HW223454   0.047   1.366  12.328  0.1037 -0.0045 -2.1983
 3941SOL     OW23455   2.296   2.054   2.921  0.0466  0.0815  0.2601
 3941SOL    HW123456   2.388   2.043   2.944 -1.0189 -1.1483  3.9650
 3941SOL    HW223457   2.288   1.977   2.865 -3.0487  0.3911  0.2725
 3942SOL     OW23458   2.723   0.706  15.386  0.2351 -0.3441  0.3463
 3942SOL    HW123459   2.678   0.785  15.414 -1.1608 -1.1286  0.3333
 3942SOL    HW223460   2.716   0.661  15.470 -0.2788  0.5759  0.7955
 3943SOL     OW23461   3.119   2.794   2.784 -0.1235 -0.2456 -0.1151
 3943SOL    HW123462   3.156   2.874   2.748  0.6731 -1.6277 -2.3798
 3943SOL    HW223463   3.047   2.777   2.724 -0.7186  0.1666  0.4956
 3944SOL     OW23464   1.209   4.349  14.216 -0.3642 -0.4939  0.0968
 3944SOL    HW123465   1.272   4.420  14.227 -3.9058  2.9688 -1.8768
 3944SOL    HW223466   1.244   4.290  14.283 -0.8781 -0.5385  0.3245
 3945SOL     OW23467   2.653   3.226   4.297 -0.4339  0.1962  1.0069
 3945SOL    HW123468   2.575   3.173   4.285  1.8376 -3.3299  1.8475
 3945SOL    HW223469   2.628   3.269   4.379  0.7329 -0.7385  1.8382
 3946SOL     OW23470   4.035   1.646   3.755 -0.0394 -0.3209 -0.8768
 3946SOL    HW123471   4.107   1.695   3.794 -0.7471 -0.4042  0.5610
 3946SOL    HW223472   4.080   1.569   3.720  0.4241 -1.2397  1.7408
 3947SOL     OW23473   3.828   1.197   9.006  0.6423  0.2513 -0.0770
 3947SOL    HW123474   3.835   1.266   8.940 -1.4540  0.0190 -0.5578
 3947SOL    HW223475   3.886   1.133   8.965 -0.7201 -1.2058  0.2524
 3948SOL     OW23476   3.015   2.550   7.950  0.4419 -0.2196  0.6528
 3948SOL    HW123477   2.924   2.577   7.940  0.5840 -0.3663 -1.0544
 3948SOL    HW223478   3.014   2.462   7.912  3.1613  1.1481 -2.6151
 3949SOL     OW23479   1.355   1.237   3.825 -0.2273 -0.7423  0.0044
 3949SOL    HW123480   1.278   1.233   3.882 -2.1340  0.4789 -2.5012
 3949SOL    HW223481   1.387   1.150   3.848 -2.5760 -1.8239 -0.8136
 3950SOL     OW23482   3.733   3.234  10.917  0.2176 -0.6380 -0.1113
 3950SOL    HW123483   3.784   3.312  10.898  0.6604 -1.2191 -1.2919
 3950SOL    HW223484   3.794   3.197  10.980  0.1985 -0.3347  0.0855
 3951SOL     OW23485   3.965   0.166  11.880 -0.0381  0.0438 -0.0636
 3951SOL    HW123486   4.039   0.185  11.822  0.7028  0.8116  1.1399
 3951SOL    HW223487   3.995   0.217  11.955 -0.1340 -1.2265  0.8348
 3952SOL     OW23488   3.402   1.377  12.571 -0.9335 -0.0046 -1.0954
 3952SOL    HW123489   3.464   1.334  12.512  0.8521 -0.3394  1.0128
 3952SOL    HW223490   3.425   1.469  12.564  0.8450 -0.4566 -1.2354
 3953SOL     OW23491   4.107   4.309  10.597  0.1060  0.1325  0.3153
 3953SOL    HW123492   4.053   4.230  10.597  2.2657 -1.3410  2.7351
 3953SOL    HW223493   4.161   4.283  10.522 -0.0557  1.0228 -0.1158
 3954SOL     OW23494   0.674   1.628   8.568 -0.1861  0.1775  0.5565
 3954SOL    HW123495   0.596   1.615   8.623  0.2616 -1.5145  0.8153
 3954SOL    HW223496   0.707   1.538   8.565 -1.4849 -0.3079  0.6513
 3955SOL     OW23497   0.016   0.346   1.068 -0.0001 -0.5336  0.3805
 3955SOL    HW123498   0.010   0.287   0.992 -2.0200  1.1143 -0.7420
 3955SOL    HW223499   0.038   0.432   1.032 -1.4238 -1.9102 -3.8758
 3956SOL     OW23500   1.883   4.303   6.936 -0.2981 -0.0893 -0.2740
 3956SOL    HW123501   1.960   4.359   6.941  2.4563 -3.5621 -3.4434
 3956SOL    HW223502   1.811   4.358   6.969 -0.0112 -0.2309  0.5831
 3957SOL     OW23503   4.134   0.579   3.232  0.2644  0.1935  0.7611
 3957SOL    HW123504   4.040   0.592   3.244  0.4554  0.8886  1.4664
 3957SOL    HW223505   4.141   0.624   3.148 -3.3085  1.0752  0.9172
 3958SOL     OW23506   0.011   0.497   6.265 -0.4211  0.1408  0.2240
 3958SOL    HW123507   4.704   0.521   6.183 -0.7998 -2.1582 -0.2346
 3958SOL    HW223508   0.090   0.552   6.260 -1.7048  2.1166  1.7711
 3959SOL     OW23509   1.635   1.013   5.050 -0.0932  0.4690 -0.0507
 3959SOL    HW123510   1.638   1.059   4.966  0.1421  0.8470  0.1627
 3959SOL    HW223511   1.554   0.962   5.043  0.4059 -0.2434 -0.6671
 3960SOL     OW23512   4.562   1.323   3.135  0.3579 -0.3708 -0.5177
 3960SOL    HW123513   4.599   1.411   3.137  0.8868 -0.5993 -0.2411
 3960SOL    HW223514   4.642   1.271   3.131 -0.7215 -2.1029  0.3804
 3961SOL     OW23515   2.489   1.819   4.377 -0.4821  0.0034  0.4099
 3961SOL    HW123516   2.395   1.803   4.364 -0.4597  0.9754 -0.9654
 3961SOL    HW223517   2.529   1.735   4.357  1.4805  0.9705  0.3158
 3962SOL     OW23518   0.952   2.888   7.304  0.3271  0.6979 -0.4468
 3962SOL    HW123519   1.030   2.925   7.262  1.9645  0.9195  2.8374
 3962SOL    HW223520   0.935   2.963   7.361  0.0539 -1.7395  2.6749
 3963SOL     OW23521   1.486   4.135   7.364  0.2897 -0.3585 -0.3026
 3963SOL    HW123522   1.549   4.175   7.424  0.5077  0.0576 -0.8063
 3963SOL    HW223523   1.447   4.064   7.416  2.4272 -1.5846 -0.3451
 3964SOL     OW23524   1.060   4.143  15.673 -0.4040  0.8180  0.0476
 3964SOL    HW123525   1.126   4.212  15.667  2.7227 -1.9946  2.0776
 3964SOL    HW223526   1.088   4.109  15.758  0.7531  1.7705  0.0496
 3965SOL     OW23527   0.337   1.460   4.232 -0.7261 -0.0431  0.2934
 3965SOL    HW123528   0.361   1.427   4.145  0.4974  0.2829  0.5179
 3965SOL    HW223529   0.343   1.380   4.284 -2.1733 -0.4989 -0.2191
 3966SOL     OW23530   3.331   4.563  14.096  0.0769  0.3336  0.3023
 3966SOL    HW123531   3.279   4.552  14.016  0.2737  1.2499  0.0506
 3966SOL    HW223532   3.313   4.486  14.150  2.9001  1.2639  2.5711
 3967SOL     OW23533   2.367   3.115  12.331 -0.2075 -0.0141  0.4055
 3967SOL    HW123534   2.381   3.022  12.314 -1.2482 -0.2134  0.6521
 3967SOL    HW223535   2.321   3.109  12.414 -0.0848 -0.4197  0.4451
 3968SOL     OW23536   1.387   2.054  12.783 -0.8661 -0.1991 -0.2222
 3968SOL    HW123537   1.323   2.110  12.827 -0.2966 -1.9291  2.8021
 3968SOL    HW223538   1.409   2.106  12.705  0.3309  1.0275  0.9163
 3969SOL     OW23539   1.759   1.810   2.986 -0.0336  0.5789 -0.2468
 3969SOL    HW123540   1.791   1.754   2.915  1.6716  3.0420 -1.4201
 3969SOL    HW223541   1.725   1.743   3.045  0.1725 -1.1632 -2.0701
 3970SOL     OW23542   1.958   2.209   5.391 -0.5007  0.0544  0.4936
 3970SOL    HW123543   1.974   2.296   5.354  2.4308 -1.2863 -1.4150
 3970SOL    HW223544   1.997   2.150   5.326  1.3790  1.1730  0.6105
 3971SOL     OW23545   0.604   4.296   4.197  0.0952 -0.8811 -0.0631
 3971SOL    HW123546   0.575   4.302   4.106 -1.1192  2.4836  0.5576
 3971SOL    HW223547   0.657   4.375   4.209 -0.5766 -0.1243 -2.0371
 3972SOL     OW23548   0.817   2.908   2.082  0.2168 -0.2715 -0.1693
 3972SOL    HW123549   0.869   2.984   2.055 -0.4827 -0.1323 -1.0989
 3972SOL    HW223550   0.787   2.869   2.000 -1.3255 -0.7259  0.6069
 3973SOL     OW23551   2.476   2.488  15.279  0.1266 -0.3986 -0.2297
 3973SOL    HW123552   2.460   2.579  15.307 -0.4064 -0.7567  0.6365
 3973SOL    HW223553   2.387   2.457  15.297  0.5830 -0.4518  2.0129
 3974SOL     OW23554   1.640   2.464   7.129  0.1025  0.0226  0.5178
 3974SOL    HW123555   1.723   2.437   7.088  0.5147  0.6973  0.9176
 3974SOL    HW223556   1.575   2.481   7.061 -1.3889 -1.8227  1.4767
 3975SOL     OW23557   1.785   4.043   0.174  0.0367  0.2007  0.1466
 3975SOL    HW123558   1.693   4.063   0.157  0.3053 -0.2745 -1.8449
 3975SOL    HW223559   1.790   3.952   0.145 -0.8083  0.2371 -0.1294
 3976SOL     OW23560   2.755   3.318   8.715 -0.1493  0.1471 -0.2588
 3976SOL    HW123561   2.708   3.253   8.766 -0.1657  0.5127  0.1925
 3976SOL    HW223562   2.820   3.347   8.779 -0.6924 -0.5222  0.5930
 3977SOL     OW23563   0.161   4.126   3.593  0.1195  0.0964 -0.2672
 3977SOL    HW123564   0.224   4.122   3.522 -2.6197  1.9019 -2.7797
 3977SOL    HW223565   0.206   4.115   3.677 -1.0201  0.3664  0.3855
 3978SOL     OW23566   0.442   1.311  15.641  0.3156 -0.0709 -0.3010
 3978SOL    HW123567   0.355   1.305  15.601  1.6125  0.5835 -3.1841
 3978SOL    HW223568   0.441   1.242  15.707 -0.3056  1.2609  1.0929
 3979SOL     OW23569   2.375   4.465   4.705  0.3632 -0.0861  0.2227
 3979SOL    HW123570   2.289   4.490   4.739 -0.3452  1.3007 -2.6469
 3979SOL    HW223571   2.415   4.552   4.706  0.7831 -0.2592 -2.2737
 3980SOL     OW23572   2.469   0.282   4.533 -0.5565 -0.2553  0.1531
 3980SOL    HW123573   2.442   0.193   4.553  0.5833 -0.4152  1.0078
 3980SOL    HW223574   2.527   0.299   4.608 -0.3950  2.8736 -0.6707
 3981SOL     OW23575   1.780   3.214   3.057 -0.0072 -0.2487  0.0731
 3981SOL    HW123576   1.706   3.161   3.086 -0.6194  0.2136 -0.6698
 3981SOL    HW223577   1.841   3.218   3.131 -0.2874  0.5679  0.2570
 3982SOL     OW23578   0.392   3.622  14.171  0.3709 -0.1102 -0.8544
 3982SOL    HW123579   0.462   3.646  14.111 -0.2712 -0.7548 -1.8585
 3982SOL    HW223580   0.441   3.555  14.219 -0.1073 -0.0944 -0.3409
 3983SOL     OW23581   3.422   1.288   5.022  0.0677  0.2472  0.2940
 3983SOL    HW123582   3.502   1.330   5.055  0.6563 -1.8148  1.4536
 3983SOL    HW223583   3.452   1.214   4.970 -1.8386  0.3258 -0.9241
 3984SOL     OW23584   0.650   0.881   4.896 -0.1434 -0.1821 -0.0018
 3984SOL    HW123585   0.565   0.909   4.863 -0.4235  0.7556  1.5239
 3984SOL    HW223586   0.649   0.907   4.988 -0.8995 -0.4294  0.0568
 3985SOL     OW23587   2.846   2.101   8.713 -0.1929 -0.0506  0.3274
 3985SOL    HW123588   2.940   2.117   8.724 -0.3887  0.5360  1.1327
 3985SOL    HW223589   2.817   2.153   8.638 -0.8267 -1.9654 -0.7529
 3986SOL     OW23590   0.118   3.437   7.843  0.0379 -0.2179  0.6447
 3986SOL    HW123591   0.112   3.514   7.899  0.3476  0.3831 -0.1495
 3986SOL    HW223592   0.211   3.431   7.820 -0.5789 -0.2731 -1.8346
 3987SOL     OW23593   1.226   1.748   4.937  0.2140  0.2371  0.0729
 3987SOL    HW123594   1.177   1.668   4.918 -1.1855  1.7190 -2.4965
 3987SOL    HW223595   1.275   1.756   4.855  0.8864 -2.7049  0.1823
 3988SOL     OW23596   0.037   4.351   0.885 -0.6700  0.2883 -0.2723
 3988SOL    HW123597   0.006   4.408   0.815  3.6335  1.7284 -1.0360
 3988SOL    HW223598   0.061   4.397   0.966 -1.3121  0.4034 -0.1513
 3989SOL     OW23599   3.750   0.733   6.632 -0.9221  0.0690 -0.1950
 3989SOL    HW123600   3.757   0.822   6.666  1.7388 -0.2429  0.0632
 3989SOL    HW223601   3.824   0.729   6.572 -0.8164  1.1351 -0.1292
 3990SOL     OW23602   3.440   4.066   6.037 -0.3525 -0.1234 -0.2384
 3990SOL    HW123603   3.472   4.092   6.124 -2.2359  0.7772  0.1960
 3990SOL    HW223604   3.454   3.971   6.043  2.2227  0.1872 -1.4144
 3991SOL     OW23605   1.089   1.413   2.176 -0.1955  0.3143  0.4497
 3991SOL    HW123606   1.101   1.440   2.085 -2.1334 -2.4635 -0.6372
 3991SOL    HW223607   1.021   1.474   2.204 -0.1713  0.3481  0.4344
 3992SOL     OW23608   0.449   1.876  16.488  0.3104  0.4230 -0.2556
 3992SOL    HW123609   0.469   1.968  16.501 -0.9056  0.3818  1.8977
 3992SOL    HW223610   0.384   1.886  16.419 -1.7446  0.1498  1.6602
 3993SOL     OW23611   3.600   0.534   0.281 -0.1262  0.0114 -0.3854
 3993SOL    HW123612   3.691   0.514   0.302 -0.6797 -0.6307  1.3158
 3993SOL    HW223613   3.607   0.625   0.250  1.4849  0.3833  1.0680
 3994SOL     OW23614   3.533   1.787   9.492 -0.5390 -0.2119  0.5504
 3994SOL    HW123615   3.463   1.760   9.433 -0.2863  1.4485 -0.5083
 3994SOL    HW223616   3.608   1.758   9.440 -0.1075  0.5992  0.7157
 3995SOL     OW23617   0.359   0.750  13.838  0.2561 -0.2347  0.4752
 3995SOL    HW123618   0.283   0.745  13.894 -2.1123  2.5820 -2.5157
 3995SOL    HW223619   0.440   0.758  13.889 -0.3014 -0.3225  1.3601
 3996SOL     OW23620   1.672   2.875   4.451  0.2095 -0.0338  0.3213
 3996SOL    HW123621   1.595   2.860   4.506  1.5662 -1.8517  1.6960
 3996SOL    HW223622   1.655   2.813   4.380  1.0472 -1.3832  1.3232
 3997SOL     OW23623   4.706   1.165   9.798 -0.6065  0.4848 -0.2423
 3997SOL    HW123624   0.026   1.157   9.720  1.6011 -0.2461  1.4118
 3997SOL    HW223625   4.735   1.083   9.839 -0.5563 -0.5419 -2.3269
 3998SOL     OW23626   1.590   0.131   1.908 -0.2040  0.4133 -0.3004
 3998SOL    HW123627   1.641   0.137   1.989  2.1918  1.6774 -1.9004
 3998SOL    HW223628   1.569   0.038   1.898  1.7236  0.1139 -1.4439
 3999SOL     OW23629   4.071   3.000  16.795  0.1055  0.5584 -0.4218
 3999SOL    HW123630   4.045   2.944  16.869 -0.3941  1.2590 -0.0680
 3999SOL    HW223631   4.061   3.085  16.839  2.9700 -0.4183  2.1411
 4000SOL     OW23632   2.335   4.361   1.556 -0.2427 -0.2611 -0.6734
 4000SOL    HW123633   2.356   4.340   1.647  1.8964 -1.7890 -1.5196
 4000SOL    HW223634   2.382   4.294   1.508  1.1498  0.8068 -0.8116
 4001SOL     OW23635   4.705   3.218   7.049 -0.0796 -0.7504  0.0536
 4001SOL    HW123636   0.045   3.209   7.107  1.9817  1.0998 -2.3404
 4001SOL    HW223637   0.003   3.277   6.982  0.1975 -1.7820 -0.6962
 4002SOL     OW23638   4.499   1.656  15.295 -0.0305  0.0652 -0.6764
 4002SOL    HW123639   4.566   1.725  15.296  0.6753 -0.6310  1.1563
 4002SOL    HW223640   4.467   1.660  15.205  0.4465  0.3007 -0.8395
 4003SOL     OW23641   3.297   1.544   9.501 -0.6142 -0.7227  0.5090
 4003SOL    HW123642   3.321   1.605   9.432  3.7975 -1.1088  1.6788
 4003SOL    HW223643   3.249   1.598   9.564 -1.0528 -2.8850  2.0696
 4004SOL     OW23644   3.870   4.169   2.598  0.0183 -0.2690 -0.0789
 4004SOL    HW123645   3.781   4.204   2.609  0.4905  0.5839  1.0950
 4004SOL    HW223646   3.927   4.241   2.624 -0.9870  1.1263 -1.7338
 4005SOL     OW23647   0.912   0.491   5.274 -0.8460 -0.4136  0.0724
 4005SOL    HW123648   0.911   0.555   5.345  2.2382  2.1734 -2.1871
 4005SOL    HW223649   0.847   0.527   5.213 -0.1059  0.7230 -0.0501
 4006SOL     OW23650   1.224   1.806  12.536 -0.2937 -0.7675  0.0913
 4006SOL    HW123651   1.310   1.812  12.576 -0.2001 -3.8087  0.3522
 4006SOL    HW223652   1.167   1.817  12.612  0.0745 -1.1264  0.4138
 4007SOL     OW23653   0.012   0.081   6.526 -0.2188  0.4036 -0.2936
 4007SOL    HW123654   4.724   4.730   6.497 -3.2488  0.6365  1.5491
 4007SOL    HW223655   4.668   0.110   6.569  0.8220 -0.5734  2.3101
 4008SOL     OW23656   2.974   1.089   5.813  0.3194 -0.1044  0.4406
 4008SOL    HW123657   2.983   1.165   5.870 -2.3891 -0.7888  1.7946
 4008SOL    HW223658   2.964   1.015   5.873 -0.1212  0.3572  0.9305
 4009SOL     OW23659   3.207   3.136  12.243 -0.0469 -0.2017 -0.6631
 4009SOL    HW123660   3.149   3.163  12.171  1.7630  1.7600 -1.3712
 4009SOL    HW223661   3.285   3.190  12.228  0.9848 -2.0103 -1.8369
 4010SOL     OW23662   3.788   4.472   5.428 -0.4602  0.3792  0.2770
 4010SOL    HW123663   3.781   4.392   5.377  1.6499  0.5871 -0.3462
 4010SOL    HW223664   3.786   4.534   5.355 -1.2329 -0.3703 -0.3275
 4011SOL     OW23665   1.754   2.553  12.145 -0.3864 -0.2294  0.4697
 4011SOL    HW123666   1.676   2.510  12.180 -2.4976  3.0404 -0.2255
 4011SOL    HW223667   1.731   2.645  12.153  1.7687  0.3454  0.1573
 4012SOL     OW23668   1.624   3.183   6.297 -0.3798  0.0265  0.0483
 4012SOL    HW123669   1.645   3.220   6.383  1.1664  1.7053 -1.0719
 4012SOL    HW223670   1.555   3.249   6.290  0.0533  0.5816  1.0557
 4013SOL     OW23671   2.524   0.647   7.016  0.1482 -0.1889 -0.1800
 4013SOL    HW123672   2.585   0.581   6.983  0.0432 -0.2075 -0.3372
 4013SOL    HW223673   2.492   0.673   6.930  1.2327  1.4719 -0.0784
 4014SOL     OW23674   4.519   2.099   3.349 -0.1790 -0.2294  0.4248
 4014SOL    HW123675   4.543   2.058   3.432 -1.2243 -0.6363  0.5351
 4014SOL    HW223676   4.601   2.118   3.305 -1.7047 -0.0860 -2.3251
 4015SOL     OW23677   2.446   4.617  12.922  0.1400 -0.0813  0.1075
 4015SOL    HW123678   2.494   4.536  12.906 -0.3607  0.0372 -2.0878
 4015SOL    HW223679   2.372   4.608  12.862 -2.3645  1.8406  2.8932
 4016SOL     OW23680   2.382   0.197  11.553  0.0401  0.2521 -0.0809
 4016SOL    HW123681   2.469   0.190  11.514 -0.1120 -2.8164  0.1530
 4016SOL    HW223682   2.395   0.266  11.619 -1.1171 -1.4465  1.9500
 4017SOL     OW23683   4.203   4.061   5.521  0.3240 -0.1383 -0.4311
 4017SOL    HW123684   4.242   4.147   5.501  1.3799 -1.1891 -2.9794
 4017SOL    HW223685   4.127   4.062   5.463  0.6003 -0.1144 -0.7980
 4018SOL     OW23686   0.569   0.216   7.514 -0.7143 -0.0337 -0.3526
 4018SOL    HW123687   0.610   0.299   7.535 -0.9413 -0.2902  1.1245
 4018SOL    HW223688   0.504   0.233   7.446  1.1792 -0.1900 -2.2128
 4019SOL     OW23689   3.966   1.804  14.979 -0.2717  0.0436 -0.5773
 4019SOL    HW123690   4.030   1.795  14.908  0.5086  0.3212  0.0958
 4019SOL    HW223691   3.958   1.717  15.017 -0.0053  1.0431  1.7728
 4020SOL     OW23692   3.442   4.223   9.977 -0.2348 -0.1652  0.0623
 4020SOL    HW123693   3.356   4.262   9.997 -1.2749 -0.8601 -2.9820
 4020SOL    HW223694   3.451   4.269   9.893  3.6267  0.8829  1.0589
 4021SOL     OW23695   1.560   4.366  12.092 -0.5890  0.3183 -0.5592
 4021SOL    HW123696   1.478   4.337  12.132 -0.3332 -1.2518 -1.1802
 4021SOL    HW223697   1.619   4.352  12.166  2.0872 -0.2792 -2.7655
 4022SOL     OW23698   0.032   1.445   8.603 -0.0937  0.2508  0.5651
 4022SOL    HW123699   0.028   1.461   8.698 -1.4254 -1.4469  0.8045
 4022SOL    HW223700   0.089   1.516   8.574  0.9364 -0.7294  0.1891
 4023SOL     OW23701   2.976   3.960   1.983  0.4420 -0.0975 -1.1547
 4023SOL    HW123702   2.887   3.968   1.947 -0.8647  0.7015  2.1987
 4023SOL    HW223703   2.979   3.865   1.976 -1.2828 -0.2098 -0.3458
 4024SOL     OW23704   1.559   1.741   2.203 -0.4514  0.9296  0.2029
 4024SOL    HW123705   1.630   1.781   2.253  0.9764  0.3602 -1.3645
 4024SOL    HW223706   1.554   1.797   2.125  1.1681 -0.2019 -0.7151
 4025SOL     OW23707   4.425   4.168   8.809  0.4013  0.4330  0.0620
 4025SOL    HW123708   4.474   4.234   8.857  0.5893  0.6881 -0.4852
 4025SOL    HW223709   4.365   4.218   8.754 -0.0393 -1.0165 -0.7815
 4026SOL     OW23710   1.421   2.054   2.394  0.1878 -0.2453  0.3747
 4026SOL    HW123711   1.436   2.064   2.300  1.1211  1.1691  0.6813
 4026SOL    HW223712   1.509   2.058   2.432  0.6067 -0.2026 -0.5889
 4027SOL     OW23713   4.644   4.293   1.621 -0.7970 -0.1157 -0.6212
 4027SOL    HW123714   4.616   4.272   1.532  0.6457 -0.4879 -0.9841
 4027SOL    HW223715   4.559   4.286   1.663  0.7453  1.4587  2.7302
 4028SOL     OW23716   4.272   4.699   4.915 -0.3766 -0.3982  0.3192
 4028SOL    HW123717   4.305   0.014   4.842  1.1483 -1.3980  0.3123
 4028SOL    HW223718   4.307   0.014   4.988  2.0068 -0.7423 -0.5949
 4029SOL     OW23719   1.216   2.409   1.250  0.1557  0.2891 -0.5752
 4029SOL    HW123720   1.190   2.333   1.303 -0.7754 -0.3980 -2.0134
 4029SOL    HW223721   1.288   2.367   1.203  1.3922  1.9677 -0.1727
 4030SOL     OW23722   3.659   1.965   8.815  0.0563 -0.0573  0.3582
 4030SOL    HW123723   3.746   1.936   8.787 -0.2284  1.3328 -1.8733
 4030SOL    HW223724   3.609   1.884   8.802 -0.5555  0.3542  0.1840
 4031SOL     OW23725   1.090   1.696   6.013  0.1894 -0.6695  0.5643
 4031SOL    HW123726   1.182   1.702   6.041  0.0066  0.5146  0.9057
 4031SOL    HW223727   1.100   1.656   5.926 -0.2017 -0.4181  0.4045
 4032SOL     OW23728   3.847   0.002   8.526  0.4738  0.0075 -0.1682
 4032SOL    HW123729   3.835   0.097   8.530  0.9437  0.0535  0.1220
 4032SOL    HW223730   3.767   4.701   8.565  0.0549 -0.3245 -1.3338
 4033SOL     OW23731   3.907   0.977   8.179 -0.0280 -0.3865 -0.1473
 4033SOL    HW123732   3.994   0.991   8.218 -0.4793  0.7069  0.4627
 4033SOL    HW223733   3.888   1.069   8.162  0.5192 -0.0844  0.8903
 4034SOL     OW23734   1.836   0.464  11.648  0.3497  0.3572  0.2083
 4034SOL    HW123735   1.857   0.517  11.725  0.0441 -0.2740  0.7394
 4034SOL    HW223736   1.819   0.377  11.686  0.5461  0.7363  1.1536
 4035SOL     OW23737   1.306   3.843  13.743 -0.7582 -0.0248  0.2700
 4035SOL    HW123738   1.257   3.770  13.706 -1.4903 -0.5250  2.2428
 4035SOL    HW223739   1.367   3.806  13.807  0.6166 -0.5370 -1.3308
 4036SOL     OW23740   2.700   0.975  13.144  0.2453  0.5612  0.1759
 4036SOL    HW123741   2.759   0.945  13.213  0.0984  3.2063  1.4426
 4036SOL    HW223742   2.682   0.891  13.102 -0.2221 -0.0621  1.6277
 4037SOL     OW23743   3.473   1.046   8.604  0.1883  0.1809 -0.1009
 4037SOL    HW123744   3.454   1.059   8.511  0.0365 -1.9931 -0.3909
 4037SOL    HW223745   3.404   1.100   8.643 -1.1905 -1.3255 -0.4641
 4038SOL     OW23746   2.729   1.714  17.494  0.2094  0.2394 -0.1088
 4038SOL    HW123747   2.693   1.802  17.505 -0.6015  0.0589 -1.3299
 4038SOL    HW223748   2.793   1.705  17.565  1.1144  3.1092 -0.5937
 4039SOL     OW23749   2.977   2.506   5.419 -0.7169 -0.2199  0.2970
 4039SOL    HW123750   2.885   2.492   5.397  0.1176 -0.1904 -3.1140
 4039SOL    HW223751   2.972   2.547   5.506  1.3247  0.0947  0.2663
 4040SOL     OW23752   1.905   0.053   4.683 -0.3666  0.4655  0.1597
 4040SOL    HW123753   1.921   4.711   4.631 -0.8295 -0.4699  1.4365
 4040SOL    HW223754   1.837   0.034   4.747 -1.1578  1.0468 -0.4880
 4041SOL     OW23755   0.223   1.723   7.245  0.1177  0.1283 -0.3005
 4041SOL    HW123756   0.218   1.811   7.207  0.7881 -0.4956 -1.8523
 4041SOL    HW223757   0.252   1.749   7.333  0.9735 -1.2647 -0.1782
 4042SOL     OW23758   4.271   4.508   3.595  0.1132 -0.0508  0.0118
 4042SOL    HW123759   4.185   4.469   3.580  1.3557 -2.7842  0.0943
 4042SOL    HW223760   4.304   4.453   3.667 -2.1588  1.0338  1.8914
 4043SOL     OW23761   0.961   1.061   3.522 -0.3120 -0.3038  0.0430
 4043SOL    HW123762   0.900   0.989   3.541  1.0862 -1.7085 -0.8271
 4043SOL    HW223763   0.897   1.132   3.526 -0.4340 -0.4701  1.1205
 4044SOL     OW23764   2.629   3.621   6.160  0.2894  0.0745 -0.5029
 4044SOL    HW123765   2.620   3.701   6.108 -1.3548  1.1374  1.4401
 4044SOL    HW223766   2.554   3.628   6.219  0.0609 -2.2172 -0.5499
 4045SOL     OW23767   3.171   1.957   6.572 -0.2636  0.2180  0.3472
 4045SOL    HW123768   3.102   1.985   6.513  2.0068 -1.8677 -3.3323
 4045SOL    HW223769   3.123   1.942   6.653 -2.6076  1.5553 -0.7986
 4046SOL     OW23770   3.331   4.079   3.016 -0.2671  0.0988  0.4603
 4046SOL    HW123771   3.275   4.071   3.093  1.4683 -4.1952  1.2291
 4046SOL    HW223772   3.389   4.003   3.016  0.3122  0.5495 -1.7468
 4047SOL     OW23773   1.398   0.313  10.867 -0.4011  0.3912  0.5773
 4047SOL    HW123774   1.350   0.387  10.904  1.6093  1.7766  0.4029
 4047SOL    HW223775   1.399   0.246  10.936  1.1825 -0.6276 -0.4624
 4048SOL     OW23776   2.314   3.863   5.609  0.9266 -0.0773 -0.0128
 4048SOL    HW123777   2.314   3.852   5.514 -4.2737 -0.1438 -0.0038
 4048SOL    HW223778   2.224   3.864   5.641  1.3324  1.2044  1.0825
 4049SOL     OW23779   4.681   2.093  13.506 -0.0565 -0.0313 -0.1870
 4049SOL    HW123780   0.018   2.074  13.448 -0.7736 -0.1866 -1.0381
 4049SOL    HW223781   4.625   2.016  13.503  1.0579 -0.8813  0.7326
 4050SOL     OW23782   3.403   1.804   3.431  0.8004  0.4691 -0.2386
 4050SOL    HW123783   3.351   1.726   3.453  2.1770  0.4888  3.0195
 4050SOL    HW223784   3.390   1.851   3.513  1.7547  1.0519 -0.4183
 4051SOL     OW23785   4.140   3.782  12.303  0.5677  0.6318 -0.6294
 4051SOL    HW123786   4.182   3.862  12.272  0.2111 -0.1963 -3.1870
 4051SOL    HW223787   4.196   3.748  12.373  0.8658  0.7418 -0.8121
 4052SOL     OW23788   2.578   0.072   9.441 -0.0736  0.7576 -0.0112
 4052SOL    HW123789   2.590   0.115   9.525 -0.9557 -1.9924  1.4967
 4052SOL    HW223790   2.551   4.720   9.466 -0.5316  0.2244 -2.3846
 4053SOL     OW23791   4.172   1.102  15.623 -0.2930 -0.2835 -0.7748
 4053SOL    HW123792   4.236   1.173  15.629 -1.3571  0.6492 -0.3742
 4053SOL    HW223793   4.142   1.121  15.712  0.4225  1.1353 -0.8425
 4054SOL     OW23794   1.227   3.962   2.672  0.4589  0.5982 -0.1493
 4054SOL    HW123795   1.291   3.891   2.673  0.8019  0.8672 -1.7246
 4054SOL    HW223796   1.162   3.933   2.735  1.0606 -0.5964 -0.0824
 4055SOL     OW23797   3.493   0.819  10.269 -0.2893 -0.6391  0.1722
 4055SOL    HW123798   3.430   0.802  10.339 -2.3034 -0.5430 -1.6354
 4055SOL    HW223799   3.578   0.781  10.295  0.6672  0.7606 -0.9209
 4056SOL     OW23800   0.088   3.439  15.958 -0.0404  0.1377 -0.3506
 4056SOL    HW123801   0.119   3.524  15.990  2.9424 -0.5640 -1.3169
 4056SOL    HW223802   0.034   3.418  16.034 -0.3321  2.1640  0.0121
 4057SOL     OW23803   2.463   0.240   5.964  0.3592 -0.3187 -0.0691
 4057SOL    HW123804   2.406   0.262   5.891  1.6215 -2.0370 -1.5747
 4057SOL    HW223805   2.545   0.223   5.918  0.5158 -0.5245  0.2794
 4058SOL     OW23806   3.042   4.521   1.836 -0.2941  0.7964 -0.3219
 4058SOL    HW123807   3.019   4.605   1.875 -0.3094  1.3787 -1.5649
 4058SOL    HW223808   2.955   4.481   1.838  0.4500 -0.8727 -1.2328
 4059SOL     OW23809   4.269   3.218   1.891 -0.1894 -0.2772  0.3987
 4059SOL    HW123810   4.254   3.298   1.941  0.8938 -1.0649  2.0080
 4059SOL    HW223811   4.200   3.218   1.825  2.4619  0.5483 -2.3589
 4060SOL     OW23812   1.020   2.864   8.749  0.0543  0.3245 -0.7108
 4060SOL    HW123813   0.969   2.811   8.811  1.4378  1.1208  1.0997
 4060SOL    HW223814   1.109   2.830   8.763 -0.8884 -1.1984  1.6885
 4061SOL     OW23815   0.227   0.438   4.111  0.2634  0.8061  0.3008
 4061SOL    HW123816   0.315   0.422   4.147  1.4581  3.2529 -1.5121
 4061SOL    HW223817   0.248   0.446   4.018 -2.1481  0.9653 -0.2112
 4062SOL     OW23818   1.572   4.360  14.671 -0.0044  0.0818  0.1017
 4062SOL    HW123819   1.551   4.430  14.732 -2.4173 -0.7766  0.2628
 4062SOL    HW223820   1.581   4.409  14.589  0.7671  0.4715  0.4223
 4063SOL     OW23821   2.529   0.369   2.960 -0.0114 -0.1089  0.3679
 4063SOL    HW123822   2.614   0.406   2.983  0.0432 -0.7429  1.1918
 4063SOL    HW223823   2.504   0.406   2.875  0.7045  0.0625  0.2334
 4064SOL     OW23824   0.858   3.669   4.099 -0.0667  0.0584  0.1739
 4064SOL    HW123825   0.943   3.714   4.100 -0.8430  1.5521 -0.8116
 4064SOL    HW223826   0.809   3.708   4.027 -0.7224 -1.2197 -0.0652
 4065SOL     OW23827   0.839   1.332  10.620 -0.0683  0.5580  0.7358
 4065SOL    HW123828   0.862   1.240  10.604 -1.0538  0.6630 -1.3001
 4065SOL    HW223829   0.743   1.332  10.624 -0.2454  0.2083 -3.4090
 4066SOL     OW23830   0.927   3.912   3.413  0.8710 -0.0605  0.4996
 4066SOL    HW123831   0.941   3.846   3.345  1.2168  0.5585 -0.0340
 4066SOL    HW223832   0.840   3.883   3.440  0.8339  0.2203  0.6864
 4067SOL     OW23833   4.411   0.865   2.731 -0.1714 -0.1083  0.0081
 4067SOL    HW123834   4.318   0.868   2.754  0.4453  0.3024  2.4311
 4067SOL    HW223835   4.415   0.871   2.635 -0.8700 -0.2818 -0.0364
 4068SOL     OW23836   3.443   1.933   3.686 -0.1240  0.2499  0.6322
 4068SOL    HW123837   3.498   2.001   3.724  0.5727 -0.0273  0.1035
 4068SOL    HW223838   3.353   1.961   3.706 -0.2117  0.0105  0.5742
 4069SOL     OW23839   3.736   2.862   6.344  0.3949 -0.4669 -0.3718
 4069SOL    HW123840   3.731   2.875   6.438  1.1887  1.5038 -0.6132
 4069SOL    HW223841   3.814   2.806   6.348  1.4424  1.2459  2.8676
 4070SOL     OW23842   1.143   3.993  17.542 -0.1245  0.2095 -0.3700
 4070SOL    HW123843   1.142   4.060  17.611 -0.6618 -0.4798  0.3017
 4070SOL    HW223844   1.063   3.943  17.561  0.2219 -0.6426 -1.1559
 4071SOL     OW23845   3.237   3.053   1.763 -0.2707 -0.6418  0.2407
 4071SOL    HW123846   3.279   3.115   1.823 -1.4248  2.4084 -2.0876
 4071SOL    HW223847   3.186   3.008   1.831  0.1722  1.7188  2.1541
 4072SOL     OW23848   2.558   1.448  10.162  0.0889 -0.0571 -0.2266
 4072SOL    HW123849   2.617   1.522  10.167  0.1857 -0.1967  0.7706
 4072SOL    HW223850   2.614   1.391  10.109 -0.8355 -0.1880 -1.0671
 4073SOL     OW23851   1.928   1.087  13.590  0.4713 -0.6937  0.5699
 4073SOL    HW123852   1.870   1.109  13.517  0.1200 -0.9264  0.7768
 4073SOL    HW223853   1.898   1.145  13.660  0.6475  2.2583 -1.8295
 4074SOL     OW23854   4.236   4.655   1.614 -0.1944  0.4657 -0.3877
 4074SOL    HW123855   4.287   4.735   1.603  0.0853  0.9032  4.1704
 4074SOL    HW223856   4.152   4.690   1.584 -2.0342 -2.8404  0.9585
 4075SOL     OW23857   0.766   0.252   2.931 -0.8954  0.2601  0.2080
 4075SOL    HW123858   0.826   0.201   2.877 -0.5384  0.7589  0.1384
 4075SOL    HW223859   0.684   0.220   2.893 -0.2437  1.8625 -2.5938
 4076SOL     OW23860   3.081   1.771   9.235  0.1396 -0.0109 -0.3702
 4076SOL    HW123861   3.105   1.846   9.181  0.4596  0.2620  0.1580
 4076SOL    HW223862   3.009   1.732   9.186  0.5200 -1.7284  0.4415
 4077SOL     OW23863   1.591   3.516   3.695 -0.2638 -0.4042 -0.4251
 4077SOL    HW123864   1.536   3.588   3.665 -2.2099 -1.3958  0.7184
 4077SOL    HW223865   1.559   3.507   3.785  0.4491 -0.5537 -0.1843
 4078SOL     OW23866   1.868   0.062   7.978  0.1730 -0.0098 -0.1819
 4078SOL    HW123867   1.796   0.094   7.924 -2.3032 -0.3483  2.9083
 4078SOL    HW223868   1.857   0.127   8.047 -1.4656 -0.3023 -0.1640
 4079SOL     OW23869   2.139   3.074   3.271 -0.7154  0.4601  0.0604
 4079SOL    HW123870   2.214   3.032   3.312 -0.9274  0.0225 -0.0038
 4079SOL    HW223871   2.161   3.084   3.179  0.8566  1.5645  0.5551
 4080SOL     OW23872   1.407   3.980   7.951 -0.2441 -0.9923 -0.5106
 4080SOL    HW123873   1.430   4.027   8.031  2.0868 -0.6962 -1.3669
 4080SOL    HW223874   1.454   4.037   7.891 -0.8694 -0.4599 -0.4932
 4081SOL     OW23875   0.197   0.841   8.471 -0.3511  0.0272  0.2118
 4081SOL    HW123876   0.275   0.787   8.475 -0.6086 -0.5196 -2.2368
 4081SOL    HW223877   0.204   0.891   8.390  0.0616  3.1110  2.1484
 4082SOL     OW23878   2.232   0.321   8.174 -0.2341 -0.1577  0.5055
 4082SOL    HW123879   2.326   0.325   8.187  0.0164 -1.6078 -0.8592
 4082SOL    HW223880   2.226   0.300   8.080  1.6312  1.1853  0.0902
 4083SOL     OW23881   0.153   1.255   1.619  0.3637 -0.0682 -0.2992
 4083SOL    HW123882   0.200   1.317   1.675  2.2157 -1.1855 -0.6208
 4083SOL    HW223883   0.112   1.212   1.694 -1.9511  0.4209 -1.2865
 4084SOL     OW23884   1.629   1.416  13.296 -0.1409  0.0776  0.1547
 4084SOL    HW123885   1.610   1.508  13.276 -2.5113 -0.1730  1.1985
 4084SOL    HW223886   1.688   1.401  13.222 -1.2913 -1.1040 -0.5228
 4085SOL     OW23887   2.035   0.558  13.440  0.1393  0.2270  0.4015
 4085SOL    HW123888   2.079   0.640  13.461  1.2811 -0.5597  1.0637
 4085SOL    HW223889   2.103   0.510  13.392 -1.1353 -0.9309 -0.2628
 4086SOL     OW23890   2.194   3.553   7.300 -0.1477 -0.1941 -0.3899
 4086SOL    HW123891   2.199   3.640   7.341 -0.5055  0.1463 -1.0562
 4086SOL    HW223892   2.100   3.537   7.302  0.1935 -2.0176  0.5488
 4087SOL     OW23893   2.304   4.440   2.018 -0.0991 -0.1304  0.2788
 4087SOL    HW123894   2.349   4.449   2.102  2.7219  2.1026 -1.4710
 4087SOL    HW223895   2.309   4.527   1.979 -0.8567 -0.5944 -0.8427
 4088SOL     OW23896   0.142   0.817   2.016 -0.1193  0.6608 -0.1462
 4088SOL    HW123897   0.187   0.888   1.970 -1.7635  2.5223  1.0938
 4088SOL    HW223898   0.059   0.859   2.040 -0.0350  0.9111 -0.2856
 4089SOL     OW23899   4.538   3.661  15.648 -0.4464 -0.0234  0.1223
 4089SOL    HW123900   4.500   3.645  15.562 -3.0656  1.0136  1.1132
 4089SOL    HW223901   4.456   3.688  15.688 -1.3038 -2.0019 -0.3210
 4090SOL     OW23902   1.914   4.323   4.209  0.1078 -0.1501  0.0311
 4090SOL    HW123903   1.919   4.316   4.113  2.0365  0.2171  0.0945
 4090SOL    HW223904   2.004   4.303   4.235 -0.4071  0.1528  2.0279
 4091SOL     OW23905   4.272   2.068   3.982  0.2245  0.6385  0.8540
 4091SOL    HW123906   4.250   2.158   3.959 -0.1058  0.5646  0.8876
 4091SOL    HW223907   4.292   2.076   4.075  0.4112  1.4967  0.7377
 4092SOL     OW23908   4.263   1.667   6.300  0.0183  0.8798  0.0889
 4092SOL    HW123909   4.325   1.658   6.227 -2.6074  0.3395 -2.0876
 4092SOL    HW223910   4.183   1.708   6.266 -0.7130 -0.8924 -0.3275
 4093SOL     OW23911   1.369   4.313   1.611  0.1449 -0.0503 -0.3667
 4093SOL    HW123912   1.451   4.296   1.565 -0.5037 -1.3976 -1.0113
 4093SOL    HW223913   1.381   4.301   1.705 -1.1368 -0.5044 -0.2623
 4094SOL     OW23914   0.309   3.056   2.764 -0.0502  0.5532  0.0952
 4094SOL    HW123915   0.236   3.117   2.778  0.1236  0.9632 -0.8005
 4094SOL    HW223916   0.327   3.076   2.672  0.2542  2.5639  0.6026
 4095SOL     OW23917   2.658   1.660   6.222 -0.3637  0.4345 -0.1464
 4095SOL    HW123918   2.575   1.655   6.174 -0.3919 -3.1245  0.2879
 4095SOL    HW223919   2.660   1.583   6.278  0.9797  0.3802 -0.2754
 4096SOL     OW23920   0.462   3.232   4.195 -0.3039  0.3653  0.3015
 4096SOL    HW123921   0.428   3.174   4.263  0.9002  2.0691  2.3417
 4096SOL    HW223922   0.437   3.183   4.116  5.4902 -1.2913 -0.4778
 4097SOL     OW23923   3.825   2.819  14.051  0.4661 -0.5688  0.0910
 4097SOL    HW123924   3.878   2.795  14.126  0.5875 -1.9950 -0.4563
 4097SOL    HW223925   3.786   2.900  14.084  0.8122 -0.2700 -0.2227
 4098SOL     OW23926   2.801   3.478  16.091 -0.1255 -0.5059 -0.0893
 4098SOL    HW123927   2.808   3.453  16.183 -0.4315  0.4440  0.1954
 4098SOL    HW223928   2.745   3.405  16.066 -1.4262  0.6358 -0.5130
 4099SOL     OW23929   3.013   3.524  13.326 -0.3288 -0.3550  0.1546
 4099SOL    HW123930   3.077   3.595  13.313 -0.3884 -0.7871 -2.6036
 4099SOL    HW223931   2.973   3.508  13.241  0.2340 -1.3887  0.0877
 4100SOL     OW23932   1.057   2.968   1.715  0.3408  0.0332 -0.1057
 4100SOL    HW123933   1.150   2.951   1.701  0.7566  1.2282  1.2146
 4100SOL    HW223934   1.014   2.898   1.666 -0.6983  0.9502 -0.5175
 4101SOL     OW23935   2.352   4.576   8.020  0.0210 -0.1116 -0.1122
 4101SOL    HW123936   2.396   4.606   8.100  0.3935 -0.5593 -0.1477
 4101SOL    HW223937   2.266   4.617   8.018  0.3123  0.5967  1.4448
 4102SOL     OW23938   0.308   2.821   4.162  0.1721 -0.2649 -0.0796
 4102SOL    HW123939   0.338   2.731   4.176  0.7350 -0.2528 -1.2252
 4102SOL    HW223940   0.272   2.843   4.248 -2.8426 -0.6809 -1.2471
 4103SOL     OW23941   4.667   4.146   5.480  0.1775  0.2569 -0.2945
 4103SOL    HW123942   4.647   4.111   5.393 -0.4882 -1.0859  0.3962
 4103SOL    HW223943   0.014   4.193   5.476 -0.8933  2.1519 -0.4704
 4104SOL     OW23944   3.911   0.638   5.566  0.2352 -0.1836 -0.0966
 4104SOL    HW123945   3.921   0.670   5.656  1.1940  0.4976 -0.4443
 4104SOL    HW223946   3.822   0.608   5.582 -0.2725  0.2296 -2.2043
 4105SOL     OW23947   3.614   1.722  11.707  0.4208 -1.0883 -0.1431
 4105SOL    HW123948   3.688   1.677  11.666  1.5796 -0.0806  0.8776
 4105SOL    HW223949   3.575   1.760  11.628  2.6518 -1.4086 -1.3765
 4106SOL     OW23950   0.148   0.195   6.822  0.1102 -0.4392 -0.0756
 4106SOL    HW123951   0.203   0.185   6.900 -0.1970 -0.9137  0.0832
 4106SOL    HW223952   0.177   0.142   6.748 -0.9988 -0.3730 -0.5561
 4107SOL     OW23953   1.153   1.309   1.424 -0.1470  0.2663  0.9588
 4107SOL    HW123954   1.163   1.241   1.358  1.3781  2.8657 -1.4813
 4107SOL    HW223955   1.122   1.254   1.496 -0.3497 -0.7549  0.0780
 4108SOL     OW23956   4.250   4.529   2.552  0.4161 -0.1604  0.0252
 4108SOL    HW123957   4.204   4.448   2.530 -0.1132  0.1136  0.1223
 4108SOL    HW223958   4.326   4.487   2.591 -0.3832 -0.2178  1.5266
 4109SOL     OW23959   3.551   2.677  11.462 -0.0947  0.2818 -0.4447
 4109SOL    HW123960   3.527   2.623  11.537  0.8705  1.1055  0.4572
 4109SOL    HW223961   3.523   2.764  11.489 -0.3245  0.4698 -1.2927
 4110SOL     OW23962   1.015   3.669   2.945 -0.0752  0.0212  0.4749
 4110SOL    HW123963   1.035   3.634   2.858 -1.0686  0.1787  0.1776
 4110SOL    HW223964   0.984   3.754   2.915 -3.8613 -1.5884 -0.1767
 4111SOL     OW23965   0.843   2.470   9.333 -0.5083 -0.2560  0.0311
 4111SOL    HW123966   0.861   2.552   9.378  0.7664 -0.0416 -0.8711
 4111SOL    HW223967   0.765   2.444   9.383 -0.9272 -1.4681 -1.2347
 4112SOL     OW23968   4.295   1.508   8.765 -0.4140 -0.0633  0.4836
 4112SOL    HW123969   4.331   1.597   8.774 -1.0212 -0.0365  2.5883
 4112SOL    HW223970   4.362   1.465   8.712  0.5202  1.0427  0.7638
 4113SOL     OW23971   1.565   4.675  13.508  0.5410 -0.6884 -0.3006
 4113SOL    HW123972   1.546   4.627  13.588 -1.1882  0.0601 -0.2684
 4113SOL    HW223973   1.638   4.619  13.480 -0.8452 -1.5959 -2.1116
 4114SOL     OW23974   2.947   3.738   5.984 -0.0162  0.2022  0.5093
 4114SOL    HW123975   2.915   3.820   5.947  0.6128  0.7224  1.1101
 4114SOL    HW223976   3.002   3.773   6.054 -0.5526 -0.3795  1.2326
 4115SOL     OW23977   1.932   4.375  16.182 -0.0334 -0.2813 -0.1757
 4115SOL    HW123978   2.022   4.396  16.208  0.8607 -1.1192 -2.5412
 4115SOL    HW223979   1.898   4.464  16.187 -0.7036 -0.6754  2.4845
 4116SOL     OW23980   4.288   3.557  15.177 -0.2942 -0.4845 -0.0147
 4116SOL    HW123981   4.337   3.489  15.131  1.8588  2.5726 -2.2489
 4116SOL    HW223982   4.249   3.604  15.103 -0.4947  0.6040  0.7808
 4117SOL     OW23983   1.015   1.045   5.793  0.1185 -0.1080  0.1655
 4117SOL    HW123984   1.024   1.045   5.888  2.3854 -0.7800 -0.0478
 4117SOL    HW223985   0.973   1.129   5.776  1.1166  0.0614 -1.4883
 4118SOL     OW23986   0.683   1.671  13.715 -0.8452  0.3467 -0.5822
 4118SOL    HW123987   0.595   1.678  13.753  0.6259  1.5719  2.5697
 4118SOL    HW223988   0.671   1.599  13.653  2.6151 -0.4637 -0.3249
 4119SOL     OW23989   0.491   2.717   3.465 -0.3888  0.2001 -0.0328
 4119SOL    HW123990   0.512   2.726   3.372  0.3049 -3.0123 -0.1846
 4119SOL    HW223991   0.416   2.659   3.463  0.8062 -1.2833 -2.0295
 4120SOL     OW23992   4.659   4.250   2.414 -0.3107 -0.4810  0.1968
 4120SOL    HW123993   4.721   4.230   2.484  0.6040 -1.1840 -0.8252
 4120SOL    HW223994   4.678   4.343   2.398 -2.9122 -0.4079 -2.4517
 4121SOL     OW23995   3.146   3.979   3.263  0.5339  0.2890 -0.2887
 4121SOL    HW123996   3.091   3.901   3.269  2.2668 -0.8675  0.6309
 4121SOL    HW223997   3.230   3.953   3.301  0.5915 -0.4411 -0.9262
 4122SOL     OW23998   0.796   4.421   4.700 -0.2458 -0.0399  0.0264
 4122SOL    HW123999   0.735   4.495   4.698  0.6257  0.6607 -0.7765
 4122SOL    HW224000   0.849   4.428   4.621  0.0956  3.2401  0.5196
 4123SOL     OW24001   1.089   2.549   6.478  0.0170 -0.3137 -0.2397
 4123SOL    HW124002   1.100   2.454   6.477  1.3634 -0.1538 -0.6599
 4123SOL    HW224003   1.130   2.578   6.559 -0.5253  0.6689 -0.3040
 4124SOL     OW24004   2.559   1.145   2.304 -0.2630  0.4263  0.1650
 4124SOL    HW124005   2.563   1.198   2.224  0.1293  0.1777  0.0202
 4124SOL    HW224006   2.469   1.149   2.337 -1.4217 -1.8596 -2.7324
 4125SOL     OW24007   0.714   3.159   4.987  0.0192  0.0751 -0.2569
 4125SOL    HW124008   0.726   3.085   5.047  0.8102 -0.6578 -1.3301
 4125SOL    HW224009   0.773   3.141   4.914 -1.5158  0.3390 -1.5522
 4126SOL     OW24010   1.126   2.564   7.005  0.5086 -0.0445 -0.3150
 4126SOL    HW124011   1.152   2.568   6.913 -0.3671 -1.5245 -0.6177
 4126SOL    HW224012   1.172   2.643   7.035 -1.6633  1.1281 -0.1433
 4127SOL     OW24013   1.230   3.007   7.274  0.5507  0.2818  0.7853
 4127SOL    HW124014   1.156   3.055   7.236 -0.4937 -1.7191  0.2344
 4127SOL    HW224015   1.288   3.082   7.286  0.4407  0.4815  0.1150
 4128SOL     OW24016   2.552   0.237  12.781 -0.4621  0.4474 -0.4992
 4128SOL    HW124017   2.474   0.187  12.759  0.5687 -1.4077  0.0874
 4128SOL    HW224018   2.514   0.324  12.796  0.0198  0.5103  0.4190
 4129SOL     OW24019   1.122   2.003   5.461  0.3180  0.1269  0.2468
 4129SOL    HW124020   1.205   2.046   5.483 -0.3468  0.5404  1.9732
 4129SOL    HW224021   1.129   1.980   5.369 -1.6351 -2.0155  0.6415
 4130SOL     OW24022   0.880   4.101   2.406  0.3236  0.0536 -0.6000
 4130SOL    HW124023   0.805   4.154   2.378  1.9930  1.9554 -1.4106
 4130SOL    HW224024   0.876   4.019   2.355 -0.8356 -1.3657  1.7600
 4131SOL     OW24025   0.789   2.115   4.386  0.8983  0.6267  0.1538
 4131SOL    HW124026   0.779   2.102   4.292 -0.7884 -0.5625  0.4765
 4131SOL    HW224027   0.699   2.144   4.403  1.0316  1.5750 -0.8009
 4132SOL     OW24028   3.971   4.240   6.945  0.6133  0.0194  0.0301
 4132SOL    HW124029   4.052   4.280   6.977  0.9078  0.3647 -1.1460
 4132SOL    HW224030   3.930   4.209   7.026  2.6503  3.6479  2.4486
 4133SOL     OW24031   3.205   4.730  16.033 -0.0047  0.5145  0.2835
 4133SOL    HW124032   3.241   0.082  16.040 -1.1272  0.9437  0.6851
 4133SOL    HW224033   3.144   0.006  15.961 -0.3337 -0.5408  0.3811
 4134SOL     OW24034   2.641   4.252   8.925 -0.6751  0.5778 -0.0353
 4134SOL    HW124035   2.638   4.344   8.899  0.8225  0.4590 -0.5809
 4134SOL    HW224036   2.731   4.240   8.952 -0.8776 -0.2360  0.2764
 4135SOL     OW24037   1.693   1.531  11.281 -0.3031 -0.7988  0.6341
 4135SOL    HW124038   1.726   1.486  11.359  2.0276  0.3196  0.3208
 4135SOL    HW224039   1.724   1.480  11.207 -0.5557 -2.2397  1.5297
 4136SOL     OW24040   3.699   4.589   8.723  0.0892  0.4234 -0.1213
 4136SOL    HW124041   3.669   4.501   8.699  0.6831  0.0528  0.5093
 4136SOL    HW224042   3.615   4.620   8.758 -0.0800 -0.6691  0.4391
 4137SOL     OW24043   0.704   1.112   4.442  0.1961 -0.2666  0.0810
 4137SOL    HW124044   0.796   1.137   4.437  0.2738 -0.6918 -0.6255
 4137SOL    HW224045   0.665   1.198   4.423  0.2684 -0.6618 -1.8375
 4138SOL     OW24046   0.483   2.649   7.074 -0.0273  0.0168  0.1245
 4138SOL    HW124047   0.419   2.628   7.005 -0.4652  0.1197  0.5037
 4138SOL    HW224048   0.418   2.690   7.132  2.7317  0.3058  2.9670
 4139SOL     OW24049   0.042   1.616   6.305  0.4992 -0.6847  0.0372
 4139SOL    HW124050   0.040   1.667   6.224 -0.8585  1.2069  1.2741
 4139SOL    HW224051   0.138   1.612   6.311  0.5306  0.8735  0.4936
 4140SOL     OW24052   1.561   0.446   6.192  0.1073  0.1598 -0.0153
 4140SOL    HW124053   1.647   0.429   6.230  1.1501  1.9812 -1.5649
 4140SOL    HW224054   1.514   0.466   6.273 -0.5458 -0.4165 -0.2586
 4141SOL     OW24055   1.978   0.602  16.272  0.2653  0.3108  0.2786
 4141SOL    HW124056   2.030   0.631  16.197 -2.4522 -4.5518 -3.5603
 4141SOL    HW224057   1.959   0.684  16.317 -0.2087  1.0159 -1.2076
 4142SOL     OW24058   4.240   1.127   6.401  0.6746  0.2925 -0.3888
 4142SOL    HW124059   4.254   1.078   6.320 -1.0851 -1.5938  0.4391
 4142SOL    HW224060   4.264   1.208   6.356 -0.6317  0.4845 -0.7405
 4143SOL     OW24061   0.362   1.370   2.054  0.1311  0.1339 -0.9517
 4143SOL    HW124062   0.425   1.300   2.039  0.5948  0.5267 -0.8361
 4143SOL    HW224063   0.308   1.338   2.126  0.4170  2.3371  0.2621
 4144SOL     OW24064   0.738   0.762   6.838  0.2560 -0.0282 -0.0821
 4144SOL    HW124065   0.669   0.700   6.860 -0.9274  1.4353  0.3958
 4144SOL    HW224066   0.701   0.850   6.851  0.3374  0.2821 -1.9204
 4145SOL     OW24067   0.600   3.077   8.323  0.5632 -0.6596  0.4552
 4145SOL    HW124068   0.563   3.043   8.404 -1.3662 -0.8035 -0.4823
 4145SOL    HW224069   0.674   3.125   8.360 -0.4509  1.0911  0.2580
 4146SOL     OW24070   4.246   2.882  11.667 -0.3358  0.0783 -0.7416
 4146SOL    HW124071   4.205   2.924  11.742 -1.4212 -1.8629 -0.2461
 4146SOL    HW224072   4.184   2.809  11.658 -2.6407  2.1774 -1.9152
 4147SOL     OW24073   0.233   1.211  11.483  0.2877 -0.0792 -0.8226
 4147SOL    HW124074   0.190   1.188  11.400 -0.7766 -2.5188  0.4186
 4147SOL    HW224075   0.307   1.261  11.449  1.9087 -2.7516 -1.1745
 4148SOL     OW24076   2.440   4.524   5.750  0.2128 -0.3334  0.1545
 4148SOL    HW124077   2.376   4.582   5.790  0.3600 -1.5651  2.1715
 4148SOL    HW224078   2.381   4.464   5.704 -0.4151 -0.4804  1.1475
 4149SOL     OW24079   1.112   3.832   8.139 -0.2456 -0.1209  0.4547
 4149SOL    HW124080   1.024   3.848   8.174 -1.0076 -0.7441 -1.1667
 4149SOL    HW224081   1.160   3.900   8.184  0.0145  1.7038 -2.5771
 4150SOL     OW24082   3.164   0.314   0.914 -0.0887 -0.7482 -0.4486
 4150SOL    HW124083   3.075   0.350   0.909  2.0604  4.2845 -1.6587
 4150SOL    HW224084   3.157   0.247   0.846 -0.9339  0.4386 -1.5413
 4151SOL     OW24085   0.768   3.418   8.934  0.4187  0.1351 -0.7449
 4151SOL    HW124086   0.813   3.337   8.908 -1.8136 -0.9205 -1.2976
 4151SOL    HW224087   0.838   3.482   8.948  1.5202 -0.8805 -1.5722
 4152SOL     OW24088   3.959   1.223   4.919 -0.0285 -0.0670  0.5484
 4152SOL    HW124089   4.026   1.209   4.852  0.2089 -1.4861  1.0664
 4152SOL    HW224090   3.998   1.177   4.993 -0.5164  0.2984  1.0321
 4153SOL     OW24091   3.482   2.981   8.855 -0.5773  0.4147 -0.2571
 4153SOL    HW124092   3.471   3.072   8.826 -1.1592  0.8430  1.2930
 4153SOL    HW224093   3.556   2.962   8.797  0.2324  0.0288  0.8966
 4154SOL     OW24094   0.854   3.219   2.555 -0.8758  0.4765  0.1157
 4154SOL    HW124095   0.840   3.195   2.463  0.4181  2.7871 -0.6971
 4154SOL    HW224096   0.950   3.219   2.564 -0.6881  2.9936 -1.8499
 4155SOL     OW24097   2.682   3.539   3.581  0.4190 -0.9127 -0.6875
 4155SOL    HW124098   2.754   3.509   3.526  0.6432  0.1493 -0.9910
 4155SOL    HW224099   2.719   3.498   3.659  0.4071 -0.9179 -0.6846
 4156SOL     OW24100   3.634   1.581   9.853 -0.0287 -0.1325 -0.6024
 4156SOL    HW124101   3.637   1.531   9.771  0.7433  1.1267 -1.3407
 4156SOL    HW224102   3.599   1.516   9.914 -1.7448  1.8437  0.5030
 4157SOL     OW24103   0.988   1.572   4.581  0.0663  0.3831  0.8154
 4157SOL    HW124104   1.034   1.575   4.665 -2.1950  1.9681  1.9876
 4157SOL    HW224105   0.995   1.664   4.556  0.7659  0.4508  1.2626
 4158SOL     OW24106   3.267   1.495   7.409  0.1974 -0.3216 -0.5400
 4158SOL    HW124107   3.285   1.497   7.315  0.7870 -1.5438 -0.4504
 4158SOL    HW224108   3.172   1.509   7.418  0.4045  0.6515  0.0518
 4159SOL     OW24109   3.645   3.553   6.601  0.8249  0.0704 -0.1810
 4159SOL    HW124110   3.726   3.518   6.564  0.5845 -1.7445  1.0046
 4159SOL    HW224111   3.657   3.543   6.695  0.8732 -1.0828 -0.3107
 4160SOL     OW24112   0.525   4.152   6.038  0.3320 -0.3073  0.3279
 4160SOL    HW124113   0.570   4.107   6.109 -1.6738 -1.4946  0.8449
 4160SOL    HW224114   0.434   4.137   6.066  0.0869  0.7991  0.1187
 4161SOL     OW24115   2.272   0.573   3.493 -0.3833 -0.0644  0.3660
 4161SOL    HW124116   2.317   0.538   3.416 -0.8986 -1.4216  0.6775
 4161SOL    HW224117   2.274   0.667   3.474  1.9974 -0.2025  0.0048
 4162SOL     OW24118   1.410   3.991   0.485 -0.1565 -0.1768  0.1075
 4162SOL    HW124119   1.465   3.971   0.561  0.5242 -0.8342 -0.5581
 4162SOL    HW224120   1.371   4.076   0.507 -0.1898  0.3725 -2.1287
 4163SOL     OW24121   3.958   3.971  10.150 -0.1754 -0.2034 -0.0108
 4163SOL    HW124122   3.895   3.964  10.222  2.3341 -1.5323  2.0691
 4163SOL    HW224123   3.901   3.940  10.080 -0.2810  1.5897 -0.6913
 4164SOL     OW24124   1.747   4.053   7.822  0.0974  0.3531 -0.4031
 4164SOL    HW124125   1.818   3.997   7.791 -0.6072  0.0021 -1.3703
 4164SOL    HW224126   1.788   4.088   7.901  1.2786 -0.6387 -0.5850
 4165SOL     OW24127   2.932   2.759   2.610 -0.4333 -0.7087 -0.4957
 4165SOL    HW124128   2.962   2.793   2.526  2.5677  0.8594  1.2101
 4165SOL    HW224129   2.840   2.787   2.610  0.1823  1.3657  1.0711
 4166SOL     OW24130   1.677   0.948  11.002  0.7402 -0.1591 -0.1153
 4166SOL    HW124131   1.690   0.866  11.050  1.3653  0.8683  1.4718
 4166SOL    HW224132   1.695   0.907  10.917 -1.6390 -1.5830  0.0650
 4167SOL     OW24133   1.542   4.608  14.824  0.2427  0.6774 -0.0994
 4167SOL    HW124134   1.592   4.589  14.904 -0.0957 -1.1271 -0.3179
 4167SOL    HW224135   1.457   4.631  14.862  0.7777 -0.3179  1.7141
 4168SOL     OW24136   2.123   4.521   7.410  0.6968  0.2344  0.6103
 4168SOL    HW124137   2.217   4.533   7.426  0.6174  1.1049  0.4431
 4168SOL    HW224138   2.099   4.614   7.421  0.6856 -0.0071  2.6648
 4169SOL     OW24139   1.507   3.869   2.846  0.5169 -0.5723 -0.0530
 4169SOL    HW124140   1.455   3.854   2.766  3.7125  0.9767 -2.4031
 4169SOL    HW224141   1.436   3.904   2.901  0.1421  0.6624 -1.3294
 4170SOL     OW24142   4.657   2.346   5.513 -0.4659 -0.0970 -0.4076
 4170SOL    HW124143   4.568   2.344   5.548 -0.6760 -2.8290 -1.0248
 4170SOL    HW224144   4.703   2.378   5.591 -2.2933  0.9088  0.2495
 4171SOL     OW24145   3.092   3.359   7.009 -0.2638  0.0628  0.0663
 4171SOL    HW124146   3.132   3.361   7.096  1.1629  2.1949 -0.6365
 4171SOL    HW224147   3.099   3.268   6.980  0.8118 -0.4365  1.8707
 4172SOL     OW24148   3.939   3.183  15.596  0.4419  0.5751 -0.7432
 4172SOL    HW124149   3.980   3.099  15.575  0.8570  0.9180 -1.3229
 4172SOL    HW224150   3.965   3.234  15.519  0.3201 -0.9279 -1.7720
 4173SOL     OW24151   4.176   1.423   3.490  0.0095 -0.2889 -0.6171
 4173SOL    HW124152   4.228   1.387   3.418  1.4583  1.0052 -0.2154
 4173SOL    HW224153   4.131   1.500   3.454  2.0206  2.5206  2.8715
 4174SOL     OW24154   2.669   3.022   5.371 -0.5456  0.2208 -0.2607
 4174SOL    HW124155   2.683   3.088   5.438 -3.7885 -0.0557  0.7111
 4174SOL    HW224156   2.635   3.069   5.295  0.5701 -0.0365 -0.9217
 4175SOL     OW24157   4.542   0.700   8.309 -0.2859 -0.2776 -0.3046
 4175SOL    HW124158   4.625   0.706   8.263 -1.6511  2.3424 -2.4055
 4175SOL    HW224159   4.571   0.730   8.395 -1.5811 -0.3613  0.1697
 4176SOL     OW24160   1.458   4.057   8.649  0.1838 -0.3380  0.0646
 4176SOL    HW124161   1.521   3.991   8.623 -0.2957 -0.1377 -1.5972
 4176SOL    HW224162   1.512   4.128   8.684  0.9908 -1.1007  0.3490
 4177SOL     OW24163   4.441   2.149   4.937  0.2973 -0.6787 -0.2548
 4177SOL    HW124164   4.500   2.138   4.863  0.1717 -0.6736 -0.3559
 4177SOL    HW224165   4.449   2.063   4.978 -1.5618  0.4246  2.4535
 4178SOL     OW24166   3.031   4.352   2.734 -0.1017  0.3876  0.1547
 4178SOL    HW124167   3.076   4.268   2.724  1.3997  1.2512 -0.3231
 4178SOL    HW224168   3.027   4.386   2.644 -0.4142 -1.9657 -0.7451
 4179SOL     OW24169   3.911   0.669   4.736 -0.3279 -0.3486  0.4917
 4179SOL    HW124170   3.888   0.596   4.679  0.2284 -1.3467  1.5424
 4179SOL    HW224171   3.959   0.731   4.682 -1.9213 -0.3967 -0.9951
 4180SOL     OW24172   4.291   2.967  10.474  0.3041 -0.2777 -0.3262
 4180SOL    HW124173   4.249   3.013  10.547  2.3660  0.8132  0.1520
 4180SOL    HW224174   4.275   2.875  10.494  0.6576 -0.4042 -0.6431
 4181SOL     OW24175   0.415   4.095   0.137  0.5075 -0.1419  0.3202
 4181SOL    HW124176   0.374   4.106   0.223 -1.0037 -0.3153 -0.3684
 4181SOL    HW224177   0.338   4.073   0.085  0.5905  0.4350 -0.0453
 4182SOL     OW24178   3.068   0.045  15.789 -0.7175  0.3174  0.0521
 4182SOL    HW124179   3.087   0.051  15.695 -1.0308 -1.9699 -0.1644
 4182SOL    HW224180   3.001   0.114  15.784 -0.9681  0.0436 -0.4125
 4183SOL     OW24181   1.384   2.920   4.242 -0.2577 -0.0799  0.0107
 4183SOL    HW124182   1.340   2.997   4.207  0.2466  0.6013  0.8609
 4183SOL    HW224183   1.457   2.906   4.183 -0.0159 -2.0190  0.7671
 4184SOL     OW24184   1.757   1.863   6.776 -0.0896  0.0486 -0.4468
 4184SOL    HW124185   1.797   1.869   6.863 -2.8749 -0.3517  0.8605
 4184SOL    HW224186   1.798   1.788   6.733  0.7906  1.1212 -1.4713
 4185SOL     OW24187   0.392   4.449   0.168 -0.5263  0.0575 -0.8586
 4185SOL    HW124188   0.376   4.533   0.212 -0.2745  0.1431 -0.9342
 4185SOL    HW224189   0.312   4.423   0.122 -0.4184  1.2546 -1.7031
 4186SOL     OW24190   1.085   3.206   6.624  0.2583 -0.5097  0.2795
 4186SOL    HW124191   1.135   3.183   6.703 -0.4294  1.2757  1.2369
 4186SOL    HW224192   1.062   3.296   6.649  0.3857 -0.8966  1.8099
 4187SOL     OW24193   1.797   4.428   5.824  0.0454  0.3310  0.4670
 4187SOL    HW124194   1.724   4.368   5.807 -0.2583  1.3626 -1.8188
 4187SOL    HW224195   1.834   4.385   5.901  1.0570  0.5634  0.1012
 4188SOL     OW24196   0.849   3.311  11.452 -0.7582  1.0924 -0.4393
 4188SOL    HW124197   0.765   3.268  11.441 -0.4597  0.6085 -0.8592
 4188SOL    HW224198   0.891   3.314  11.366  0.8719 -0.8163  0.2843
 4189SOL     OW24199   1.363   4.298   8.940  0.0206  0.0666  0.0968
 4189SOL    HW124200   1.339   4.377   8.893  1.9384  0.4556 -0.2314
 4189SOL    HW224201   1.452   4.282   8.909 -0.4045  0.6221 -1.4308
 4190SOL     OW24202   4.209   2.433  15.567  0.3186  0.1845 -0.4911
 4190SOL    HW124203   4.236   2.525  15.577 -0.9592  0.5297 -0.1999
 4190SOL    HW224204   4.168   2.442  15.481 -1.2852 -0.6566  0.1976
 4191SOL     OW24205   1.169   2.585   5.748 -0.0991 -0.6747  0.5903
 4191SOL    HW124206   1.244   2.547   5.794  1.1005  1.3048  0.2563
 4191SOL    HW224207   1.211   2.624   5.671 -1.2563 -1.1141 -0.2617
 4192SOL     OW24208   2.713   0.215   9.026  0.1735 -0.0955  0.2267
 4192SOL    HW124209   2.711   0.122   9.003 -1.7369  0.1860 -0.7042
 4192SOL    HW224210   2.665   0.223   9.109  1.7494  1.9356  0.9585
 4193SOL     OW24211   0.823   2.883  15.828 -0.5006 -0.3214  0.6688
 4193SOL    HW124212   0.809   2.798  15.870  1.0372 -1.3203 -0.8446
 4193SOL    HW224213   0.770   2.939  15.885  1.0735  0.1031  1.6902
 4194SOL     OW24214   0.306   1.878   8.251  0.2550 -0.3486 -0.0272
 4194SOL    HW124215   0.312   1.862   8.157 -2.5461 -0.6300 -0.1470
 4194SOL    HW224216   0.360   1.956   8.259 -1.3194  0.6496  0.6747
 4195SOL     OW24217   0.973   4.592  17.522  0.2628  0.2616  0.0170
 4195SOL    HW124218   0.967   4.500  17.547  2.0689 -0.2601 -1.4034
 4195SOL    HW224219   1.062   4.614  17.551  0.4447 -0.8047  0.2506
 4196SOL     OW24220   0.487   2.717   2.490 -0.2102  0.9756 -0.3073
 4196SOL    HW124221   0.497   2.674   2.406 -2.3910  0.5020 -0.3288
 4196SOL    HW224222   0.572   2.753   2.515 -0.4969 -0.1394  2.2791
 4197SOL     OW24223   2.484   1.299   5.763 -0.0887 -0.3191 -0.1473
 4197SOL    HW124224   2.573   1.291   5.729  0.7966  1.6255  1.7261
 4197SOL    HW224225   2.460   1.384   5.727 -1.0074 -1.5044 -2.3331
 4198SOL     OW24226   0.648   4.236  14.579  0.3321  0.1296 -0.1452
 4198SOL    HW124227   0.586   4.305  14.601 -1.0574 -1.0783 -0.2228
 4198SOL    HW224228   0.640   4.174  14.652 -0.2078 -1.4962 -1.5867
 4199SOL     OW24229   4.635   1.770  16.175  0.0782  0.0518 -0.0073
 4199SOL    HW124230   4.695   1.792  16.247  0.5805  0.2525 -0.4879
 4199SOL    HW224231   4.551   1.766  16.221  0.9233 -0.0062  1.5429
 4200SOL     OW24232   3.887   4.670   9.222  0.0741 -0.0841 -0.4799
 4200SOL    HW124233   3.802   4.663   9.180  0.8020 -1.0166 -1.7838
 4200SOL    HW224234   3.905   4.581   9.252 -0.3670 -0.4977 -1.4579
 4201SOL     OW24235   3.607   0.222   8.287 -0.0673 -0.4905  0.1307
 4201SOL    HW124236   3.568   0.306   8.313  0.6217 -0.2812  0.4764
 4201SOL    HW224237   3.688   0.251   8.247  1.2509 -1.6293  1.9729
 4202SOL     OW24238   0.941   3.814  14.759 -0.8594 -0.4414  0.2510
 4202SOL    HW124239   0.933   3.887  14.697  1.4312  0.1492  0.6390
 4202SOL    HW224240   1.012   3.843  14.817 -1.9454 -1.2899  1.9727
 4203SOL     OW24241   0.787   3.193   4.308  0.4700 -0.0523  0.8100
 4203SOL    HW124242   0.844   3.251   4.257  0.0179  1.0983  1.6244
 4203SOL    HW224243   0.710   3.243   4.331  0.1285  0.0676 -0.6127
 4204SOL     OW24244   2.771   2.483   4.301  0.7593 -0.0930 -0.2667
 4204SOL    HW124245   2.800   2.408   4.249  0.4223  0.9401 -1.9270
 4204SOL    HW224246   2.797   2.447   4.386  2.8576 -1.6805 -1.5867
 4205SOL     OW24247   2.323   2.100   5.389  0.2172 -0.5070 -0.5957
 4205SOL    HW124248   2.400   2.131   5.340  1.0313 -1.7775 -0.1173
 4205SOL    HW224249   2.263   2.095   5.314 -0.8327  0.6216  0.1902
 4206SOL     OW24250   2.730   0.353   3.772  0.3231 -0.2135  0.1142
 4206SOL    HW124251   2.708   0.443   3.749 -0.1488 -0.4975 -0.5682
 4206SOL    HW224252   2.756   0.330   3.682  1.5580 -0.8738  0.6422
 4207SOL     OW24253   4.089   0.189  11.466 -0.0209 -0.2950 -0.7191
 4207SOL    HW124254   4.130   0.245  11.400  0.3650  1.5872  1.1077
 4207SOL    HW224255   4.055   0.116  11.415 -0.3865 -1.8328  1.7107
 4208SOL     OW24256   0.183   4.380   5.171  0.3415 -0.3248 -0.7705
 4208SOL    HW124257   0.088   4.388   5.158  0.4610  0.5185 -1.1112
 4208SOL    HW224258   0.210   4.472   5.165  1.5134 -0.8337 -2.9873
 4209SOL     OW24259   3.455   2.345   2.189 -0.2072 -0.3679 -0.0560
 4209SOL    HW124260   3.398   2.339   2.266 -0.5487  3.7396 -0.0177
 4209SOL    HW224261   3.515   2.273   2.212  0.5791  1.7411  4.4567
 4210SOL     OW24262   0.800   3.774  13.162 -0.1624 -0.2090 -0.3704
 4210SOL    HW124263   0.730   3.828  13.199  2.2173  5.7867 -4.4962
 4210SOL    HW224264   0.818   3.717  13.236  1.3851  1.2828  0.4002
 4211SOL     OW24265   2.563   3.083   6.998 -0.3843 -0.1871 -0.2447
 4211SOL    HW124266   2.597   3.006   7.045 -1.3748  0.2902  1.2617
 4211SOL    HW224267   2.624   3.150   7.028 -1.9233  1.7733 -1.4729
 4212SOL     OW24268   0.881   3.108   7.460 -0.0290 -0.1937  0.9800
 4212SOL    HW124269   0.921   3.141   7.541  0.8034  2.1254 -0.3882
 4212SOL    HW224270   0.838   3.189   7.433  0.1532 -1.0367 -1.8187
 4213SOL     OW24271   2.225   2.284   5.030  0.0764 -0.3882 -0.3705
 4213SOL    HW124272   2.180   2.207   5.066 -1.1517  1.0327  1.1088
 4213SOL    HW224273   2.187   2.355   5.081 -1.3120 -0.0143 -1.9254
 4214SOL     OW24274   1.072   1.890  12.760 -0.3562 -0.4219 -0.3068
 4214SOL    HW124275   1.100   1.980  12.746  1.9166 -1.2479 -0.9305
 4214SOL    HW224276   1.062   1.875  12.854 -0.3499  4.0071  0.4251
 4215SOL     OW24277   0.294   2.929  13.020 -0.2972 -0.0082 -0.5230
 4215SOL    HW124278   0.290   2.837  12.994  1.7204 -0.3139  0.2434
 4215SOL    HW224279   0.276   2.911  13.112  2.2989  0.2768  0.0564
 4216SOL     OW24280   3.133   1.832   9.780 -0.8036  0.1010 -0.5121
 4216SOL    HW124281   3.069   1.895   9.812 -0.4692  0.8875 -1.3901
 4216SOL    HW224282   3.111   1.835   9.687  2.0865  2.7483 -1.1260
 4217SOL     OW24283   0.235   2.184   3.894 -0.2744  0.1497  0.0982
 4217SOL    HW124284   0.261   2.113   3.952  0.0884 -1.1648 -1.6945
 4217SOL    HW224285   0.153   2.148   3.860 -0.2428  1.7203 -1.6433
 4218SOL     OW24286   2.794   1.908   5.614  0.0920  0.1918 -0.1019
 4218SOL    HW124287   2.831   1.996   5.611 -1.2283  0.7384 -0.1567
 4218SOL    HW224288   2.705   1.931   5.638  0.8675  1.9991  1.0139
 4219SOL     OW24289   4.349   4.105   7.524 -0.5799  0.7441  0.2388
 4219SOL    HW124290   4.267   4.139   7.559 -0.7051  1.7452 -1.0439
 4219SOL    HW224291   4.385   4.084   7.610 -2.4779 -1.1122  0.5924
 4220SOL     OW24292   3.510   0.297   0.660 -0.2161  0.0710  0.7174
 4220SOL    HW124293   3.535   0.248   0.581 -1.2501 -0.4959  0.7297
 4220SOL    HW224294   3.441   0.237   0.689 -1.4810  1.1955  0.0404
 4221SOL     OW24295   4.163   3.593   5.916 -0.4087 -0.0476 -0.2855
 4221SOL    HW124296   4.080   3.545   5.910 -0.8619  0.6876  0.2210
 4221SOL    HW224297   4.220   3.543   5.857 -1.1943  0.2711 -1.3165
 4222SOL     OW24298   3.871   4.384   9.413  0.2030  0.3084 -0.2855
 4222SOL    HW124299   3.788   4.431   9.422 -0.0413  0.1155 -1.5595
 4222SOL    HW224300   3.841   4.294   9.399  1.6862 -0.0086 -1.3641
 4223SOL     OW24301   4.612   1.746   4.750 -0.8298  0.0943  0.3005
 4223SOL    HW124302   4.561   1.756   4.831  1.1713  1.3389  1.3872
 4223SOL    HW224303   4.681   1.806   4.775 -1.9319  0.8670  1.4914
 4224SOL     OW24304   0.573   2.865   5.415 -0.2458 -0.5989 -0.2838
 4224SOL    HW124305   0.580   2.792   5.354 -2.2815 -0.9638 -0.0528
 4224SOL    HW224306   0.666   2.889   5.423 -0.5216  0.2409  0.4274
 4225SOL     OW24307   1.188   0.026   6.703 -0.2635 -0.2332  0.2056
 4225SOL    HW124308   1.216   4.701   6.771 -1.4076  0.5192  1.3423
 4225SOL    HW224309   1.115   0.074   6.741 -0.0771  2.0859 -2.3912
 4226SOL     OW24310   2.149   2.966   4.402 -0.2587  0.4309 -0.3350
 4226SOL    HW124311   2.136   2.871   4.411 -0.5555  0.2613 -2.4170
 4226SOL    HW224312   2.067   3.015   4.404  0.6753  1.9945 -0.3339
 4227SOL     OW24313   1.690   4.587   5.318  0.1819 -0.2081 -0.3704
 4227SOL    HW124314   1.680   4.492   5.317  1.5369 -0.3333 -3.2340
 4227SOL    HW224315   1.716   4.610   5.407  0.0316  1.2981 -0.7072
 4228SOL     OW24316   1.927   1.358  12.578 -0.5706 -0.4104  0.8740
 4228SOL    HW124317   1.944   1.444  12.616 -1.8422  1.1049 -1.9924
 4228SOL    HW224318   1.992   1.352  12.507 -1.6692  0.7591 -0.2269
 4229SOL     OW24319   3.770   0.243   5.127  0.3818  0.3103  0.2410
 4229SOL    HW124320   3.747   0.304   5.057 -0.5882 -0.8078 -0.4062
 4229SOL    HW224321   3.736   0.158   5.099 -1.0076  0.4643  1.4729
 4230SOL     OW24322   1.287   3.727   7.943 -0.1976  0.5352  0.2749
 4230SOL    HW124323   1.316   3.813   7.914  1.6509  0.2147  1.1630
 4230SOL    HW224324   1.221   3.757   8.006 -0.2459 -1.9696  1.4313
 4231SOL     OW24325   2.369   2.431   4.734 -0.0240 -0.3823  0.0503
 4231SOL    HW124326   2.441   2.465   4.682 -1.0517  1.0736 -0.4018
 4231SOL    HW224327   2.333   2.512   4.770  0.3073 -0.1935 -0.0461
 4232SOL     OW24328   1.948   4.622   8.661  0.5447 -0.4501 -1.1101
 4232SOL    HW124329   1.916   4.669   8.584  0.1523 -0.4346 -0.9385
 4232SOL    HW224330   1.882   4.659   8.719  0.0768 -1.0282 -1.2784
 4233SOL     OW24331   0.779   4.604   1.937 -0.1688 -0.1195 -0.0252
 4233SOL    HW124332   0.802   4.608   2.030 -0.1781  0.0376 -0.0290
 4233SOL    HW224333   0.816   4.687   1.907 -1.0336  0.8875  1.6892
 4234SOL     OW24334   2.793   1.077   6.414 -0.0369  0.0626 -0.0476
 4234SOL    HW124335   2.845   1.157   6.404  0.6497 -0.2761  0.8550
 4234SOL    HW224336   2.703   1.106   6.399 -0.5804 -1.1579  0.8722
 4235SOL     OW24337   2.104   2.515   3.589 -0.0112 -0.0940 -0.1954
 4235SOL    HW124338   2.034   2.538   3.528 -1.6547 -0.1617  1.6613
 4235SOL    HW224339   2.059   2.437   3.623 -2.6740  1.7218  0.4718
 4236SOL     OW24340   1.990   0.773   4.801  0.1348  0.1680  0.5010
 4236SOL    HW124341   2.077   0.811   4.811  0.5695 -0.6341 -0.2072
 4236SOL    HW224342   2.007   0.691   4.848 -0.8288  0.0669  0.6793
 4237SOL     OW24343   2.003   0.291   2.322 -0.1630 -0.0121  0.0681
 4237SOL    HW124344   1.920   0.337   2.315 -0.8896 -1.4628 -0.8926
 4237SOL    HW224345   2.010   0.243   2.240 -2.4479  1.8833 -1.2311
 4238SOL     OW24346   0.904   4.660   5.280 -0.0135 -0.0590 -0.5165
 4238SOL    HW124347   0.901   0.014   5.312  0.1267 -0.0424 -0.5495
 4238SOL    HW224348   0.968   4.657   5.209 -0.9229 -1.0570 -1.3005
 4239SOL     OW24349   3.938   0.784   3.627  0.7051 -0.0389  0.5767
 4239SOL    HW124350   3.932   0.853   3.561  1.7018 -0.8594 -0.3652
 4239SOL    HW224351   4.034   0.778   3.630  0.6562 -0.7242  0.6722
 4240SOL     OW24352   1.829   2.962   4.085 -0.5324 -0.3691 -0.0486
 4240SOL    HW124353   1.764   2.929   4.023 -0.0042 -0.2335 -0.6769
 4240SOL    HW224354   1.912   2.927   4.053 -2.4725 -1.6318 -3.7634
 4241SOL     OW24355   3.798   3.087  14.952 -0.1407  0.2016  0.5264
 4241SOL    HW124356   3.832   3.166  14.909 -0.9700  0.9027  1.1676
 4241SOL    HW224357   3.805   3.022  14.883  0.2706 -0.3233  1.0626
 4242SOL     OW24358   0.174   0.484   6.799 -0.0982  0.2175  0.2014
 4242SOL    HW124359   0.179   0.487   6.703 -1.8470 -1.4486  0.0519
 4242SOL    HW224360   0.194   0.392   6.811 -0.1370  0.3031  0.8912
 4243SOL     OW24361   2.023   2.651   8.426  0.0773 -0.1649  0.8992
 4243SOL    HW124362   1.936   2.667   8.462 -0.8985  0.3655 -1.6815
 4243SOL    HW224363   2.073   2.622   8.502  1.3192 -0.1986  0.0610
 4244SOL     OW24364   3.208   4.210  12.369  0.1110 -0.1093  0.1616
 4244SOL    HW124365   3.274   4.278  12.359 -2.1658  1.7015 -2.6792
 4244SOL    HW224366   3.185   4.183  12.280  0.3792  1.1165 -0.2739
 4245SOL     OW24367   2.074   0.175  12.525  0.1526  0.4446  0.7097
 4245SOL    HW124368   2.080   0.166  12.430  2.2595 -0.0812  0.8835
 4245SOL    HW224369   2.026   0.095  12.547  3.0098 -0.4650  3.7481
 4246SOL     OW24370   0.229   4.358   5.674  0.2153 -0.3061 -0.5837
 4246SOL    HW124371   0.216   4.330   5.584 -0.2645 -1.4489 -0.1606
 4246SOL    HW224372   0.318   4.328   5.695  1.0492  2.4269 -0.2542
 4247SOL     OW24373   4.094   0.985   5.312 -0.1893  0.2954 -0.6245
 4247SOL    HW124374   4.078   0.962   5.220  0.3654  0.1035 -0.6713
 4247SOL    HW224375   4.128   0.900   5.339  0.9249  0.6867 -0.8175
 4248SOL     OW24376   3.566   2.900   7.848  0.2259  0.0338 -0.0698
 4248SOL    HW124377   3.495   2.862   7.900 -0.5147 -0.1100 -1.1943
 4248SOL    HW224378   3.599   2.826   7.798 -0.9607 -0.5678  0.0289
 4249SOL     OW24379   3.997   0.568   6.070  0.5578 -0.0301  0.0615
 4249SOL    HW124380   4.006   0.605   6.158 -2.0211 -1.5279  0.9479
 4249SOL    HW224381   4.087   0.549   6.044  0.9074 -1.2669  2.1482
 4250SOL     OW24382   3.588   1.761   6.382  0.5334  0.1002 -0.0628
 4250SOL    HW124383   3.669   1.804   6.353  0.8171 -1.5803 -1.8058
 4250SOL    HW224384   3.522   1.829   6.370  0.0189 -0.2583  0.7687
 4251SOL     OW24385   2.618   4.599  16.980 -0.2497  0.3251 -0.2343
 4251SOL    HW124386   2.568   4.535  16.930 -1.3692  0.6809  0.4304
 4251SOL    HW224387   2.573   4.682  16.965 -1.0082 -0.3941 -2.0007
 4252SOL     OW24388   4.482   1.784  16.436 -0.3028  0.0156 -0.2878
 4252SOL    HW124389   4.502   1.878  16.432 -2.6074  0.4462 -2.0320
 4252SOL    HW224390   4.522   1.761  16.520 -0.6690 -1.1763 -0.4369
 4253SOL     OW24391   3.629   3.279   9.789  0.2002 -0.3103 -0.2119
 4253SOL    HW124392   3.702   3.337   9.769 -0.6019  0.9428  0.4665
 4253SOL    HW224393   3.600   3.319   9.871  0.5017  1.5187 -0.9950
 4254SOL     OW24394   0.798   3.457  10.591  0.1163  0.3554  0.0494
 4254SOL    HW124395   0.765   3.370  10.572 -1.6143  0.9096  0.5640
 4254SOL    HW224396   0.804   3.451  10.686  0.2463 -0.4981 -0.0173
 4255SOL     OW24397   3.728   2.955   8.202  0.1580 -0.0773  0.4648
 4255SOL    HW124398   3.781   2.961   8.281  1.3809 -0.0210 -0.3709
 4255SOL    HW224399   3.723   3.048   8.180  3.5544  0.0810  0.4947
 4256SOL     OW24400   0.963   3.302   1.390  0.1492 -0.1297 -0.1703
 4256SOL    HW124401   0.984   3.394   1.402 -1.2795  0.2794 -0.8788
 4256SOL    HW224402   0.987   3.281   1.300 -1.9635  0.5438 -0.8892
 4257SOL     OW24403   0.360   0.136  11.287  0.0702 -0.2430  0.4987
 4257SOL    HW124404   0.289   0.142  11.223 -0.1420 -0.5442  0.7062
 4257SOL    HW224405   0.387   0.047  11.267  0.6559  0.3062 -1.0820
 4258SOL     OW24406   3.478   0.141   5.977  0.0649 -0.3457  0.3401
 4258SOL    HW124407   3.509   0.182   6.058 -2.7541 -0.1783  1.3544
 4258SOL    HW224408   3.429   0.208   5.928  2.9530 -0.3999 -2.5546
 4259SOL     OW24409   0.398   1.195  16.812  0.9672 -0.0643 -0.6746
 4259SOL    HW124410   0.422   1.162  16.898 -1.6911 -0.1323  0.0514
 4259SOL    HW224411   0.307   1.169  16.823  1.3858 -0.1484  2.6250
 4260SOL     OW24412   3.204   0.004   8.279  0.4106 -0.0817 -0.3196
 4260SOL    HW124413   3.285   0.029   8.235 -0.1232 -0.4375 -1.4853
 4260SOL    HW224414   3.221   4.647   8.272 -1.9944 -0.7512  2.3841
 4261SOL     OW24415   2.297   1.680   4.952 -0.2005 -0.0813 -0.4740
 4261SOL    HW124416   2.323   1.772   4.949 -1.3153  0.2787  1.1789
 4261SOL    HW224417   2.269   1.669   5.042  1.8942  0.5500  0.2597
 4262SOL     OW24418   0.084   4.730   3.040  0.0735  0.2836 -0.1151
 4262SOL    HW124419   4.728   4.707   3.036  0.2158 -0.5458  1.4729
 4262SOL    HW224420   0.082   0.054   3.115  0.4941  1.0070 -0.6768
 4263SOL     OW24421   3.989   1.282  14.456 -0.0272  0.5255  0.1999
 4263SOL    HW124422   3.958   1.373  14.450 -0.2487  0.4861  0.7309
 4263SOL    HW224423   3.990   1.286  14.552  0.1038  0.1640  0.2113
 4264SOL     OW24424   3.786   2.618  10.785 -0.9471 -0.0457  0.0898
 4264SOL    HW124425   3.741   2.537  10.808  0.6335 -0.6458  1.0313
 4264SOL    HW224426   3.762   2.674  10.858 -0.6065 -0.7066  0.7055
 4265SOL     OW24427   0.430   3.066  10.870  0.2135 -0.0733 -0.2779
 4265SOL    HW124428   0.440   3.148  10.822 -0.1372 -0.0744 -0.3526
 4265SOL    HW224429   0.421   3.105  10.956  0.9137 -1.7354  0.5470
 4266SOL     OW24430   2.831   4.149   2.884 -0.4092  0.1284 -0.4618
 4266SOL    HW124431   2.890   4.138   2.959 -3.0695 -2.0382  1.3092
 4266SOL    HW224432   2.865   4.234   2.854  2.2118 -0.2733  1.3951
 4267SOL     OW24433   0.264   0.011   1.029 -0.5420 -0.4795 -0.0069
 4267SOL    HW124434   0.212   4.718   0.955 -0.6958 -0.5612  0.1328
 4267SOL    HW224435   0.201   4.734   1.100 -1.2639 -0.7892 -0.7028
 4268SOL     OW24436   3.600   2.421  10.806  0.0309  0.4244 -0.2556
 4268SOL    HW124437   3.538   2.466  10.748 -0.6331  1.1006  0.9899
 4268SOL    HW224438   3.561   2.333  10.810  0.7150  0.1894  1.2882
 4269SOL     OW24439   4.228   2.482   0.479  0.0805 -0.5360  0.3708
 4269SOL    HW124440   4.178   2.449   0.554  0.2410 -0.6802  0.4135
 4269SOL    HW224441   4.317   2.468   0.509  0.3079  0.9685  0.3514
 4270SOL     OW24442   0.180   0.455   3.622  0.6828 -0.5978  0.4941
 4270SOL    HW124443   0.247   0.396   3.654  0.2439 -1.5153 -0.2881
 4270SOL    HW224444   0.238   0.521   3.583  1.7884 -2.9821 -1.9057
 4271SOL     OW24445   2.561   1.876   5.347 -0.9838  0.4594  0.0866
 4271SOL    HW124446   2.487   1.843   5.398  1.1007 -0.1759  2.6595
 4271SOL    HW224447   2.617   1.926   5.406  0.6287 -1.4296  0.1582
 4272SOL     OW24448   1.014   3.897  15.174 -0.1918 -0.0629  0.1053
 4272SOL    HW124449   1.090   3.865  15.125 -0.6251 -1.4112  0.2983
 4272SOL    HW224450   1.056   3.920  15.257 -0.1140 -0.4484  0.1764
 4273SOL     OW24451   0.833   1.779   6.039 -0.5061 -0.4095 -0.0913
 4273SOL    HW124452   0.861   1.855   6.091 -0.8967  1.3638 -2.4795
 4273SOL    HW224453   0.922   1.752   6.014 -1.6085 -2.2071 -2.0021
 4274SOL     OW24454   0.612   4.491   3.868 -0.3061  0.0837 -0.2092
 4274SOL    HW124455   0.679   4.479   3.801 -1.1356  2.9873 -1.5560
 4274SOL    HW224456   0.665   4.532   3.936  0.0922 -1.2920  0.3013
 4275SOL     OW24457   1.695   4.482  14.414 -0.6111 -0.0008 -0.1042
 4275SOL    HW124458   1.783   4.511  14.438  0.1374 -1.2432 -1.3746
 4275SOL    HW224459   1.698   4.514  14.324  3.9765 -0.7784 -0.2564
 4276SOL     OW24460   2.177   2.028  12.815  0.0607 -0.1486  0.0579
 4276SOL    HW124461   2.265   2.024  12.851  1.4777  3.0929 -3.0565
 4276SOL    HW224462   2.164   1.933  12.808 -0.1657  0.0068 -1.7665
 4277SOL     OW24463   0.974   2.772  13.193  0.0145  0.3534 -0.2492
 4277SOL    HW124464   1.024   2.846  13.159 -0.6608  0.5871 -0.7343
 4277SOL    HW224465   1.044   2.723  13.235  0.4838  1.1467 -0.0952
 4278SOL     OW24466   4.413   4.088   4.024 -0.0629  0.5850 -0.2024
 4278SOL    HW124467   4.456   4.010   4.059  3.2644  2.1530 -0.8435
 4278SOL    HW224468   4.487   4.125   3.975 -0.4963 -0.7242 -1.8331
 4279SOL     OW24469   3.930   1.261   0.118 -0.1092  0.2796 -0.0392
 4279SOL    HW124470   3.933   1.355   0.132  0.2390 -0.0212  1.7906
 4279SOL    HW224471   3.885   1.253   0.034 -0.2961  0.3181  0.0581
 4280SOL     OW24472   3.264   1.554   3.513 -0.0995 -0.4580  0.1387
 4280SOL    HW124473   3.191   1.495   3.494  0.4070 -1.3664  1.0493
 4280SOL    HW224474   3.254   1.559   3.608  0.0989  0.9613  0.0865
 4281SOL     OW24475   1.732   4.275   2.705 -0.0146 -0.1964  0.1308
 4281SOL    HW124476   1.815   4.322   2.710 -0.3675  0.6639 -1.9590
 4281SOL    HW224477   1.766   4.192   2.671  0.5786  0.5835 -1.1835
 4282SOL     OW24478   2.059   2.138   7.761 -0.5217  0.5633 -0.5607
 4282SOL    HW124479   2.084   2.069   7.822 -1.3129 -0.7303 -1.7034
 4282SOL    HW224480   1.968   2.154   7.789 -1.0205 -2.5965 -0.4422
 4283SOL     OW24481   1.218   3.762   2.286 -0.2373  0.0565  0.3264
 4283SOL    HW124482   1.194   3.783   2.376  2.0506  0.1926  0.9129
 4283SOL    HW224483   1.304   3.721   2.293  0.3142  1.2040  0.3188
 4284SOL     OW24484   2.545   2.434   6.897  0.3002  0.0345  0.0536
 4284SOL    HW124485   2.468   2.431   6.954 -1.0865  0.8206 -1.7689
 4284SOL    HW224486   2.512   2.393   6.816  1.0672  0.1555 -0.3165
 4285SOL     OW24487   0.893   2.288   7.710 -0.2738 -0.3890  0.3185
 4285SOL    HW124488   0.849   2.334   7.639 -1.1566 -1.2380  0.3117
 4285SOL    HW224489   0.919   2.362   7.764  2.7170 -0.2974 -1.2433
 4286SOL     OW24490   1.482   2.695   4.063 -0.0752 -0.3442  0.1325
 4286SOL    HW124491   1.402   2.738   4.030  0.6520 -1.2360 -2.8138
 4286SOL    HW224492   1.547   2.747   4.016 -0.0802 -0.1380  0.3583
 4287SOL     OW24493   2.327   2.039   7.973  0.4483 -0.1645  0.5485
 4287SOL    HW124494   2.347   2.116   7.919  0.0143 -0.2134  0.3222
 4287SOL    HW224495   2.282   1.987   7.907 -0.3347  1.4951 -0.2391
 4288SOL     OW24496   0.111   2.397   5.133 -0.2313 -0.7832 -0.4263
 4288SOL    HW124497   0.173   2.449   5.083  0.6607 -0.1958  1.3074
 4288SOL    HW224498   0.168   2.338   5.181  0.4587 -1.1716 -1.7347
 4289SOL     OW24499   4.084   4.110   4.626 -0.3999 -0.5034 -0.5531
 4289SOL    HW124500   4.003   4.131   4.580 -1.3260  0.1405  1.3528
 4289SOL    HW224501   4.147   4.133   4.557  0.7532  1.4368  1.1205
 4290SOL     OW24502   1.954   1.950   4.687 -0.0950  0.0412 -0.3012
 4290SOL    HW124503   1.961   2.029   4.740  0.8887  0.6583 -1.3301
 4290SOL    HW224504   1.967   1.877   4.748  1.1670  1.3207  0.9603
 4291SOL     OW24505   2.532   3.394   8.366 -0.0328  0.1290 -0.6057
 4291SOL    HW124506   2.449   3.351   8.388 -0.1417  0.6531  0.0305
 4291SOL    HW224507   2.589   3.319   8.354 -1.4241 -1.4131  2.2865
 4292SOL     OW24508   1.379   2.154  16.594 -0.0269 -0.5590  0.3916
 4292SOL    HW124509   1.445   2.140  16.526 -0.1534  1.4065 -0.1265
 4292SOL    HW224510   1.434   2.147  16.673  1.3955  0.4447 -0.5107
 4293SOL     OW24511   3.924   2.940   9.363 -0.1321 -0.0826 -0.4256
 4293SOL    HW124512   3.950   3.025   9.326 -0.3603  0.1580 -0.0347
 4293SOL    HW224513   4.003   2.905   9.403  0.0054  0.4444 -0.2303
 4294SOL     OW24514   4.026   3.102  17.696 -0.2740  0.4535  0.4654
 4294SOL    HW124515   4.069   3.135   0.032  0.4734 -0.4999  0.4504
 4294SOL    HW224516   3.951   3.067   0.002 -0.9964  1.2422 -0.0923
 4295SOL     OW24517   3.311   1.857   4.965 -0.1666  0.4081 -0.5757
 4295SOL    HW124518   3.386   1.868   5.024  0.8943 -1.4937 -1.5802
 4295SOL    HW224519   3.234   1.870   5.020  0.6525 -2.2217  1.1811
 4296SOL     OW24520   1.792   0.544   5.107 -0.0537  0.6204 -0.3774
 4296SOL    HW124521   1.823   0.630   5.081 -0.8715  1.3085  0.9547
 4296SOL    HW224522   1.771   0.563   5.199  2.3692 -0.2314  0.3542
 4297SOL     OW24523   0.884   0.665   2.666 -0.1886 -0.2679  0.0301
 4297SOL    HW124524   0.968   0.656   2.712  1.1862  3.2467 -1.7757
 4297SOL    HW224525   0.892   0.754   2.631  1.1639  0.0703  1.2040
 4298SOL     OW24526   4.176   3.173   5.718 -0.0737  0.2580  0.2478
 4298SOL    HW124527   4.176   3.110   5.790  0.0179 -2.4414 -2.1443
 4298SOL    HW224528   4.240   3.242   5.737 -0.8737  0.2909  2.7918
 4299SOL     OW24529   2.147   0.919   0.415  0.3295 -0.2676 -0.2243
 4299SOL    HW124530   2.171   1.011   0.424  0.0307 -0.2524  0.4382
 4299SOL    HW224531   2.056   0.921   0.445  0.4652  1.6483  0.0132
 4300SOL     OW24532   0.106   2.690   5.646 -0.0923  0.3217 -0.2658
 4300SOL    HW124533   0.117   2.777   5.682  2.8520  1.3719 -3.7079
 4300SOL    HW224534   0.165   2.687   5.571 -1.6398  1.2498 -1.5338
 4301SOL     OW24535   4.350   3.030   4.464 -0.5039 -0.5441 -0.7643
 4301SOL    HW124536   4.308   3.099   4.515  0.0531  0.3501 -1.5216
 4301SOL    HW224537   4.417   3.079   4.416  0.4828  0.7399  1.9170
 4302SOL     OW24538   3.673   2.816   7.355 -0.2512  0.2775 -0.3989
 4302SOL    HW124539   3.586   2.775   7.347 -0.7148  1.5086 -1.7124
 4302SOL    HW224540   3.726   2.737   7.343  0.4395  0.4286  1.6891
 4303SOL     OW24541   2.085   2.474  16.769  0.1185  0.0703 -0.0020
 4303SOL    HW124542   2.123   2.388  16.786  0.7370  0.6744  1.6799
 4303SOL    HW224543   2.039   2.490  16.852 -3.1579 -0.5142 -1.7103
 4304SOL     OW24544   1.652   3.451   2.990 -0.1903 -0.1356  0.2161
 4304SOL    HW124545   1.697   3.367   2.986 -1.5347 -0.8035 -1.1410
 4304SOL    HW224546   1.597   3.435   3.066 -0.7978  0.0348 -0.1827
 4305SOL     OW24547   4.168   2.767   3.408  0.2990  0.1887  0.5495
 4305SOL    HW124548   4.217   2.730   3.481  2.3694 -0.5319 -1.2249
 4305SOL    HW224549   4.102   2.698   3.395 -0.6102  1.3707 -1.1279
 4306SOL     OW24550   4.125   3.129   5.329 -0.1561 -0.1627 -0.5821
 4306SOL    HW124551   4.141   3.203   5.271  0.6832 -0.0823 -0.2525
 4306SOL    HW224552   4.206   3.080   5.321 -0.6504 -0.9951 -0.4873
 4307SOL     OW24553   2.212   4.369  16.966  0.0964  0.6376 -0.2631
 4307SOL    HW124554   2.120   4.393  16.975 -0.0316 -1.2450  3.2640
 4307SOL    HW224555   2.233   4.331  17.051  0.1133 -0.2860 -0.6835
 4308SOL     OW24556   4.148   2.543   4.891  0.2703  0.3308 -0.3268
 4308SOL    HW124557   4.072   2.532   4.833 -1.0889  0.0234  1.5103
 4308SOL    HW224558   4.112   2.611   4.947  2.0665  1.2099 -0.2530
 4309SOL     OW24559   0.290   2.111  11.693 -0.1559 -0.1300 -0.8337
 4309SOL    HW124560   0.245   2.087  11.775  1.8934  1.6092  0.7883
 4309SOL    HW224561   0.275   2.035  11.636 -1.8950  0.8078 -1.6298
 4310SOL     OW24562   0.945   3.497   0.870  0.1544  0.1650  0.2096
 4310SOL    HW124563   0.925   3.404   0.877 -3.5038  0.9273 -0.2689
 4310SOL    HW224564   0.967   3.502   0.777 -0.2254 -1.0349  0.0618
 4311SOL     OW24565   0.789   3.593   0.237 -0.0378 -0.0522 -0.5595
 4311SOL    HW124566   0.853   3.529   0.207  0.3544 -0.4742  1.1712
 4311SOL    HW224567   0.816   3.667   0.182  0.7554 -0.3065 -0.5145
 4312SOL     OW24568   2.147   3.167   5.949  0.2271  0.3690  0.0209
 4312SOL    HW124569   2.156   3.242   6.007 -2.9311  1.0848 -0.3874
 4312SOL    HW224570   2.122   3.202   5.864 -0.6680  0.6019  0.3776
 4313SOL     OW24571   2.493   2.423   1.940 -0.6745  0.2412  0.2026
 4313SOL    HW124572   2.432   2.362   1.899 -2.0953  2.0786 -0.3640
 4313SOL    HW224573   2.532   2.355   1.995  0.5456  0.5733 -0.2455
 4314SOL     OW24574   2.331   3.751   9.102  0.0916  0.6090 -0.1963
 4314SOL    HW124575   2.295   3.675   9.058 -0.7579  0.9694 -0.1344
 4314SOL    HW224576   2.417   3.725   9.136 -0.3696  1.0019  1.2869
 4315SOL     OW24577   1.398   2.178   8.647  0.2344 -0.5247 -0.1878
 4315SOL    HW124578   1.411   2.084   8.635  2.2535 -0.4789  1.6400
 4315SOL    HW224579   1.489   2.190   8.672  0.3214  0.1262 -0.8270
 4316SOL     OW24580   0.905   2.152   7.948 -0.0733 -0.7494  1.0154
 4316SOL    HW124581   0.908   2.229   7.891 -4.1823 -1.3957 -0.1131
 4316SOL    HW224582   0.994   2.122   7.930  0.0594  1.3581 -1.8590
 4317SOL     OW24583   4.443   0.674   3.801 -0.0330  0.4642  0.2745
 4317SOL    HW124584   4.512   0.716   3.853  0.1166  2.6379 -1.6634
 4317SOL    HW224585   4.497   0.627   3.738  0.6945 -1.6899  2.4944
 4318SOL     OW24586   3.849   2.365   2.687  0.7944 -0.3675  0.1750
 4318SOL    HW124587   3.883   2.383   2.775 -0.5903  0.9269  0.4495
 4318SOL    HW224588   3.837   2.271   2.697  1.7815 -0.4603  0.4614
 4319SOL     OW24589   3.241   2.984   9.606 -0.3451  0.2168 -0.2302
 4319SOL    HW124590   3.189   2.971   9.527 -1.2710  0.5913  0.3138
 4319SOL    HW224591   3.291   3.063   9.582 -1.0812  0.2615 -1.6100
 4320SOL     OW24592   3.192   4.075   2.097  0.0498  0.3235 -0.3227
 4320SOL    HW124593   3.115   4.044   2.048 -0.0956  1.5566 -0.8808
 4320SOL    HW224594   3.202   4.165   2.064 -1.4744  0.7237  0.3016
 4321SOL     OW24595   1.482   2.451   6.252 -0.5097  0.2547 -0.6909
 4321SOL    HW124596   1.525   2.427   6.334  0.2278 -2.8443 -1.9860
 4321SOL    HW224597   1.552   2.511   6.225  0.9867 -1.6052 -0.8762
 4322SOL     OW24598   2.695   1.388   3.291 -0.4200  0.5763  0.8113
 4322SOL    HW124599   2.736   1.457   3.344  2.8993 -0.0010 -0.9877
 4322SOL    HW224600   2.601   1.401   3.306 -0.9715 -1.9775 -0.4123
 4323SOL     OW24601   3.429   3.987   1.073  0.4547  0.2242 -0.1964
 4323SOL    HW124602   3.340   3.973   1.103  0.2243 -1.1344 -1.4707
 4323SOL    HW224603   3.473   3.902   1.081  0.5003  0.4268  1.6521
 4324SOL     OW24604   0.271   1.494   9.803 -0.1836  0.0078 -0.1030
 4324SOL    HW124605   0.362   1.500   9.775 -0.8438 -0.6005 -2.3052
 4324SOL    HW224606   0.239   1.584   9.805 -0.2420  0.0038 -1.4134
 4325SOL     OW24607   2.571   2.869   4.854 -0.5419 -0.3203 -0.1178
 4325SOL    HW124608   2.553   2.958   4.883  2.5110  0.4293 -0.4982
 4325SOL    HW224609   2.645   2.860   4.913  1.1678 -1.8272 -2.4803
 4326SOL     OW24610   1.765   2.123   3.789 -0.0008  0.5960  0.6680
 4326SOL    HW124611   1.800   2.090   3.871  0.1225  0.9131  0.7423
 4326SOL    HW224612   1.682   2.076   3.785  1.2972 -1.5489 -1.6314
 4327SOL     OW24613   3.663   3.037   6.143  0.4776  0.5734  0.0456
 4327SOL    HW124614   3.757   3.055   6.137  0.4309  0.7585 -0.1283
 4327SOL    HW224615   3.665   2.965   6.205 -1.6634  0.1387 -0.3789
 4328SOL     OW24616   1.128   4.134  10.362 -0.4839 -0.9601 -0.8787
 4328SOL    HW124617   1.191   4.067  10.389 -2.1516 -2.3195 -0.3672
 4328SOL    HW224618   1.080   4.145  10.444  0.9977  1.7415 -0.3792
 4329SOL     OW24619   4.720   3.980  15.023  0.0416 -0.2732 -0.1707
 4329SOL    HW124620   4.674   4.056  15.060  0.6341  0.5742 -1.1598
 4329SOL    HW224621   4.671   3.905  15.056  0.9139 -0.4282  0.7730
 4330SOL     OW24622   4.577   2.055   7.772 -0.4771  0.6261  0.1455
 4330SOL    HW124623   4.500   2.035   7.720 -0.1121 -2.7720  0.9148
 4330SOL    HW224624   4.567   2.150   7.760 -0.1267  0.9038  1.9523
 4331SOL     OW24625   2.543   2.601  10.987 -0.8662  0.4587 -0.2316
 4331SOL    HW124626   2.522   2.628  10.897 -0.5575  1.5617  0.0274
 4331SOL    HW224627   2.532   2.682  11.037 -2.2235  0.1511 -0.0409
 4332SOL     OW24628   2.705   2.468   8.992  0.3679  0.0139 -0.2602
 4332SOL    HW124629   2.783   2.479   8.937  1.2983 -1.7878  0.7098
 4332SOL    HW224630   2.756   2.435   9.066 -1.1946 -0.4220  0.6298
 4333SOL     OW24631   2.601   1.231  12.478 -0.2334  0.4255  0.1868
 4333SOL    HW124632   2.660   1.254  12.406 -0.9600  0.3054 -0.4427
 4333SOL    HW224633   2.661   1.221  12.552 -0.1078 -0.0954  0.0157
 4334SOL     OW24634   3.136   3.009   4.787  1.0162  0.2176 -0.0783
 4334SOL    HW124635   3.107   2.975   4.872 -0.0738  0.4939 -0.3513
 4334SOL    HW224636   3.140   2.928   4.736 -0.4642 -0.5899  1.1017
 4335SOL     OW24637   4.728   0.278   7.114  0.4019 -0.2161 -0.7117
 4335SOL    HW124638   4.678   0.198   7.132  2.6491 -1.8505 -1.7999
 4335SOL    HW224639   0.076   0.235   7.101  0.0742 -1.1777  0.3291
 4336SOL     OW24640   0.829   2.736   7.792  0.0225 -0.3548 -0.0367
 4336SOL    HW124641   0.802   2.824   7.816 -2.8026 -1.5147  1.0571
 4336SOL    HW224642   0.822   2.740   7.696  0.5131 -1.6068 -0.1292
 4337SOL     OW24643   2.214   2.203   4.732 -0.2277  0.2060 -0.4271
 4337SOL    HW124644   2.190   2.205   4.824  1.5279 -1.5618  0.0675
 4337SOL    HW224645   2.263   2.285   4.727  1.7395 -0.9341  0.0687
 4338SOL     OW24646   3.402   3.086   4.748 -0.1811  0.4306 -0.5908
 4338SOL    HW124647   3.421   3.031   4.672  0.5189  0.0750 -0.1528
 4338SOL    HW224648   3.308   3.075   4.762  0.0334  0.7332  1.0445
 4339SOL     OW24649   0.835   1.749   3.849 -1.4625  0.0695 -0.1462
 4339SOL    HW124650   0.841   1.746   3.754  1.1268 -0.0429  0.0283
 4339SOL    HW224651   0.745   1.717   3.859 -0.0392 -3.6922  0.9235
 4340SOL     OW24652   1.804   0.316   8.144  0.2041 -0.6522  0.0195
 4340SOL    HW124653   1.709   0.329   8.155  0.6122  1.3730  1.1550
 4340SOL    HW224654   1.821   0.378   8.073  1.6277  2.1868  2.8607
 4341SOL     OW24655   3.968   0.146   1.794  0.0976  0.2474 -0.1168
 4341SOL    HW124656   3.972   0.130   1.700  1.4433  0.0075 -0.0130
 4341SOL    HW224657   3.882   0.106   1.810  0.7686 -1.6220 -1.1793
 4342SOL     OW24658   1.936   3.503   7.230 -0.0543 -0.1456 -0.7544
 4342SOL    HW124659   1.900   3.560   7.297  0.6889 -0.3288 -0.1966
 4342SOL    HW224660   1.892   3.542   7.155 -1.5816 -0.6285 -0.1123
 4343SOL     OW24661   4.064   2.370  13.121 -0.0749  0.3354 -0.6195
 4343SOL    HW124662   4.001   2.432  13.084 -1.0065  0.4508  1.1320
 4343SOL    HW224663   4.134   2.371  13.056  0.1477  0.1131 -0.3840
 4344SOL     OW24664   0.036   1.688   5.068  0.0337 -0.5431 -0.3030
 4344SOL    HW124665   0.019   1.595   5.086  1.7992 -0.8925 -0.4639
 4344SOL    HW224666   4.693   1.714   5.021  0.0411  0.2177  0.0989
 4345SOL     OW24667   2.638   0.622   2.214 -0.0615  0.3107 -0.1138
 4345SOL    HW124668   2.615   0.714   2.225  0.2591  0.4721 -0.7517
 4345SOL    HW224669   2.733   0.626   2.201 -0.1314 -1.8164 -1.3312
 4346SOL     OW24670   0.302   1.998   5.475  0.3982  0.3021 -0.0838
 4346SOL    HW124671   0.343   1.930   5.421  0.6584  1.5382 -1.4504
 4346SOL    HW224672   0.350   2.001   5.557  1.7005  1.0275 -0.8723
 4347SOL     OW24673   0.177   4.029   1.657  0.3374  0.0925 -0.1344
 4347SOL    HW124674   0.087   4.035   1.690  0.1335  0.5435 -0.7701
 4347SOL    HW224675   0.209   3.944   1.688  1.1779  0.1695 -0.8044
 4348SOL     OW24676   3.659   3.916   8.023  0.1589 -0.2485 -0.1470
 4348SOL    HW124677   3.635   3.935   8.114  3.4386  0.3532  0.5696
 4348SOL    HW224678   3.607   3.842   7.993 -2.0038  0.4266  1.8696
 4349SOL     OW24679   3.979   4.340   7.923  0.5101 -0.2594 -0.2830
 4349SOL    HW124680   3.989   4.413   7.984 -0.8843 -1.1741  1.0401
 4349SOL    HW224681   3.904   4.356   7.865 -0.1794 -2.0965  0.1097
 4350SOL     OW24682   2.977   3.545   9.713 -0.4105  0.1564  0.2759
 4350SOL    HW124683   2.956   3.512   9.800 -1.0142  0.9124  0.4259
 4350SOL    HW224684   3.006   3.634   9.735 -2.0423  0.9197 -0.6906
 4351SOL     OW24685   0.898   3.109   8.277  0.0771 -0.1757  0.1676
 4351SOL    HW124686   0.837   3.158   8.222  0.2601  1.0296  1.0309
 4351SOL    HW224687   0.886   3.019   8.247 -0.0261 -0.1619  0.1679
 4352SOL     OW24688   3.363   2.012   1.928 -0.1910 -0.1803 -0.1336
 4352SOL    HW124689   3.423   1.963   1.983 -0.9493 -0.7528  0.1794
 4352SOL    HW224690   3.406   2.098   1.932 -1.1002  0.2447  0.4765
 4353SOL     OW24691   2.770   3.778   0.383  0.9454 -1.2545  0.4606
 4353SOL    HW124692   2.726   3.720   0.320 -0.1067 -0.5452  0.5415
 4353SOL    HW224693   2.702   3.778   0.450 -0.2732  2.1751 -0.7587
 4354SOL     OW24694   1.826   4.104  13.927 -0.0138 -0.0989  0.0593
 4354SOL    HW124695   1.804   4.063  13.844  0.3070  3.4704 -1.7734
 4354SOL    HW224696   1.766   4.179  13.923  2.3317  1.8045  0.6216
 4355SOL     OW24697   0.784   2.487   7.917 -0.6325  0.0784 -0.5774
 4355SOL    HW124698   0.690   2.480   7.938 -0.7128  0.4153 -0.8278
 4355SOL    HW224699   0.797   2.577   7.889  0.9941  0.7273  2.2565
 4356SOL     OW24700   0.993   0.882   5.183 -0.2708 -0.5756 -0.2399
 4356SOL    HW124701   1.071   0.895   5.129 -1.1007 -3.0791 -2.0199
 4356SOL    HW224702   1.035   0.876   5.269  1.8232 -0.7125 -1.2567
 4357SOL     OW24703   0.556   4.502   3.551  0.0487 -0.4020  1.1317
 4357SOL    HW124704   0.548   4.547   3.466  0.2265 -0.5594  1.0323
 4357SOL    HW224705   0.502   4.558   3.607  0.3377  0.6482  0.3701
 4358SOL     OW24706   2.061   3.979   3.655 -0.3217 -0.1212  0.2608
 4358SOL    HW124707   2.096   3.926   3.727 -1.4296 -0.2533  0.7017
 4358SOL    HW224708   2.070   4.067   3.692 -1.5453  0.3753 -0.6181
 4359SOL     OW24709   4.310   4.137   5.141  0.0163  0.3289  0.5209
 4359SOL    HW124710   4.226   4.152   5.184  2.0584 -0.2048  4.7164
 4359SOL    HW224711   4.275   4.141   5.052  0.0239 -1.6452  0.4287
 4360SOL     OW24712   4.643   3.632   9.033  0.6926  0.0972 -0.7756
 4360SOL    HW124713   4.607   3.543   9.032  0.0615  0.3383  0.2839
 4360SOL    HW224714   0.001   3.616   9.042  0.2338 -0.7902  2.7661
 4361SOL     OW24715   0.001   3.093   8.555  0.3354  0.2163  0.2124
 4361SOL    HW124716   4.713   3.008   8.591 -1.3834  0.1638 -1.0361
 4361SOL    HW224717   0.095   3.090   8.540  0.0978 -1.6187 -0.9460
 4362SOL     OW24718   0.684   2.257   6.051  0.4761 -0.1957  0.3557
 4362SOL    HW124719   0.684   2.257   5.955  1.8349  2.7814  0.3511
 4362SOL    HW224720   0.764   2.304   6.077  0.6951 -0.0341 -0.6137
 4363SOL     OW24721   3.778   3.381   8.702 -0.4767  0.1677  0.1146
 4363SOL    HW124722   3.852   3.409   8.647  0.3260 -0.1211  1.0543
 4363SOL    HW224723   3.767   3.465   8.747 -0.5929  0.9081 -1.2862
 4364SOL     OW24724   1.897   1.785  12.818 -0.0094  0.2808  0.2621
 4364SOL    HW124725   1.973   1.800  12.761 -1.4199  1.1298 -1.4068
 4364SOL    HW224726   1.921   1.703  12.861  0.4795  1.2835  1.8922
 4365SOL     OW24727   3.362   3.389  12.219  0.4749  0.3149  0.1314
 4365SOL    HW124728   3.299   3.446  12.176 -1.2045 -0.1776  1.9548
 4365SOL    HW224729   3.423   3.448  12.264 -0.0647  0.4452  0.6982
 4366SOL     OW24730   2.355   2.888   5.239  0.6390 -0.1726 -0.1911
 4366SOL    HW124731   2.333   2.967   5.287  1.8277 -0.0335  0.1435
 4366SOL    HW224732   2.410   2.927   5.171  1.3041  0.4332  0.6920
 4367SOL     OW24733   2.122   2.082   4.487  0.1271 -0.2069 -0.4258
 4367SOL    HW124734   2.083   2.008   4.534 -1.9093  0.4393 -1.0725
 4367SOL    HW224735   2.176   2.119   4.557 -1.0507  0.6048  0.0484
 4368SOL     OW24736   4.044   0.252   5.133  0.0862 -0.1499  0.0761
 4368SOL    HW124737   3.952   0.277   5.129  0.0788 -0.1332  0.3882
 4368SOL    HW224738   4.030   0.168   5.091  0.9359 -0.3555  0.2010
 4369SOL     OW24739   1.172   1.857  13.730 -0.0236 -0.2263  0.0570
 4369SOL    HW124740   1.084   1.825  13.709  0.9425 -1.6372 -1.8811
 4369SOL    HW224741   1.198   1.784  13.785  0.6311  1.9538  2.6646
 4370SOL     OW24742   1.068   4.329  15.201  0.2216  0.7139 -0.4990
 4370SOL    HW124743   1.111   4.394  15.146 -0.1399 -0.2225 -1.8926
 4370SOL    HW224744   1.136   4.268  15.230  1.6127  1.6804 -1.7378
 4371SOL     OW24745   3.689   3.751  13.450 -0.4375  0.2750 -0.1218
 4371SOL    HW124746   3.605   3.711  13.426 -0.1784 -0.1997 -0.2390
 4371SOL    HW224747   3.670   3.828  13.504 -0.3243  0.2897 -0.1039
 4372SOL     OW24748   0.682   3.352   1.262 -0.7247 -0.1302 -0.0693
 4372SOL    HW124749   0.727   3.345   1.347  2.1840  0.0915 -1.5800
 4372SOL    HW224750   0.711   3.437   1.231 -0.7116  0.1064  0.5874
 4373SOL     OW24751   0.766   0.552  11.576  0.2085  0.0879  0.1574
 4373SOL    HW124752   0.764   0.521  11.667 -1.6933 -1.5161 -0.4099
 4373SOL    HW224753   0.765   0.464  11.537  1.1265  0.5627 -0.9167
 4374SOL     OW24754   3.096   2.614   6.011  0.2584 -0.2699  0.1094
 4374SOL    HW124755   3.181   2.617   6.054  0.2505 -1.0733  0.1761
 4374SOL    HW224756   3.109   2.689   5.953 -0.3918  0.7344  1.2492
 4375SOL     OW24757   3.337   0.642   3.914  0.3428  0.1991 -0.0008
 4375SOL    HW124758   3.257   0.625   3.864 -0.5134  2.2867  0.6702
 4375SOL    HW224759   3.397   0.648   3.839 -1.4049  1.7209 -1.2629
 4376SOL     OW24760   1.316   2.056   3.555  0.0784 -0.0672  0.2030
 4376SOL    HW124761   1.291   2.147   3.566 -0.6161 -0.4631  1.9292
 4376SOL    HW224762   1.229   2.017   3.561 -0.1537  0.2974 -0.7086
 4377SOL     OW24763   3.542   1.950   9.142 -0.4671  0.5391 -0.5219
 4377SOL    HW124764   3.626   1.909   9.122  0.0501  1.0234  0.6958
 4377SOL    HW224765   3.505   1.893   9.210  0.0536  0.1735 -0.5421
 4378SOL     OW24766   3.422   3.577   5.386 -0.1661 -0.0121  0.2369
 4378SOL    HW124767   3.338   3.615   5.362 -0.1807 -1.1783 -1.5167
 4378SOL    HW224768   3.488   3.645   5.372  0.8199 -0.8455  0.8716
 4379SOL     OW24769   4.204   4.476   4.773  0.1985 -0.1222  0.3491
 4379SOL    HW124770   4.247   4.550   4.816 -0.3183  0.4664 -0.1320
 4379SOL    HW224771   4.270   4.431   4.721  0.3358  0.3734  0.0960
 4380SOL     OW24772   4.566   3.244  17.658 -0.7292  0.1755 -0.0512
 4380SOL    HW124773   4.646   3.191  17.658 -0.7183  0.1968  0.4154
 4380SOL    HW224774   4.504   3.176  17.683  0.2713 -0.7144  0.0285
 4381SOL     OW24775   0.050   1.900   2.190 -0.1229 -0.5776 -0.7341
 4381SOL    HW124776   0.017   1.950   2.265  0.0210 -0.4801 -0.7364
 4381SOL    HW224777   0.095   1.967   2.140  1.1693 -0.6003  0.4021
 4382SOL     OW24778   2.025   0.186   4.918  0.2723  0.4034  0.4203
 4382SOL    HW124779   1.960   0.173   4.987  1.1892 -0.7127  1.0726
 4382SOL    HW224780   1.978   0.196   4.835  1.5156  1.2279 -0.1752
 4383SOL     OW24781   3.847   1.200   9.607 -0.6190  0.0559 -0.5910
 4383SOL    HW124782   3.790   1.151   9.547  1.0861 -1.2981 -1.0965
 4383SOL    HW224783   3.933   1.199   9.566 -0.5322  2.6616 -0.5023
 4384SOL     OW24784   2.742   2.404   8.689 -0.1122  0.1465  0.3007
 4384SOL    HW124785   2.771   2.397   8.780  0.9771 -1.6542 -0.1705
 4384SOL    HW224786   2.761   2.497   8.679  1.6673 -0.2063  0.2955
 4385SOL     OW24787   2.747   2.055  15.607 -0.4161 -0.7608 -0.3752
 4385SOL    HW124788   2.738   2.000  15.685 -1.9253  0.7426  0.5101
 4385SOL    HW224789   2.841   2.075  15.617 -0.3285 -1.7004  0.7653
 4386SOL     OW24790   2.080   3.053   9.988 -0.1490  0.0918 -0.1139
 4386SOL    HW124791   2.011   3.085  10.045 -0.0864 -1.0961  0.6118
 4386SOL    HW224792   2.044   3.050   9.899 -0.7698 -0.3906  0.1555
 4387SOL     OW24793   3.961   0.363  10.278  0.4864 -0.3821 -0.1942
 4387SOL    HW124794   4.049   0.330  10.257  0.4178  0.2571 -1.4554
 4387SOL    HW224795   3.910   0.286  10.254  0.8373 -1.5088  2.7223
 4388SOL     OW24796   4.534   3.838   4.967  0.1644 -0.3003 -0.2365
 4388SOL    HW124797   4.620   3.872   4.989 -1.4192  3.0943  0.6894
 4388SOL    HW224798   4.520   3.768   5.031  0.5968  0.9521  1.2139
 4389SOL     OW24799   2.139   2.062   6.690 -0.2907  0.2626 -0.5550
 4389SOL    HW124800   2.088   2.137   6.660  0.9367  1.3760  0.1595
 4389SOL    HW224801   2.122   1.995   6.623  1.0392 -0.2102 -0.4225
 4390SOL     OW24802   3.173   1.273   8.885 -0.4689 -0.0408 -0.1849
 4390SOL    HW124803   3.152   1.192   8.932 -1.7734 -0.1001 -0.8500
 4390SOL    HW224804   3.125   1.329   8.946  2.8464  0.8155  1.6378
 4391SOL     OW24805   3.444   1.124   9.690 -0.2305  0.1224 -0.1329
 4391SOL    HW124806   3.508   1.053   9.700  0.4658  0.8534  0.5666
 4391SOL    HW224807   3.490   1.172   9.621  2.5701  0.9680  2.3543
 4392SOL     OW24808   1.559   3.301   2.244  0.2261  0.1965  0.0889
 4392SOL    HW124809   1.625   3.345   2.191 -0.4994  1.2786  0.0947
 4392SOL    HW224810   1.597   3.316   2.330  0.7511 -2.6491  0.3515
 4393SOL     OW24811   2.777   1.515   5.816  0.5111 -0.7898 -0.0018
 4393SOL    HW124812   2.870   1.502   5.832  1.0331  0.8190 -1.6542
 4393SOL    HW224813   2.760   1.469   5.734 -1.0591 -1.3236  0.6103
 4394SOL     OW24814   2.078   0.947  16.796 -0.1792  0.0526  0.7860
 4394SOL    HW124815   1.987   0.960  16.823 -0.6853  1.2364 -1.5067
 4394SOL    HW224816   2.111   1.036  16.805  0.6181 -0.0565 -1.0277
 4395SOL     OW24817   0.451   1.731   9.415 -0.3003  0.1960  0.2432
 4395SOL    HW124818   0.395   1.785   9.471  0.3330  0.9662  0.1245
 4395SOL    HW224819   0.505   1.683   9.479  0.1006 -0.1938 -0.3923
 4396SOL     OW24820   4.147   3.853  10.347  0.0907  0.1921  0.1305
 4396SOL    HW124821   4.100   3.774  10.374 -0.0104 -0.5022 -2.0774
 4396SOL    HW224822   4.142   3.857  10.251 -0.6145  0.5098  0.1803
 4397SOL     OW24823   2.009   3.609  15.485  0.5302 -0.3261  0.1053
 4397SOL    HW124824   2.022   3.652  15.401 -0.8972  0.3752  0.2289
 4397SOL    HW224825   2.006   3.517  15.462  0.5846 -0.3765  0.2996
 4398SOL     OW24826   2.810   2.720   4.182 -0.1017 -0.2445  0.6599
 4398SOL    HW124827   2.822   2.646   4.242 -2.2932  1.3253  2.9969
 4398SOL    HW224828   2.771   2.788   4.236  1.0657  1.2413 -0.3717
 4399SOL     OW24829   2.230   3.034   3.024  0.0495  0.3880  0.1055
 4399SOL    HW124830   2.243   2.947   2.987  0.8917  1.0360 -1.1237
 4399SOL    HW224831   2.170   3.066   2.957 -3.1201 -1.5214  2.0441
 4400SOL     OW24832   2.404   4.133   6.021  0.2176  0.0252  0.2542
 4400SOL    HW124833   2.410   4.128   6.117  1.4862  0.9358  0.2230
 4400SOL    HW224834   2.472   4.199   6.008  1.9405 -1.7843  0.1719
 4401SOL     OW24835   2.312   1.263  16.219 -0.1460 -0.5301 -0.2534
 4401SOL    HW124836   2.387   1.321  16.231  0.9237 -1.7505 -0.9134
 4401SOL    HW224837   2.256   1.306  16.155 -1.6402  0.2232  1.5710
 4402SOL     OW24838   0.926   1.217   6.237  0.0256 -0.4767  0.5879
 4402SOL    HW124839   0.908   1.246   6.147 -1.2135 -0.3314  0.8725
 4402SOL    HW224840   0.947   1.126   6.217  1.4136 -0.0305  0.0421
 4403SOL     OW24841   1.892   4.464  16.804  0.1110  0.5342 -0.0228
 4403SOL    HW124842   1.938   4.459  16.888  0.6727 -1.8789 -0.4832
 4403SOL    HW224843   1.804   4.490  16.830 -0.2780  2.0991 -2.9008
 4404SOL     OW24844   3.226   1.940   1.455  0.0885  0.3628  0.3814
 4404SOL    HW124845   3.145   1.973   1.417  0.7061 -0.3388 -1.5446
 4404SOL    HW224846   3.275   2.021   1.467 -1.4089  1.5385 -1.3800
 4405SOL     OW24847   3.536   2.873   5.810 -0.6436 -0.0041  0.0027
 4405SOL    HW124848   3.469   2.891   5.875 -1.4722 -1.1550 -0.5407
 4405SOL    HW224849   3.500   2.912   5.730 -1.0442 -0.7269 -0.1758
 4406SOL     OW24850   0.394   3.810   6.098 -0.4050  0.1843 -0.0862
 4406SOL    HW124851   0.482   3.844   6.113 -0.9074  1.3656  0.2014
 4406SOL    HW224852   0.370   3.792   6.189 -0.8907  1.8474  0.1124
 4407SOL     OW24853   1.830   1.088   7.603  0.2914 -0.2335  0.0151
 4407SOL    HW124854   1.795   1.169   7.564  1.2193 -0.0521 -0.4353
 4407SOL    HW224855   1.827   1.041   7.519  3.7411  0.5880 -0.5740
 4408SOL     OW24856   1.967   2.790   7.862 -0.0903  0.2374  0.0563
 4408SOL    HW124857   2.029   2.804   7.790 -1.4416 -1.3980 -1.4625
 4408SOL    HW224858   1.987   2.854   7.930  0.3443  0.2140 -0.0462
 4409SOL     OW24859   4.266   3.014   9.953  0.0066 -0.3227 -0.2298
 4409SOL    HW124860   4.221   2.951   9.898 -0.6057 -0.7467  0.7519
 4409SOL    HW224861   4.197   3.053  10.008  0.4611 -0.0494  0.1541
 4410SOL     OW24862   4.708   0.621   1.936  0.7398 -0.0877 -0.1029
 4410SOL    HW124863   4.652   0.695   1.913 -0.7652 -1.1717  0.0272
 4410SOL    HW224864   0.055   0.658   1.964  0.6572 -1.8289  2.4307
 4411SOL     OW24865   4.389   3.949  10.096 -0.1438 -0.3385  0.4665
 4411SOL    HW124866   4.305   3.991  10.073 -0.4373 -0.6416  0.9662
 4411SOL    HW224867   4.416   3.915  10.011  1.2130  0.4877  0.5681
 4412SOL     OW24868   1.279   2.492   2.857  0.0344 -0.4616 -0.0023
 4412SOL    HW124869   1.216   2.562   2.874 -1.0329 -1.1824 -0.9692
 4412SOL    HW224870   1.217   2.419   2.862 -1.7488  1.0511 -0.1435
 4413SOL     OW24871   3.899   2.761  16.403  0.0393  0.4949 -0.1048
 4413SOL    HW124872   3.904   2.698  16.331 -0.1121  0.3538  0.0073
 4413SOL    HW224873   3.840   2.825  16.363  2.1730  1.5760 -1.5038
 4414SOL     OW24874   0.118   4.703   4.090 -0.6483 -0.7122  0.8180
 4414SOL    HW124875   0.161   4.656   4.161  0.8935  0.6754  0.8125
 4414SOL    HW224876   0.117   0.056   4.125 -1.2160  0.1014 -1.2451
 4415SOL     OW24877   2.230   3.993   2.462  0.4608  0.0557 -0.0799
 4415SOL    HW124878   2.317   3.994   2.502  0.1438 -0.0783  0.6113
 4415SOL    HW224879   2.169   3.976   2.534 -1.0762  2.3272 -0.8378
 4416SOL     OW24880   4.002   3.456   4.921  0.4133  0.4107 -0.0573
 4416SOL    HW124881   4.052   3.379   4.896  2.8098  2.2508 -0.9131
 4416SOL    HW224882   3.925   3.456   4.864 -0.2451  0.6773  0.8284
 4417SOL     OW24883   3.199   3.109   9.018 -0.7817  0.2466 -0.1162
 4417SOL    HW124884   3.284   3.107   9.061 -1.9830  0.5735  2.2651
 4417SOL    HW224885   3.193   3.015   9.003 -1.9518  0.3988 -0.6645
 4418SOL     OW24886   0.576   1.557   4.055  0.3459  0.5088 -0.3287
 4418SOL    HW124887   0.528   1.620   4.001 -1.8403 -0.6510  0.2488
 4418SOL    HW224888   0.592   1.621   4.124 -0.0410  0.1746  0.0712
 4419SOL     OW24889   4.395   4.235   1.724  0.2377  0.6340 -0.1164
 4419SOL    HW124890   4.334   4.308   1.738 -1.0258 -0.4905  0.2445
 4419SOL    HW224891   4.327   4.183   1.681  1.2738 -0.4938 -0.3960
 4420SOL     OW24892   3.134   2.662   8.176 -0.3145  0.4137  0.1484
 4420SOL    HW124893   3.107   2.607   8.103 -0.1243  0.8236 -0.2356
 4420SOL    HW224894   3.075   2.638   8.247  0.8970 -0.5607  0.8423
 4421SOL     OW24895   0.402   1.471  10.882  0.6577  0.5794  0.4079
 4421SOL    HW124896   0.394   1.451  10.975  0.3985 -0.8831  0.0697
 4421SOL    HW224897   0.373   1.392  10.837 -3.1480  2.0285  0.3028
 4422SOL     OW24898   4.444   4.391   2.680 -0.5257 -0.4382  0.3783
 4422SOL    HW124899   4.457   4.297   2.678 -1.0923 -0.4527 -2.8460
 4422SOL    HW224900   4.518   4.431   2.633 -2.4347  1.1658 -1.2959
 4423SOL     OW24901   3.191   0.429  14.375  0.0683  0.0121  0.1876
 4423SOL    HW124902   3.105   0.418  14.416 -0.1841  1.7459  0.1058
 4423SOL    HW224903   3.236   0.497  14.426  0.2332 -0.3676  0.5529
 4424SOL     OW24904   3.101   3.776  11.869  0.1009  0.3701  0.1555
 4424SOL    HW124905   3.135   3.864  11.853  0.8967 -0.0210 -0.2802
 4424SOL    HW224906   3.070   3.786  11.959  0.6002  2.0578  0.1425
 4425SOL     OW24907   0.747   2.362  12.313  0.1649 -0.1640 -0.5492
 4425SOL    HW124908   0.814   2.431  12.318 -0.0060 -0.0203 -0.1992
 4425SOL    HW224909   0.767   2.313  12.233  2.3262  1.1820 -0.8291
 4426SOL     OW24910   2.494   0.492  12.891 -0.2952 -0.3066  0.6075
 4426SOL    HW124911   2.506   0.587  12.903  0.3361 -0.4708  1.3279
 4426SOL    HW224912   2.407   0.464  12.919 -0.3378 -0.5256  0.2569
 4427SOL     OW24913   1.564   1.538   3.936  0.2252  0.7494  0.8830
 4427SOL    HW124914   1.615   1.472   3.982 -0.6905  1.1498  2.4591
 4427SOL    HW224915   1.553   1.513   3.844  3.2390  1.1548  0.4154
 4428SOL     OW24916   4.399   2.508  15.965 -0.3787  0.2285  0.0564
 4428SOL    HW124917   4.351   2.567  15.907  0.7372 -1.5157 -2.6423
 4428SOL    HW224918   4.487   2.547  15.967  0.0230 -0.7542  2.1309
 4429SOL     OW24919   2.412   4.455   8.809 -0.3844  0.0390 -0.1374
 4429SOL    HW124920   2.427   4.545   8.778  1.3662 -0.2895 -0.2485
 4429SOL    HW224921   2.325   4.472   8.845 -0.2271 -1.7634  1.0988
 4430SOL     OW24922   0.343   1.190   3.172  0.2813 -0.9396  0.3576
 4430SOL    HW124923   0.348   1.101   3.205  0.2334 -1.1279 -0.1414
 4430SOL    HW224924   0.395   1.234   3.239  1.2381 -2.0569  0.3400
 4431SOL     OW24925   4.175   0.932   3.198 -0.0494 -0.0474 -0.0488
 4431SOL    HW124926   4.137   0.999   3.255  0.0611 -0.5025  0.5679
 4431SOL    HW224927   4.255   0.978   3.174 -0.4936  0.5157 -0.4240
 4432SOL     OW24928   4.432   2.237   3.042 -0.1376  0.5318 -0.2237
 4432SOL    HW124929   4.475   2.188   3.111  0.1525 -0.3211 -1.0150
 4432SOL    HW224930   4.361   2.272   3.097 -1.2739 -1.3326 -0.5058
 4433SOL     OW24931   2.572   3.566   2.721  0.2391 -0.1275  0.3476
 4433SOL    HW124932   2.517   3.635   2.685 -1.9864 -1.7883  0.6070
 4433SOL    HW224933   2.508   3.506   2.759 -1.2079  0.0654 -1.7641
 4434SOL     OW24934   4.593   1.256  14.791  0.4497 -0.7698 -0.5715
 4434SOL    HW124935   4.577   1.298  14.876  2.2250 -0.7713 -0.2424
 4434SOL    HW224936   4.507   1.223  14.765  0.4418 -0.8146 -0.4889
 4435SOL     OW24937   2.539   1.833  10.828 -0.1384 -0.1606 -0.4200
 4435SOL    HW124938   2.568   1.754  10.783  0.6418 -0.3395  0.4049
 4435SOL    HW224939   2.614   1.892  10.824 -2.3458  2.7641  0.9701
 4436SOL     OW24940   2.158   2.461  17.130  0.1141 -0.3120 -0.0460
 4436SOL    HW124941   2.114   2.398  17.187  0.3357 -0.3166  0.1198
 4436SOL    HW224942   2.087   2.482  17.071  1.3049 -0.4014 -1.5174
 4437SOL     OW24943   2.865   3.249   5.414 -0.4986  0.1764  0.4376
 4437SOL    HW124944   2.837   3.329   5.369 -2.7265 -0.9669 -0.2194
 4437SOL    HW224945   2.905   3.288   5.492  1.3475  1.2288 -1.0368
 4438SOL     OW24946   2.596   1.563  12.334 -0.7218  0.5674  0.1665
 4438SOL    HW124947   2.656   1.560  12.408 -0.9514 -1.1393  0.2649
 4438SOL    HW224948   2.525   1.622  12.360 -1.6346  0.2968 -1.6621
 4439SOL     OW24949   4.071   2.023   7.683 -0.0187 -0.4056  0.7348
 4439SOL    HW124950   4.152   2.022   7.632 -1.8756  0.0480 -2.1822
 4439SOL    HW224951   4.093   2.107   7.724 -0.5435  0.5295 -0.9098
 4440SOL     OW24952   3.566   4.045   3.602 -0.0391  0.0421  0.6516
 4440SOL    HW124953   3.569   4.082   3.690 -0.9124  0.1595  0.6335
 4440SOL    HW224954   3.604   3.959   3.619 -0.9363 -0.7156 -1.1189
 4441SOL     OW24955   1.600   1.229   5.210 -0.0433 -0.0597 -0.4134
 4441SOL    HW124956   1.623   1.174   5.136  1.1851  0.8908 -0.7244
 4441SOL    HW224957   1.607   1.319   5.179  0.8301  0.2549  0.7017
 4442SOL     OW24958   1.925   1.524   8.904  0.0658  0.3376  0.2096
 4442SOL    HW124959   2.001   1.521   8.962 -0.2457  0.5575  0.6220
 4442SOL    HW224960   1.930   1.436   8.866  0.2661 -0.3554  1.8580
 4443SOL     OW24961   1.370   0.217   2.448  0.2513 -0.0716  0.3124
 4443SOL    HW124962   1.410   0.157   2.385  0.5162 -0.0007  0.4131
 4443SOL    HW224963   1.395   0.162   2.522 -0.6710 -0.4695  0.3236
 4444SOL     OW24964   4.101   0.286   4.676  0.1599 -0.4781 -0.0543
 4444SOL    HW124965   4.082   0.296   4.583 -1.8337 -1.4067  0.2531
 4444SOL    HW224966   4.014   0.289   4.716  0.6792 -0.5426  1.0859
 4445SOL     OW24967   2.890   3.222  16.426 -0.1207  0.4240 -0.4501
 4445SOL    HW124968   2.802   3.249  16.401 -0.4517 -0.9238 -0.7556
 4445SOL    HW224969   2.881   3.221  16.521 -0.8077  3.5778 -0.5014
 4446SOL     OW24970   0.689   4.455  11.228 -0.1062 -0.2647  0.4843
 4446SOL    HW124971   0.713   4.410  11.146 -0.2464 -0.1957  0.4057
 4446SOL    HW224972   0.718   4.543  11.201 -2.8903  0.4323 -0.1603
 4447SOL     OW24973   3.018   2.296   6.439 -0.2431 -0.1488  0.2741
 4447SOL    HW124974   2.994   2.388   6.427  0.5382  0.1374  0.9441
 4447SOL    HW224975   3.092   2.309   6.498  0.1918  1.1977 -0.5692
 4448SOL     OW24976   0.912   3.299  15.823  0.2468  0.0828  0.0487
 4448SOL    HW124977   0.998   3.341  15.821 -0.9879  2.6560  0.9739
 4448SOL    HW224978   0.889   3.317  15.914 -1.7494 -1.2443 -0.1932
 4449SOL     OW24979   0.448   0.428   5.142  0.5113  0.4985  0.3304
 4449SOL    HW124980   0.529   0.398   5.100  1.3843  2.8193  0.3812
 4449SOL    HW224981   0.446   0.371   5.219 -1.4767 -1.1631 -0.9530
 4450SOL     OW24982   1.227   3.157   3.176 -0.2496 -0.3116 -0.4682
 4450SOL    HW124983   1.250   3.070   3.144  0.9718  0.2490 -1.1087
 4450SOL    HW224984   1.304   3.204   3.144  0.3231 -1.1165 -0.2468
 4451SOL     OW24985   1.178   1.580  11.158 -0.3634 -0.5537  0.9453
 4451SOL    HW124986   1.259   1.601  11.204  0.5817 -0.3702 -0.8171
 4451SOL    HW224987   1.222   1.555  11.077 -0.4850  1.7118  0.1881
 4452SOL     OW24988   1.873   0.917   7.393  0.3429  0.3887 -0.3362
 4452SOL    HW124989   1.779   0.901   7.386  0.2973 -0.0620  1.2859
 4452SOL    HW224990   1.910   0.894   7.308  0.7762 -0.0540 -0.0264
 4453SOL     OW24991   1.904   3.796   1.217 -0.3949  0.5856 -0.5616
 4453SOL    HW124992   1.817   3.823   1.249 -0.4899  0.7376 -0.9455
 4453SOL    HW224993   1.951   3.879   1.209 -1.3179  1.2778  1.0121
 4454SOL     OW24994   4.563   1.006  14.487 -0.2494  0.2494  0.1111
 4454SOL    HW124995   4.505   1.081  14.499  1.8809  2.0352 -0.6546
 4454SOL    HW224996   4.573   0.972  14.576 -0.8242 -0.8693 -0.2466
 4455SOL     OW24997   0.737   0.913   0.059  0.3541 -0.3040 -0.3613
 4455SOL    HW124998   0.756   1.007   0.053  1.5052 -0.5609 -0.6937
 4455SOL    HW224999   0.651   0.912   0.017  1.2364  1.4941 -2.2600
 4456SOL     OW25000   0.393   3.960   6.971  0.7066  0.2416  1.0304
 4456SOL    HW125001   0.327   3.948   7.040  1.0797 -0.7940  1.2073
 4456SOL    HW225002   0.347   4.030   6.925  1.5055  0.3122  0.3448
 4457SOL     OW25003   1.879   2.964   3.784  0.0847  0.2500  0.2608
 4457SOL    HW125004   1.919   2.880   3.807 -2.3715 -0.7906  0.7444
 4457SOL    HW225005   1.919   2.982   3.699  1.4878  0.4919  0.9894
 4458SOL     OW25006   0.037   4.063   7.733 -0.4875 -0.4186  0.1574
 4458SOL    HW125007   0.055   3.974   7.703 -2.9699  0.1091 -2.9071
 4458SOL    HW225008   4.729   4.041   7.815  0.5052 -1.6997  0.3498
 4459SOL     OW25009   4.292   4.624   5.401  0.2964  0.4325  0.2141
 4459SOL    HW125010   4.288   4.664   5.488 -0.7557 -0.8917  0.7822
 4459SOL    HW225011   4.212   4.572   5.407 -0.2508  1.2892  0.4238
 4460SOL     OW25012   2.767   1.526  16.157 -0.2564 -0.2708 -0.0520
 4460SOL    HW125013   2.751   1.620  16.147 -0.2815 -0.2929 -0.2202
 4460SOL    HW225014   2.844   1.513  16.102  0.3020 -1.4060  1.0018
 4461SOL     OW25015   4.203   2.084   6.035 -0.0107  0.0520  0.5143
 4461SOL    HW125016   4.294   2.072   6.006 -0.4076 -1.8287  0.0827
 4461SOL    HW225017   4.206   2.057   6.127 -0.4778 -0.8851  0.2516
 4462SOL     OW25018   1.652   1.612   3.477 -0.1046  1.0903 -0.5487
 4462SOL    HW125019   1.722   1.548   3.492 -2.5145 -1.7579 -1.2878
 4462SOL    HW225020   1.588   1.544   3.456 -1.1968  0.3073  5.3102
 4463SOL     OW25021   0.477   4.491  10.326 -0.4765 -0.1920 -0.0157
 4463SOL    HW125022   0.547   4.482  10.261 -0.6918  2.2744 -0.6027
 4463SOL    HW225023   0.410   4.444  10.277 -0.1545  0.1378 -0.7952
 4464SOL     OW25024   1.670   0.121  14.247 -0.4058 -0.2229  0.5768
 4464SOL    HW125025   1.732   0.102  14.176 -1.7434  2.3512 -1.2578
 4464SOL    HW225026   1.587   0.092  14.208 -2.0657  1.2922  3.0003
 4465SOL     OW25027   2.782   2.540   5.005  0.1994 -0.0673 -0.4749
 4465SOL    HW125028   2.786   2.635   4.999 -1.6246  0.0464  0.0680
 4465SOL    HW225029   2.857   2.529   5.062 -0.1652  0.9413  0.1835
 4466SOL     OW25030   3.525   3.264   6.557 -0.1457 -0.4900 -0.2176
 4466SOL    HW125031   3.437   3.238   6.586  0.9902 -0.5384  3.1798
 4466SOL    HW225032   3.544   3.309   6.639 -1.7394  2.2893 -1.3749
 4467SOL     OW25033   2.901   0.812   4.196 -0.2184  0.3548 -0.0843
 4467SOL    HW125034   2.918   0.733   4.145 -0.0150  0.9217 -0.8920
 4467SOL    HW225035   2.809   0.794   4.218 -0.3926 -0.0886 -1.1869
 4468SOL     OW25036   0.441   3.073   2.051 -0.6268 -0.6046  0.5147
 4468SOL    HW125037   0.523   3.083   2.002 -1.4874 -0.5891 -0.9131
 4468SOL    HW225038   0.460   3.056   2.144  2.4078  0.3687  0.0760
 4469SOL     OW25039   0.352   3.752   8.896 -0.0595  0.3599 -0.5270
 4469SOL    HW125040   0.272   3.699   8.896  0.5970 -0.6308  1.0072
 4469SOL    HW225041   0.410   3.696   8.844  0.2085 -1.9817  2.3061
 4470SOL     OW25042   3.838   4.518   1.725 -0.3109  0.2833  0.8209
 4470SOL    HW125043   3.773   4.450   1.740  0.3424 -0.4636  0.3100
 4470SOL    HW225044   3.815   4.578   1.796 -2.0360  2.2756 -1.4550
 4471SOL     OW25045   2.922   2.950   5.934 -0.3630  0.7307 -0.5215
 4471SOL    HW125046   2.899   2.979   6.023 -1.5057  1.6672 -1.1295
 4471SOL    HW225047   3.017   2.964   5.932 -0.2389 -0.3167 -2.0185
 4472SOL     OW25048   3.768   2.536  15.636  0.8289 -0.3154  0.2344
 4472SOL    HW125049   3.825   2.571  15.704  1.0020  2.9592 -1.6072
 4472SOL    HW225050   3.835   2.492  15.583 -0.6609 -2.9188  0.5494
 4473SOL     OW25051   2.197   3.333   6.156 -0.3868 -0.7478 -0.9192
 4473SOL    HW125052   2.264   3.267   6.175 -0.0784 -0.0956  0.2730
 4473SOL    HW225053   2.225   3.403   6.215 -0.5777 -3.5150  2.4446
 4474SOL     OW25054   1.388   2.169   7.219  0.0141 -0.0391 -0.0685
 4474SOL    HW125055   1.296   2.168   7.191  0.3753  0.2705 -1.2479
 4474SOL    HW225056   1.397   2.246   7.276 -0.5002 -0.3382  0.4163
 4475SOL     OW25057   2.972   4.055   9.300 -0.7060  0.0332  0.0696
 4475SOL    HW125058   2.989   4.145   9.327  1.9174  0.4046 -2.8493
 4475SOL    HW225059   3.029   4.048   9.223 -1.0218 -2.4021  0.0602
 4476SOL     OW25060   3.807   3.171   0.595 -0.2541  0.3447  0.2105
 4476SOL    HW125061   3.839   3.260   0.577 -0.1663  0.1643 -0.5473
 4476SOL    HW225062   3.869   3.163   0.667  0.7199 -2.6818 -0.9975
 4477SOL     OW25063   1.954   0.223   6.822 -0.0722  0.2899  0.3205
 4477SOL    HW125064   2.002   0.254   6.899 -1.9989 -0.8928  2.0072
 4477SOL    HW225065   1.905   0.304   6.810 -1.0231 -0.2510  0.5148
 4478SOL     OW25066   4.261   4.316  11.888  0.5127  0.3437  0.5306
 4478SOL    HW125067   4.232   4.305  11.979 -0.9686  0.0128  0.0217
 4478SOL    HW225068   4.295   4.231  11.860  0.8056  0.3545  0.8470
 4479SOL     OW25069   1.981   1.421   6.330  0.3774 -0.2402 -0.0307
 4479SOL    HW125070   1.937   1.337   6.342  0.9128 -0.8030 -2.0877
 4479SOL    HW225071   2.035   1.400   6.254 -0.4385  1.1727 -1.0114
 4480SOL     OW25072   2.791   0.412   3.008 -0.5207 -0.3365 -0.1175
 4480SOL    HW125073   2.833   0.326   3.008  0.3378  0.0952 -1.4365
 4480SOL    HW225074   2.862   0.475   3.022 -2.4286  1.8127 -0.0284
 4481SOL     OW25075   1.266   3.474   2.507 -0.5676 -0.2010 -0.0927
 4481SOL    HW125076   1.308   3.495   2.423  1.8290  0.2124  1.1852
 4481SOL    HW225077   1.296   3.384   2.513 -1.9547 -0.6140  0.5360
 4482SOL     OW25078   4.245   4.457  11.274 -0.6713  0.4567  0.0416
 4482SOL    HW125079   4.237   4.391  11.343 -0.0324  1.1514  0.7848
 4482SOL    HW225080   4.178   4.521  11.299 -1.2710 -0.2368  0.2099
 4483SOL     OW25081   2.154   4.653   2.710  0.1875 -0.4580 -0.0121
 4483SOL    HW125082   2.213   4.581   2.732  0.2045 -1.1270 -2.3322
 4483SOL    HW225083   2.125   4.681   2.797 -0.0537 -1.1884  0.1427
 4484SOL     OW25084   0.926   2.697  12.065 -0.0987 -0.0229 -0.0472
 4484SOL    HW125085   0.992   2.724  12.001 -0.7504 -2.9991 -1.9760
 4484SOL    HW225086   0.858   2.760  12.044 -1.3239 -1.3807 -0.1270
 4485SOL     OW25087   1.529   3.467   4.885  0.4588  0.1902  0.2419
 4485SOL    HW125088   1.513   3.562   4.879 -0.2835  0.0982  0.7337
 4485SOL    HW225089   1.596   3.457   4.818 -0.3888 -2.2418 -0.2233
 4486SOL     OW25090   0.853   0.995   5.503 -0.4587 -0.2257  0.2377
 4486SOL    HW125091   0.924   0.987   5.438  0.8923  0.6426  1.5975
 4486SOL    HW225092   0.915   1.018   5.572  0.6727 -0.6185 -0.6453
 4487SOL     OW25093   4.565   2.707   5.616 -0.1255 -0.2254 -0.8065
 4487SOL    HW125094   4.570   2.792   5.574 -0.8106 -1.9905 -4.4909
 4487SOL    HW225095   4.646   2.691   5.665 -1.0942 -1.0903  0.5087
 4488SOL     OW25096   0.599   2.653   6.208 -0.0880  0.9013 -0.2109
 4488SOL    HW125097   0.672   2.591   6.203 -0.1148  0.8426  0.0807
 4488SOL    HW225098   0.595   2.629   6.301 -0.7779 -2.7152 -1.1784
 4489SOL     OW25099   3.296   2.985   7.633 -0.7512  0.4047  0.4160
 4489SOL    HW125100   3.289   2.940   7.550  0.7196  0.7035  0.1150
 4489SOL    HW225101   3.265   2.916   7.692  0.7953  0.7822  1.7031
 4490SOL     OW25102   0.287   3.464  11.872  0.2638  0.3126 -0.5544
 4490SOL    HW125103   0.269   3.372  11.855  0.8242  0.2488 -0.8180
 4490SOL    HW225104   0.200   3.494  11.898  0.2434  0.1187 -0.4033
 4491SOL     OW25105   4.279   3.277   1.529  0.7816 -0.3388 -0.3044
 4491SOL    HW125106   4.204   3.274   1.589  1.6516 -0.0969  0.8034
 4491SOL    HW225107   4.327   3.356   1.553 -0.6492  1.3440 -2.9759
 4492SOL     OW25108   3.485   3.856   2.751  0.0811 -0.4035  0.2251
 4492SOL    HW125109   3.519   3.796   2.817 -1.5327  0.7408  2.0826
 4492SOL    HW225110   3.529   3.935   2.781  1.6542 -1.4608  0.6654
 4493SOL     OW25111   1.893   3.681   7.453 -0.1292  0.3580 -0.3791
 4493SOL    HW125112   1.824   3.747   7.455  1.0369  1.6487 -3.3668
 4493SOL    HW225113   1.975   3.725   7.472  0.0156 -0.0821  0.0010
 4494SOL     OW25114   3.955   4.685   3.485 -0.3011  0.1812  0.1333
 4494SOL    HW125115   3.966   0.041   3.504 -0.8982  0.4763 -0.9563
 4494SOL    HW225116   3.888   4.683   3.416 -3.0643 -0.5983  2.8607
 4495SOL     OW25117   3.450   0.792   9.449 -0.3313 -0.3588 -0.7067
 4495SOL    HW125118   3.496   0.821   9.371  0.4334 -1.5364 -0.6903
 4495SOL    HW225119   3.370   0.843   9.459 -0.1928 -0.5605  1.5311
 4496SOL     OW25120   0.720   0.869  11.386  0.4206  0.3053 -0.0231
 4496SOL    HW125121   0.815   0.871  11.381  0.5850  0.6189  3.2541
 4496SOL    HW225122   0.702   0.963  11.378 -0.3386 -0.0235 -2.2658
 4497SOL     OW25123   0.192   1.696   6.706 -0.2090  0.6607 -0.3843
 4497SOL    HW125124   0.111   1.648   6.689  1.1971 -1.1624 -1.9152
 4497SOL    HW225125   0.261   1.632   6.723  0.7703  2.0131  0.6943
 4498SOL     OW25126   0.877   2.093   2.978  0.5062  0.7035 -0.3888
 4498SOL    HW125127   0.891   2.040   2.899  2.6404  0.5451  0.0860
 4498SOL    HW225128   0.813   2.039   3.024  2.8010 -2.2584 -0.6542
 4499SOL     OW25129   2.591   1.670   3.382  0.4097 -0.0326 -0.6315
 4499SOL    HW125130   2.497   1.681   3.363  0.5215  0.9431 -0.6076
 4499SOL    HW225131   2.586   1.596   3.442  2.1376 -0.4830 -1.0596
 4500SOL     OW25132   3.031   3.358   7.896  0.8514 -0.1128 -0.0119
 4500SOL    HW125133   3.081   3.286   7.858  1.6255 -1.1091  2.9360
 4500SOL    HW225134   3.068   3.368   7.984  1.2921 -2.6392  0.0816
 4501SOL     OW25135   1.496   0.541   8.307  0.1139  0.1813 -0.5108
 4501SOL    HW125136   1.557   0.537   8.381  0.3336  2.7109 -0.5410
 4501SOL    HW225137   1.523   0.463   8.260 -0.0469  0.9455 -1.8675
 4502SOL     OW25138   2.830   1.892   9.455  0.3711 -0.4864 -0.4556
 4502SOL    HW125139   2.812   1.804   9.423 -3.2130  0.2476 -0.5316
 4502SOL    HW225140   2.786   1.891   9.540  2.9952  1.5128  0.9256
 4503SOL     OW25141   1.071   3.513  13.329 -0.8331  0.2614  0.0406
 4503SOL    HW125142   1.149   3.567  13.324 -0.5868 -0.4426 -3.3536
 4503SOL    HW225143   1.013   3.569  13.382 -3.7899 -1.2151 -1.6314
 4504SOL     OW25144   1.564   3.152   5.513  0.1680 -0.0451 -0.1320
 4504SOL    HW125145   1.489   3.169   5.569  0.0440  0.5352 -0.4698
 4504SOL    HW225146   1.554   3.229   5.456  1.3083  1.7365  2.0704
 4505SOL     OW25147   1.788   2.851   6.387 -0.7176  0.1317 -0.0872
 4505SOL    HW125148   1.867   2.889   6.425  0.7109 -0.9725 -2.0049
 4505SOL    HW225149   1.725   2.849   6.460 -0.5003 -2.3264  0.0278
 4506SOL     OW25150   0.612   2.460   6.397  0.3710  0.0311  0.4679
 4506SOL    HW125151   0.555   2.477   6.472 -0.1596  0.1110  0.0458
 4506SOL    HW225152   0.572   2.382   6.357  0.3749  0.3228 -0.1064
 4507SOL     OW25153   1.265   0.555   6.165 -0.0741  0.2824 -0.1009
 4507SOL    HW125154   1.230   0.611   6.234 -0.5216  1.3798 -1.2156
 4507SOL    HW225155   1.344   0.529   6.212  0.3307 -0.5691 -1.2532
 4508SOL     OW25156   1.866   2.937  11.302 -0.2741  0.1497 -0.2780
 4508SOL    HW125157   1.845   2.966  11.391  0.4370  1.7938 -0.6446
 4508SOL    HW225158   1.900   2.850  11.322  2.2743  1.2784  0.2964
 4509SOL     OW25159   3.791   4.631   0.198 -0.1266 -0.0655  0.6864
 4509SOL    HW125160   3.707   4.669   0.220 -0.3227 -0.8936  1.3912
 4509SOL    HW225161   3.775   4.546   0.156 -1.0034  0.6414 -0.4079
 4510SOL     OW25162   3.919   2.825  14.841  0.8667 -0.2840 -0.6104
 4510SOL    HW125163   3.848   2.825  14.777 -0.1485  0.7073  0.5147
 4510SOL    HW225164   3.886   2.799  14.927  1.2559 -0.2669 -0.4548
 4511SOL     OW25165   1.638   2.849   6.068  0.3491  0.5483 -0.1986
 4511SOL    HW125166   1.562   2.873   6.121  1.1512 -0.2837  1.3282
 4511SOL    HW225167   1.669   2.934   6.037 -0.3833  0.9834  0.2757
 4512SOL     OW25168   1.241   3.325  15.527 -0.0023 -0.5220 -0.2088
 4512SOL    HW125169   1.282   3.329  15.440  0.2967 -1.4230 -0.1076
 4512SOL    HW225170   1.318   3.366  15.567  0.0591  0.5544 -1.3916
 4513SOL     OW25171   1.335   0.960  10.229  0.1539  0.2968  0.4846
 4513SOL    HW125172   1.385   1.037  10.259  0.1554  0.6978 -0.5168
 4513SOL    HW225173   1.319   0.993  10.140  2.9300 -0.4028 -0.2809
 4514SOL     OW25174   3.829   4.658  15.233 -0.3762  0.3357 -0.2754
 4514SOL    HW125175   3.906   4.613  15.267 -0.7388  0.8414  1.1864
 4514SOL    HW225176   3.863   0.011  15.227  2.6913 -0.8087  0.4945
 4515SOL     OW25177   1.452   1.242   2.895  0.3114  0.1724 -0.2222
 4515SOL    HW125178   1.372   1.277   2.855 -0.4593  0.3420  1.4771
 4515SOL    HW225179   1.520   1.294   2.851  0.4992  0.6332  0.6045
 4516SOL     OW25180   0.695   0.551  15.710 -0.4247  0.1600 -0.0132
 4516SOL    HW125181   0.732   0.635  15.734  0.9788 -1.0766  2.1660
 4516SOL    HW225182   0.625   0.553  15.775  0.1316 -1.1592  0.6411
 4517SOL     OW25183   4.441   2.824   6.732  0.3825 -0.0293  0.6959
 4517SOL    HW125184   4.509   2.834   6.665 -0.1084  0.8557  0.3374
 4517SOL    HW225185   4.504   2.817   6.804  1.6998 -1.5818 -0.5964
 4518SOL     OW25186   4.275   1.435  14.641  0.0973  0.2451  0.3423
 4518SOL    HW125187   4.339   1.411  14.575  0.0562  0.5919  0.1752
 4518SOL    HW225188   4.318   1.476  14.716 -1.3179  0.9072  0.8042
 4519SOL     OW25189   0.466   3.073   6.501 -0.7118  0.3177 -0.1754
 4519SOL    HW125190   0.442   3.131   6.573  0.1404  2.2606 -1.4505
 4519SOL    HW225191   0.382   3.052   6.459 -1.2426 -3.5408  2.8048
 4520SOL     OW25192   1.082   1.257   0.567  0.1856  0.2189  0.4793
 4520SOL    HW125193   1.159   1.250   0.511  0.5774  2.7951  0.6860
 4520SOL    HW225194   1.127   1.310   0.633  1.5368  1.2506 -1.2767
 4521SOL     OW25195   3.684   3.703   7.287  0.0475 -0.6471 -0.6832
 4521SOL    HW125196   3.692   3.729   7.195  3.0829  0.4090 -0.1314
 4521SOL    HW225197   3.647   3.777   7.336 -0.5986 -0.8319 -0.8880
 4522SOL     OW25198   3.386   1.285  13.617 -0.4155  0.4104  0.1979
 4522SOL    HW125199   3.440   1.222  13.570 -0.7675  0.6813 -0.5710
 4522SOL    HW225200   3.442   1.301  13.693  1.6233 -3.2099 -0.5662
 4523SOL     OW25201   1.286   4.490  13.607 -0.7878 -0.2863 -0.2748
 4523SOL    HW125202   1.340   4.432  13.553  0.1949 -1.0371  1.5126
 4523SOL    HW225203   1.361   4.521  13.658 -1.5814 -0.9997  1.3284
 4524SOL     OW25204   4.556   4.459   4.195 -0.2751 -0.4301  0.1361
 4524SOL    HW125205   4.536   4.521   4.125 -2.1073 -0.4175  0.6627
 4524SOL    HW225206   4.578   4.388   4.135 -1.4356 -1.0730  0.4713
 4525SOL     OW25207   4.206   0.029   7.267  0.0350  0.4573 -0.2210
 4525SOL    HW125208   4.277   0.003   7.325 -0.6590 -1.0518 -0.0238
 4525SOL    HW225209   4.229   0.111   7.223 -2.6895  0.3513 -1.8835
 4526SOL     OW25210   3.339   4.544   7.066  0.1805 -0.3005 -0.4683
 4526SOL    HW125211   3.308   4.603   7.135  2.1373  0.1872 -0.0176
 4526SOL    HW225212   3.432   4.566   7.066  0.2244 -0.4272 -2.3466
 4527SOL     OW25213   2.774   1.477  16.822 -0.3216  0.0373 -0.1690
 4527SOL    HW125214   2.857   1.436  16.845 -1.5805 -1.1824  2.1300
 4527SOL    HW225215   2.736   1.479  16.910  1.2462  1.0602  0.4723
 4528SOL     OW25216   4.595   4.321   3.288  0.0794 -0.5374  0.5202
 4528SOL    HW125217   4.505   4.290   3.297 -0.6099  0.7872 -1.8033
 4528SOL    HW225218   4.623   4.289   3.374  0.9890 -1.4894 -0.1318
 4529SOL     OW25219   1.922   4.063   1.708  0.6205  0.1909 -0.3884
 4529SOL    HW125220   1.983   4.112   1.653  2.1216 -0.9098  0.3134
 4529SOL    HW225221   1.890   4.141   1.755  2.3562  1.2701 -1.0094
 4530SOL     OW25222   3.504   3.309   7.251 -0.0275 -0.5834 -0.1064
 4530SOL    HW125223   3.595   3.325   7.274 -0.3129  0.4640  0.3063
 4530SOL    HW225224   3.507   3.364   7.172  1.0778  1.7535  1.5412
 4531SOL     OW25225   2.723   1.323  16.520 -0.4785 -0.1589  0.1176
 4531SOL    HW125226   2.807   1.364  16.502 -0.5369 -0.1499 -0.1252
 4531SOL    HW225227   2.688   1.395  16.573  2.1044  0.0721  1.4783
 4532SOL     OW25228   0.450   1.678   6.208 -0.5090 -0.3584  0.0284
 4532SOL    HW125229   0.496   1.629   6.276  0.9270  1.0265  0.0405
 4532SOL    HW225230   0.369   1.627   6.205 -1.3032  0.8612  1.0750
 4533SOL     OW25231   3.686   0.676   8.458  0.5492 -0.1956 -0.6998
 4533SOL    HW125232   3.631   0.745   8.419  0.3135 -0.6561 -1.1887
 4533SOL    HW225233   3.739   0.731   8.516 -0.4722 -1.9330  1.8436
 4534SOL     OW25234   1.109   2.932   2.160  0.0030  0.1324 -0.1915
 4534SOL    HW125235   1.092   2.962   2.249  0.6449  1.2569 -0.4547
 4534SOL    HW225236   1.058   2.984   2.098  2.1953  2.3825 -0.0832
 4535SOL     OW25237   0.784   3.874   7.462 -0.0792 -0.5596 -0.1519
 4535SOL    HW125238   0.699   3.897   7.500  0.9311  2.3257  0.3265
 4535SOL    HW225239   0.800   3.960   7.424  2.1826 -0.9995 -0.1811
 4536SOL     OW25240   1.089   0.575  12.592 -0.6280 -0.5292 -0.3028
 4536SOL    HW125241   1.060   0.573  12.501 -1.8255 -1.1591  0.0997
 4536SOL    HW225242   1.099   0.666  12.619  1.7891  0.1043 -3.3104
 4537SOL     OW25243   0.929   1.827  15.754 -0.1617 -0.3178 -0.0269
 4537SOL    HW125244   0.964   1.815  15.666  0.8314 -2.0441  0.6232
 4537SOL    HW225245   0.898   1.740  15.778  2.8660 -1.3292  0.2225
 4538SOL     OW25246   1.552   3.763   1.189  0.6151 -0.3697 -0.3440
 4538SOL    HW125247   1.586   3.690   1.137  1.3391 -0.3709  0.1421
 4538SOL    HW225248   1.583   3.749   1.278 -0.1997  0.1620  0.0224
 4539SOL     OW25249   2.974   3.899   8.412 -0.1025  0.2734 -0.1455
 4539SOL    HW125250   2.912   3.827   8.416 -1.0387  1.1834  1.8847
 4539SOL    HW225251   2.954   3.935   8.325 -2.1123  0.5554  0.4512
 4540SOL     OW25252   3.476   4.511   3.036 -0.6613  0.8970 -0.4124
 4540SOL    HW125253   3.401   4.509   2.977 -1.1256  2.1912  0.1348
 4540SOL    HW225254   3.501   4.603   3.027  0.0455  0.9560  2.3244
 4541SOL     OW25255   4.318   3.277   5.176 -0.2198 -0.0001 -0.1070
 4541SOL    HW125256   4.299   3.350   5.234  1.3730  2.0647 -2.1720
 4541SOL    HW225257   4.412   3.290   5.162 -0.5545  0.9147 -1.4827
 4542SOL     OW25258   0.916   1.826   3.305  0.0381  0.0939 -0.4377
 4542SOL    HW125259   0.985   1.765   3.330 -0.1144 -0.1776 -0.6858
 4542SOL    HW225260   0.886   1.787   3.223 -0.4705 -0.8917  0.2325
 4543SOL     OW25261   1.015   3.790   8.783  0.3165  0.2390  0.3653
 4543SOL    HW125262   1.047   3.700   8.784 -1.7908 -0.5149 -1.3176
 4543SOL    HW225263   1.090   3.831   8.827 -0.0417  0.5536  0.6772
 4544SOL     OW25264   0.510   0.029   4.143  0.0505 -0.1034 -0.0839
 4544SOL    HW125265   0.507   0.096   4.075  0.7332 -1.7724 -1.7677
 4544SOL    HW225266   0.532   0.082   4.220  2.5011  0.1769 -0.9646
 4545SOL     OW25267   3.121   1.798  10.236  0.3830 -0.1719 -0.5809
 4545SOL    HW125268   3.209   1.763  10.230 -0.7532 -3.1646  0.1492
 4545SOL    HW225269   3.086   1.758  10.157 -0.7998 -1.7232  0.7113
 4546SOL     OW25270   0.052   3.602   0.856  0.2861 -0.0123 -0.0974
 4546SOL    HW125271   0.081   3.651   0.779 -0.8222  0.0887 -0.4570
 4546SOL    HW225272   0.096   3.659   0.919 -1.6394 -2.2779  3.2960
 4547SOL     OW25273   0.775   0.136   9.120 -0.1361 -0.4097  0.1494
 4547SOL    HW125274   0.831   0.115   9.045  2.8868  3.0914  1.4246
 4547SOL    HW225275   0.750   0.227   9.101 -1.4532 -0.8698 -0.3516
 4548SOL     OW25276   0.054   1.166   0.043 -0.2768 -0.2802  0.1323
 4548SOL    HW125277   0.094   1.093  17.739 -0.6372 -1.6563  1.9594
 4548SOL    HW225278   0.054   1.221  17.708 -1.1867 -0.2018  0.1925
 4549SOL     OW25279   1.706   0.681  11.055 -0.7351 -0.5462 -0.0613
 4549SOL    HW125280   1.694   0.641  10.969 -2.1673  1.9145 -1.0033
 4549SOL    HW225281   1.738   0.611  11.111  0.7223  1.9394  2.2075
 4550SOL     OW25282   2.795   3.424   4.153  0.1484 -0.2368  0.5690
 4550SOL    HW125283   2.795   3.505   4.204 -0.2328 -0.0357  0.2505
 4550SOL    HW225284   2.748   3.355   4.201  0.6860 -2.9317 -2.8407
 4551SOL     OW25285   0.917   2.465   5.732  0.8116 -0.6012  0.3210
 4551SOL    HW125286   0.933   2.385   5.783  0.8234 -0.5621  0.3795
 4551SOL    HW225287   0.999   2.513   5.739  0.2267  0.6429 -1.2626
 4552SOL     OW25288   3.202   0.172   4.925 -0.2120  0.2120 -0.4139
 4552SOL    HW125289   3.183   0.248   4.980 -1.5670 -1.0897  0.8963
 4552SOL    HW225290   3.113   0.151   4.897  0.5611 -2.3553 -0.9529
 4553SOL     OW25291   1.928   1.157   6.276 -0.6881 -0.8536 -0.1897
 4553SOL    HW125292   1.884   1.135   6.194  1.7335 -2.6116 -1.0248
 4553SOL    HW225293   2.013   1.115   6.259 -1.6582 -3.4593  1.3981
 4554SOL     OW25294   0.667   1.500   9.080  0.0010 -0.2063  0.2560
 4554SOL    HW125295   0.684   1.477   8.988 -0.2649 -1.2528  0.4791
 4554SOL    HW225296   0.749   1.469   9.118 -0.9649 -1.9184  0.9016
 4555SOL     OW25297   0.649   0.465   6.300 -0.2384  0.1601  0.7626
 4555SOL    HW125298   0.557   0.439   6.300 -0.0575 -0.4364 -0.6847
 4555SOL    HW225299   0.688   0.390   6.346  0.3323 -0.9067 -1.4841
 4556SOL     OW25300   2.731   2.801   3.028  0.6323  0.2051 -0.5979
 4556SOL    HW125301   2.793   2.731   3.005 -1.6986 -1.5340 -1.5958
 4556SOL    HW225302   2.782   2.856   3.087 -0.1914  0.4285 -0.0906
 4557SOL     OW25303   3.516   3.130  11.771 -0.4506  0.0456  0.4239
 4557SOL    HW125304   3.445   3.144  11.833 -0.3778  0.1646  0.4793
 4557SOL    HW225305   3.580   3.200  11.778  0.9614 -1.0703 -1.4367
 4558SOL     OW25306   1.600   3.582  10.596  0.3318 -0.2095  0.1380
 4558SOL    HW125307   1.655   3.554  10.670 -0.3928 -0.4851  0.5736
 4558SOL    HW225308   1.657   3.561  10.522  0.6855  0.0749  0.3258
 4559SOL     OW25309   1.360   1.751   7.176 -0.3345  0.0706 -0.3316
 4559SOL    HW125310   1.344   1.834   7.221  0.4098 -1.0057  1.9042
 4559SOL    HW225311   1.273   1.732   7.139 -0.6526  0.0768  0.4139
 4560SOL     OW25312   1.966   0.536   5.732 -0.1583  0.4353 -0.6648
 4560SOL    HW125313   1.926   0.555   5.817 -0.5943  1.2914 -1.0621
 4560SOL    HW225314   2.015   0.618   5.722  0.1576  0.3394  0.1170
 4561SOL     OW25315   0.768   4.407  16.024 -0.4384  0.5394  0.0493
 4561SOL    HW125316   0.789   4.455  16.104  2.1419  0.3037 -0.4995
 4561SOL    HW225317   0.835   4.434  15.961 -1.2732 -0.4442 -1.2626
 4562SOL     OW25318   3.890   4.197  10.868 -0.2685 -0.4649 -0.4066
 4562SOL    HW125319   3.869   4.185  10.776 -0.8243  1.3630 -0.5202
 4562SOL    HW225320   3.912   4.105  10.881 -0.3931 -0.4562 -0.1330
 4563SOL     OW25321   0.651   2.250  15.263  0.5026 -0.3119  0.1063
 4563SOL    HW125322   0.640   2.233  15.170 -1.0457  0.4612  0.1513
 4563SOL    HW225323   0.727   2.309  15.268 -1.1959  1.9418 -0.6182
 4564SOL     OW25324   4.257   1.729   4.152 -0.4235 -0.2543 -0.3851
 4564SOL    HW125325   4.252   1.788   4.077  2.1281  2.6772  1.7266
 4564SOL    HW225326   4.352   1.726   4.163 -0.4036  0.1070 -0.4527
 4565SOL     OW25327   1.673   0.670   5.319  0.1109  0.7820  0.5337
 4565SOL    HW125328   1.587   0.656   5.281  1.1789 -3.3854 -0.3058
 4565SOL    HW225329   1.658   0.764   5.320 -1.7780  0.4883  0.0438
 4566SOL     OW25330   2.956   3.005   1.800  0.1035 -0.4764 -0.3678
 4566SOL    HW125331   2.927   3.036   1.714 -0.4143 -0.1246 -0.0666
 4566SOL    HW225332   2.943   3.088   1.845 -0.4169 -0.4961 -0.4809
 4567SOL     OW25333   2.128   0.768  11.812 -0.0069  0.0877 -0.4610
 4567SOL    HW125334   2.210   0.722  11.796  0.1727  0.4551 -0.6026
 4567SOL    HW225335   2.143   0.784  11.906  1.5505  1.2564 -0.9007
 4568SOL     OW25336   3.804   0.474   3.048 -0.2846  0.0993 -0.2297
 4568SOL    HW125337   3.891   0.515   3.043  0.7542 -2.0124  0.2199
 4568SOL    HW225338   3.749   0.552   3.047 -0.6302 -0.1836 -1.8427
 4569SOL     OW25339   4.576   3.223   9.270  0.1601 -0.4126  0.0678
 4569SOL    HW125340   4.576   3.186   9.358 -0.2326 -1.3406 -0.3188
 4569SOL    HW225341   4.589   3.146   9.214  0.1730 -0.3213 -0.0545
 4570SOL     OW25342   1.063   1.048   2.020 -0.3504 -0.4687 -0.1102
 4570SOL    HW125343   1.011   1.116   1.978  1.5322 -0.0644 -1.8435
 4570SOL    HW225344   1.066   1.085   2.108  3.2288 -0.0582 -0.3798
 4571SOL     OW25345   1.053   3.898  13.420  0.1370  0.1091  0.9085
 4571SOL    HW125346   1.067   3.980  13.372  0.6588 -1.3428 -1.3957
 4571SOL    HW225347   0.957   3.896  13.410  0.3598  0.6983 -1.3370
 4572SOL     OW25348   2.002   2.498   7.019  0.0903  0.0668  0.5059
 4572SOL    HW125349   2.016   2.554   7.095 -0.7393 -0.4672  1.0536
 4572SOL    HW225350   2.072   2.521   6.958 -1.4267  0.9100 -0.9022
 4573SOL     OW25351   0.890   3.870  16.453  0.0759 -0.0471  0.1053
 4573SOL    HW125352   0.982   3.895  16.465  0.5439 -0.8535 -1.9228
 4573SOL    HW225353   0.848   3.950  16.424  0.8491 -0.5454 -2.3201
 4574SOL     OW25354   0.731   0.713   4.473 -0.1510  0.2155  0.1451
 4574SOL    HW125355   0.823   0.740   4.484 -0.1596  0.7771 -1.1928
 4574SOL    HW225356   0.712   0.748   4.387  0.5593  0.1936 -0.0235
 4575SOL     OW25357   2.866   0.128   7.892 -0.1112  0.4065 -0.6037
 4575SOL    HW125358   2.804   0.182   7.941 -0.1337 -0.8970  0.8180
 4575SOL    HW225359   2.946   0.180   7.897 -0.4616  0.7707  1.4068
 4576SOL     OW25360   3.115   3.430   8.170 -0.8987 -0.5936 -0.2380
 4576SOL    HW125361   3.158   3.388   8.244  1.9753  2.0693 -0.3818
 4576SOL    HW225362   3.190   3.462   8.120 -2.7718  0.4959 -2.3159
 4577SOL     OW25363   2.507   2.474   6.476 -0.1755  0.2886  0.0048
 4577SOL    HW125364   2.512   2.453   6.382 -2.5461 -0.3006  0.0099
 4577SOL    HW225365   2.527   2.567   6.483  0.8339  0.2697 -2.4966
 4578SOL     OW25366   4.187   3.438   8.816 -0.1042  0.0710  0.1888
 4578SOL    HW125367   4.242   3.475   8.884 -0.1676 -0.0739  0.3200
 4578SOL    HW225368   4.209   3.495   8.742  2.6405 -0.1861  0.8444
 4579SOL     OW25369   2.596   3.231  17.026  0.0859  0.4576  0.0740
 4579SOL    HW125370   2.598   3.208  16.933 -0.6898  0.6090  0.0170
 4579SOL    HW225371   2.515   3.282  17.034  0.7006  1.2339  1.3513
 4580SOL     OW25372   0.816   1.002  10.435  0.3825 -0.3488  0.1046
 4580SOL    HW125373   0.772   1.001  10.520  0.5780 -2.2960  0.1798
 4580SOL    HW225374   0.903   1.024  10.469  0.2810 -0.2271  0.2837
 4581SOL     OW25375   2.422   0.587   6.125  0.6115 -0.1162 -0.3135
 4581SOL    HW125376   2.392   0.589   6.215  1.1643 -2.4146 -0.0780
 4581SOL    HW225377   2.351   0.544   6.077  0.0870  0.0877  0.2807
 4582SOL     OW25378   2.189   1.755   4.468  0.3766 -0.2504 -0.8265
 4582SOL    HW125379   2.253   1.709   4.523  0.1753  0.7587  0.2453
 4582SOL    HW225380   2.112   1.705   4.496 -0.7848  2.0787  0.1411
 4583SOL     OW25381   2.784   2.240   4.155  0.1923  0.2053 -0.4770
 4583SOL    HW125382   2.692   2.218   4.137  0.1130  0.6152 -0.5731
 4583SOL    HW225383   2.808   2.179   4.225  2.0946  2.0410  0.4789
 4584SOL     OW25384   2.320   4.571  10.184  0.6812 -0.3426 -0.0134
 4584SOL    HW125385   2.232   4.561  10.219  0.5330 -0.2787 -0.3661
 4584SOL    HW225386   2.362   4.580  10.269  1.3333 -0.5987 -0.3075
 4585SOL     OW25387   2.976   3.478   0.148 -0.4132 -0.0046 -0.2004
 4585SOL    HW125388   2.956   3.490   0.055 -2.8840  1.1326  0.4706
 4585SOL    HW225389   2.973   3.383   0.150 -3.1608  0.0594 -1.0521
 4586SOL     OW25390   3.791   0.850   8.658 -0.4981 -0.3426  0.6460
 4586SOL    HW125391   3.770   0.943   8.653 -1.6932 -0.7225 -1.5056
 4586SOL    HW225392   3.857   0.853   8.727 -2.8621  0.1230  2.9055
 4587SOL     OW25393   0.970   0.600   6.807 -0.6601  0.1866 -0.1180
 4587SOL    HW125394   1.001   0.581   6.719  2.0977 -1.2359  1.1386
 4587SOL    HW225395   0.897   0.659   6.788  0.4510  1.1898 -1.2171
 4588SOL     OW25396   4.648   3.789   4.629  0.1526 -0.0623 -0.1864
 4588SOL    HW125397   4.615   3.700   4.632  0.4149 -0.1167  1.3506
 4588SOL    HW225398   4.580   3.838   4.676 -0.7864  0.0243 -1.6601
 4589SOL     OW25399   2.385   3.019   9.584 -0.2358  0.4376  0.0954
 4589SOL    HW125400   2.342   2.940   9.617  3.8621 -1.8589 -0.0796
 4589SOL    HW225401   2.445   3.040   9.655 -1.1225  0.2543  0.9088
 4590SOL     OW25402   2.840   0.479  13.435 -0.3423 -0.5131 -0.1922
 4590SOL    HW125403   2.933   0.464  13.415  0.2110  0.1573  1.8618
 4590SOL    HW225404   2.821   0.413  13.502  0.6168 -0.7412 -0.1433
 4591SOL     OW25405   1.571   2.062   1.292 -0.2349 -0.0488  0.0848
 4591SOL    HW125406   1.636   2.041   1.360  0.0190  0.5769  0.0364
 4591SOL    HW225407   1.550   1.975   1.260 -0.1919 -0.0530  0.0685
 4592SOL     OW25408   0.324   1.727   3.405  0.3404 -0.3421 -1.1765
 4592SOL    HW125409   0.362   1.679   3.331  2.1632 -0.4330 -0.1730
 4592SOL    HW225410   0.234   1.698   3.413  0.3155 -0.4068 -1.6995
 4593SOL     OW25411   0.234   1.765   9.134  0.1550 -0.3430 -0.2661
 4593SOL    HW125412   0.244   1.680   9.178 -0.0618  0.2114  0.8583
 4593SOL    HW225413   0.304   1.824   9.163  2.2230 -1.8021 -2.2730
 4594SOL     OW25414   0.707   0.648   6.491  0.2836 -0.9150 -0.2970
 4594SOL    HW125415   0.685   0.586   6.421  0.3614  0.3428 -1.4138
 4594SOL    HW225416   0.644   0.718   6.473  1.6802  0.7464  1.3152
 4595SOL     OW25417   2.218   2.416   7.379 -0.2749 -0.3673  0.4434
 4595SOL    HW125418   2.196   2.335   7.425  2.3835 -1.4775 -0.2047
 4595SOL    HW225419   2.281   2.456   7.439 -1.3254  1.3434  0.4071
 4596SOL     OW25420   4.073   0.295  10.885  0.2661  0.5360 -0.5139
 4596SOL    HW125421   4.082   0.373  10.830  2.4577  0.4395 -0.2896
 4596SOL    HW225422   3.985   0.318  10.916 -0.2354  2.2958 -3.2772
 4597SOL     OW25423   1.920   2.049  10.849  0.0808 -0.1229  0.1391
 4597SOL    HW125424   1.866   2.030  10.926  1.1301  0.2770  0.9662
 4597SOL    HW225425   1.950   1.959  10.833  1.1912  0.1653  0.6638
 4598SOL     OW25426   4.183   2.335   8.624 -0.2920 -0.1796  0.1058
 4598SOL    HW125427   4.259   2.379   8.587 -0.2618 -0.1092  0.2518
 4598SOL    HW225428   4.107   2.386   8.596 -0.5898  1.3543  3.7072
 4599SOL     OW25429   2.685   2.477   6.055 -0.1176 -0.7040  0.4009
 4599SOL    HW125430   2.694   2.525   5.972 -0.8337 -0.2898  0.5646
 4599SOL    HW225431   2.775   2.448   6.069  1.0540  3.4349  1.5628
 4600SOL     OW25432   1.432   2.789   7.958  0.6232  0.1375  0.2050
 4600SOL    HW125433   1.374   2.721   7.922 -1.9363  1.9071  0.9614
 4600SOL    HW225434   1.379   2.827   8.028 -0.6324  0.4470 -0.8999
 4601SOL     OW25435   3.409   3.063   7.062  0.2836 -0.0358  0.2375
 4601SOL    HW125436   3.472   3.118   7.110  0.8246  0.1778 -0.7262
 4601SOL    HW225437   3.401   2.989   7.123 -1.6836  0.4566  0.5992
 4602SOL     OW25438   3.508   4.230   5.476 -0.1258 -0.2423 -0.0730
 4602SOL    HW125439   3.585   4.180   5.448 -0.2589 -0.5582  0.1333
 4602SOL    HW225440   3.498   4.284   5.397 -1.3208 -2.6714 -1.5836
 4603SOL     OW25441   4.127   0.151  11.173 -0.1720 -0.1800 -0.4629
 4603SOL    HW125442   4.142   0.239  11.209  2.9687 -1.3128  0.9578
 4603SOL    HW225443   4.035   0.151  11.146 -0.3455  0.0041  0.1257
 4604SOL     OW25444   2.049   3.994   4.456 -0.1118  0.3099 -0.4822
 4604SOL    HW125445   1.989   4.066   4.476 -1.1046 -0.1137 -1.9373
 4604SOL    HW225446   2.078   3.959   4.540  1.2954  0.6563 -0.8300
 4605SOL     OW25447   3.560   2.078   2.461  0.5702  0.2413 -0.4217
 4605SOL    HW125448   3.570   2.172   2.479  0.5142  0.6126 -2.2905
 4605SOL    HW225449   3.651   2.051   2.450  0.7955  0.8159  0.0178
 4606SOL     OW25450   0.401   0.262   5.363  0.2458 -0.9027  0.0856
 4606SOL    HW125451   0.359   0.268   5.449  0.9809 -0.9474  0.4527
 4606SOL    HW225452   0.365   0.177   5.337 -2.3082 -0.1033  1.0124
 4607SOL     OW25453   2.699   1.718  10.632 -0.1131  0.2760  0.0881
 4607SOL    HW125454   2.782   1.670  10.628 -0.2416 -0.0158  0.9758
 4607SOL    HW225455   2.743   1.803  10.639  0.1444  0.0519  1.1928
 4608SOL     OW25456   3.771   4.356   3.740 -0.0210  0.3194  0.5376
 4608SOL    HW125457   3.757   4.362   3.646 -0.0947  2.5253  0.6771
 4608SOL    HW225458   3.775   4.451   3.752  1.2998  0.4506 -0.9401
 4609SOL     OW25459   1.591   3.803   0.338 -0.0581  0.0601 -0.4505
 4609SOL    HW125460   1.530   3.769   0.273  0.7420  1.8235 -2.1088
 4609SOL    HW225461   1.534   3.859   0.390 -1.1243 -1.4069 -0.0209
 4610SOL     OW25462   1.160   3.271   1.869 -0.1596 -0.3524 -0.1288
 4610SOL    HW125463   1.135   3.347   1.817  0.8767 -0.7005 -1.1228
 4610SOL    HW225464   1.222   3.234   1.806  1.1498  1.6642 -0.0239
 4611SOL     OW25465   4.698   2.493  15.616 -0.3834 -0.1834 -0.1601
 4611SOL    HW125466   4.661   2.575  15.581 -1.4213 -0.3794  0.5049
 4611SOL    HW225467   4.624   2.435  15.597  1.3126 -2.1301 -0.8298
 4612SOL     OW25468   3.567   3.759   1.145 -0.3401  0.1326  0.9446
 4612SOL    HW125469   3.537   3.752   1.236 -0.6796  1.6294  0.9471
 4612SOL    HW225470   3.631   3.688   1.151  1.1365  1.2363 -2.0056
 4613SOL     OW25471   4.045   2.144   9.570 -0.1154  0.2251 -0.1615
 4613SOL    HW125472   3.970   2.115   9.621 -0.1221 -0.2881 -0.4707
 4613SOL    HW225473   4.115   2.147   9.636  0.6973 -0.4473 -0.9926
 4614SOL     OW25474   1.580   4.174   1.330  0.2645  0.0969  0.2931
 4614SOL    HW125475   1.596   4.255   1.281  0.8997 -0.4392 -0.4004
 4614SOL    HW225476   1.610   4.187   1.420  2.3656 -1.0881 -0.2442
 4615SOL     OW25477   1.152   3.756   9.086 -0.4863  0.8498  0.2613
 4615SOL    HW125478   1.198   3.835   9.114  0.3032  0.3605  0.3367
 4615SOL    HW225479   1.212   3.686   9.111  1.4331  1.8127 -1.6501
 4616SOL     OW25480   2.394   3.524  17.624  0.5043  0.0035  1.0035
 4616SOL    HW125481   2.311   3.502  17.667 -0.0794 -0.0436 -0.1429
 4616SOL    HW225482   2.397   3.614  17.657  2.8175 -0.2275  1.3903
 4617SOL     OW25483   0.759   0.440   9.129 -0.4566  0.3730  0.0564
 4617SOL    HW125484   0.682   0.422   9.183  0.9362 -1.0196  1.5807
 4617SOL    HW225485   0.721   0.488   9.055 -0.9750  0.1679  0.1889
 4618SOL     OW25486   2.081   0.431  12.820  0.1246  0.5427 -0.8887
 4618SOL    HW125487   2.129   0.441  12.738  2.0456 -0.8940  0.0592
 4618SOL    HW225488   2.044   0.343  12.810 -0.0542  0.5398 -0.1704
 4619SOL     OW25489   2.958   2.276   3.113 -0.0054 -0.2053  0.3375
 4619SOL    HW125490   2.872   2.318   3.119  0.8243  1.5937 -0.6843
 4619SOL    HW225491   2.991   2.306   3.029 -2.3825 -0.6460 -0.7557
 4620SOL     OW25492   2.645   1.627   6.989 -0.7399  0.0875  0.2089
 4620SOL    HW125493   2.599   1.567   6.931  1.3474 -1.8746  0.5914
 4620SOL    HW225494   2.566   1.674   7.014  0.3350  1.0786  1.7077
 4621SOL     OW25495   4.516   3.964   3.390  0.2795 -0.2357 -0.0513
 4621SOL    HW125496   4.509   3.966   3.294  0.2811  1.8746 -0.0284
 4621SOL    HW225497   4.422   3.955   3.403  0.1426 -0.2985 -1.0530
 4622SOL     OW25498   3.325   3.035   5.236 -0.3625  0.0520 -0.7485
 4622SOL    HW125499   3.412   2.998   5.249 -0.3286  0.7202  0.9095
 4622SOL    HW225500   3.273   2.967   5.278  2.3310 -0.5104  1.6578
 4623SOL     OW25501   0.138   2.529  16.270  0.1330  0.2793  0.3925
 4623SOL    HW125502   0.103   2.594  16.209 -1.1595 -0.4379  0.3532
 4623SOL    HW225503   0.167   2.463  16.206  1.0369  1.3804 -0.3252
 4624SOL     OW25504   2.324   1.383   4.464  0.3364 -0.2626 -0.0025
 4624SOL    HW125505   2.406   1.389   4.416 -0.6161 -3.5275 -2.0432
 4624SOL    HW225506   2.344   1.448   4.532  1.0485 -1.6276  1.1063
 4625SOL     OW25507   2.065   0.029   3.436  0.3389 -0.7530  0.0031
 4625SOL    HW125508   2.010   0.107   3.451  1.3696  0.2235 -1.3328
 4625SOL    HW225509   2.145   0.051   3.484 -0.4225 -0.4254  1.1278
 4626SOL     OW25510   0.498   3.946   6.531 -0.6888  0.0658  0.1806
 4626SOL    HW125511   0.589   3.966   6.552  0.0498 -1.4296 -1.6097
 4626SOL    HW225512   0.474   3.898   6.610 -0.3500 -2.2189 -1.1073
 4627SOL     OW25513   0.908   3.313   3.951  0.3091 -0.7389 -0.1350
 4627SOL    HW125514   0.887   3.229   3.911 -1.1483 -0.2349 -0.4123
 4627SOL    HW225515   0.838   3.369   3.919 -0.7660 -2.1385 -0.2615
 4628SOL     OW25516   0.106   0.304  15.941 -0.0994 -0.2342  0.0785
 4628SOL    HW125517   0.176   0.294  15.876  0.2941  3.0276 -0.0163
 4628SOL    HW225518   0.041   0.344  15.883 -0.4442 -0.3248  0.3991
 4629SOL     OW25519   0.204   3.886   4.958 -0.4965 -0.6025 -0.3042
 4629SOL    HW125520   0.290   3.881   4.915 -0.6117 -2.3807 -0.3317
 4629SOL    HW225521   0.187   3.980   4.965 -4.0403 -1.4425  2.2025
 4630SOL     OW25522   1.611   2.267   7.617 -0.1164 -0.4357  0.2013
 4630SOL    HW125523   1.574   2.263   7.706 -0.0771 -1.2231  0.1823
 4630SOL    HW225524   1.703   2.287   7.633 -0.3992  0.4098  0.7572
 4631SOL     OW25525   3.465   2.896   2.935  0.2809  0.5501  0.1918
 4631SOL    HW125526   3.529   2.841   2.980  2.5378  1.7193 -1.6354
 4631SOL    HW225527   3.389   2.840   2.951  2.7534 -2.5853  0.9269
 4632SOL     OW25528   2.983   4.357  14.334 -0.2072  0.0657 -0.4383
 4632SOL    HW125529   2.900   4.334  14.294  0.1907 -1.0335 -0.6397
 4632SOL    HW225530   2.955   4.367  14.425  0.6393  2.6246 -0.4597
 4633SOL     OW25531   0.589   0.329  11.175  0.2298 -0.6083 -0.6790
 4633SOL    HW125532   0.537   0.277  11.113 -1.7515  0.1533  0.3342
 4633SOL    HW225533   0.565   0.413  11.135  1.6532 -1.1203 -2.6182
 4634SOL     OW25534   3.970   2.491   4.701 -0.4231  0.4164 -0.1443
 4634SOL    HW125535   3.881   2.526   4.704  0.0772  1.5677  1.0748
 4634SOL    HW225536   3.952   2.409   4.748 -4.3084  0.2805 -1.8083
 4635SOL     OW25537   3.468   2.604   2.058 -0.1063 -0.8959 -0.3801
 4635SOL    HW125538   3.375   2.627   2.052 -0.0385 -0.1692  1.0942
 4635SOL    HW225539   3.475   2.538   2.128  1.5289  0.7180  0.9972
 4636SOL     OW25540   1.152   3.555   7.741 -0.2776 -0.4321 -0.4097
 4636SOL    HW125541   1.082   3.621   7.741  0.7247  0.6170  1.4404
 4636SOL    HW225542   1.203   3.587   7.815 -0.2924 -2.6009  0.5459
 4637SOL     OW25543   2.593   0.385   8.575 -0.0540 -0.1202  0.5863
 4637SOL    HW125544   2.507   0.348   8.594 -1.3167  2.4917  0.0590
 4637SOL    HW225545   2.630   0.377   8.662  0.3417  0.7516  0.5012
 4638SOL     OW25546   1.663   3.819   6.207 -0.3074 -0.0921  0.4671
 4638SOL    HW125547   1.635   3.884   6.143  2.2852 -2.1009 -2.7199
 4638SOL    HW225548   1.757   3.838   6.206 -0.3067  0.0002  2.6635
 4639SOL     OW25549   2.375   1.576   3.809  0.3486  0.1998 -0.0577
 4639SOL    HW125550   2.308   1.643   3.821  0.5003  0.7824 -2.5192
 4639SOL    HW225551   2.444   1.628   3.768 -1.6666  2.9454  0.0523
 4640SOL     OW25552   2.308   3.872  10.838 -0.6428  0.3841 -0.2846
 4640SOL    HW125553   2.320   3.783  10.804  2.4215  0.7681 -0.1959
 4640SOL    HW225554   2.240   3.913  10.785 -0.8682 -1.0972 -1.1758
 4641SOL     OW25555   3.556   2.912  11.601  0.0050 -0.7453  0.5497
 4641SOL    HW125556   3.648   2.898  11.623  0.7187  0.2178 -1.7930
 4641SOL    HW225557   3.545   2.996  11.645 -4.2471 -1.0660  0.1452
 4642SOL     OW25558   1.027   3.942   2.884  0.2859  0.3041  0.2147
 4642SOL    HW125559   0.965   3.949   2.812 -3.4414  0.0891  3.4142
 4642SOL    HW225560   0.983   4.001   2.946 -1.5353 -2.3161  1.4360
 4643SOL     OW25561   3.600   2.503   9.219 -0.2371  0.0389  0.1067
 4643SOL    HW125562   3.630   2.495   9.128 -2.4037 -0.7592 -0.5532
 4643SOL    HW225563   3.530   2.437   9.223 -0.8208  0.6179 -0.3243
 4644SOL     OW25564   2.830   4.570  11.670  1.0521  0.4378  0.0622
 4644SOL    HW125565   2.843   4.508  11.599  1.6282  1.7637 -0.9971
 4644SOL    HW225566   2.742   4.600  11.644  1.7533  1.2270 -1.4081
 4645SOL     OW25567   0.165   0.584   1.203 -0.2573  0.1576 -0.8518
 4645SOL    HW125568   0.094   0.603   1.265  1.2618 -1.9977  1.5557
 4645SOL    HW225569   0.128   0.618   1.122 -1.0209  0.1786 -0.4933
 4646SOL     OW25570   2.001   1.665  16.121 -0.1907 -0.2208 -0.5996
 4646SOL    HW125571   1.956   1.698  16.043  1.3745  0.0248 -1.4056
 4646SOL    HW225572   1.958   1.713  16.191 -0.3179  1.6575 -1.9772
 4647SOL     OW25573   4.188   3.824   6.048  0.4621 -0.5070 -0.0712
 4647SOL    HW125574   4.277   3.855   6.031  0.1955  0.9485  1.2475
 4647SOL    HW225575   4.198   3.738   6.006 -0.8398 -0.2473 -0.9019
 4648SOL     OW25576   1.740   2.260   2.757 -0.7909 -0.2719 -0.3691
 4648SOL    HW125577   1.772   2.199   2.691  0.3932 -0.4940  0.4096
 4648SOL    HW225578   1.670   2.306   2.711 -2.7520 -2.9287 -0.0456
 4649SOL     OW25579   3.951   3.274   4.636 -1.1026 -0.2212  0.1380
 4649SOL    HW125580   3.988   3.353   4.598  0.0117  0.3429  2.3864
 4649SOL    HW225581   3.857   3.290   4.629 -0.6500  1.4558 -1.8727
 4650SOL     OW25582   4.564   4.242   9.419  0.0076  0.0954  0.5540
 4650SOL    HW125583   4.524   4.231   9.333 -2.6170 -1.9284  2.0141
 4650SOL    HW225584   4.554   4.334   9.441 -1.5838  0.0608 -0.0503
 4651SOL     OW25585   0.596   3.598   6.858  0.2775 -0.0068 -0.0680
 4651SOL    HW125586   0.513   3.563   6.889  0.1715  0.2944 -0.0126
 4651SOL    HW225587   0.652   3.602   6.936  1.8713  0.4365 -1.2320
 4652SOL     OW25588   2.195   1.016   7.195 -0.0819  0.0912 -0.0898
 4652SOL    HW125589   2.217   1.047   7.284  0.1348 -0.2074 -0.0394
 4652SOL    HW225590   2.239   1.089   7.150 -1.1879  1.0521  0.3874
 4653SOL     OW25591   3.546   3.877   2.024  0.0551  0.0734 -0.3025
 4653SOL    HW125592   3.470   3.865   2.082 -0.3823 -1.9373 -1.3006
 4653SOL    HW225593   3.515   3.959   1.984  0.1846  0.0962 -0.3546
 4654SOL     OW25594   0.733   0.609   5.100 -0.3875  0.0262 -0.0359
 4654SOL    HW125595   0.769   0.624   5.012  1.4913 -2.4423  0.2982
 4654SOL    HW225596   0.686   0.526   5.090  1.5568 -1.3191  2.0201
 4655SOL     OW25597   1.540   2.882   0.903  0.4173 -0.3766 -0.6733
 4655SOL    HW125598   1.571   2.882   0.812  1.3565  1.1303 -0.3693
 4655SOL    HW225599   1.490   2.802   0.914 -0.7228  0.4759  0.3168
 4656SOL     OW25600   0.004   3.484   7.578 -0.1472 -0.1183  0.4195
 4656SOL    HW125601   4.665   3.426   7.571  0.0499 -0.3355  0.0980
 4656SOL    HW225602   0.051   3.446   7.652 -0.7921 -0.4265  0.6616
 4657SOL     OW25603   2.658   1.547   1.225 -0.2968 -0.4531  0.0866
 4657SOL    HW125604   2.562   1.554   1.221 -0.4458 -2.1464  0.6458
 4657SOL    HW225605   2.681   1.552   1.132  0.1659  0.2007  0.2418
 4658SOL     OW25606   2.020   4.543   3.831  0.2486 -0.5723 -0.3061
 4658SOL    HW125607   2.061   4.623   3.863  1.9435 -1.1043 -1.1753
 4658SOL    HW225608   2.073   4.518   3.756  1.2200 -2.1298  0.8855
 4659SOL     OW25609   3.202   1.865   8.497  0.1291 -0.4763  0.2378
 4659SOL    HW125610   3.180   1.780   8.535 -0.3326 -0.5476 -0.1835
 4659SOL    HW225611   3.253   1.912   8.562 -1.4462  0.2337  0.9502
 4660SOL     OW25612   3.780   1.188  12.529 -0.6181 -0.3420 -0.6494
 4660SOL    HW125613   3.728   1.114  12.499  2.0956 -1.7953 -1.7089
 4660SOL    HW225614   3.855   1.145  12.571 -1.5385 -0.4382  0.8961
 4661SOL     OW25615   4.734   2.621   1.627  0.3370  0.2107 -0.1978
 4661SOL    HW125616   4.676   2.696   1.634 -0.5351 -0.4823  0.0895
 4661SOL    HW225617   0.083   2.655   1.653 -0.1076  0.3929  1.0357
 4662SOL     OW25618   0.643   0.814   2.988 -0.0525  0.0921 -0.3841
 4662SOL    HW125619   0.588   0.775   2.920  0.1406  0.4977 -0.7750
 4662SOL    HW225620   0.609   0.764   3.062  0.3452  1.5091  0.7534
 4663SOL     OW25621   2.782   1.439   4.197 -0.1378  0.5539  0.7249
 4663SOL    HW125622   2.746   1.463   4.111  1.2989 -0.8457 -0.2598
 4663SOL    HW225623   2.855   1.382   4.173 -2.2510 -3.0814  3.0441
 4664SOL     OW25624   2.736   0.689  13.112 -0.4770 -0.1119 -0.0567
 4664SOL    HW125625   2.677   0.691  13.036 -2.3111 -1.6983  1.3390
 4664SOL    HW225626   2.821   0.715  13.075  0.1252 -0.4748  1.0844
 4665SOL     OW25627   0.681   1.460   1.911 -0.2107 -0.7991 -0.9144
 4665SOL    HW125628   0.612   1.407   1.873 -0.7903  1.0360 -2.4104
 4665SOL    HW225629   0.695   1.411   1.992 -0.0984  2.1141  0.8253
 4666SOL     OW25630   3.693   2.009  16.468  0.7833 -0.0424  0.3458
 4666SOL    HW125631   3.722   1.923  16.500 -0.1458  0.1990  1.8374
 4666SOL    HW225632   3.759   2.069  16.504  0.8839  1.4383 -2.3652
 4667SOL     OW25633   2.648   1.529   6.622 -0.3593 -0.4199 -0.3448
 4667SOL    HW125634   2.740   1.554   6.629 -0.7352  0.5560  1.0479
 4667SOL    HW225635   2.636   1.473   6.699  1.1339  1.0238  0.9395
 4668SOL     OW25636   2.384   0.832  16.875  0.1482  0.0183 -0.5574
 4668SOL    HW125637   2.389   0.814  16.969 -2.6411 -2.3684 -0.8509
 4668SOL    HW225638   2.429   0.916  16.871 -0.2519  0.2954  0.6778
 4669SOL     OW25639   0.880   0.846   8.281 -0.6126 -0.0937 -0.0113
 4669SOL    HW125640   0.869   0.856   8.375  0.1823  3.0691 -0.2586
 4669SOL    HW225641   0.795   0.887   8.265 -0.2067 -0.3271 -2.7341
 4670SOL     OW25642   2.684   4.611   3.874  0.3365  0.0973 -0.3842
 4670SOL    HW125643   2.688   4.531   3.928 -0.8998 -1.5111 -2.6973
 4670SOL    HW225644   2.596   4.637   3.901  0.4981 -0.7474  0.9719
 4671SOL     OW25645   0.128   1.140  17.284  0.1634 -0.5641  0.1517
 4671SOL    HW125646   0.060   1.207  17.288 -0.4722 -1.1957 -0.2611
 4671SOL    HW225647   0.108   1.092  17.203  1.1681  0.5629 -0.7726
 4672SOL     OW25648   1.422   2.508   5.890 -0.0549 -0.0844 -0.0410
 4672SOL    HW125649   1.499   2.550   5.854 -0.4283  0.3989 -0.2728
 4672SOL    HW225650   1.457   2.438   5.946 -1.9362 -0.5894  0.5059
 4673SOL     OW25651   2.537   2.725  14.613 -0.2248  0.0245  0.2503
 4673SOL    HW125652   2.513   2.660  14.546 -1.1225 -1.0392  1.6010
 4673SOL    HW225653   2.630   2.705  14.606 -0.3472 -0.1822 -0.8870
 4674SOL     OW25654   1.377   4.646   4.934 -0.4581  0.3418  0.1915
 4674SOL    HW125655   1.431   4.704   4.987  0.3466  0.2590 -0.5390
 4674SOL    HW225656   1.424   4.642   4.851  0.5348 -2.8164  0.8858
 4675SOL     OW25657   0.675   0.822   3.888 -0.7083  0.3281  0.5837
 4675SOL    HW125658   0.669   0.728   3.907  0.8243 -0.2595 -1.8374
 4675SOL    HW225659   0.770   0.835   3.891 -0.2798 -2.5501 -0.3733
 4676SOL     OW25660   3.480   0.420   8.924  0.1204  0.1419 -0.3079
 4676SOL    HW125661   3.444   0.503   8.956 -1.1877 -1.3416  2.0663
 4676SOL    HW225662   3.423   0.403   8.849 -1.5963 -0.5088  1.1280
 4677SOL     OW25663   1.278   4.388   3.361  0.0024  0.4628  0.3268
 4677SOL    HW125664   1.313   4.476   3.347  2.0119 -0.5380 -1.0998
 4677SOL    HW225665   1.245   4.361   3.275  1.0209 -1.1094  0.4193
 4678SOL     OW25666   3.624   1.473   6.215  0.4167 -0.8859  0.1871
 4678SOL    HW125667   3.604   1.381   6.232 -0.5937 -0.8651 -0.8455
 4678SOL    HW225668   3.547   1.521   6.243 -1.1063 -2.4667 -1.2665
 4679SOL     OW25669   1.399   4.290   1.892  0.1028 -0.3048  0.0783
 4679SOL    HW125670   1.376   4.337   1.972  0.5431 -1.3310  0.8010
 4679SOL    HW225671   1.475   4.240   1.921  1.6673  2.1405  0.1749
 4680SOL     OW25672   3.931   3.903   7.308 -0.2911  0.2416 -0.1269
 4680SOL    HW125673   3.869   3.834   7.331  1.0669 -0.7290  0.5862
 4680SOL    HW225674   3.977   3.841   7.251  0.3392 -0.0855  0.7479
 4681SOL     OW25675   3.731   2.658   4.719 -0.3549  0.3944  0.2058
 4681SOL    HW125676   3.674   2.631   4.792 -2.0668  0.6255 -1.0321
 4681SOL    HW225677   3.702   2.749   4.708 -0.4867  0.1347 -1.5338
 4682SOL     OW25678   0.498   1.882   5.093  0.3108 -0.7866 -0.0209
 4682SOL    HW125679   0.537   1.922   5.170 -0.4662  0.9494 -0.5416
 4682SOL    HW225680   0.446   1.953   5.057 -1.0462 -2.5241 -1.5326
 4683SOL     OW25681   3.011   0.587   3.060  0.1140  0.1677  0.2771
 4683SOL    HW125682   3.081   0.538   3.017  0.4701  0.5845  0.3852
 4683SOL    HW225683   3.035   0.679   3.052 -1.1726  0.5079  0.3920
 4684SOL     OW25684   4.069   0.723  15.108 -0.2007 -0.3580 -0.3318
 4684SOL    HW125685   4.149   0.690  15.149  1.0923  2.5250 -0.5890
 4684SOL    HW225686   4.099   0.813  15.099 -0.8736 -0.1235 -0.2204
 4685SOL     OW25687   2.478   3.546   6.649 -0.4027 -0.0806 -0.1314
 4685SOL    HW125688   2.506   3.484   6.717 -1.6247  0.4680  0.8709
 4685SOL    HW225689   2.530   3.514   6.576  1.7150  0.0713  1.3090
 4686SOL     OW25690   0.239   1.492   9.211 -0.1363  0.6897 -0.6007
 4686SOL    HW125691   0.238   1.482   9.307 -0.8632 -0.8705 -0.7744
 4686SOL    HW225692   0.331   1.471   9.193  0.3193 -0.1690  2.6464
 4687SOL     OW25693   1.528   4.066   2.056  0.1490 -0.1480  0.6883
 4687SOL    HW125694   1.551   4.110   2.138  0.2568 -0.1842  0.6772
 4687SOL    HW225695   1.438   4.040   2.075  0.5459 -2.0361 -0.0101
 4688SOL     OW25696   2.185   4.577   3.253 -0.3794 -0.6378  0.3752
 4688SOL    HW125697   2.128   4.623   3.314 -0.3895  1.0740 -0.9409
 4688SOL    HW225698   2.199   4.644   3.186  1.2572  0.1187  1.4609
 4689SOL     OW25699   0.182   0.269   9.920 -0.0148 -0.4611 -0.4840
 4689SOL    HW125700   0.268   0.308   9.931  0.1947 -0.9266 -0.4879
 4689SOL    HW225701   0.223   0.186   9.944  1.4891  0.1558 -0.9515
 4690SOL     OW25702   4.164   1.212   4.757 -0.2322  0.0845 -0.4085
 4690SOL    HW125703   4.223   1.286   4.772 -1.2262  1.2716 -2.3903
 4690SOL    HW225704   4.199   1.136   4.805 -0.8837 -0.8796 -1.4635
 4691SOL     OW25705   2.748   1.275   5.979 -0.3570  0.2097  0.5139
 4691SOL    HW125706   2.708   1.356   5.948 -0.9583 -0.6093 -0.8840
 4691SOL    HW225707   2.841   1.291   5.993 -0.4540 -0.2549  1.6767
 4692SOL     OW25708   0.937   0.430   3.666  0.4491  0.0849  0.5161
 4692SOL    HW125709   0.924   0.384   3.583 -0.7986  0.7517  0.3403
 4692SOL    HW225710   1.021   0.474   3.652  0.4961 -1.2421 -3.2188
 4693SOL     OW25711   3.234   2.492   8.966 -0.4295 -0.0232 -0.3243
 4693SOL    HW125712   3.305   2.507   8.904 -2.0572  3.1219 -1.4165
 4693SOL    HW225713   3.261   2.522   9.053 -1.1697  1.2180 -0.5243
 4694SOL     OW25714   0.999   0.236   8.963  0.8926  0.2971 -0.0507
 4694SOL    HW125715   0.955   0.297   8.904  1.1711  1.0748  0.5441
 4694SOL    HW225716   1.021   0.160   8.908 -0.4347  0.4703 -0.8096
 4695SOL     OW25717   0.428   1.937   3.092 -0.0228  0.3278  0.1842
 4695SOL    HW125718   0.504   1.892   3.128  0.9315  0.9692 -1.0074
 4695SOL    HW225719   0.379   1.858   3.068  1.0206 -0.7606  1.6704
 4696SOL     OW25720   2.894   2.750   1.473  0.1579  0.1760  0.3076
 4696SOL    HW125721   2.826   2.688   1.446  2.1381 -2.2863  0.9548
 4696SOL    HW225722   2.917   2.706   1.555  0.3970 -1.6348 -0.7286
 4697SOL     OW25723   0.117   3.646   8.848 -0.0705  0.2673 -0.2896
 4697SOL    HW125724   0.121   3.596   8.767  0.9664 -0.8349  0.4482
 4697SOL    HW225725   0.052   3.715   8.836  1.5931  1.5402 -1.9865
 4698SOL     OW25726   4.577   1.053   3.732  0.1439  0.2251  0.5654
 4698SOL    HW125727   4.531   1.093   3.805 -0.0403  0.7913  0.1405
 4698SOL    HW225728   4.509   1.015   3.676 -0.5929  2.1403  0.1694
 4699SOL     OW25729   3.456   4.218   8.896 -0.0004  0.1143  0.4884
 4699SOL    HW125730   3.395   4.152   8.863  0.0448 -0.5354  1.7051
 4699SOL    HW225731   3.412   4.263   8.968 -2.4868 -0.2102 -0.8251
 4700SOL     OW25732   0.047   0.421   7.371 -0.3153 -0.4134 -0.3942
 4700SOL    HW125733   4.736   0.415   7.288  0.4626  0.6300 -0.9055
 4700SOL    HW225734   0.013   0.498   7.416  2.8504  0.2290  0.8898
 4701SOL     OW25735   3.339   0.899   5.932  0.0995 -0.2476 -0.4863
 4701SOL    HW125736   3.413   0.855   5.972  0.3177  0.0960 -0.5156
 4701SOL    HW225737   3.266   0.847   5.966  0.1731 -0.3461 -0.4802
 4702SOL     OW25738   0.406   3.467   4.559  0.4530 -0.1132  0.6039
 4702SOL    HW125739   0.452   3.431   4.635  3.7356  3.0039  0.1372
 4702SOL    HW225740   0.322   3.487   4.600  1.5122 -1.1973  3.2801
 4703SOL     OW25741   0.133   3.668   9.769  0.4509  0.4952  0.1755
 4703SOL    HW125742   0.136   3.759   9.800 -1.7422  0.7780 -0.4044
 4703SOL    HW225743   0.184   3.621   9.835 -2.7185 -0.9490  1.6022
 4704SOL     OW25744   0.761   3.830   4.372 -0.3364 -0.2020  0.7238
 4704SOL    HW125745   0.697   3.885   4.326  0.3980 -0.8323 -1.0504
 4704SOL    HW225746   0.794   3.773   4.302  0.1195  0.6427  0.2551
 4705SOL     OW25747   2.909   3.480  13.085  0.3651  0.4834 -0.2508
 4705SOL    HW125748   2.980   3.517  13.033  0.5880  0.9829  0.4166
 4705SOL    HW225749   2.832   3.486  13.027  0.0410  0.9653  0.2339
 4706SOL     OW25750   4.149   0.689   5.402  0.1470  0.0277  0.1496
 4706SOL    HW125751   4.188   0.703   5.488  0.0200 -1.7524  0.4935
 4706SOL    HW225752   4.059   0.674   5.431  1.2716 -2.4457  2.3808
 4707SOL     OW25753   4.674   3.627  10.936 -0.0880 -0.1511  0.3884
 4707SOL    HW125754   4.709   3.609  11.023 -0.5735  3.7329  1.4048
 4707SOL    HW225755   0.018   3.607  10.888  0.8957  1.7120  1.2935
 4708SOL     OW25756   1.352   2.086   7.650 -0.3238 -0.4781 -0.6928
 4708SOL    HW125757   1.431   2.051   7.608  0.3613  1.6224 -1.1653
 4708SOL    HW225758   1.325   2.149   7.583 -0.4556 -1.1022 -1.2302
 4709SOL     OW25759   0.425   2.550   8.973 -0.3739 -0.0498  0.0512
 4709SOL    HW125760   0.371   2.627   8.992  0.8317  0.0451  2.9875
 4709SOL    HW225761   0.419   2.488   9.045  1.4428 -0.5541 -0.2324
 4710SOL     OW25762   4.494   4.362   5.875  0.2152 -0.2868  0.3692
 4710SOL    HW125763   4.458   4.288   5.825  0.1850 -0.1098  0.1324
 4710SOL    HW225764   4.563   4.314   5.922 -0.6074  0.9872  2.8545
 4711SOL     OW25765   1.584   1.273   4.380 -0.5191 -0.1874 -0.4252
 4711SOL    HW125766   1.652   1.341   4.377 -1.4097  0.7636  0.5906
 4711SOL    HW225767   1.544   1.280   4.294 -0.7934  1.9608 -0.1319
 4712SOL     OW25768   3.222   1.677   2.746 -0.5595  0.0957 -0.2801
 4712SOL    HW125769   3.190   1.636   2.826  0.2580 -0.8693 -0.4459
 4712SOL    HW225770   3.257   1.599   2.703  0.4285  0.0388  0.6371
 4713SOL     OW25771   0.461   2.542   3.201 -0.0307  0.0097 -0.5044
 4713SOL    HW125772   0.425   2.515   3.286  0.5403  2.0325  0.3858
 4713SOL    HW225773   0.386   2.587   3.161  0.6544  0.7105 -0.9957
 4714SOL     OW25774   1.676   2.618  17.064 -0.0851  0.0694  0.2672
 4714SOL    HW125775   1.629   2.661  17.136  1.4065  1.9813  0.0902
 4714SOL    HW225776   1.655   2.670  16.987 -1.2635 -0.1543  0.4390
 4715SOL     OW25777   0.105   2.220  16.408  0.5138 -0.0630  0.2296
 4715SOL    HW125778   0.137   2.286  16.345  0.1424 -0.9078 -0.8396
 4715SOL    HW225779   0.189   2.181  16.433 -0.3110 -0.7440  1.8819
 4716SOL     OW25780   3.648   0.920  11.199 -0.0783  0.3654 -0.0683
 4716SOL    HW125781   3.667   0.918  11.105  2.6194 -2.4011  0.5432
 4716SOL    HW225782   3.717   0.976  11.237 -0.6064  0.9837 -0.0118
 4717SOL     OW25783   4.368   0.444   2.380 -0.4649 -0.1159  0.3571
 4717SOL    HW125784   4.428   0.505   2.423 -0.2984  0.0836 -0.1567
 4717SOL    HW225785   4.322   0.496   2.315  0.1528  0.0532  0.0481
 4718SOL     OW25786   2.922   4.634   4.157 -0.4148 -0.6140 -0.2000
 4718SOL    HW125787   2.966   4.624   4.072 -0.2952 -1.5239 -0.0329
 4718SOL    HW225788   2.926   4.729   4.163  2.0845 -0.7034 -0.2033
 4719SOL     OW25789   1.025   0.746   4.847  0.0815 -0.6493 -0.0258
 4719SOL    HW125790   0.982   0.831   4.851  0.3107 -0.5237 -0.2458
 4719SOL    HW225791   0.951   0.685   4.841 -1.9411  1.9090 -0.9093
 4720SOL     OW25792   0.082   0.531   5.805  0.7457  0.2493  0.6049
 4720SOL    HW125793   0.152   0.485   5.851 -0.4828 -2.7407 -0.5502
 4720SOL    HW225794   0.120   0.619   5.800 -1.1993  0.9378 -1.7954
 4721SOL     OW25795   1.757   1.342   0.592 -0.2867  0.9815 -0.1406
 4721SOL    HW125796   1.800   1.397   0.657  2.0291  0.4453 -1.2052
 4721SOL    HW225797   1.675   1.324   0.636  0.0216  3.1924  1.3280
 4722SOL     OW25798   0.204   0.088   3.855 -0.0298 -0.1373  0.2860
 4722SOL    HW125799   0.130   0.124   3.806  1.4276 -1.9674 -3.2855
 4722SOL    HW225800   0.161   0.068   3.938 -0.6792  0.4320  0.0816
 4723SOL     OW25801   3.898   2.624  10.532  0.6761 -0.3852 -0.4210
 4723SOL    HW125802   3.856   2.622  10.618  2.4813  1.4015  0.4877
 4723SOL    HW225803   3.831   2.576  10.484 -1.5359 -0.3089  2.5968
 4724SOL     OW25804   2.996   4.240  11.780 -0.2401  0.4401  0.6672
 4724SOL    HW125805   3.047   4.294  11.720 -0.7422 -0.1500 -0.2944
 4724SOL    HW225806   2.954   4.308  11.832 -3.0729  0.4650 -1.6313
 4725SOL     OW25807   0.221   0.498   0.074 -0.1077 -0.5725  0.0547
 4725SOL    HW125808   0.303   0.527   0.034 -1.2198  2.5813  0.0232
 4725SOL    HW225809   0.230   0.547   0.156 -2.0047 -0.0431 -0.0431
 4726SOL     OW25810   1.110   1.309  11.099  0.1170 -0.4398 -0.4180
 4726SOL    HW125811   1.075   1.398  11.100 -2.6573 -1.5333  3.1044
 4726SOL    HW225812   1.066   1.275  11.178  0.0390 -1.3135 -0.8340
 4727SOL     OW25813   3.504   2.328   2.712  0.2436  0.2950 -0.3574
 4727SOL    HW125814   3.420   2.283   2.714  0.1302  0.5472  0.5616
 4727SOL    HW225815   3.549   2.247   2.736  0.9254  0.3381 -1.4540
 4728SOL     OW25816   2.772   3.193   5.053 -0.0477 -0.3126  0.3266
 4728SOL    HW125817   2.864   3.213   5.073  0.4807  0.6846 -3.0343
 4728SOL    HW225818   2.737   3.281   5.039  0.6744 -0.1609 -0.5261
 4729SOL     OW25819   4.603   2.469   7.480 -0.3315  0.0039 -0.2403
 4729SOL    HW125820   4.640   2.461   7.391  1.0353 -0.0851  0.3278
 4729SOL    HW225821   4.527   2.524   7.467 -1.3148 -1.0886  0.9260
 4730SOL     OW25822   4.204   1.851   6.850  0.1255  0.1804 -0.1961
 4730SOL    HW125823   4.164   1.905   6.782 -1.4565  1.3646  1.6730
 4730SOL    HW225824   4.219   1.775   6.795  1.4521  0.8484 -0.7673
 4731SOL     OW25825   2.938   1.487   7.674  0.0330 -0.6975  0.0008
 4731SOL    HW125826   2.989   1.483   7.755  1.1738 -2.7888 -0.8270
 4731SOL    HW225827   2.849   1.474   7.708 -0.6271  1.2287 -0.9927
 4732SOL     OW25828   2.280   4.265  17.722 -0.3195 -0.1419 -0.2246
 4732SOL    HW125829   2.337   4.198   0.016 -2.0491 -0.0291  2.6185
 4732SOL    HW225830   2.195   4.253   0.020 -0.8272  1.8506 -0.6900
 4733SOL     OW25831   2.067   0.286  10.875 -0.4984  0.6326 -0.0845
 4733SOL    HW125832   2.003   0.327  10.817 -1.2027  0.8069  0.8276
 4733SOL    HW225833   2.065   0.330  10.960 -0.3800 -1.4426  0.9648
 4734SOL     OW25834   4.682   4.152   5.988 -0.2368  0.1528  0.0578
 4734SOL    HW125835   4.726   4.123   5.908 -1.8202  0.2399 -0.8388
 4734SOL    HW225836   4.701   4.081   6.049  2.3391 -0.2485 -1.2106
 4735SOL     OW25837   1.135   1.904   5.168 -0.1227 -0.0706 -0.4517
 4735SOL    HW125838   1.121   1.811   5.190  0.8595 -0.5501 -1.8645
 4735SOL    HW225839   1.226   1.922   5.146  0.0193  0.8299  0.8812
 4736SOL     OW25840   3.938   4.481   4.824  0.1506  0.1849  0.6571
 4736SOL    HW125841   4.024   4.461   4.787 -0.9877 -2.8073 -0.3219
 4736SOL    HW225842   3.933   4.575   4.807  1.2133  0.4906  1.9787
 4737SOL     OW25843   2.416   0.087  10.557  0.0263  0.0975 -0.1434
 4737SOL    HW125844   2.336   0.136  10.576  0.9568  1.3856  0.5044
 4737SOL    HW225845   2.453   0.061  10.642  1.0810 -1.4453 -1.0820
 4738SOL     OW25846   4.667   1.007   4.666  0.1144  0.3822 -0.3001
 4738SOL    HW125847   0.009   0.970   4.626  0.4462 -0.1404  0.8360
 4738SOL    HW225848   4.702   1.086   4.706 -3.1911  0.6023  2.1794
 4739SOL     OW25849   0.408   3.163   5.805  0.3578  0.1995 -0.2989
 4739SOL    HW125850   0.408   3.073   5.838  1.2114  1.1109  2.1209
 4739SOL    HW225851   0.498   3.172   5.774  0.0955  1.0087 -0.8411
 4740SOL     OW25852   1.716   2.074  16.699 -0.4061  0.0957  0.3284
 4740SOL    HW125853   1.647   2.113  16.752 -0.2551 -1.4799  1.6809
 4740SOL    HW225854   1.747   2.018  16.770  3.2363 -2.1036 -3.0354
 4741SOL     OW25855   1.709   0.415   7.370  0.0249 -0.1352  0.4053
 4741SOL    HW125856   1.622   0.444   7.342  0.0245  0.6244  1.1965
 4741SOL    HW225857   1.746   0.370   7.294 -1.7518  0.6669 -0.9497
 4742SOL     OW25858   2.112   2.438  15.792  0.0129 -0.7660  0.5532
 4742SOL    HW125859   2.160   2.491  15.855 -0.6823 -2.4861  2.5583
 4742SOL    HW225860   2.027   2.438  15.838 -1.2423 -1.6042 -1.7621
 4743SOL     OW25861   4.229   0.983   4.877 -0.0848 -0.0666  0.7082
 4743SOL    HW125862   4.216   0.942   4.792 -0.3300  0.5102  0.4670
 4743SOL    HW225863   4.310   0.935   4.895  0.1376  0.1049  0.1700
 4744SOL     OW25864   4.537   2.658  12.043  0.0971  0.2289  0.7009
 4744SOL    HW125865   4.501   2.613  12.119  1.6076 -0.7699  0.8236
 4744SOL    HW225866   4.628   2.628  12.041 -0.2263 -0.6423 -1.0201
 4745SOL     OW25867   3.575   3.293   2.998  0.6144 -0.1277 -0.0876
 4745SOL    HW125868   3.503   3.243   3.036  1.4337  1.9232  4.1781
 4745SOL    HW225869   3.630   3.275   3.074 -1.4614 -4.5527  0.4000
 4746SOL     OW25870   1.184   0.042   3.448  0.3501 -0.1489  0.2266
 4746SOL    HW125871   1.115   4.732   3.495 -0.9855  1.1935 -0.3938
 4746SOL    HW225872   1.246   0.063   3.518  0.1626 -2.8019  1.2144
 4747SOL     OW25873   0.614   3.585  15.889 -0.2111  0.4416  0.1143
 4747SOL    HW125874   0.648   3.675  15.895 -0.2357  0.3552  1.7177
 4747SOL    HW225875   0.662   3.556  15.811  1.1589  1.0522  0.7247
 4748SOL     OW25876   0.500   0.826   2.090 -0.8863 -0.3192  0.4883
 4748SOL    HW125877   0.490   0.920   2.105 -0.7902  0.4338 -4.3466
 4748SOL    HW225878   0.529   0.788   2.173 -0.4959 -1.1304 -0.0249
 4749SOL     OW25879   4.552   4.131   2.720  0.3895 -0.1240 -0.3347
 4749SOL    HW125880   4.576   4.048   2.760  0.3102  0.1668  0.3173
 4749SOL    HW225881   4.533   4.115   2.627 -0.3953 -1.9119  0.1422
 4750SOL     OW25882   3.205   4.135   8.766  0.0414  0.3732  0.1770
 4750SOL    HW125883   3.203   4.220   8.722 -0.0239 -0.1874 -0.9070
 4750SOL    HW225884   3.145   4.080   8.715  0.7374 -0.3733  0.1566
 4751SOL     OW25885   1.001   0.576   6.541 -0.1801  0.1195 -0.9610
 4751SOL    HW125886   0.915   0.582   6.499  0.7091  0.2617 -2.7670
 4751SOL    HW225887   1.032   0.493   6.503  1.1466  0.2095 -0.0648
 4752SOL     OW25888   2.428   1.814   8.716  0.0317 -0.2027  0.4414
 4752SOL    HW125889   2.345   1.857   8.735  2.0277  3.3595  0.9900
 4752SOL    HW225890   2.435   1.835   8.623 -1.3601 -0.7320  0.2149
 4753SOL     OW25891   4.558   0.543   2.940 -0.6486  0.7941 -0.1167
 4753SOL    HW125892   4.466   0.558   2.919 -1.1986 -0.6660  1.2310
 4753SOL    HW225893   4.560   0.461   2.989  2.0429  0.7079 -0.3487
 4754SOL     OW25894   0.052   3.715   5.945  0.2393  0.0964 -0.3928
 4754SOL    HW125895   0.031   3.650   5.878 -1.8172 -0.9445  1.2641
 4754SOL    HW225896   0.147   3.717   5.951  0.1853  1.4013  0.0450
 4755SOL     OW25897   3.045   1.730   3.198  0.5740 -0.0745 -0.2510
 4755SOL    HW125898   3.035   1.824   3.182 -1.6198 -0.5961 -2.0277
 4755SOL    HW225899   3.134   1.715   3.166  0.5628 -0.3151 -0.1742
 4756SOL     OW25900   0.519   0.960   7.672 -0.4096 -0.3804  0.5663
 4756SOL    HW125901   0.445   1.019   7.657 -0.3954  0.0561  2.2000
 4756SOL    HW225902   0.478   0.894   7.728  2.2974 -1.0973  1.7298
 4757SOL     OW25903   4.075   2.949   7.625 -0.3335  0.3161 -0.2227
 4757SOL    HW125904   4.029   2.956   7.542 -0.6744 -0.4433 -0.0984
 4757SOL    HW225905   4.131   3.025   7.608  3.3981 -1.8655  2.2530
 4758SOL     OW25906   0.397   3.543   4.272  0.1938 -0.1555 -0.0052
 4758SOL    HW125907   0.404   3.528   4.366  0.2734  1.1950  0.2014
 4758SOL    HW225908   0.420   3.457   4.236 -2.0282 -0.3973 -0.8928
 4759SOL     OW25909   2.247   4.656   9.927  0.5995  0.3317 -0.5221
 4759SOL    HW125910   2.267   4.640  10.019  0.1915 -3.2751 -1.0830
 4759SOL    HW225911   2.165   4.609   9.912  1.0674 -0.4876 -0.5119
 4760SOL     OW25912   2.152   3.543   1.188  0.2617 -0.7252 -0.3084
 4760SOL    HW125913   2.120   3.623   1.149 -0.5275 -1.3652 -0.9643
 4760SOL    HW225914   2.152   3.566   1.281 -1.2047 -0.9625 -0.2487
 4761SOL     OW25915   0.581   0.899   5.518  0.3067 -0.2768  0.4547
 4761SOL    HW125916   0.563   0.848   5.597 -0.6323 -1.1144 -0.3075
 4761SOL    HW225917   0.676   0.889   5.519  0.2768 -0.5584  0.5114
 4762SOL     OW25918   4.450   4.087   4.479 -0.1009  0.1037 -0.3716
 4762SOL    HW125919   4.384   4.067   4.413  2.2195 -0.4043 -2.5319
 4762SOL    HW225920   4.429   4.031   4.553 -1.2447 -0.7685 -1.3509
 4763SOL     OW25921   2.922   1.798   7.477 -0.1011  0.1048  0.0497
 4763SOL    HW125922   2.957   1.781   7.564  0.4277 -1.3690 -0.4445
 4763SOL    HW225923   2.839   1.838   7.501  0.8468  0.7608  2.1816
 4764SOL     OW25924   3.808   3.138   1.066  0.4163 -0.6460  0.0179
 4764SOL    HW125925   3.845   3.052   1.044 -0.6747 -1.3434  0.9417
 4764SOL    HW225926   3.759   3.159   0.986  0.1294 -1.7199 -0.0881
 4765SOL     OW25927   0.018   4.675   5.361 -0.4071  0.0626 -0.2194
 4765SOL    HW125928   4.681   4.632   5.316  1.3949 -1.9523 -1.2002
 4765SOL    HW225929   0.014   4.632   5.446  1.2876  0.0464 -0.1492
 4766SOL     OW25930   2.087   4.467   8.850  0.0611 -0.5481  0.1669
 4766SOL    HW125931   2.045   4.511   8.776 -1.8407 -2.9730 -0.1849
 4766SOL    HW225932   2.048   4.507   8.927 -0.8789 -1.1210 -0.0194
 4767SOL     OW25933   0.308   2.732   7.537  0.6734  0.4540  0.5437
 4767SOL    HW125934   0.212   2.727   7.540  0.5701  1.1067 -1.8010
 4767SOL    HW225935   0.310   2.743   7.442  0.2014  0.6715  0.5562
 4768SOL     OW25936   2.907   2.234   5.191 -0.5371  0.0190 -0.8873
 4768SOL    HW125937   2.869   2.293   5.256 -0.2613 -1.4827  0.6234
 4768SOL    HW225938   2.862   2.153   5.216 -0.3207 -0.3736 -1.7831
 4769SOL     OW25939   1.087   4.418   5.646  0.1464 -0.0889  0.4295
 4769SOL    HW125940   1.108   4.435   5.737  2.0363  0.1969 -0.0599
 4769SOL    HW225941   1.024   4.483   5.616 -0.6028 -1.5718 -1.2044
 4770SOL     OW25942   3.632   4.033   2.904 -0.0023 -0.1391  0.3020
 4770SOL    HW125943   3.607   4.074   2.987 -2.0401  1.5472 -1.1308
 4770SOL    HW225944   3.720   3.997   2.915  0.6857  1.5475  0.2807
 4771SOL     OW25945   3.487   0.631   6.858  0.7639 -0.1540  0.0189
 4771SOL    HW125946   3.429   0.586   6.920  1.5455 -0.1027  0.7847
 4771SOL    HW225947   3.446   0.717   6.866  1.9963  0.4073  0.3415
 4772SOL     OW25948   1.353   1.735   6.040  0.5254  0.1446 -0.2691
 4772SOL    HW125949   1.439   1.711   6.003  0.6068 -3.1502  1.9871
 4772SOL    HW225950   1.389   1.774   6.119 -0.8957  0.5901  0.1483
 4773SOL     OW25951   2.711   4.543   7.794 -0.5604  0.2426 -0.6386
 4773SOL    HW125952   2.640   4.518   7.854 -1.3481  1.6282 -0.9868
 4773SOL    HW225953   2.742   4.456   7.772  0.6673  0.6714 -0.5996
 4774SOL     OW25954   2.454   4.054   8.942 -0.3575  0.1269  0.2881
 4774SOL    HW125955   2.525   4.114   8.916  1.1903 -1.4008  0.9737
 4774SOL    HW225956   2.480   4.013   9.024 -0.7573 -0.8207 -0.0565
 4775SOL     OW25957   0.205   3.451   3.207  0.4778  0.0435 -0.3152
 4775SOL    HW125958   0.294   3.418   3.195  0.9060  0.8324  0.7334
 4775SOL    HW225959   0.167   3.366   3.183 -1.2111  0.2767  1.5757
 4776SOL     OW25960   4.260   0.189   6.289  0.0953 -0.2656  0.4313
 4776SOL    HW125961   4.270   0.280   6.262  1.8444 -0.1527  1.5073
 4776SOL    HW225962   4.307   0.142   6.221 -0.4044 -0.4328  0.1947
 4777SOL     OW25963   2.744   3.443   3.872 -0.2051  0.4038  0.0794
 4777SOL    HW125964   2.750   3.423   3.966  0.0468  2.8417  0.5728
 4777SOL    HW225965   2.794   3.524   3.872 -0.9202  0.8579  2.2614
 4778SOL     OW25966   4.449   0.893   8.870  0.0084  0.2006 -0.1681
 4778SOL    HW125967   4.361   0.929   8.858  0.2616  1.0650  0.5620
 4778SOL    HW225968   4.487   0.970   8.913 -1.6374  0.4288  0.8859
 4779SOL     OW25969   0.103   0.236   8.859  0.0517  0.0127 -0.2930
 4779SOL    HW125970   0.106   0.171   8.929 -1.2914 -1.6011 -1.7214
 4779SOL    HW225971   0.034   0.207   8.799  0.5944 -0.0226 -0.8931
 4780SOL     OW25972   4.241   3.777  12.557  0.3189  0.2846 -0.7258
 4780SOL    HW125973   4.218   3.723  12.632  0.3325  0.4085 -0.6332
 4780SOL    HW225974   4.322   3.728  12.539  0.2174  0.0882 -0.6494
 4781SOL     OW25975   0.850   0.111  13.543 -0.8483 -0.0643  0.1945
 4781SOL    HW125976   0.763   0.124  13.505 -0.3403 -0.4055 -1.0805
 4781SOL    HW225977   0.898   0.080  13.466 -1.0249  2.1695 -0.7999
 4782SOL     OW25978   2.777   0.810   1.156  0.2708 -0.1137  0.8080
 4782SOL    HW125979   2.710   0.741   1.159 -2.3862  2.3698 -1.6954
 4782SOL    HW225980   2.860   0.763   1.143  1.2664  1.9844 -0.4158
 4783SOL     OW25981   2.484   2.331  11.047 -0.0814  0.1219  0.1037
 4783SOL    HW125982   2.527   2.409  11.081 -2.2914  1.6881 -0.7504
 4783SOL    HW225983   2.452   2.361  10.962 -0.3781 -0.4862 -0.0010
 4784SOL     OW25984   0.429   4.517   7.991  0.1886 -0.5711  0.2927
 4784SOL    HW125985   0.334   4.512   7.989  0.2332 -1.4912  0.4874
 4784SOL    HW225986   0.440   4.505   8.086 -1.9074 -0.1562  0.5740
 4785SOL     OW25987   0.623   4.102   6.910 -0.2024  0.1093 -0.5923
 4785SOL    HW125988   0.698   4.050   6.883 -0.5915 -0.9278  0.3402
 4785SOL    HW225989   0.563   4.033   6.940 -0.5210  0.6920  0.0997
 4786SOL     OW25990   3.322   4.260   5.886  0.1664 -0.1048  0.6576
 4786SOL    HW125991   3.366   4.337   5.921 -0.1399  0.5629 -0.4333
 4786SOL    HW225992   3.354   4.192   5.945  2.3721  0.8795  0.5678
 4787SOL     OW25993   2.640   0.284  10.475 -0.7175 -0.6447 -0.1020
 4787SOL    HW125994   2.681   0.356  10.428 -0.4208 -0.3425  0.6239
 4787SOL    HW225995   2.566   0.269  10.415 -0.2509  1.4160 -1.1861
 4788SOL     OW25996   1.998   4.639  11.226 -0.3161 -0.2130  0.1980
 4788SOL    HW125997   2.076   4.602  11.267  0.4302  0.7818 -0.3305
 4788SOL    HW225998   2.039   4.723  11.202 -0.5402  0.1370  1.0337
 4789SOL     OW25999   1.130   2.305   0.962 -0.3615 -0.2233 -0.2171
 4789SOL    HW126000   1.055   2.300   1.021  0.6673  1.0645  1.2164
 4789SOL    HW226001   1.165   2.391   0.988  0.7789  0.0080 -2.5797
 4790SOL     OW26002   3.016   0.499  17.631  0.3620  0.3620  0.5521
 4790SOL    HW126003   3.097   0.479  17.678 -0.1605  1.0879  1.7657
 4790SOL    HW226004   2.949   0.496  17.698 -1.0013 -0.7231 -0.8492
 4791SOL     OW26005   3.394   2.488   7.674 -0.6328 -0.6247  0.0146
 4791SOL    HW126006   3.336   2.425   7.717 -0.7267 -0.1446  0.5776
 4791SOL    HW226007   3.469   2.431   7.657 -0.2894  0.2758 -1.3993
 4792SOL     OW26008   0.312   3.602   1.926 -0.6531 -0.1410  1.1081
 4792SOL    HW126009   0.313   3.508   1.940 -1.2461 -0.0224  1.9154
 4792SOL    HW226010   0.404   3.613   1.903 -1.5423  2.7641 -1.0769
 4793SOL     OW26011   1.285   1.179  12.826 -0.2093 -0.4963  0.5794
 4793SOL    HW126012   1.190   1.174  12.835 -0.3215  1.6661  0.5092
 4793SOL    HW226013   1.306   1.204  12.916 -0.2371 -1.2779  0.7989
 4794SOL     OW26014   0.391   3.588   0.363  0.1014 -0.4386  0.2007
 4794SOL    HW126015   0.447   3.613   0.437 -0.5841  0.1479  0.5144
 4794SOL    HW226016   0.319   3.650   0.375  1.3533  0.8695  1.0917
 4795SOL     OW26017   3.314   1.370   4.743  0.1625 -0.7260 -0.3707
 4795SOL    HW126018   3.391   1.415   4.708 -0.2057 -0.6185 -1.0410
 4795SOL    HW226019   3.354   1.288   4.770 -0.4351  0.0958  3.0241
 4796SOL     OW26020   3.445   2.203   3.779 -0.7347  0.4480  0.4497
 4796SOL    HW126021   3.350   2.194   3.771 -0.6447  0.6445 -0.8828
 4796SOL    HW226022   3.438   2.274   3.843  0.4443 -0.0851  1.1602
 4797SOL     OW26023   3.684   0.576  11.752  0.2926 -0.0141  0.1101
 4797SOL    HW126024   3.738   0.560  11.829  0.3900 -0.6973 -0.1071
 4797SOL    HW226025   3.641   0.491  11.744 -1.5220  1.0681 -1.6642
 4798SOL     OW26026   0.924   3.392   8.200 -0.4922 -0.7001  0.2387
 4798SOL    HW126027   0.964   3.461   8.253  0.1089 -1.2172  0.4562
 4798SOL    HW226028   0.858   3.362   8.264 -0.2724 -1.6083  0.0350
 4799SOL     OW26029   2.244   2.251   8.192  0.3160 -0.5261 -0.0942
 4799SOL    HW126030   2.179   2.289   8.252  0.1002 -0.4021 -0.4038
 4799SOL    HW226031   2.189   2.183   8.152  0.2335  0.2146 -1.2370
 4800SOL     OW26032   4.121   3.044   3.393 -0.9529  0.5196 -0.0691
 4800SOL    HW126033   4.038   3.058   3.438  0.3581  1.4158  2.0723
 4800SOL    HW226034   4.134   2.957   3.430 -0.8646  0.8991  0.7832
 4801SOL     OW26035   2.252   3.585   4.042 -0.2170  1.3607 -0.0673
 4801SOL    HW126036   2.187   3.527   4.082 -0.7387  0.9722 -1.4832
 4801SOL    HW226037   2.321   3.524   4.015 -0.3613  0.0578  2.4825
 4802SOL     OW26038   0.706   3.663  10.427  0.0686 -0.1414  0.2475
 4802SOL    HW126039   0.786   3.657  10.374 -0.1417  0.6517 -0.1597
 4802SOL    HW226040   0.719   3.593  10.491  0.4229 -1.7788 -1.6273
 4803SOL     OW26041   4.160   3.727   9.090  0.2174 -0.1327  0.1184
 4803SOL    HW126042   4.090   3.726   9.155 -0.0759 -1.7090 -0.2200
 4803SOL    HW226043   4.139   3.812   9.050 -1.9359 -1.0458 -0.6767
 4804SOL     OW26044   1.054   2.900   3.284 -0.4281 -0.2911  0.8792
 4804SOL    HW126045   1.033   2.984   3.244 -1.0022  0.5105  2.8715
 4804SOL    HW226046   1.014   2.839   3.222  2.0648 -1.1787  0.1350
 4805SOL     OW26047   2.309   0.495  13.347 -0.0521 -0.3804  0.3616
 4805SOL    HW126048   2.404   0.501  13.343 -0.1876  1.6101 -0.2173
 4805SOL    HW226049   2.288   0.475  13.255 -1.9848  1.6207  0.3449
 4806SOL     OW26050   0.835   2.052   1.971  0.2411  0.1282 -0.1620
 4806SOL    HW126051   0.809   2.046   2.063 -0.8460  1.2587 -0.3852
 4806SOL    HW226052   0.894   2.126   1.983  0.8255 -0.5084  0.8508
 4807SOL     OW26053   2.384   4.101   3.888 -0.1347  0.0851  0.2337
 4807SOL    HW126054   2.403   4.016   3.850 -0.4236 -0.6226  1.6661
 4807SOL    HW226055   2.462   4.109   3.944  0.4209 -3.0038 -0.1090
 4808SOL     OW26056   1.788   0.869  11.482 -0.3566 -0.3496 -0.1692
 4808SOL    HW126057   1.839   0.941  11.519  2.5303 -2.2762 -0.4360
 4808SOL    HW226058   1.855   0.820  11.433  0.0674  0.8655 -0.7952
 4809SOL     OW26059   2.839   1.562   8.849  0.0979  0.1124  0.0123
 4809SOL    HW126060   2.828   1.551   8.755 -0.3397  0.7804 -0.0113
 4809SOL    HW226061   2.875   1.649   8.831 -0.3718 -0.0564 -1.6706
 4810SOL     OW26062   4.192   0.660   6.806 -0.1470 -0.8205 -0.4468
 4810SOL    HW126063   4.252   0.730   6.781 -1.8584  0.3484 -1.2461
 4810SOL    HW226064   4.116   0.712   6.833  1.4243  0.2805  1.8903
 4811SOL     OW26065   2.723   0.215   5.824 -0.4220  0.5161 -0.4117
 4811SOL    HW126066   2.725   0.183   5.734  0.5302  1.2613 -0.6600
 4811SOL    HW226067   2.743   0.309   5.823  0.0288  0.4879  2.6446
 4812SOL     OW26068   3.952   0.401   6.376 -0.2370  0.4121  0.1312
 4812SOL    HW126069   3.941   0.378   6.283  1.6317 -1.5289  0.4069
 4812SOL    HW226070   3.922   0.316   6.409 -0.3417  0.0712 -0.8286
 4813SOL     OW26071   2.124   4.411   4.869 -0.1422 -0.1597 -0.8671
 4813SOL    HW126072   2.071   4.488   4.890 -0.7518 -0.9223  0.4217
 4813SOL    HW226073   2.173   4.388   4.948 -2.7348 -1.7860  0.2660
 4814SOL     OW26074   3.451   0.905   7.657  0.2325 -0.2784 -0.1708
 4814SOL    HW126075   3.469   0.893   7.564  0.4299  2.2263 -0.4374
 4814SOL    HW226076   3.486   0.991   7.680 -2.7409  0.8072  0.2540
 4815SOL     OW26077   0.428   4.223   6.469  0.5748 -0.2122 -0.1682
 4815SOL    HW126078   0.505   4.271   6.438  0.7067 -0.1865  0.1978
 4815SOL    HW226079   0.462   4.136   6.492  1.8222  0.1030 -0.7680
 4816SOL     OW26080   0.623   1.082   6.952  0.5416 -0.4705 -0.7642
 4816SOL    HW126081   0.610   1.041   7.037 -1.8162 -1.8978 -1.8256
 4816SOL    HW226082   0.662   1.167   6.973 -0.0053 -0.9665  2.2845
 4817SOL     OW26083   2.129   2.922   4.085 -0.3850  0.1884  0.0545
 4817SOL    HW126084   2.158   2.874   4.163  2.5410 -1.7113 -2.2211
 4817SOL    HW226085   2.102   2.850   4.027 -1.9089 -0.0172  1.0060
 4818SOL     OW26086   3.352   3.511   2.075  0.6758 -0.2909 -0.5008
 4818SOL    HW126087   3.344   3.580   2.141  1.3095  1.1323 -1.8837
 4818SOL    HW226088   3.333   3.435   2.130 -0.2394  0.5906  0.4071
 4819SOL     OW26089   3.773   1.815   9.063 -0.2390  0.4994 -0.4894
 4819SOL    HW126090   3.821   1.850   8.988 -0.0025  0.8882 -0.1607
 4819SOL    HW226091   3.761   1.724   9.037 -3.1952  0.8828 -0.4064
 4820SOL     OW26092   0.490   0.036   7.893 -0.1321 -0.1347  0.4729
 4820SOL    HW126093   0.445   0.083   7.823 -0.0092 -1.7755 -0.6860
 4820SOL    HW226094   0.458   4.684   7.874 -0.7834 -0.1550  1.6513
 4821SOL     OW26095   1.700   4.355   4.608 -0.1966 -0.1465  0.1208
 4821SOL    HW126096   1.734   4.277   4.650  1.9558  0.6790 -0.0863
 4821SOL    HW226097   1.696   4.324   4.518  0.0416  2.5398 -0.8141
 4822SOL     OW26098   3.135   3.383   3.782  0.1755  0.4015 -0.2013
 4822SOL    HW126099   3.190   3.390   3.860  0.6818 -1.6983 -0.3751
 4822SOL    HW226100   3.047   3.385   3.819  0.0833 -1.2426 -0.3508
 4823SOL     OW26101   2.998   2.559   4.810 -0.0113 -0.3595 -0.3164
 4823SOL    HW126102   3.001   2.521   4.897  0.1795  0.5200  0.0562
 4823SOL    HW226103   2.905   2.560   4.784 -0.1696  1.3319  0.3684
 4824SOL     OW26104   4.245   0.092  11.707 -0.0615  0.1101 -0.0756
 4824SOL    HW126105   4.197   0.111  11.626 -0.6918  0.9390  0.4972
 4824SOL    HW226106   4.279   0.003  11.693  0.2188 -0.2123  2.7511
 4825SOL     OW26107   3.856   1.508   6.367  0.2504  0.0096 -0.3342
 4825SOL    HW126108   3.776   1.514   6.315  1.8907  0.3614 -2.8139
 4825SOL    HW226109   3.912   1.457   6.309  0.9684 -0.7055  0.9945
 4826SOL     OW26110   3.911   2.470   2.928  0.1554 -0.1026  0.3173
 4826SOL    HW126111   4.004   2.494   2.936  0.3647  0.0190 -2.3595
 4826SOL    HW226112   3.881   2.536   2.989  0.1151 -0.0257  0.2149
 4827SOL     OW26113   2.475   0.480   8.900 -0.1784  0.2130  0.6019
 4827SOL    HW126114   2.434   0.464   8.985 -1.2055  0.7620  0.2138
 4827SOL    HW226115   2.549   0.537   8.920  1.4626 -1.5226 -0.5495
 4828SOL     OW26116   2.189   3.020  12.508 -0.0923 -0.2241  0.1978
 4828SOL    HW126117   2.102   2.982  12.495  0.4827 -1.8779  1.1624
 4828SOL    HW226118   2.191   3.023  12.603 -0.4258  0.5431  0.1835
 4829SOL     OW26119   1.249   0.458   3.142 -0.3212 -0.1866 -0.1717
 4829SOL    HW126120   1.231   0.376   3.188  2.4356 -0.5939  0.2014
 4829SOL    HW226121   1.194   0.521   3.188 -0.6713  0.0859 -0.9597
 4830SOL     OW26122   3.861   2.640  10.176  0.4677 -0.2955  0.2235
 4830SOL    HW126123   3.872   2.600  10.262 -1.1198 -0.6830  0.2498
 4830SOL    HW226124   3.939   2.614  10.126 -0.1183  0.5754 -1.1543
 4831SOL     OW26125   0.641   0.003   2.720 -0.4514  0.3287 -0.2900
 4831SOL    HW126126   0.624   0.055   2.641 -0.9216  0.3917 -0.1509
 4831SOL    HW226127   0.736   4.730   2.717 -0.7792 -1.4712 -4.1197
 4832SOL     OW26128   1.297   4.345   2.160 -0.5536  0.1773  0.7061
 4832SOL    HW126129   1.220   4.293   2.182 -1.5787  0.5975 -1.8496
 4832SOL    HW226130   1.268   4.436   2.171 -0.0136  0.4796 -0.3292
 4833SOL     OW26131   1.674   2.009   2.463 -0.6037  0.0521  0.1313
 4833SOL    HW126132   1.721   1.981   2.384 -0.1674 -1.5991  0.9884
 4833SOL    HW226133   1.738   1.987   2.530 -1.4719  1.0932  1.3075
 4834SOL     OW26134   3.858   0.276   8.569  0.4410  0.3423 -0.0470
 4834SOL    HW126135   3.814   0.311   8.646 -0.2657  1.5132 -1.0003
 4834SOL    HW226136   3.896   0.351   8.524  1.1628  1.2048  1.9610
 4835SOL     OW26137   0.026   0.059  14.472  0.0437  0.5043 -0.0997
 4835SOL    HW126138   0.080   0.058  14.393 -1.9256 -1.1578 -1.4326
 4835SOL    HW226139   0.060   0.129  14.527  0.3995 -1.1779  1.8002
 4836SOL     OW26140   3.264   1.820   6.326 -0.4834  0.5465 -0.3509
 4836SOL    HW126141   3.334   1.885   6.327 -0.9446  1.1072 -3.0516
 4836SOL    HW226142   3.228   1.843   6.411  0.9169 -2.8480  1.1556
 4837SOL     OW26143   0.171   2.953   3.182  0.3051  0.2967  0.3718
 4837SOL    HW126144   0.093   2.911   3.217 -0.8542  2.2314  0.1359
 4837SOL    HW226145   0.209   2.997   3.258 -2.3715  1.1580  1.2167
 4838SOL     OW26146   4.106   4.465  13.862  0.1090  0.4162  0.0098
 4838SOL    HW126147   4.061   4.386  13.892 -0.9100  0.7441 -0.6460
 4838SOL    HW226148   4.070   4.531  13.922 -2.3664 -1.4052  0.5398
 4839SOL     OW26149   0.596   1.009   6.699 -0.2769 -0.3328 -0.2073
 4839SOL    HW126150   0.597   1.047   6.787  0.4949 -1.2168  0.1734
 4839SOL    HW226151   0.688   1.007   6.672 -0.4162 -0.6990 -0.6540
 4840SOL     OW26152   1.250   4.561   1.570  0.3244 -0.1077 -0.3219
 4840SOL    HW126153   1.207   4.481   1.541  0.2873  0.3720 -1.6014
 4840SOL    HW226154   1.338   4.526   1.581  0.6778  0.6019 -0.8602
 4841SOL     OW26155   3.829   4.329   2.067  0.2347 -0.2018  0.0127
 4841SOL    HW126156   3.819   4.295   1.978  1.8039 -1.6902  0.4041
 4841SOL    HW226157   3.919   4.361   2.066  0.0535  0.3034 -0.0549
 4842SOL     OW26158   4.209   3.886   3.860  0.3305 -0.2353 -0.3411
 4842SOL    HW126159   4.210   3.809   3.803  0.1679 -0.8318  0.4536
 4842SOL    HW226160   4.286   3.930   3.824  0.0939 -1.5234 -2.4405
 4843SOL     OW26161   2.956   2.004   6.403  0.8031  0.0489 -0.0102
 4843SOL    HW126162   2.907   1.956   6.336  2.2169 -2.1240  0.5391
 4843SOL    HW226163   2.887   2.065   6.432 -0.6094 -1.2880 -0.5787
 4844SOL     OW26164   2.974   1.553   5.429  0.3548  0.9332  0.2655
 4844SOL    HW126165   3.019   1.475   5.397 -0.4435 -0.8294  3.4568
 4844SOL    HW226166   2.891   1.515   5.457  0.9635  0.1512  1.0102
 4845SOL     OW26167   3.866   0.986  16.458  0.2256 -0.7714 -0.4910
 4845SOL    HW126168   3.878   0.970  16.364  2.3765 -0.2804 -0.3017
 4845SOL    HW226169   3.792   1.046  16.467  0.0510 -0.9023 -1.0395
 4846SOL     OW26170   0.699   3.088   6.354  0.2490 -0.2938 -0.2535
 4846SOL    HW126171   0.610   3.093   6.390  0.2148  2.6159 -0.6969
 4846SOL    HW226172   0.751   3.088   6.434 -1.4404  1.1193  0.8527
 4847SOL     OW26173   0.490   4.590   4.447  0.3247  0.4628 -0.0631
 4847SOL    HW126174   0.551   4.550   4.384 -0.0086 -0.9814  0.5367
 4847SOL    HW226175   0.531   4.677   4.452  1.7286 -0.2519  0.7168
 4848SOL     OW26176   0.590   2.157   3.467  0.4976 -0.2709  0.0833
 4848SOL    HW126177   0.578   2.121   3.554  1.3858 -2.0524 -0.5256
 4848SOL    HW226178   0.603   2.247   3.496 -0.6385  0.5059 -1.8130
 4849SOL     OW26179   2.216   2.515   2.675  0.0485  0.0873  0.7107
 4849SOL    HW126180   2.126   2.502   2.703 -0.1722  0.5192  0.2140
 4849SOL    HW226181   2.252   2.460   2.744  3.2991  0.5625 -0.6035
 4850SOL     OW26182   0.956   4.153   3.545 -0.0745  0.1611 -0.5178
 4850SOL    HW126183   0.906   4.213   3.489  0.0706  0.5195 -0.2661
 4850SOL    HW226184   0.931   4.070   3.505  2.4224 -0.6363 -0.4246
 4851SOL     OW26185   2.165   4.231   4.312  0.2313 -0.0098  0.3573
 4851SOL    HW126186   2.161   4.263   4.403 -1.5710 -2.7902  1.2755
 4851SOL    HW226187   2.184   4.137   4.317  2.0811  0.3339 -0.0609
 4852SOL     OW26188   4.315   0.392   2.654  0.6648 -0.2532  0.0454
 4852SOL    HW126189   4.300   0.463   2.717 -0.0874  1.0585 -1.6119
 4852SOL    HW226190   4.346   0.430   2.572 -0.9929  1.6752  0.3213
 4853SOL     OW26191   4.666   1.869  15.338  0.4723 -0.3214  0.0321
 4853SOL    HW126192   4.702   1.834  15.419 -1.6597 -0.6946  0.8269
 4853SOL    HW226193   4.666   1.963  15.354  0.4242  0.5188 -4.6761
 4854SOL     OW26194   3.971   3.435  15.877  0.0192 -0.0498  0.2851
 4854SOL    HW126195   3.902   3.499  15.889 -0.3658 -0.4407  0.1619
 4854SOL    HW226196   4.006   3.477  15.798  0.0239  0.4653  0.5600
 4855SOL     OW26197   1.317   2.882   8.770  0.7146  0.4588 -0.6614
 4855SOL    HW126198   1.378   2.909   8.702 -0.2952 -0.4209 -1.9163
 4855SOL    HW226199   1.348   2.792   8.782 -1.9748 -0.2763  0.9099
 4856SOL     OW26200   2.085   4.648   7.936  0.5916  0.5775 -0.4925
 4856SOL    HW126201   2.024   4.714   7.968 -1.2126 -1.0217 -0.6051
 4856SOL    HW226202   2.111   4.682   7.851 -0.9706 -0.6553 -1.4789
 4857SOL     OW26203   1.481   1.716  11.500  0.1224  0.3250 -0.2265
 4857SOL    HW126204   1.575   1.702  11.509  0.0622 -0.1103 -0.2909
 4857SOL    HW226205   1.477   1.790  11.561  1.9082  1.2318 -1.2240
 4858SOL     OW26206   0.649   1.295   6.081 -0.3349  0.0358  0.9530
 4858SOL    HW126207   0.581   1.347   6.038 -0.9648 -1.7167 -0.1878
 4858SOL    HW226208   0.688   1.364   6.135 -1.8503  0.4836  1.4848
 4859SOL     OW26209   0.200   3.434   2.267  0.3415 -0.7500  0.0981
 4859SOL    HW126210   0.128   3.383   2.228 -0.0774  1.4727 -2.0165
 4859SOL    HW226211   0.251   3.455   2.188  0.5156  0.2797  0.4835
 4860SOL     OW26212   0.314   1.704   4.955  0.4154 -0.1224 -0.2500
 4860SOL    HW126213   0.372   1.761   5.006 -0.6725 -0.3590  1.2699
 4860SOL    HW226214   0.236   1.714   5.010  1.1577  0.4144  0.7000
 4861SOL     OW26215   4.057   0.562   4.091  0.9195  0.0709 -0.2320
 4861SOL    HW126216   4.149   0.542   4.107  0.1223 -3.1380  0.3359
 4861SOL    HW226217   4.055   0.587   3.998  0.1333  1.8575  0.2722
 4862SOL     OW26218   4.318   3.523   3.153 -0.1356 -0.2933  0.1158
 4862SOL    HW126219   4.266   3.464   3.208 -0.6494  0.2730  0.2340
 4862SOL    HW226220   4.368   3.460   3.100 -0.2125 -0.7633  0.6002
 4863SOL     OW26221   2.352   4.092  14.905  0.0248  0.2768  0.0831
 4863SOL    HW126222   2.367   4.172  14.956  1.1423 -0.9699  1.7238
 4863SOL    HW226223   2.419   4.096  14.837  1.6147  1.9093  1.7244
 4864SOL     OW26224   3.555   2.823   4.854  0.1552  0.0882 -0.1500
 4864SOL    HW126225   3.535   2.777   4.935 -1.0710  0.2935 -0.3471
 4864SOL    HW226226   3.607   2.889   4.901 -0.0614 -0.4352  0.8228
 4865SOL     OW26227   3.958   1.802   9.279  0.5467  0.3672 -0.5733
 4865SOL    HW126228   3.933   1.868   9.345 -0.5633 -0.3323 -0.2890
 4865SOL    HW226229   3.891   1.824   9.214  0.0127  1.4401  0.3302
 4866SOL     OW26230   0.968   2.040   7.615  0.1676 -1.0102  0.3632
 4866SOL    HW126231   1.039   2.046   7.678  1.0446 -1.5152 -0.5878
 4866SOL    HW226232   0.916   2.118   7.636 -2.0992 -1.8309 -2.1889
 4867SOL     OW26233   1.197   0.552   8.363  0.1499  0.5016 -0.1230
 4867SOL    HW126234   1.283   0.522   8.332 -0.6924 -1.8081 -0.2382
 4867SOL    HW226235   1.142   0.542   8.285  0.1901  1.3691 -0.2587
 4868SOL     OW26236   2.652   1.733   7.952 -0.0898  0.1819 -0.1039
 4868SOL    HW126237   2.642   1.678   7.875 -1.6742  0.5644 -0.1748
 4868SOL    HW226238   2.570   1.708   7.994 -1.8489  3.3634 -1.6830
 4869SOL     OW26239   1.557   0.220   8.986 -0.1828  0.2192 -0.0840
 4869SOL    HW126240   1.493   0.288   8.966  2.4375  1.6739 -3.5426
 4869SOL    HW226241   1.502   0.143   8.975  1.0858 -0.9565  1.7235
 4870SOL     OW26242   1.571   0.275  13.542  0.2051 -0.5321 -0.3393
 4870SOL    HW126243   1.644   0.231  13.586  1.3734  0.2066 -1.5268
 4870SOL    HW226244   1.554   0.222  13.464  0.6409 -0.2345 -0.6403
 4871SOL     OW26245   3.025   2.073   4.897 -0.4757 -0.3685 -0.6152
 4871SOL    HW126246   2.945   2.097   4.945  0.2071  0.2236  0.2259
 4871SOL    HW226247   3.010   1.979   4.888  3.0770 -1.1048  1.4812
 4872SOL     OW26248   3.536   0.426   3.251 -0.3613 -0.4243 -0.5776
 4872SOL    HW126249   3.544   0.489   3.179 -0.3389  0.7807  0.4809
 4872SOL    HW226250   3.457   0.378   3.226  0.7864 -1.4971 -2.1160
 4873SOL     OW26251   3.797   4.293   6.404 -0.4532 -0.0003  0.1051
 4873SOL    HW126252   3.878   4.340   6.388 -0.5882  0.0578 -0.4070
 4873SOL    HW226253   3.779   4.311   6.496  0.9503 -1.9060  0.7522
 4874SOL     OW26254   0.173   1.654   8.498 -0.3453 -0.2382  0.4147
 4874SOL    HW126255   0.197   1.650   8.406  2.3054 -0.0948  1.0728
 4874SOL    HW226256   0.149   1.744   8.520 -0.6455  0.1392 -1.5284
 4875SOL     OW26257   2.017   4.072   9.964 -0.2400 -0.1159 -0.6522
 4875SOL    HW126258   1.963   4.137  10.010 -0.0641 -0.1893 -0.3442
 4875SOL    HW226259   2.103   4.112   9.960 -0.7065  0.9575 -0.0923
 4876SOL     OW26260   2.068   1.607   8.407  0.6113  0.4631 -0.0282
 4876SOL    HW126261   2.030   1.608   8.495 -2.8970  1.8302 -1.5558
 4876SOL    HW226262   2.109   1.693   8.395  0.2344  0.3635 -2.1203
 4877SOL     OW26263   4.736   2.951   7.730  0.1843  0.2212 -0.5135
 4877SOL    HW126264   0.042   2.987   7.808 -0.4845 -1.4207  0.6091
 4877SOL    HW226265   4.649   2.937   7.769  0.3230  1.5106  0.2807
 4878SOL     OW26266   3.375   2.615   3.282 -0.6240 -0.2195 -0.3091
 4878SOL    HW126267   3.454   2.666   3.304 -1.2733  0.4293  0.5340
 4878SOL    HW226268   3.306   2.627   3.348 -0.6928 -0.7989 -0.2815
 4879SOL     OW26269   4.612   1.774   8.374  0.1066  0.2204 -0.6658
 4879SOL    HW126270   4.557   1.732   8.440  0.0809 -2.3285 -2.2787
 4879SOL    HW226271   4.671   1.828   8.426  1.1529 -0.1932 -1.4114
 4880SOL     OW26272   0.039   0.467   2.407  0.6389 -0.4800  0.0683
 4880SOL    HW126273   0.132   0.467   2.431  0.9463 -0.7328 -1.1559
 4880SOL    HW226274   0.035   0.425   2.322  3.0977 -1.0723  0.2468
 4881SOL     OW26275   4.141   4.030  12.512  0.7564  0.4225  0.8035
 4881SOL    HW126276   4.196   4.024  12.434  0.7639 -0.6327  0.8955
 4881SOL    HW226277   4.170   3.952  12.560  0.4381  1.3617  2.5557
 4882SOL     OW26278   0.445   1.042   4.784  0.4392 -0.0936 -0.1755
 4882SOL    HW126279   0.398   1.080   4.711  0.0559  0.4893  0.3766
 4882SOL    HW226280   0.512   1.108   4.799  0.4841 -0.4266  1.0783
 4883SOL     OW26281   3.196   1.464   6.058  0.1136 -0.5086 -0.2299
 4883SOL    HW126282   3.271   1.475   6.117  1.4933 -2.1383 -1.6814
 4883SOL    HW226283   3.140   1.536   6.085 -0.4731 -1.1905  0.3721
 4884SOL     OW26284   3.799   2.643   9.392 -0.4632 -0.1892  0.3178
 4884SOL    HW126285   3.731   2.580   9.370  0.9034 -1.4189 -0.3758
 4884SOL    HW226286   3.767   2.724   9.353 -2.7739 -0.6409  1.2897
 4885SOL     OW26287   1.060   0.848  12.370  0.3253 -0.1693  0.1744
 4885SOL    HW126288   1.084   0.831  12.461 -0.9755  0.0181  0.5502
 4885SOL    HW226289   0.992   0.782  12.354  1.6025 -0.9475 -2.1993
 4886SOL     OW26290   0.297   1.667   5.533 -0.0428  0.2779  0.4076
 4886SOL    HW126291   0.240   1.707   5.467 -1.4855  0.6083  1.8658
 4886SOL    HW226292   0.281   1.574   5.521 -1.6932  0.6249 -0.1144
 4887SOL     OW26293   4.568   3.029   5.771 -0.3607 -0.8113 -1.0167
 4887SOL    HW126294   4.649   2.978   5.771  0.9108  1.2325  0.9927
 4887SOL    HW226295   4.592   3.089   5.701  1.3554  0.1394  0.4126
 4888SOL     OW26296   1.849   2.461   8.217  0.1924  0.9903  0.8049
 4888SOL    HW126297   1.915   2.476   8.149 -0.1955  0.9547  0.4162
 4888SOL    HW226298   1.808   2.546   8.205  0.1930  0.6865 -1.4247
 4889SOL     OW26299   0.094   0.891  12.743  0.5074  0.1478  0.0227
 4889SOL    HW126300   0.095   0.983  12.767 -0.0092  0.3796 -0.8424
 4889SOL    HW226301   0.166   0.889  12.681 -0.3875 -0.6357 -0.9973
 4890SOL     OW26302   4.652   0.755  15.275  0.0328 -0.3005  0.2577
 4890SOL    HW126303   4.677   0.682  15.220  0.7808 -0.8384  1.3103
 4890SOL    HW226304   4.703   0.731  15.353 -1.3030 -1.2920  0.8208
 4891SOL     OW26305   0.255   4.367   7.586  0.0739  0.3946 -0.3771
 4891SOL    HW126306   0.179   4.396   7.535  0.1611  0.3656 -0.5248
 4891SOL    HW226307   0.273   4.276   7.563  1.6146  0.1511  1.8996
 4892SOL     OW26308   4.544   2.207   6.707  0.1992 -0.5631  0.2000
 4892SOL    HW126309   4.454   2.177   6.696 -0.1567  0.7908 -0.6781
 4892SOL    HW226310   4.597   2.133   6.680  1.4654  0.4688 -0.1275
 4893SOL     OW26311   1.028   3.152   7.175 -0.2167  0.1808  0.1129
 4893SOL    HW126312   1.033   3.241   7.212 -1.7507 -0.5088  1.9656
 4893SOL    HW226313   0.935   3.136   7.162 -0.3562  0.6613  0.5148
 4894SOL     OW26314   0.935   0.226  11.378  0.2724  0.1602  0.2383
 4894SOL    HW126315   0.860   0.245  11.435  0.4546 -0.4345  0.6766
 4894SOL    HW226316   0.924   0.132  11.363  0.8917  0.2896 -1.0138
 4895SOL     OW26317   3.525   1.624   3.725 -0.0092  0.0369  0.1010
 4895SOL    HW126318   3.470   1.663   3.656 -0.5115 -0.5071  0.1936
 4895SOL    HW226319   3.570   1.702   3.757 -0.4029  0.2798  0.0699
 4896SOL     OW26320   3.924   0.843   4.332  0.4759 -0.2843  0.3124
 4896SOL    HW126321   3.968   0.866   4.250 -2.6581 -1.4762 -1.7177
 4896SOL    HW226322   3.921   0.923   4.384  0.5708 -0.5312  0.6977
 4897SOL     OW26323   3.705   0.176   9.390  0.3004  0.8125  0.1420
 4897SOL    HW126324   3.732   0.085   9.386  0.0845  0.7971 -1.0306
 4897SOL    HW226325   3.704   0.204   9.299 -1.2562  1.0843  0.2447
 4898SOL     OW26326   0.155   1.420   8.151  0.2203 -0.2298 -0.1086
 4898SOL    HW126327   0.149   1.513   8.172  0.4974  0.2679 -2.2936
 4898SOL    HW226328   0.068   1.391   8.122  1.6934 -3.1741 -1.5299
 4899SOL     OW26329   2.487   3.929  14.107 -0.2054  0.4579  0.0852
 4899SOL    HW126330   2.440   4.004  14.072 -1.5878 -0.1435  0.6561
 4899SOL    HW226331   2.419   3.873  14.145 -0.8439  0.5537 -0.8913
 4900SOL     OW26332   0.379   2.800  10.914  0.5787 -0.4094 -0.0023
 4900SOL    HW126333   0.378   2.804  11.010  2.2391 -1.0001  0.0378
 4900SOL    HW226334   0.388   2.886  10.874  1.0691 -0.8270 -0.7939
 4901SOL     OW26335   2.635   2.589   3.264 -0.8638  0.3127  0.1939
 4901SOL    HW126336   2.546   2.621   3.252 -1.3079 -0.4582  1.5201
 4901SOL    HW226337   2.633   2.506   3.217 -1.1869  0.2456  0.3280
 4902SOL     OW26338   3.772   2.994   4.698 -0.4582  0.1020  0.2421
 4902SOL    HW126339   3.792   3.022   4.787  0.0039  3.1648 -0.8192
 4902SOL    HW226340   3.862   2.991   4.663 -0.1052  0.0989  1.1682
 4903SOL     OW26341   2.343   0.054   5.260 -0.1646 -0.1425  0.0815
 4903SOL    HW126342   2.334   4.726   5.331 -0.2880  0.2673  0.4445
 4903SOL    HW226343   2.438   0.066   5.270  0.1237 -0.9947 -1.7650
 4904SOL     OW26344   4.142   1.904  11.235 -0.4980 -1.0760  0.0981
 4904SOL    HW126345   4.130   1.881  11.143  0.7337 -1.1280 -0.0549
 4904SOL    HW226346   4.124   1.823  11.284 -1.0092 -1.1341 -0.1868
 4905SOL     OW26347   2.794   2.809   5.016  0.3090 -0.1573 -0.1655
 4905SOL    HW126348   2.868   2.869   5.005 -1.3208  1.4545 -2.4020
 4905SOL    HW226349   2.792   2.797   5.110 -0.7359 -3.5200 -0.6255
 4906SOL     OW26350   4.208   4.207   8.016 -0.1380  0.1797  0.4087
 4906SOL    HW126351   4.116   4.226   8.001 -1.2673 -2.6256  3.9336
 4906SOL    HW226352   4.223   4.257   8.096 -2.5841  0.5888  0.5974
 4907SOL     OW26353   2.360   2.937   7.165 -0.3746 -0.3080 -0.4017
 4907SOL    HW126354   2.330   2.860   7.117  0.5039 -1.6596  1.1991
 4907SOL    HW226355   2.325   2.923   7.253 -0.6531  0.9710 -0.3068
 4908SOL     OW26356   0.689   0.281  17.646 -0.0253  0.1158  0.0477
 4908SOL    HW126357   0.744   0.249  17.718  0.9308  0.1479 -0.6696
 4908SOL    HW226358   0.731   0.365  17.627 -0.1023  0.7068  2.4510
 4909SOL     OW26359   4.271   0.122   9.000 -0.4683  0.5670 -0.9920
 4909SOL    HW126360   4.318   0.205   9.008  0.5280 -0.2428  1.4449
 4909SOL    HW226361   4.261   0.121   8.905 -0.0863 -0.1056 -1.0211
 4910SOL     OW26362   2.678   2.953   7.260  0.5937 -0.5701  0.0805
 4910SOL    HW126363   2.747   2.892   7.285  0.3551 -1.6420 -1.8576
 4910SOL    HW226364   2.724   3.034   7.280 -0.8300  0.4364 -0.6996
 4911SOL     OW26365   0.317   0.178   2.471  0.0720  0.6312  0.1555
 4911SOL    HW126366   0.411   0.162   2.482  0.3467  1.6942 -0.7002
 4911SOL    HW226367   0.315   0.172   2.375  0.4187 -0.3472  0.2029
 4912SOL     OW26368   4.208   3.666   7.435  0.2633  0.3696 -0.4080
 4912SOL    HW126369   4.249   3.743   7.396 -0.5562  0.1348 -1.7446
 4912SOL    HW226370   4.174   3.710   7.513 -2.6794  0.1963 -1.5992
 4913SOL     OW26371   4.542   4.223   8.037 -0.4797 -0.1591 -0.7185
 4913SOL    HW126372   4.547   4.237   8.131 -0.8875  1.9954 -1.0046
 4913SOL    HW226373   4.448   4.223   8.021 -1.0624 -1.0155  2.9280
 4914SOL     OW26374   2.852   1.990   3.464 -0.0706  0.9547  0.0011
 4914SOL    HW126375   2.874   1.897   3.472  0.0809  0.6597 -4.1261
 4914SOL    HW226376   2.922   2.028   3.515  0.3234  2.0811 -1.3969
 4915SOL     OW26377   0.283   4.551  15.770 -0.0638  0.2682  0.0947
 4915SOL    HW126378   0.345   4.482  15.748  0.8389  0.9136  0.6274
 4915SOL    HW226379   0.287   4.546  15.866  1.3182 -0.5615 -0.0039
 4916SOL     OW26380   4.579   3.563   5.738  0.2376  0.4519  0.1960
 4916SOL    HW126381   4.570   3.546   5.644  1.0581 -0.5304  0.2953
 4916SOL    HW226382   4.582   3.658   5.734 -2.5710  0.5109 -0.5778
 4917SOL     OW26383   2.723   1.618   4.549 -0.9487 -0.0373 -0.2169
 4917SOL    HW126384   2.743   1.710   4.567 -0.0028 -0.2754 -0.0658
 4917SOL    HW226385   2.774   1.567   4.612  1.0968  1.6574 -0.4915
 4918SOL     OW26386   1.967   2.939   5.862  0.3767 -0.3064  0.3992
 4918SOL    HW126387   1.903   3.010   5.861 -1.3461 -1.8672 -0.2301
 4918SOL    HW226388   2.046   2.994   5.870 -0.2394  0.7324 -0.8288
 4919SOL     OW26389   1.667   0.160   6.628 -0.4149 -0.0498 -0.2616
 4919SOL    HW126390   1.578   0.192   6.641  0.5229  2.8172 -0.7580
 4919SOL    HW226391   1.658   0.065   6.624 -1.1837 -0.0697  1.8774
 4920SOL     OW26392   0.504   1.127   5.641 -0.0357  0.4600  0.4791
 4920SOL    HW126393   0.527   1.044   5.599  0.0389 -0.1572  1.7147
 4920SOL    HW226394   0.541   1.198   5.589 -0.7602  1.4768  1.3452
 4921SOL     OW26395   4.677   1.110   5.676 -0.1176 -0.3648 -0.3611
 4921SOL    HW126396   4.632   1.187   5.712  2.5671  0.1818  1.8472
 4921SOL    HW226397   4.684   1.045   5.745 -2.3918  0.6265  0.8001
 4922SOL     OW26398   0.815   0.983  14.059  0.1730  0.5171 -0.2141
 4922SOL    HW126399   0.806   0.987  14.154  1.7885  0.7261 -0.0700
 4922SOL    HW226400   0.800   1.072  14.029 -0.3384 -0.4967 -3.0293
 4923SOL     OW26401   1.774   3.608   8.610 -0.5468  0.0167  0.2367
 4923SOL    HW126402   1.710   3.678   8.619  0.5848  0.9334  1.0118
 4923SOL    HW226403   1.718   3.533   8.631  1.8950 -1.5609  1.1132
 4924SOL     OW26404   0.489   4.332   6.901 -0.0868  0.6718  0.2300
 4924SOL    HW126405   0.560   4.381   6.942 -0.9580  1.7778  0.4094
 4924SOL    HW226406   0.532   4.247   6.906 -1.0328  0.2377  0.8396
 4925SOL     OW26407   3.743   4.526   1.053  0.1254 -0.1037  0.3118
 4925SOL    HW126408   3.670   4.508   0.994  0.3127 -0.5523  0.2156
 4925SOL    HW226409   3.771   4.608   1.014  2.0386 -0.4599  0.9744
 4926SOL     OW26410   3.844   1.806   9.564  0.8369 -0.2241  0.3630
 4926SOL    HW126411   3.793   1.801   9.645  1.8992 -2.2086  0.8840
 4926SOL    HW226412   3.798   1.872   9.512  1.6321  1.0751  1.3004
 4927SOL     OW26413   1.180   4.015   3.253  0.6487  0.2735  0.4514
 4927SOL    HW126414   1.124   3.956   3.204  0.3466  0.2507  0.8186
 4927SOL    HW226415   1.136   4.030   3.337 -0.5512  2.5834 -0.5872
 4928SOL     OW26416   0.997   3.526   1.748 -0.7045  0.0031  0.2008
 4928SOL    HW126417   1.055   3.589   1.790 -0.8501  0.6408 -0.5292
 4928SOL    HW226418   0.987   3.553   1.656 -0.9553 -1.0539 -0.0853
 4929SOL     OW26419   2.550   3.948   5.389 -0.1019  0.1060  0.0313
 4929SOL    HW126420   2.464   3.951   5.347  0.1681 -0.4182 -0.5592
 4929SOL    HW226421   2.535   4.019   5.451  0.6707  0.1848  0.1233
 4930SOL     OW26422   4.491   3.156   7.229  0.3503  0.0343 -0.8415
 4930SOL    HW126423   4.565   3.182   7.174  1.2777  1.5907  1.1263
 4930SOL    HW226424   4.535   3.163   7.314 -2.7776 -1.2864  0.8890
 4931SOL     OW26425   3.316   3.111   8.508 -0.1508  0.0861  0.1012
 4931SOL    HW126426   3.284   3.059   8.435  0.5412 -0.3055  0.0805
 4931SOL    HW226427   3.319   3.196   8.465  1.1430  0.5825  1.1712
 4932SOL     OW26428   0.284   1.746   2.903  0.2844  0.2342 -0.0961
 4932SOL    HW126429   0.306   1.734   2.811 -2.0607  1.4668 -0.8042
 4932SOL    HW226430   0.191   1.727   2.905  0.6479 -1.5110  0.5007
 4933SOL     OW26431   2.042   3.823   8.539 -0.0519 -0.3746 -0.0375
 4933SOL    HW126432   2.124   3.868   8.518 -0.7094  0.7089 -0.2629
 4933SOL    HW226433   2.014   3.877   8.613 -1.4648 -0.2813 -0.6449
 4934SOL     OW26434   1.486   1.868  13.353 -0.0225  0.0252  0.2133
 4934SOL    HW126435   1.506   1.817  13.274 -1.9579  0.2540 -0.4359
 4934SOL    HW226436   1.403   1.831  13.381 -0.1214  0.8964  1.0695
 4935SOL     OW26437   0.400   3.734  17.643  0.4793  0.2901  0.1608
 4935SOL    HW126438   0.441   3.675  17.706 -1.0486  1.6601  2.4364
 4935SOL    HW226439   0.452   3.715  17.565  2.4667  2.1149  1.0439
 4936SOL     OW26440   3.834   2.590   2.198  0.7070 -0.2912  0.0879
 4936SOL    HW126441   3.785   2.669   2.177  0.1001 -0.3013  1.4148
 4936SOL    HW226442   3.839   2.611   2.292  2.5777 -0.7070  0.0913
 4937SOL     OW26443   2.891   3.077   6.184 -0.5789  0.6718  0.5080
 4937SOL    HW126444   2.918   3.079   6.276  1.3239  3.2845 -0.0852
 4937SOL    HW226445   2.927   3.161   6.155 -1.5255  0.6417 -0.7281
 4938SOL     OW26446   2.045   3.421   4.395 -0.0114 -0.1098 -0.3937
 4938SOL    HW126447   2.045   3.390   4.486 -0.2724 -0.0071 -0.3611
 4938SOL    HW226448   2.057   3.515   4.410  1.1437 -0.4796  1.0284
 4939SOL     OW26449   1.035   0.188   7.692  0.2330 -0.0374  0.3500
 4939SOL    HW126450   1.024   0.282   7.702 -2.4643 -0.5935  2.7745
 4939SOL    HW226451   0.945   0.159   7.706  0.7797 -2.6018 -1.4226
 4940SOL     OW26452   1.062   2.406  10.396  0.0485  0.2259  0.4447
 4940SOL    HW126453   0.995   2.369  10.454 -2.6917 -0.2767 -3.0291
 4940SOL    HW226454   1.084   2.324  10.352 -0.8321  0.4465 -0.4196
 4941SOL     OW26455   1.769   0.350   3.407  0.2347 -0.9248  0.0834
 4941SOL    HW126456   1.701   0.408   3.373 -0.6062 -0.8470  1.9121
 4941SOL    HW226457   1.717   0.270   3.409 -1.7018  0.2725 -2.3216
 4942SOL     OW26458   0.315   1.711   7.506  0.1754  0.0384 -0.2177
 4942SOL    HW126459   0.360   1.795   7.514  1.2214 -0.4033 -1.5818
 4942SOL    HW226460   0.350   1.670   7.585  2.1116  0.7135 -0.7256
 4943SOL     OW26461   1.197   2.933   0.363  0.1538  0.6785 -0.2352
 4943SOL    HW126462   1.243   2.851   0.349  1.6685  1.2429  1.4223
 4943SOL    HW226463   1.121   2.909   0.310 -1.2450  0.6504  1.7598
 4944SOL     OW26464   3.482   0.506   9.379  0.1828  0.0156  0.0272
 4944SOL    HW126465   3.392   0.540   9.380 -0.1742 -0.9299  0.5517
 4944SOL    HW226466   3.523   0.572   9.435 -0.6755  0.1966  0.4499
 4945SOL     OW26467   2.944   0.879   5.623  0.2088  0.3600  0.5640
 4945SOL    HW126468   2.991   0.896   5.542  0.4109  0.1678  0.6423
 4945SOL    HW226469   2.962   0.959   5.674  2.0150  0.4555 -0.2235
 4946SOL     OW26470   1.554   3.368   1.660 -0.3643  0.6004  0.4065
 4946SOL    HW126471   1.477   3.423   1.656 -0.2264  0.9547  2.7285
 4946SOL    HW226472   1.569   3.344   1.751 -0.1769 -3.3863 -0.6325
 4947SOL     OW26473   2.376   4.626   7.174  0.5035  0.1073 -0.2736
 4947SOL    HW126474   2.314   4.637   7.245  0.3323 -0.1702 -0.3815
 4947SOL    HW226475   2.459   4.638   7.221  1.0533  0.4986 -1.3244
 4948SOL     OW26476   2.106   4.383   7.989 -0.0088 -0.9942  0.1361
 4948SOL    HW126477   2.092   4.401   8.082  1.7491  1.0586 -0.0081
 4948SOL    HW226478   2.108   4.474   7.959  0.8650 -0.3960  1.9958
 4949SOL     OW26479   0.527   3.384   4.811  0.2743  0.2046  0.2107
 4949SOL    HW126480   0.612   3.349   4.837 -0.8250 -0.8668  2.2840
 4949SOL    HW226481   0.467   3.310   4.819  1.1691 -0.4961  0.3874
 4950SOL     OW26482   2.833   0.554   7.534  0.2483 -0.1196  0.1528
 4950SOL    HW126483   2.790   0.593   7.611  1.5943 -0.5969  1.1448
 4950SOL    HW226484   2.778   0.593   7.467 -0.7322  0.2101  1.1492
 4951SOL     OW26485   1.411   2.527   7.616 -0.5445 -0.7986 -0.0611
 4951SOL    HW126486   1.372   2.442   7.637  0.1973 -1.2190 -0.3657
 4951SOL    HW226487   1.506   2.512   7.620 -0.2760  0.1041 -3.0151
 4952SOL     OW26488   2.646   0.086   8.573  0.7508  0.6576 -0.3905
 4952SOL    HW126489   2.593   0.085   8.494  0.3327  1.6928 -0.1251
 4952SOL    HW226490   2.717   0.143   8.544 -0.5534  1.1972 -2.5467
 4953SOL     OW26491   4.022   3.504   4.498 -0.0167 -0.1563 -0.5824
 4953SOL    HW126492   4.065   3.502   4.413  0.9333 -1.0240 -0.0869
 4953SOL    HW226493   4.066   3.572   4.549  0.2400 -0.5843 -0.2265
 4954SOL     OW26494   3.324   0.239  15.998 -0.2727 -0.6229  0.4923
 4954SOL    HW126495   3.317   0.293  15.920  1.8278 -0.1269  0.6325
 4954SOL    HW226496   3.401   0.283  16.033 -1.5580  2.1644 -0.2024
 4955SOL     OW26497   2.333   0.035   3.121 -0.1227  0.0099 -0.2233
 4955SOL    HW126498   2.396   0.093   3.164  0.0373 -1.1057  1.0496
 4955SOL    HW226499   2.374   4.687   3.100  1.7415  0.4143  1.8647
 4956SOL     OW26500   0.915   0.845   7.996  0.5377 -0.4462 -0.0424
 4956SOL    HW126501   0.906   0.829   8.090 -1.0740 -0.6419 -0.2313
 4956SOL    HW226502   1.008   0.859   7.978  0.3956  0.7254  0.1149
 4957SOL     OW26503   2.670   2.603   7.453 -0.0499 -0.4759 -0.0243
 4957SOL    HW126504   2.601   2.627   7.391  1.5681  0.4549 -1.4734
 4957SOL    HW226505   2.631   2.647   7.529  0.8572  0.5102 -0.1180
 4958SOL     OW26506   4.134   2.895  13.037  0.5057  0.8068  0.2830
 4958SOL    HW126507   4.116   2.831  13.106 -2.5121  1.2039 -0.1481
 4958SOL    HW226508   4.130   2.834  12.963  0.1691  1.5648 -0.3277
 4959SOL     OW26509   2.122   3.424  16.928 -0.1959  0.1603 -0.7828
 4959SOL    HW126510   2.132   3.513  16.896 -0.9026  0.6257  0.3256
 4959SOL    HW226511   2.063   3.393  16.859 -3.2687  1.1679  1.4322
 4960SOL     OW26512   3.515   3.242   3.463  0.2962  0.2273 -0.0264
 4960SOL    HW126513   3.571   3.320   3.470 -0.1115  0.3485  2.0186
 4960SOL    HW226514   3.550   3.198   3.541  1.8582 -0.6237 -1.2059
 4961SOL     OW26515   0.377   0.434   1.274 -0.5797 -0.9854  0.1441
 4961SOL    HW126516   0.341   0.413   1.360  2.2079 -0.8649  1.3302
 4961SOL    HW226517   0.298   0.469   1.233 -0.1153  0.5254  0.5158
 4962SOL     OW26518   4.665   0.733   5.398 -0.8021 -0.2513  0.2556
 4962SOL    HW126519   4.688   0.671   5.328  1.2835  2.2423 -1.2603
 4962SOL    HW226520   4.670   0.681   5.478  1.7603 -0.6088 -0.1515
 4963SOL     OW26521   4.545   3.405   3.318  0.8197 -0.7276  0.0096
 4963SOL    HW126522   4.633   3.442   3.309  0.4532 -0.6192 -2.9985
 4963SOL    HW226523   4.520   3.426   3.229 -2.2658  0.0424  1.0837
 4964SOL     OW26524   0.763   4.319   9.942 -0.3372  0.0186  0.0003
 4964SOL    HW126525   0.759   4.403   9.987  0.8295 -0.0193  0.1710
 4964SOL    HW226526   0.826   4.340   9.873  1.4700 -0.1434  1.6075
 4965SOL     OW26527   3.045   1.112   2.195  0.5108 -0.1447 -0.0263
 4965SOL    HW126528   3.012   1.057   2.266  0.0478  0.2006  0.0246
 4965SOL    HW226529   3.075   1.046   2.132  1.5638  0.4035 -0.0874
 4966SOL     OW26530   2.140   2.003  16.772 -0.0405  0.0209 -0.3484
 4966SOL    HW126531   2.190   1.924  16.753 -0.0899 -0.0504 -0.1753
 4966SOL    HW226532   2.131   1.992  16.866 -1.9579 -0.3905 -0.5935
 4967SOL     OW26533   4.405   3.022  11.474  0.4697  0.1399 -0.7804
 4967SOL    HW126534   4.362   2.957  11.530  0.4702 -0.5078 -1.5275
 4967SOL    HW226535   4.360   3.106  11.481  0.3782  0.1751 -1.8276
 4968SOL     OW26536   4.205   0.590   1.887 -0.0184 -0.5573 -0.0830
 4968SOL    HW126537   4.279   0.545   1.928 -1.1838 -0.7052  1.8602
 4968SOL    HW226538   4.237   0.677   1.860  0.3771  0.0089  2.2461
 4969SOL     OW26539   2.611   0.759  12.863 -0.3360 -0.4358  0.2408
 4969SOL    HW126540   2.655   0.800  12.788 -3.2904  1.1104 -0.6351
 4969SOL    HW226541   2.518   0.782  12.858 -0.4078 -0.8873 -0.4689
 4970SOL     OW26542   2.404   2.962   8.601  0.3929  0.4339  0.2927
 4970SOL    HW126543   2.338   3.022   8.636  0.6577  0.0728  1.4387
 4970SOL    HW226544   2.445   2.940   8.685 -0.4184 -0.8016  0.3718
 4971SOL     OW26545   2.913   1.415   4.935 -0.1514 -0.2705  0.4421
 4971SOL    HW126546   2.989   1.465   4.906  1.3536 -2.2957  0.8735
 4971SOL    HW226547   2.935   1.394   5.025  0.2190 -1.7985  0.0024
 4972SOL     OW26548   2.598   2.772  14.315 -0.5409  0.0443  0.4586
 4972SOL    HW126549   2.678   2.790  14.364 -0.1625  1.0422 -0.5178
 4972SOL    HW226550   2.547   2.848  14.344  1.0842  1.3407 -0.0742
 4973SOL     OW26551   2.837   0.204   6.419  0.1906  0.4039 -0.1857
 4973SOL    HW126552   2.860   0.275   6.359  0.2185 -0.3155 -1.0210
 4973SOL    HW226553   2.828   0.131   6.357 -2.4587 -0.9929  1.8423
 4974SOL     OW26554   3.582   4.629   2.431  0.0140  0.1039 -0.4231
 4974SOL    HW126555   3.672   4.636   2.402  0.2392 -1.3862 -0.0755
 4974SOL    HW226556   3.543   4.711   2.401  2.2291  2.5865  3.5483
 4975SOL     OW26557   1.701   2.260  17.289  0.4926  0.0724 -0.0316
 4975SOL    HW126558   1.731   2.338  17.334  1.5944 -2.0180  2.8880
 4975SOL    HW226559   1.689   2.207  17.368  0.0297  0.4038  0.1146
 4976SOL     OW26560   4.395   4.614  14.370  0.3035 -0.2994 -0.1188
 4976SOL    HW126561   4.432   4.699  14.347  1.7779 -1.7410 -3.0378
 4976SOL    HW226562   4.473   4.565  14.396 -0.8795 -2.0420  0.1382
 4977SOL     OW26563   3.556   1.502   2.949  0.4717  0.4390  0.3629
 4977SOL    HW126564   3.524   1.446   2.878  2.6175  1.5668 -1.5249
 4977SOL    HW226565   3.523   1.587   2.919  1.7213  1.0506  0.6853
 4978SOL     OW26566   1.706   0.014   4.168 -0.6396 -0.4028 -0.2647
 4978SOL    HW126567   1.674   0.093   4.213  3.2895  0.2156  1.4923
 4978SOL    HW226568   1.739   0.038   4.082  0.3534  0.0184  0.2269
 4979SOL     OW26569   0.509   2.756   5.666  0.4897  0.1733  0.3881
 4979SOL    HW126570   0.499   2.801   5.583  1.1680 -0.0747  0.1683
 4979SOL    HW226571   0.599   2.733   5.644  0.7134  1.2012  0.2185
 4980SOL     OW26572   4.391   3.169   8.013  0.3762  0.3167  0.0714
 4980SOL    HW126573   4.318   3.221   7.979  0.7010  0.4153 -0.4814
 4980SOL    HW226574   4.469   3.205   7.970 -0.4914  1.3225 -0.6638
 4981SOL     OW26575   3.365   4.042   7.281 -0.4821  0.0841  0.4137
 4981SOL    HW126576   3.324   4.128   7.285  2.4540  1.4911  0.7348
 4981SOL    HW226577   3.374   4.032   7.187  0.6672  1.4697  0.3683
 4982SOL     OW26578   1.345   4.657   6.500 -0.4526  0.1078  0.2428
 4982SOL    HW126579   1.311   4.733   6.453 -0.3379 -1.7973 -2.9684
 4982SOL    HW226580   1.292   4.661   6.579 -1.1262 -0.1348 -0.2000
 4983SOL     OW26581   1.072   2.470   3.721 -0.2384  0.2216  0.1787
 4983SOL    HW126582   0.984   2.435   3.708 -0.4631  1.0020 -0.4124
 4983SOL    HW226583   1.042   2.553   3.760  0.3897  0.7575 -0.4688
 4984SOL     OW26584   2.421   3.826   5.838 -0.2466  0.1564  0.2591
 4984SOL    HW126585   2.398   3.843   5.747  2.3636  1.7296 -0.0833
 4984SOL    HW226586   2.345   3.768   5.849  0.3375 -0.3076  1.8971
 4985SOL     OW26587   3.230   3.815   2.034  0.1501  0.1006 -0.2389
 4985SOL    HW126588   3.205   3.906   2.048 -0.1558 -0.0530  0.2095
 4985SOL    HW226589   3.230   3.814   1.938 -2.6301  0.9748 -0.2602
 4986SOL     OW26590   4.435   4.438   7.755  0.3190 -0.5139  0.5190
 4986SOL    HW126591   4.443   4.531   7.774 -0.7082 -0.3957  0.3933
 4986SOL    HW226592   4.525   4.408   7.766  1.0562  1.3240 -0.5837
 4987SOL     OW26593   4.180   0.547  10.841 -0.5545  0.2680  0.0471
 4987SOL    HW126594   4.226   0.583  10.917 -0.6216  0.1616  0.1370
 4987SOL    HW226595   4.133   0.623  10.806  1.4441  0.1850 -2.8221
 4988SOL     OW26596   0.913   4.350  13.818  0.2141  0.2113 -0.2449
 4988SOL    HW126597   0.965   4.291  13.763  0.8586 -0.5978  1.2286
 4988SOL    HW226598   0.869   4.286  13.875  1.5814  0.6831  1.3238
 4989SOL     OW26599   3.783   1.188   2.449  0.2384 -0.4743 -0.5189
 4989SOL    HW126600   3.812   1.189   2.358  1.2314 -0.9939 -0.2116
 4989SOL    HW226601   3.745   1.274   2.467 -0.6955 -1.4405  2.2105
 4990SOL     OW26602   2.321   3.135   5.378 -0.0788 -0.0952 -0.6838
 4990SOL    HW126603   2.261   3.209   5.372 -2.0586 -1.5932  0.5399
 4990SOL    HW226604   2.402   3.170   5.415  0.2665 -0.3046 -1.2390
 4991SOL     OW26605   3.688   3.224  10.176  0.5483 -0.3669 -0.0803
 4991SOL    HW126606   3.698   3.159  10.245 -1.7018  1.6792  2.1729
 4991SOL    HW226607   3.599   3.247  10.201  0.3345 -0.8640 -0.4104
 4992SOL     OW26608   2.200   0.317  11.391 -0.1598  0.1817 -0.1958
 4992SOL    HW126609   2.254   0.247  11.427 -1.1484  0.2274  1.3944
 4992SOL    HW226610   2.194   0.386  11.457 -3.4037 -0.6040  0.3496
 4993SOL     OW26611   1.148   4.333   1.138  0.0128  0.3543  0.5880
 4993SOL    HW126612   1.077   4.364   1.081 -0.4512  0.7759  1.3902
 4993SOL    HW226613   1.139   4.384   1.218  1.5188  0.9241  0.4119
 4994SOL     OW26614   0.716   0.559   3.977  0.1584  0.2681  0.4694
 4994SOL    HW126615   0.765   0.479   3.958 -0.3092 -0.1812  1.1541
 4994SOL    HW226616   0.684   0.540   4.065 -1.7966 -0.1838 -0.3310
 4995SOL     OW26617   0.829   0.099  14.219  0.4357 -0.1706  0.1918
 4995SOL    HW126618   0.798   0.008  14.226 -2.1874  0.6239 -0.9826
 4995SOL    HW226619   0.921   0.088  14.241  1.0647 -0.6659 -2.6215
 4996SOL     OW26620   1.867   0.494   8.689  0.4203 -0.1128  0.2117
 4996SOL    HW126621   1.898   0.407   8.716  1.9106  0.0133 -1.0589
 4996SOL    HW226622   1.927   0.551   8.739  1.7648 -0.5001 -0.9741
 4997SOL     OW26623   4.191   0.155  10.609 -0.3761  0.0761  0.1106
 4997SOL    HW126624   4.223   0.134  10.697  1.5199 -1.7192 -0.9840
 4997SOL    HW226625   4.263   0.129  10.552 -0.7147  0.9266 -0.7006
 4998SOL     OW26626   2.540   3.756   0.532  0.2662  0.9002 -0.0533
 4998SOL    HW126627   2.455   3.713   0.527 -0.7774  2.7908  1.1764
 4998SOL    HW226628   2.521   3.803   0.614 -0.3796 -0.4172  0.5641
 4999SOL     OW26629   4.321   2.708   2.224 -0.8511 -0.4645  0.4793
 4999SOL    HW126630   4.278   2.769   2.165 -0.3317 -1.1899 -0.6450
 4999SOL    HW226631   4.273   2.731   2.303 -1.3837 -0.1694  0.0674
 5000SOL     OW26632   1.089   0.242   4.361  0.6843 -0.4279  0.0278
 5000SOL    HW126633   1.176   0.202   4.354  1.2677  0.8998 -0.2373
 5000SOL    HW226634   1.094   0.330   4.397 -0.6384  0.8011 -2.7952
 5001SOL     OW26635   2.922   3.413   3.521 -0.5094 -0.3972 -0.1193
 5001SOL    HW126636   2.961   3.497   3.499 -0.4298  0.0666  1.8441
 5001SOL    HW226637   2.978   3.362   3.581  0.1647  0.1133 -0.3159
 5002SOL     OW26638   3.714   0.619   8.951 -0.4447  0.1311  0.5581
 5002SOL    HW126639   3.681   0.704   8.921  2.5152  0.5299 -1.6247
 5002SOL    HW226640   3.707   0.632   9.045  3.2592  0.5733  0.7692
 5003SOL     OW26641   2.183   0.368   3.245  0.1390 -0.2652 -0.3887
 5003SOL    HW126642   2.142   0.336   3.326 -0.9295  4.2215  0.8341
 5003SOL    HW226643   2.274   0.374   3.274 -0.0092  0.7720 -0.1529
 5004SOL     OW26644   4.475   2.348  15.643  0.0924  0.2841  0.2744
 5004SOL    HW126645   4.438   2.266  15.609  0.1550 -0.1515  1.2678
 5004SOL    HW226646   4.396   2.401  15.652  0.7482  1.2990  0.1298
 5005SOL     OW26647   0.698   4.530   7.975  0.7030  0.2954  0.1557
 5005SOL    HW126648   0.697   4.532   7.879 -2.1700  2.3619  0.2089
 5005SOL    HW226649   0.606   4.521   8.000  1.3331 -3.2030  1.1622
 5006SOL     OW26650   1.413   0.684   3.712 -0.2263 -0.1871 -0.3662
 5006SOL    HW126651   1.476   0.680   3.640  1.3621 -1.3936  1.1076
 5006SOL    HW226652   1.460   0.715   3.789 -2.4861  3.4213 -0.4180
 5007SOL     OW26653   0.280   2.675  12.938  0.2141  0.7547 -0.0403
 5007SOL    HW126654   0.338   2.651  12.866  1.3725  2.0591  0.4566
 5007SOL    HW226655   0.300   2.600  12.995 -0.5746  0.5676 -0.0152
 5008SOL     OW26656   0.580   0.106   6.216 -0.2402  0.4013  0.5669
 5008SOL    HW126657   0.627   0.023   6.226  1.3454  1.1671 -0.6146
 5008SOL    HW226658   0.648   0.162   6.254 -0.3194  0.9186 -0.0538
 5009SOL     OW26659   2.231   0.260   1.032 -0.8148 -0.7721  0.2309
 5009SOL    HW126660   2.186   0.335   0.995 -1.3199 -0.8250  0.7365
 5009SOL    HW226661   2.157   0.215   1.073 -1.2076 -0.9962 -0.7344
 5010SOL     OW26662   1.579   3.142   1.457  0.1153 -0.2731  0.1638
 5010SOL    HW126663   1.524   3.065   1.441 -1.4023  1.1355 -1.3992
 5010SOL    HW226664   1.526   3.171   1.532  0.0504 -1.2808  0.5124
 5011SOL     OW26665   0.504   2.786   1.980  0.2149  0.1386 -0.3218
 5011SOL    HW126666   0.452   2.865   1.994  1.3049  0.7665  0.1306
 5011SOL    HW226667   0.511   2.789   1.885  1.3533 -0.5383 -0.2649
 5012SOL     OW26668   3.878   3.536  10.659 -0.4205  0.9382 -0.5621
 5012SOL    HW126669   3.848   3.454  10.621  0.5740 -1.3427  3.5855
 5012SOL    HW226670   3.883   3.510  10.751  1.5688 -1.0817 -1.2250
 5013SOL     OW26671   1.390   0.646   5.327 -0.6589 -0.7304  0.4086
 5013SOL    HW126672   1.366   0.557   5.353 -0.0970 -0.3916  2.1221
 5013SOL    HW226673   1.346   0.698   5.395  0.6513 -0.8380  1.3327
 5014SOL     OW26674   2.778   3.797   0.764  0.0922 -0.4997  0.1499
 5014SOL    HW126675   2.834   3.784   0.840 -1.0970  0.8915  1.2694
 5014SOL    HW226676   2.816   3.873   0.720 -2.7498  1.8874  1.7925
 5015SOL     OW26677   2.560   1.731   5.123  0.3287 -0.2618  0.1445
 5015SOL    HW126678   2.574   1.781   5.204  1.1637 -0.3099  0.0295
 5015SOL    HW226679   2.527   1.797   5.062  0.7617  0.6651  0.9151
 5016SOL     OW26680   1.011   4.395   7.173  0.3226 -0.3984 -0.0740
 5016SOL    HW126681   0.935   4.354   7.215  0.5217 -2.1947 -1.4477
 5016SOL    HW226682   1.083   4.340   7.202  0.2316 -0.8136 -0.6259
 5017SOL     OW26683   0.539   1.521   3.066 -0.2465  0.0893  0.3537
 5017SOL    HW126684   0.572   1.437   3.034  0.2006  0.2520  0.3825
 5017SOL    HW226685   0.552   1.578   2.991 -0.9809  0.9844  0.9065
 5018SOL     OW26686   1.957   1.379   7.035  0.7342  0.0344  0.3480
 5018SOL    HW126687   2.017   1.379   6.960  0.0179 -1.3703 -0.2159
 5018SOL    HW226688   2.020   1.389   7.107  0.9207  0.5222  0.1203
 5019SOL     OW26689   1.616   0.078  15.374  0.3018 -0.9689 -0.4845
 5019SOL    HW126690   1.701   0.045  15.345  0.3653 -0.4795 -0.8616
 5019SOL    HW226691   1.648   0.157  15.417 -2.1873  0.4995 -1.3211
 5020SOL     OW26692   3.093   0.913   3.093  0.0624  0.3933 -0.4159
 5020SOL    HW126693   3.050   0.992   3.060 -2.8977 -0.4378  1.5158
 5020SOL    HW226694   3.172   0.920   3.038  0.8551  0.6697  0.7647
 5021SOL     OW26695   2.632   3.285  11.777  0.0151  0.3882 -0.0156
 5021SOL    HW126696   2.577   3.329  11.712  0.6272  1.1088 -0.0418
 5021SOL    HW226697   2.716   3.317  11.745 -1.0912  3.3420 -0.0340
 5022SOL     OW26698   2.025   3.147   2.192 -0.1263 -0.3725 -0.5490
 5022SOL    HW126699   1.959   3.114   2.132 -2.2952  3.0086 -0.0233
 5022SOL    HW226700   2.022   3.089   2.268 -1.6292  1.1351  0.5538
 5023SOL     OW26701   3.611   3.210   0.904  0.3327  0.4422  0.1621
 5023SOL    HW126702   3.584   3.302   0.903  3.5691  1.3879 -0.1339
 5023SOL    HW226703   3.612   3.191   0.810 -1.5100 -1.0426  0.4513
 5024SOL     OW26704   1.927   1.496  11.563  0.3671  0.6167 -0.0452
 5024SOL    HW126705   1.882   1.428  11.612 -1.3665  2.7065  1.2142
 5024SOL    HW226706   2.016   1.501  11.600  0.5092  0.1778 -0.3222
 5025SOL     OW26707   3.284   0.579  11.327  0.1042 -0.6864  0.4377
 5025SOL    HW126708   3.263   0.653  11.383  0.0485 -0.0203 -0.4724
 5025SOL    HW226709   3.372   0.602  11.296  0.9380 -2.2766  1.5756
 5026SOL     OW26710   3.450   0.988   3.113  0.0813  0.4365 -1.1513
 5026SOL    HW126711   3.400   1.024   3.040  2.3278  3.0473 -1.4050
 5026SOL    HW226712   3.507   1.063   3.131  0.0990  0.7349 -2.4087
 5027SOL     OW26713   2.217   1.230   8.072  0.6857  0.5142  0.4407
 5027SOL    HW126714   2.160   1.301   8.102  0.5538  0.6776 -0.2063
 5027SOL    HW226715   2.154   1.173   8.027 -0.8858  1.6541  1.1689
 5028SOL     OW26716   2.095   3.324  14.092 -0.1158  0.8362  0.1626
 5028SOL    HW126717   2.100   3.418  14.108  1.7602  1.0737 -1.9005
 5028SOL    HW226718   2.034   3.330  14.018  0.2098  2.1411 -0.0010
 5029SOL     OW26719   3.854   0.342   4.790  0.0550  0.1303 -0.3206
 5029SOL    HW126720   3.761   0.340   4.813  0.3809 -2.8623  0.6649
 5029SOL    HW226721   3.873   0.431   4.820  1.5584 -0.5635  0.7724
 5030SOL     OW26722   2.048   0.698  17.490  0.3897 -0.3601 -0.8569
 5030SOL    HW126723   2.138   0.731  17.491 -0.0757  0.8765  0.9797
 5030SOL    HW226724   2.036   0.674  17.582 -0.8505 -0.6897 -1.1073
 5031SOL     OW26725   0.705   0.871   7.476 -0.2385 -0.1375  0.1426
 5031SOL    HW126726   0.758   0.813   7.531 -0.8966 -0.4758  0.4321
 5031SOL    HW226727   0.648   0.902   7.546 -0.7722  0.4716 -0.5587
 5032SOL     OW26728   0.413   1.474   2.624  0.1019  0.3108  0.2884
 5032SOL    HW126729   0.331   1.522   2.635 -0.1782 -0.0329 -0.2694
 5032SOL    HW226730   0.435   1.485   2.531 -0.0113  0.5753  0.2935
 5033SOL     OW26731   3.521   4.514  10.507 -0.0152  0.0114  0.1738
 5033SOL    HW126732   3.528   4.541  10.598 -3.8671  0.2846  0.3689
 5033SOL    HW226733   3.463   4.439  10.523  1.7787 -1.2860  0.6422
 5034SOL     OW26734   0.058   1.991   6.262 -0.3536 -0.1141 -0.6010
 5034SOL    HW126735   0.022   1.909   6.229 -1.0724  0.6635 -1.7276
 5034SOL    HW226736   0.110   1.957   6.335 -1.1623 -1.1444 -0.5198
 5035SOL     OW26737   1.342   3.783  15.379 -0.0662  0.0641 -0.3666
 5035SOL    HW126738   1.385   3.813  15.299 -1.0976 -0.4720 -1.1365
 5035SOL    HW226739   1.400   3.795  15.454 -1.2394  1.0281  0.3963
 5036SOL     OW26740   2.914   3.252   1.923 -0.2438 -0.1654  0.3914
 5036SOL    HW126741   2.968   3.330   1.913 -1.3296  0.7200  1.4490
 5036SOL    HW226742   2.869   3.270   2.006  0.2390 -0.1277  0.6423
 5037SOL     OW26743   2.267   4.118   9.574 -0.3149  0.0848 -0.0007
 5037SOL    HW126744   2.277   4.192   9.633  0.6706 -0.3814  0.4102
 5037SOL    HW226745   2.347   4.073   9.600 -0.8235 -1.2164 -0.7114
 5038SOL     OW26746   1.112   2.880   5.492 -0.6663  0.1402  0.1238
 5038SOL    HW126747   1.153   2.956   5.535  0.8925 -0.8323  0.3747
 5038SOL    HW226748   1.151   2.806   5.538  0.7181 -0.7194 -2.4215
 5039SOL     OW26749   1.074   2.903   3.799  0.4411  0.6567 -0.3005
 5039SOL    HW126750   1.101   2.904   3.707 -1.8995  1.4725 -0.9852
 5039SOL    HW226751   1.159   2.908   3.843  0.4527 -2.4863  0.0618
 5040SOL     OW26752   3.312   2.040   2.370 -0.3678 -0.5685 -0.2275
 5040SOL    HW126753   3.311   1.969   2.306 -0.2512 -0.8985  0.1440
 5040SOL    HW226754   3.404   2.043   2.394 -0.5674  1.4507  0.3151
 5041SOL     OW26755   4.042   2.562   6.106 -0.3278  0.2411 -0.3278
 5041SOL    HW126756   4.084   2.478   6.087  1.0920  1.2930 -1.7768
 5041SOL    HW226757   3.981   2.530   6.173 -1.4162 -1.5953 -2.2019
 5042SOL     OW26758   4.384   2.854   4.063 -0.2898  0.3865  0.0181
 5042SOL    HW126759   4.345   2.772   4.035  0.6198  0.1397 -0.5464
 5042SOL    HW226760   4.325   2.883   4.132 -0.8971 -0.7222 -0.0390
 5043SOL     OW26761   1.955   3.332   6.323  0.1548  0.0442  0.0337
 5043SOL    HW126762   1.923   3.411   6.281 -1.5377 -0.5929  0.1231
 5043SOL    HW226763   2.037   3.310   6.278 -0.3056  0.1397 -0.8322
 5044SOL     OW26764   1.618   4.021  11.267  0.5407 -0.3633 -0.1381
 5044SOL    HW126765   1.576   3.986  11.345  0.2865  2.3706  0.9650
 5044SOL    HW226766   1.703   4.026  11.311  0.1965  0.7303  0.4194
 5045SOL     OW26767   2.209   1.375   8.769  0.2722 -0.1856  0.2918
 5045SOL    HW126768   2.230   1.455   8.817  0.0720  0.6036 -0.9529
 5045SOL    HW226769   2.113   1.379   8.776  0.1467 -0.0257 -1.5966
 5046SOL     OW26770   4.212   4.247   3.915  0.9544  0.1757 -0.4439
 5046SOL    HW126771   4.262   4.205   3.985 -0.0381  0.1919  0.2755
 5046SOL    HW226772   4.246   4.336   3.911 -3.9603  2.1028 -0.0920
 5047SOL     OW26773   1.263   0.406   2.781 -0.3544 -0.4206 -0.6050
 5047SOL    HW126774   1.252   0.468   2.854 -1.2613  0.4885 -1.5085
 5047SOL    HW226775   1.268   0.469   2.710  1.3667 -1.2990 -1.2629
 5048SOL     OW26776   0.873   0.188   5.360 -0.0073  0.5173  0.4321
 5048SOL    HW126777   0.848   0.276   5.334 -0.1829 -0.2948 -2.0840
 5048SOL    HW226778   0.812   0.180   5.433  1.8743  0.9421  2.0581
 5049SOL     OW26779   2.892   2.187  13.121 -0.0511  0.3320  0.6396
 5049SOL    HW126780   2.920   2.095  13.116 -4.1793 -0.9142  0.2808
 5049SOL    HW226781   2.860   2.184  13.211  1.0068  0.4865  1.0261
 5050SOL     OW26782   1.175   2.488   2.211  0.5251  0.0526 -0.4402
 5050SOL    HW126783   1.123   2.502   2.290  0.8548 -1.6880  0.0888
 5050SOL    HW226784   1.147   2.559   2.153  0.8042  1.2639  0.8932
 5051SOL     OW26785   1.172   2.114   8.491  0.3083 -0.0580  0.3770
 5051SOL    HW126786   1.102   2.176   8.510 -0.1632 -0.0643 -1.3678
 5051SOL    HW226787   1.242   2.151   8.545 -1.2535  2.4388  0.6852
 5052SOL     OW26788   4.165   1.599   6.036  0.7662 -0.0864 -0.1285
 5052SOL    HW126789   4.163   1.552   5.953 -0.6684 -0.9631  0.4124
 5052SOL    HW226790   4.138   1.685   6.003  0.3845 -0.0224  0.3560
 5053SOL     OW26791   4.288   1.531   7.959 -0.0474 -0.3937  0.4011
 5053SOL    HW126792   4.360   1.569   8.009  1.7447 -1.9776 -0.9523
 5053SOL    HW226793   4.253   1.603   7.907 -0.9546 -0.6700  0.6351
 5054SOL     OW26794   2.058   1.245  13.044 -0.0881 -0.0835  0.3849
 5054SOL    HW126795   2.141   1.242  12.997 -0.5585 -2.1872 -0.3267
 5054SOL    HW226796   1.991   1.238  12.976 -0.4155  1.0874  0.5852
 5055SOL     OW26797   0.131   0.190   1.599  0.2110 -0.7991  0.3613
 5055SOL    HW126798   0.086   0.120   1.648  0.6684 -1.0488  0.4236
 5055SOL    HW226799   0.063   0.206   1.533  1.7524 -1.7966 -1.4616
 5056SOL     OW26800   0.077   0.977   7.196 -0.0821  0.2482  0.5375
 5056SOL    HW126801   0.063   1.043   7.264 -1.5204 -1.3118  1.7473
 5056SOL    HW226802   0.020   0.904   7.220 -3.9194  3.1267  0.2758
 5057SOL     OW26803   4.086   1.269   8.658  0.3038 -0.1922 -0.5480
 5057SOL    HW126804   4.150   1.339   8.663  0.0667 -0.1043  1.0949
 5057SOL    HW226805   4.017   1.318   8.613  0.2703  1.0075  0.8179
 5058SOL     OW26806   0.932   4.169  10.597 -0.0010  0.8836  0.2626
 5058SOL    HW126807   0.873   4.221  10.542 -1.3483 -1.5807 -0.6376
 5058SOL    HW226808   0.878   4.090  10.605  0.8667  0.5201  2.3802
 5059SOL     OW26809   0.567   3.503   2.625  0.2534  0.1105  0.3215
 5059SOL    HW126810   0.586   3.583   2.577 -1.2304  0.2611  0.0105
 5059SOL    HW226811   0.483   3.488   2.582 -1.2105  2.8585  2.1769
 5060SOL     OW26812   3.478   1.872   2.154 -0.4075  0.6727  0.1368
 5060SOL    HW126813   3.536   1.808   2.112 -2.1842 -0.8566  0.0024
 5060SOL    HW226814   3.542   1.903   2.217 -0.3198 -1.9127  1.3155
 5061SOL     OW26815   1.411   4.633   1.954  0.1583  0.1084  0.1176
 5061SOL    HW126816   1.356   4.609   1.880 -1.8172 -0.1113  1.6538
 5061SOL    HW226817   1.346   4.647   2.023 -0.2864 -1.9715  0.1306
 5062SOL     OW26818   2.549   2.101   4.377  0.3203 -0.2048 -0.2231
 5062SOL    HW126819   2.543   2.008   4.358 -1.1093 -0.0067 -0.7490
 5062SOL    HW226820   2.485   2.147   4.323 -0.4491  1.3641  2.0066
 5063SOL     OW26821   3.550   2.578   0.689  0.1595 -0.4013  0.4438
 5063SOL    HW126822   3.527   2.535   0.606 -1.6493  1.0379  0.1936
 5063SOL    HW226823   3.640   2.603   0.673  0.4618  0.1162  2.9832
 5064SOL     OW26824   2.304   3.104   6.920  0.4202  0.4347 -0.6463
 5064SOL    HW126825   2.265   3.025   6.883 -1.4110  1.5418 -1.1098
 5064SOL    HW226826   2.386   3.074   6.959 -0.9619 -2.3067  0.0817
 5065SOL     OW26827   3.596   3.996  17.124 -0.2240  0.0985 -0.2098
 5065SOL    HW126828   3.523   4.058  17.117 -2.2923 -2.4093 -1.0763
 5065SOL    HW226829   3.555   3.926  17.174  1.0219  0.7477  1.7047
 5066SOL     OW26830   2.963   4.049  12.239 -0.3094 -0.0523 -0.3928
 5066SOL    HW126831   2.939   4.106  12.166 -1.7094 -0.9878 -0.6678
 5066SOL    HW226832   2.873   4.032  12.268 -0.1996  1.4423  0.8123
 5067SOL     OW26833   3.469   1.419   8.082  0.0831 -0.1735  0.0023
 5067SOL    HW126834   3.469   1.492   8.144 -0.6349 -2.2248  2.3731
 5067SOL    HW226835   3.473   1.337   8.130 -0.9944 -0.0578  0.2827
 5068SOL     OW26836   0.654   4.637  12.760 -0.2860  0.4523  0.0091
 5068SOL    HW126837   0.622   4.562  12.810 -0.9778  1.7215  1.4624
 5068SOL    HW226838   0.684   4.693  12.832 -1.6434  2.6627 -1.1519
 5069SOL     OW26839   3.036   3.667   0.393  0.1749 -0.1920 -0.2787
 5069SOL    HW126840   2.945   3.696   0.390  0.2303 -0.1820 -1.7007
 5069SOL    HW226841   3.041   3.622   0.309 -2.9694  1.9804 -1.6595
 5070SOL     OW26842   4.608   2.043   8.235 -0.0534  0.3219 -0.4627
 5070SOL    HW126843   4.574   2.020   8.148  0.4475 -1.8457 -0.0971
 5070SOL    HW226844   4.597   1.962   8.286  1.7088 -0.5986 -1.5375
 5071SOL     OW26845   0.876   2.343   8.886 -0.2530  0.4919 -0.5187
 5071SOL    HW126846   0.935   2.340   8.961 -2.5123 -1.3434  1.1961
 5071SOL    HW226847   0.918   2.288   8.821 -0.1987 -1.9819  1.6177
 5072SOL     OW26848   1.954   3.972   8.747 -0.0903  0.1061  0.2128
 5072SOL    HW126849   1.958   4.065   8.726  2.1231 -0.3309 -1.2591
 5072SOL    HW226850   1.961   3.979   8.842  0.9427 -0.8003  0.2097
 5073SOL     OW26851   1.991   0.163   8.265 -0.5511  0.4072  0.1092
 5073SOL    HW126852   2.069   0.218   8.264  0.2748 -0.8127 -1.8464
 5073SOL    HW226853   1.917   0.216   8.237  0.2225  0.5676 -1.5937
 5074SOL     OW26854   1.824   4.708   5.827  0.7230 -0.1233 -0.6771
 5074SOL    HW126855   1.733   4.704   5.800  0.4989 -1.8907  0.3493
 5074SOL    HW226856   1.837   4.619   5.858 -1.4618  0.4405  1.8702
 5075SOL     OW26857   2.570   1.662   2.349 -0.4985 -0.2652 -0.5173
 5075SOL    HW126858   2.660   1.667   2.316 -0.0440  0.2828  0.8024
 5075SOL    HW226859   2.536   1.600   2.284 -0.2895 -1.3501  0.4234
 5076SOL     OW26860   4.195   0.521  10.368 -1.0805  0.4018  0.1101
 5076SOL    HW126861   4.181   0.452  10.303 -0.9464  0.3126  0.1776
 5076SOL    HW226862   4.212   0.470  10.447  1.8966  1.0316 -0.1116
 5077SOL     OW26863   3.464   0.499   8.639 -0.2597 -0.2023 -0.2226
 5077SOL    HW126864   3.444   0.591   8.656  0.9819 -0.5197  2.9049
 5077SOL    HW226865   3.548   0.494   8.684 -0.0133 -0.2675 -0.6928
 5078SOL     OW26866   3.061   3.400   4.049  0.1833  0.0525  0.3742
 5078SOL    HW126867   3.074   3.362   4.136 -3.2584  3.7070  2.4892
 5078SOL    HW226868   2.969   3.427   4.061  0.0431 -0.4366  0.4144
 5079SOL     OW26869   3.229   4.130   2.758 -0.4116  0.6822  0.8809
 5079SOL    HW126870   3.199   4.042   2.737 -2.6214  2.1463 -2.0054
 5079SOL    HW226871   3.270   4.124   2.845 -0.2209  1.0814  0.8220
 5080SOL     OW26872   2.911   3.680   2.498 -0.6136  0.1618  0.5765
 5080SOL    HW126873   3.003   3.654   2.498  0.0224  2.3705 -1.1557
 5080SOL    HW226874   2.930   3.768   2.464 -2.6496  0.8042  1.0698
 5081SOL     OW26875   0.538   1.859   7.278  0.5498 -0.6948  0.1083
 5081SOL    HW126876   0.595   1.913   7.224  3.1327 -1.5033  2.0321
 5081SOL    HW226877   0.605   1.800   7.313 -1.0999 -0.6187  3.3145
 5082SOL     OW26878   2.503   3.888   2.176  0.0404 -0.3647 -0.2343
 5082SOL    HW126879   2.540   3.864   2.262  2.2712  1.1829 -0.7690
 5082SOL    HW226880   2.440   3.957   2.196 -1.2780 -1.4764 -0.5659
 5083SOL     OW26881   1.340   3.496  10.101  0.1995 -0.0228 -0.2318
 5083SOL    HW126882   1.383   3.411  10.109  0.0107 -0.0386  0.6240
 5083SOL    HW226883   1.290   3.487  10.182 -0.9233  1.2233 -0.7723
 5084SOL     OW26884   1.553   4.672  14.083 -0.0980  0.2179  0.1276
 5084SOL    HW126885   1.540   4.579  14.098  1.7512 -0.3086 -1.5281
 5084SOL    HW226886   1.470   4.700  14.045  0.5972  1.5711 -0.4272
 5085SOL     OW26887   2.780   3.903  17.404 -0.3613 -0.3530  0.5293
 5085SOL    HW126888   2.787   3.988  17.360  1.8508 -1.6436 -1.5964
 5085SOL    HW226889   2.708   3.862  17.356 -0.3639  0.7681 -0.4229
 5086SOL     OW26890   1.102   4.650   2.442  0.5275 -0.0292 -0.2320
 5086SOL    HW126891   1.120   4.694   2.359 -1.4455 -0.0632 -0.6707
 5086SOL    HW226892   1.027   4.594   2.422  0.5328  0.1615 -0.7959
 5087SOL     OW26893   4.086   3.072  10.178 -0.3893  0.1035  0.0088
 5087SOL    HW126894   4.013   3.011  10.176  1.6182 -2.2604 -0.7678
 5087SOL    HW226895   4.080   3.108  10.267 -0.3085  0.0571  0.0336
 5088SOL     OW26896   0.933   4.007  10.207 -0.1192 -0.0390  0.3515
 5088SOL    HW126897   0.973   4.079  10.257  0.4636  0.5556 -0.9703
 5088SOL    HW226898   0.998   3.937  10.214 -0.1737 -0.1293 -0.0711
 5089SOL     OW26899   0.450   0.231   6.760  0.0980 -0.3114 -0.0677
 5089SOL    HW126900   0.470   0.148   6.716  0.2294  0.2575 -1.0971
 5089SOL    HW226901   0.520   0.288   6.726 -2.0588  1.4189 -1.6007
 5090SOL     OW26902   3.584   4.053   9.823 -0.0455 -0.2989 -0.1075
 5090SOL    HW126903   3.638   4.126   9.792  0.5444 -0.5754  0.2763
 5090SOL    HW226904   3.543   4.091   9.900 -1.5566 -1.0386 -0.5485
 5091SOL     OW26905   4.574   3.380   1.321  0.6687 -0.0605  0.4079
 5091SOL    HW126906   4.650   3.335   1.283 -0.5069 -0.3508 -1.5817
 5091SOL    HW226907   4.608   3.469   1.332 -1.4769  0.7933  0.1148
 5092SOL     OW26908   0.580   2.294   8.925 -0.1427 -0.1033  0.8119
 5092SOL    HW126909   0.673   2.295   8.949 -0.3072 -3.3000  1.6200
 5092SOL    HW226910   0.584   2.335   8.838 -4.5235  0.6641  0.9867
 5093SOL     OW26911   2.211   1.868   9.199 -0.3172  0.3438 -0.0046
 5093SOL    HW126912   2.191   1.945   9.145 -1.3400 -0.1180 -0.2945
 5093SOL    HW226913   2.196   1.792   9.143 -1.6601  0.5494  0.0755
 5094SOL     OW26914   1.819   1.141  11.129  0.3923 -0.2462 -0.0035
 5094SOL    HW126915   1.761   1.069  11.107  0.4951  0.0999 -1.4121
 5094SOL    HW226916   1.844   1.131  11.221 -0.2041  0.7119  0.2683
 5095SOL     OW26917   4.303   2.481   7.667  0.2044  0.0462  0.1902
 5095SOL    HW126918   4.310   2.576   7.679 -1.7138 -0.0004  1.5657
 5095SOL    HW226919   4.328   2.470   7.575 -0.0220  0.8497  0.0329
 5096SOL     OW26920   1.252   3.817   1.165  0.3849  0.2108 -0.5776
 5096SOL    HW126921   1.245   3.903   1.123  1.3975  0.6675  0.1856
 5096SOL    HW226922   1.344   3.796   1.149  1.0295  1.4200  1.6089
 5097SOL     OW26923   2.933   0.190   3.011 -0.5425  0.2597 -0.1261
 5097SOL    HW126924   3.012   0.225   3.051 -0.6987  2.8799 -2.1090
 5097SOL    HW226925   2.965   0.101   2.997 -0.5586  0.0386  1.2537
 5098SOL     OW26926   1.484   4.072   3.223  0.1174  0.4229 -0.5645
 5098SOL    HW126927   1.439   4.144   3.179 -0.6084  1.4425  1.8284
 5098SOL    HW226928   1.564   4.116   3.250  0.5140 -0.8946  0.3663
 5099SOL     OW26929   2.103   2.956   6.431  0.3441  0.2224  0.3007
 5099SOL    HW126930   2.118   3.038   6.477 -0.8702  0.2237  0.6916
 5099SOL    HW226931   2.118   2.971   6.338  0.4377  1.7296  0.5661
 5100SOL     OW26932   0.652   2.981   4.118  0.3134  0.2385 -0.4525
 5100SOL    HW126933   0.661   3.061   4.169 -0.7062 -0.7353  1.2570
 5100SOL    HW226934   0.558   2.991   4.099  0.0343 -1.1312  0.2052
 5101SOL     OW26935   2.139   1.716   7.591  0.5750  0.6314  0.7411
 5101SOL    HW126936   2.190   1.698   7.512 -0.1384 -1.3102  0.7146
 5101SOL    HW226937   2.131   1.630   7.631  0.2273  0.5245  0.4412
 5102SOL     OW26938   4.669   0.862   1.774 -0.4724 -0.0393 -0.4884
 5102SOL    HW126939   4.703   0.853   1.685 -1.1635 -0.7684 -0.6688
 5102SOL    HW226940   4.722   0.937   1.803  0.1509 -0.1206 -1.4063
 5103SOL     OW26941   3.166   4.487  12.117 -0.2400  0.6611  0.5083
 5103SOL    HW126942   3.187   4.394  12.123 -0.5985  0.5652  0.2958
 5103SOL    HW226943   3.237   4.529  12.165  2.2020 -2.1784 -0.6247
 5104SOL     OW26944   0.859   0.536   8.576  0.2572  0.0094 -0.3126
 5104SOL    HW126945   0.806   0.613   8.597  1.0444  0.1011  1.3594
 5104SOL    HW226946   0.846   0.544   8.481  0.8135 -0.9159 -0.4658
 5105SOL     OW26947   3.160   1.108   7.665  0.0341  0.5447  0.3900
 5105SOL    HW126948   3.244   1.123   7.622  0.6664 -1.3483  0.9572
 5105SOL    HW226949   3.099   1.152   7.606 -1.4836 -1.2472  0.6178
 5106SOL     OW26950   0.264   4.212   4.450 -0.0246 -0.3849 -0.4549
 5106SOL    HW126951   0.247   4.125   4.415 -0.0144 -0.4249 -0.3595
 5106SOL    HW226952   0.359   4.204   4.440 -0.1788  0.0067 -2.1250
 5107SOL     OW26953   4.557   4.258  14.232  0.2241  0.0078 -0.3601
 5107SOL    HW126954   4.487   4.193  14.236 -0.5619  0.9509  0.9897
 5107SOL    HW226955   4.508   4.337  14.209  2.0263  1.2921  0.2578
 5108SOL     OW26956   4.035   3.745   6.795  0.1695 -0.4593  0.0700
 5108SOL    HW126957   4.045   3.761   6.701  1.8063 -0.0530  0.3048
 5108SOL    HW226958   4.124   3.762   6.826 -0.2660 -3.4938  2.9838
 5109SOL     OW26959   0.184   3.086   5.119 -0.2871 -0.0912 -0.2253
 5109SOL    HW126960   0.268   3.084   5.164 -0.2264  0.0620 -0.3346
 5109SOL    HW226961   0.176   2.997   5.084 -2.6292  0.4863 -1.1359
 5110SOL     OW26962   3.740   2.915   7.620  0.1595  0.1466  0.3826
 5110SOL    HW126963   3.661   2.960   7.648 -0.5506 -0.2350 -1.0265
 5110SOL    HW226964   3.703   2.872   7.543 -2.2324  1.8212  0.6020
 5111SOL     OW26965   3.133   2.879   7.393 -0.1811 -0.2812  0.3866
 5111SOL    HW126966   3.067   2.809   7.394  0.3964 -0.8374 -0.0570
 5111SOL    HW226967   3.086   2.944   7.342  0.8937  0.2963  0.1228
 5112SOL     OW26968   3.038   1.239   2.658  0.6506  0.8161  0.2636
 5112SOL    HW126969   2.979   1.201   2.593  1.4591 -0.0338  0.0154
 5112SOL    HW226970   2.998   1.325   2.668 -0.5498  0.2512  0.2870
 5113SOL     OW26971   1.690   0.481  11.955 -0.6011  0.0107  0.5147
 5113SOL    HW126972   1.737   0.545  11.903 -0.7634  0.8281  1.3792
 5113SOL    HW226973   1.716   0.505  12.044  0.1240  1.6051 -0.1319
 5114SOL     OW26974   3.254   2.935   2.095  0.0403 -0.4068  0.3767
 5114SOL    HW126975   3.244   2.952   2.189 -1.7582 -0.0595  0.1228
 5114SOL    HW226976   3.299   3.015   2.066 -0.5515  0.1417  0.9549
 5115SOL     OW26977   0.268   3.038   3.801 -0.1839  0.7332 -0.0852
 5115SOL    HW126978   0.333   3.011   3.737  0.1465 -1.9289  1.3918
 5115SOL    HW226979   0.202   2.971   3.788 -0.3804  0.7341  0.8430
 5116SOL     OW26980   2.755   3.959   9.049 -0.3488 -0.1951 -0.3453
 5116SOL    HW126981   2.790   3.871   9.038  2.6299  1.4116 -3.5087
 5116SOL    HW226982   2.817   4.021   9.011  0.7067  0.2985  2.1356
 5117SOL     OW26983   3.734   1.289   4.343 -0.5283  0.2922 -0.0619
 5117SOL    HW126984   3.794   1.266   4.273 -0.5932  1.3519 -0.4624
 5117SOL    HW226985   3.705   1.199   4.361 -1.3239  0.8522  1.5469
 5118SOL     OW26986   3.035   3.475   2.085 -0.5654 -0.5868  0.3073
 5118SOL    HW126987   3.085   3.533   2.142  1.6331 -0.2380 -1.9344
 5118SOL    HW226988   2.988   3.416   2.144 -0.7587  0.0246  0.7519
 5119SOL     OW26989   2.146   4.257   7.303  0.2093 -0.2062  0.1848
 5119SOL    HW126990   2.176   4.278   7.215  0.4201 -3.3971 -0.4885
 5119SOL    HW226991   2.081   4.327   7.309  1.2401  0.8283 -0.7074
 5120SOL     OW26992   2.797   4.604   6.742  0.6678  0.3384  0.4367
 5120SOL    HW126993   2.791   4.624   6.835  0.7424 -0.9288  0.7190
 5120SOL    HW226994   2.727   4.539   6.725  2.2031 -1.5773  1.4384
 5121SOL     OW26995   0.847   2.115   1.444  0.5567 -0.0537 -0.2192
 5121SOL    HW126996   0.913   2.095   1.378 -1.5863 -3.6371 -1.3202
 5121SOL    HW226997   0.778   2.152   1.389 -1.6169 -3.7655 -0.0159
 5122SOL     OW26998   4.493   2.258   9.345  0.7133 -0.3017 -0.1475
 5122SOL    HW126999   4.562   2.259   9.280  1.0787  0.7475  0.2545
 5122SOL    HW227000   4.431   2.307   9.290  2.8036  0.0647 -2.1488
 5123SOL     OW27001   1.577   4.479  17.552 -0.4254 -0.3812 -0.7953
 5123SOL    HW127002   1.650   4.462  17.612 -2.1543 -1.6353  0.9326
 5123SOL    HW227003   1.534   4.546  17.604 -1.4814 -1.5900 -0.1303
 5124SOL     OW27004   1.091   3.360   7.570 -0.6363 -0.4405 -0.1939
 5124SOL    HW127005   1.121   3.428   7.630 -0.4395 -0.1250 -0.6512
 5124SOL    HW227006   1.060   3.300   7.637 -0.2826  0.3394  0.6727
 5125SOL     OW27007   0.510   4.192   8.274  0.0695  0.0982  0.1092
 5125SOL    HW127008   0.420   4.197   8.306 -0.2455  2.4321 -1.1658
 5125SOL    HW227009   0.560   4.138   8.335  0.4671 -0.2554 -0.5301
 5126SOL     OW27010   1.145   4.121   7.976 -0.2838  0.0977  0.1363
 5126SOL    HW127011   1.193   4.196   8.013 -0.3744  0.7747 -1.1178
 5126SOL    HW227012   1.178   4.054   8.036 -1.0498 -0.8575 -0.5095
 5127SOL     OW27013   0.799   1.798   7.906 -0.2945  0.2390 -0.3587
 5127SOL    HW127014   0.872   1.819   7.964 -0.7453 -2.4795  1.1746
 5127SOL    HW227015   0.751   1.875   7.933  2.0079  1.4494  0.3195
 5128SOL     OW27016   1.913   1.477   7.598 -0.4959  0.3039  0.1015
 5128SOL    HW127017   1.866   1.560   7.607 -1.6850 -0.2902 -0.5874
 5128SOL    HW227018   1.853   1.427   7.543  0.6148  0.8346 -1.5662
 5129SOL     OW27019   3.813   3.282   1.750 -0.5977  0.3303  0.0786
 5129SOL    HW127020   3.753   3.247   1.685 -0.7269  1.1720 -0.2615
 5129SOL    HW227021   3.787   3.369   1.779 -0.4440  0.2948  0.3298
 5130SOL     OW27022   1.705   0.469   4.235 -0.5970  0.8155 -0.0726
 5130SOL    HW127023   1.725   0.394   4.290 -0.5065  1.4836  0.8176
 5130SOL    HW227024   1.781   0.525   4.253  0.3782 -1.1202  1.6809
 5131SOL     OW27025   0.765   2.887   4.391 -0.1967 -0.3108  0.3475
 5131SOL    HW127026   0.713   2.848   4.322 -0.6345 -0.8561  0.9848
 5131SOL    HW227027   0.801   2.961   4.342 -0.7369  0.3445  0.9356
 5132SOL     OW27028   3.644   3.305   7.613 -0.0283  0.3671 -0.6996
 5132SOL    HW127029   3.608   3.245   7.549 -3.3396 -0.7485  2.1813
 5132SOL    HW227030   3.609   3.392   7.594 -0.4843  0.6219  1.2847
 5133SOL     OW27031   1.494   0.526  10.025 -0.5984  0.1940  0.0204
 5133SOL    HW127032   1.422   0.521  10.088 -1.0708  0.1386 -0.5202
 5133SOL    HW227033   1.443   0.558   9.950  0.2679  2.3888  0.3566
 5134SOL     OW27034   2.359   0.824   9.758  0.4595  0.1271  0.1595
 5134SOL    HW127035   2.305   0.867   9.692  1.8904  0.0410 -1.0487
 5134SOL    HW227036   2.328   0.734   9.764  2.5809 -0.5345  1.0028
 5135SOL     OW27037   3.446   1.877   5.659  0.8650  0.5101 -0.2089
 5135SOL    HW127038   3.353   1.855   5.670  1.0140  1.0015  2.0783
 5135SOL    HW227039   3.489   1.793   5.651 -1.9306 -1.0369  0.9278
 5136SOL     OW27040   4.166   4.314   2.372  0.1521  0.6047  0.0726
 5136SOL    HW127041   4.141   4.396   2.330  0.3519 -0.1870 -1.5649
 5136SOL    HW227042   4.076   4.283   2.384  0.4429  0.1811  1.1536
 5137SOL     OW27043   3.586   1.309  12.371  0.0497 -0.2752  0.1792
 5137SOL    HW127044   3.577   1.222  12.332 -0.9408  0.5854 -1.5231
 5137SOL    HW227045   3.654   1.278  12.431 -1.4848  0.6747  2.4199
 5138SOL     OW27046   2.845   4.508   3.479  1.2085  1.3537 -0.5526
 5138SOL    HW127047   2.842   4.432   3.538  0.3994  2.5120  0.8759
 5138SOL    HW227048   2.760   4.547   3.496  0.1135 -0.0797 -2.7074
 5139SOL     OW27049   0.551   3.928   9.919 -0.0611  0.2772  0.0725
 5139SOL    HW127050   0.456   3.933   9.916 -0.0302  1.4559  1.7091
 5139SOL    HW227051   0.571   3.902   9.829  1.7381 -1.3921  0.9381
 5140SOL     OW27052   2.826   2.352   4.539  0.2751  0.5620  0.3440
 5140SOL    HW127053   2.828   2.423   4.603  1.7593  0.3249  0.5540
 5140SOL    HW227054   2.913   2.313   4.546  0.1568 -0.1794 -2.2848
 5141SOL     OW27055   1.135   0.837   0.651 -0.0188  0.7159  0.4640
 5141SOL    HW127056   1.208   0.785   0.619 -1.5341  1.0204 -3.5009
 5141SOL    HW227057   1.186   0.910   0.684 -0.3427  1.4935 -0.7392
 5142SOL     OW27058   0.650   2.999   1.640 -0.1254  0.0866  0.8613
 5142SOL    HW127059   0.586   3.068   1.628  0.0291  0.3287  1.4742
 5142SOL    HW227060   0.732   3.042   1.616 -0.9203  0.5991 -0.9914
 5143SOL     OW27061   2.983   2.743   1.732 -0.2024 -0.2893 -0.4519
 5143SOL    HW127062   3.014   2.815   1.788 -0.3089 -0.0456 -0.7117
 5143SOL    HW227063   3.040   2.671   1.760 -0.6153 -0.2822  0.4058
 5144SOL     OW27064   0.837   3.881  17.573 -0.0672  0.7236 -0.0270
 5144SOL    HW127065   0.788   3.806  17.538  1.1764  0.5551 -1.3996
 5144SOL    HW227066   0.770   3.946  17.552  0.3761  1.5484  1.1659
 5145SOL     OW27067   3.240   2.566   9.260  0.5638  0.0685  0.0662
 5145SOL    HW127068   3.166   2.534   9.311  1.1080  1.3502  1.6660
 5145SOL    HW227069   3.299   2.496   9.289  1.0781  0.0543 -1.0220
 5146SOL     OW27070   3.789   0.433  17.417  0.1245 -0.1307 -0.2838
 5146SOL    HW127071   3.771   0.451  17.509  3.1409 -1.8786  0.6632
 5146SOL    HW227072   3.856   0.365  17.427  0.1880 -0.0429 -0.1113
 5147SOL     OW27073   4.242   1.907   7.315  0.4341 -0.0358  0.5579
 5147SOL    HW127074   4.165   1.930   7.263  1.4759  0.2065 -0.8820
 5147SOL    HW227075   4.292   1.880   7.238 -0.0096 -2.2549  1.0341
 5148SOL     OW27076   3.491   2.042   2.729 -0.5129 -0.3281  0.1021
 5148SOL    HW127077   3.551   2.024   2.657 -0.4892 -1.7950  0.4886
 5148SOL    HW227078   3.469   1.955   2.762  1.7346 -0.3994  1.4248
 5149SOL     OW27079   1.841   1.984   4.012 -0.2705  0.0687  0.0023
 5149SOL    HW127080   1.924   1.982   3.964 -1.9237  2.4469 -3.0147
 5149SOL    HW227081   1.875   2.016   4.096  0.8855 -0.3185 -0.3201
 5150SOL     OW27082   1.051   4.594  13.724  0.2921  0.0342  0.1508
 5150SOL    HW127083   0.968   4.549  13.706 -0.9420  2.1033  0.7401
 5150SOL    HW227084   1.115   4.538  13.681 -0.4753  0.1078 -1.0998
 5151SOL     OW27085   3.066   0.396   1.833  0.7613  0.1080 -0.2292
 5151SOL    HW127086   3.134   0.448   1.789  0.5196 -0.3135 -1.1149
 5151SOL    HW227087   2.987   0.438   1.801 -0.5389 -1.8595  0.3584
 5152SOL     OW27088   0.686   4.679   3.021 -0.4133  0.6665 -0.4637
 5152SOL    HW127089   0.653   4.616   2.958 -1.6114  0.3450  0.4814
 5152SOL    HW227090   0.625   0.016   3.010 -1.3191 -0.0912 -0.5335
 5153SOL     OW27091   0.327   4.106   3.806 -0.1906  0.3090  0.5439
 5153SOL    HW127092   0.397   4.170   3.816  0.3877 -0.0949 -0.9521
 5153SOL    HW227093   0.335   4.072   3.895 -2.4948 -0.5584  0.4380
 5154SOL     OW27094   0.799   0.217   6.369  0.0806  0.6143 -0.5348
 5154SOL    HW127095   0.796   0.159   6.445 -1.8891  0.1180 -0.9756
 5154SOL    HW227096   0.884   0.193   6.332 -0.3052 -1.9491  0.2082
 5155SOL     OW27097   0.205   2.973   6.988 -0.2501  0.3144 -0.0434
 5155SOL    HW127098   0.249   2.909   6.932 -3.5403 -0.2039 -2.0684
 5155SOL    HW227099   0.281   3.020   7.021  0.5212 -0.4417 -0.7741
 5156SOL     OW27100   3.179   1.586   2.334  0.1822 -0.2992 -0.4606
 5156SOL    HW127101   3.155   1.581   2.427  1.6008  0.8805 -0.0196
 5156SOL    HW227102   3.123   1.516   2.301 -1.1592  0.8084 -0.5095
 5157SOL     OW27103   1.832   0.953   3.601 -0.0870  0.1094 -0.6434
 5157SOL    HW127104   1.820   0.999   3.684 -0.4881 -1.3197  0.1028
 5157SOL    HW227105   1.923   0.925   3.598 -0.7310 -2.1098 -0.0524
 5158SOL     OW27106   3.109   3.807   7.867  0.0673  0.2131 -0.1587
 5158SOL    HW127107   3.105   3.814   7.962  0.2398 -1.0405 -0.0603
 5158SOL    HW227108   3.053   3.730   7.854 -1.7986  1.5067  0.1853
 5159SOL     OW27109   0.998   2.119  17.160 -0.4354  0.1445 -0.2249
 5159SOL    HW127110   1.003   2.191  17.097  0.2122  0.9501  0.7267
 5159SOL    HW227111   1.037   2.052  17.105 -0.5803 -0.6536  0.6399
 5160SOL     OW27112   3.286   2.779   6.209 -0.8735 -0.4277  0.1783
 5160SOL    HW127113   3.338   2.709   6.169 -0.8912 -0.2817 -0.1011
 5160SOL    HW227114   3.317   2.852   6.155  0.4067 -2.0345 -1.2903
 5161SOL     OW27115   1.413   2.942  11.128  0.2987  0.5188  0.3856
 5161SOL    HW127116   1.398   3.037  11.122 -0.6636  0.5071  2.5426
 5161SOL    HW227117   1.388   2.916  11.039 -1.7156  2.2317  0.4490
 5162SOL     OW27118   3.740   3.159   8.907 -0.6493  0.3580 -0.1867
 5162SOL    HW127119   3.672   3.206   8.956 -0.5643 -0.5086  0.7749
 5162SOL    HW227120   3.763   3.228   8.846  1.3297 -1.1055 -1.0997
 5163SOL     OW27121   1.096   1.348   6.438  0.8827  0.2404  0.0522
 5163SOL    HW127122   1.148   1.280   6.482  1.0449  1.1257  1.2488
 5163SOL    HW227123   1.036   1.294   6.387  1.3751  0.6289 -0.9426
 5164SOL     OW27124   0.758   2.953  13.269 -0.6426  0.0229 -0.1318
 5164SOL    HW127125   0.845   2.960  13.229 -1.2769 -0.5055 -1.6241
 5164SOL    HW227126   0.710   2.964  13.187 -1.0075 -0.4409  0.0168
 5165SOL     OW27127   3.713   1.581   4.949 -0.6911 -0.3028 -0.7350
 5165SOL    HW127128   3.717   1.652   5.013  0.6527 -1.7394  0.7919
 5165SOL    HW227129   3.764   1.623   4.880 -0.4694  0.6637  0.0040
 5166SOL     OW27130   3.049   4.558   6.615 -0.2613  0.2400  0.4757
 5166SOL    HW127131   3.055   4.649   6.585  2.4361  0.2272  0.9476
 5166SOL    HW227132   2.964   4.570   6.657  0.9036  1.9938  2.3774
 5167SOL     OW27133   0.049   4.005   0.629  0.3784  0.0669 -0.2967
 5167SOL    HW127134   0.026   4.043   0.544  2.9581  0.7580 -0.6969
 5167SOL    HW227135   0.092   4.080   0.671 -0.4562  1.1039 -1.3087
 5168SOL     OW27136   3.630   3.615  16.384 -0.3999  0.0839  0.1188
 5168SOL    HW127137   3.592   3.529  16.363  0.2220 -0.0385 -0.5417
 5168SOL    HW227138   3.557   3.663  16.421 -1.1127  0.6380 -2.0127
 5169SOL     OW27139   3.574   0.666   4.144 -0.7791  0.1878  0.4158
 5169SOL    HW127140   3.637   0.683   4.214 -1.7434  0.5013  1.2153
 5169SOL    HW227141   3.499   0.716   4.178 -0.7143  0.4824  0.1207
 5170SOL     OW27142   2.241   2.458   0.127  0.3470 -0.1967  0.1261
 5170SOL    HW127143   2.222   2.364   0.134  1.3976 -0.4697 -0.7831
 5170SOL    HW227144   2.334   2.461   0.107  0.5178 -4.2689  0.1955
 5171SOL     OW27145   2.129   2.885  15.288  0.4809 -0.2334  0.2815
 5171SOL    HW127146   2.208   2.866  15.337 -0.1337  0.3231  1.4830
 5171SOL    HW227147   2.081   2.804  15.273 -0.8645  0.8208 -1.2252
 5172SOL     OW27148   1.150   0.544   4.669 -0.5649 -0.2576 -0.1005
 5172SOL    HW127149   1.103   0.517   4.590 -0.9735  1.2314 -0.3563
 5172SOL    HW227150   1.107   0.489   4.735  0.0413 -0.1700  0.3682
 5173SOL     OW27151   4.143   2.898  14.719 -0.5394  0.0452 -0.5707
 5173SOL    HW127152   4.185   2.812  14.709  3.2499  1.8749 -0.2728
 5173SOL    HW227153   4.067   2.883  14.776 -0.4639  0.1099 -0.4516
 5174SOL     OW27154   1.731   0.183   3.947 -0.2116 -0.5246  0.0366
 5174SOL    HW127155   1.799   0.245   3.972  1.8447 -2.7535 -0.0775
 5174SOL    HW227156   1.686   0.237   3.882 -3.1209 -2.4835  0.3941
 5175SOL     OW27157   0.222   0.262   5.120  0.2423 -0.4571  0.1280
 5175SOL    HW127158   0.167   0.305   5.186  1.2657 -0.7311  1.1657
 5175SOL    HW227159   0.297   0.322   5.117  1.8875 -2.6121 -1.5225
 5176SOL     OW27160   3.894   2.551   8.639  0.1693 -0.0327 -0.0569
 5176SOL    HW127161   3.861   2.486   8.701  0.0846 -0.3544 -0.4419
 5176SOL    HW227162   3.816   2.602   8.618 -0.6216 -0.9125  0.7174
 5177SOL     OW27163   3.926   0.065  14.757 -0.1978 -0.4159 -0.1079
 5177SOL    HW127164   3.978   0.145  14.761  1.3482 -1.2582 -4.1350
 5177SOL    HW227165   3.991   4.733  14.741 -0.7573 -0.7076 -1.0947
 5178SOL     OW27166   4.286   3.189   7.071  0.2473  0.2048 -0.0431
 5178SOL    HW127167   4.329   3.213   6.988  0.2467  0.6976  0.1016
 5178SOL    HW227168   4.364   3.161   7.119 -0.4456 -1.1264  0.3250
 5179SOL     OW27169   2.098   3.540   0.768 -0.6434 -0.5099 -0.3862
 5179SOL    HW127170   2.088   3.498   0.854  0.2814 -0.0558 -0.0483
 5179SOL    HW227171   2.046   3.482   0.713 -0.6295  0.1099 -1.0499
 5180SOL     OW27172   0.740   4.618  14.643  0.2160  0.1240  0.4752
 5180SOL    HW127173   0.788   4.691  14.680  0.7586 -1.6931  3.3929
 5180SOL    HW227174   0.788   4.542  14.677 -0.6626  1.2913  4.3642
 5181SOL     OW27175   3.839   4.585  10.598 -0.8994 -0.2231 -0.0742
 5181SOL    HW127176   3.874   4.599  10.685  0.0412 -1.3615 -0.2663
 5181SOL    HW227177   3.753   4.548  10.619 -1.4529  0.8379 -0.4882
 5182SOL     OW27178   4.446   3.248   6.583 -0.1343 -0.1367  0.1847
 5182SOL    HW127179   4.419   3.216   6.497 -0.4546  2.3183 -0.6240
 5182SOL    HW227180   4.409   3.184   6.644 -4.3269  2.0449 -0.0643
 5183SOL     OW27181   1.972   0.210  15.120 -0.5070  0.2036 -0.0023
 5183SOL    HW127182   1.929   0.289  15.088 -1.0744  0.6499  1.8321
 5183SOL    HW227183   2.064   0.216  15.095 -0.4708 -0.2870  0.0061
 5184SOL     OW27184   2.788   3.648   9.060  0.3847  0.3832 -0.2330
 5184SOL    HW127185   2.695   3.664   9.078  0.0442 -2.0884  0.2259
 5184SOL    HW227186   2.834   3.677   9.139  0.1672 -2.8992  1.1278
 5185SOL     OW27187   3.543   3.996   4.648 -0.3950  0.1159 -0.1589
 5185SOL    HW127188   3.482   3.974   4.718 -1.9215  3.1851 -0.4967
 5185SOL    HW227189   3.495   3.972   4.568 -3.1143  1.7418  0.9976
 5186SOL     OW27190   2.737   4.184   2.074 -0.0184 -0.2809 -0.0065
 5186SOL    HW127191   2.650   4.162   2.106 -0.0726 -2.7473 -1.7818
 5186SOL    HW227192   2.793   4.159   2.147 -0.2838  1.0705  0.6474
 5187SOL     OW27193   2.505   3.521  15.865  0.8823 -0.2367  0.3613
 5187SOL    HW127194   2.438   3.453  15.863 -0.2382  0.9597 -2.1708
 5187SOL    HW227195   2.564   3.494  15.794  0.5868  0.4042 -0.1222
 5188SOL     OW27196   3.999   0.411   5.742  0.4388 -0.6707 -0.0499
 5188SOL    HW127197   4.083   0.454   5.755 -0.3737  0.0482  2.8214
 5188SOL    HW227198   4.013   0.398   5.648 -1.9910  0.3790 -0.5657
 5189SOL     OW27199   1.473   0.505   1.735 -0.5676  0.0447 -0.6277
 5189SOL    HW127200   1.549   0.537   1.686 -0.6679  2.3430  0.7006
 5189SOL    HW227201   1.431   0.589   1.755 -2.6235 -1.6626  2.0565
 5190SOL     OW27202   2.708   2.911   4.340  0.4121 -0.7716  0.1780
 5190SOL    HW127203   2.641   2.916   4.409  0.0961 -0.3387 -0.1616
 5190SOL    HW227204   2.773   2.969   4.380 -0.3099  0.0288  0.1865
 5191SOL     OW27205   1.620   2.231   0.949  0.1281 -0.4423  0.3339
 5191SOL    HW127206   1.709   2.246   0.983 -0.2180  0.2942  0.9140
 5191SOL    HW227207   1.631   2.253   0.856  1.9080 -0.3717  0.5629
 5192SOL     OW27208   0.960   2.918  15.380 -0.7241  0.2514  0.7640
 5192SOL    HW127209   0.915   2.870  15.450  1.0137 -2.2059  0.2355
 5192SOL    HW227210   1.027   2.964  15.431 -0.6633  1.9248 -0.8478
 5193SOL     OW27211   4.024   1.303   0.828 -0.0044  0.4804  0.2946
 5193SOL    HW127212   4.003   1.392   0.799 -0.4082  0.4179  0.3963
 5193SOL    HW227213   4.098   1.276   0.774 -0.0522 -2.6637  1.8418
 5194SOL     OW27214   1.776   4.115   4.782  0.3277  0.3647  0.2927
 5194SOL    HW127215   1.744   4.155   4.863 -0.6829 -5.0381  2.5648
 5194SOL    HW227216   1.870   4.111   4.799  0.5256  0.1578 -0.8635
 5195SOL     OW27217   2.718   3.808   8.622  0.2672  0.0148  0.6363
 5195SOL    HW127218   2.659   3.810   8.698 -1.0515  1.2902 -0.4417
 5195SOL    HW227219   2.739   3.715   8.614 -1.2311 -0.2400 -0.2106
 5196SOL     OW27220   0.189   1.851   6.452 -0.0878  0.1138  0.1701
 5196SOL    HW127221   0.183   1.796   6.530  1.2921 -0.6217 -0.2230
 5196SOL    HW227222   0.280   1.878   6.464 -1.4392  4.5614  0.4764
 5197SOL     OW27223   4.432   1.407   5.326  0.0115 -0.0208  0.2239
 5197SOL    HW127224   4.455   1.347   5.397  0.6454  0.3544  0.3370
 5197SOL    HW227225   4.381   1.346   5.273  0.0365 -1.0168  1.3418
 5198SOL     OW27226   2.198   3.446   0.064 -0.4880  0.4609 -0.1753
 5198SOL    HW127227   2.117   3.451   0.116  0.7584  0.3522  1.7781
 5198SOL    HW227228   2.267   3.468   0.126 -1.8797  4.7213 -0.1416
 5199SOL     OW27229   2.004   0.702  16.629 -0.6979 -0.5916 -0.4907
 5199SOL    HW127230   2.064   0.776  16.644 -1.8322  0.5930 -1.7591
 5199SOL    HW227231   1.970   0.715  16.540 -1.2404 -1.4153 -0.4009
 5200SOL     OW27232   2.391   3.103   0.053 -0.2582 -0.1800 -0.3047
 5200SOL    HW127233   2.388   3.166  17.724 -0.3366  0.6314  0.4043
 5200SOL    HW227234   2.485   3.093   0.070 -0.0469  0.9265 -0.7793
 5201SOL     OW27235   2.049   4.509   9.818  0.2540 -0.6900 -0.0490
 5201SOL    HW127236   1.975   4.449   9.818  0.7239 -1.2448 -2.4523
 5201SOL    HW227237   2.070   4.503   9.725 -3.5027  0.1442 -0.9387
 5202SOL     OW27238   1.810   1.918   5.198 -0.6099  0.6582  0.0652
 5202SOL    HW127239   1.757   1.893   5.122 -0.2694 -0.7399  0.2862
 5202SOL    HW227240   1.759   1.995   5.222 -0.6267  0.4983  0.5391
 5203SOL     OW27241   1.003   2.975  17.703  0.7410  0.1680 -0.1922
 5203SOL    HW127242   1.074   2.988  17.639  0.6185  2.4356  0.1476
 5203SOL    HW227243   0.918   2.992  17.662  0.3176 -2.5121 -0.4415
 5204SOL     OW27244   0.792   4.429   3.680 -0.7677  0.4987  0.5318
 5204SOL    HW127245   0.706   4.434   3.637 -0.1852 -0.7697 -0.7786
 5204SOL    HW227246   0.840   4.389   3.608 -0.8901 -1.0144  1.2985
 5205SOL     OW27247   3.539   1.212   6.105 -0.8357 -0.9245 -0.5502
 5205SOL    HW127248   3.460   1.203   6.051 -0.4444 -0.4587 -1.2030
 5205SOL    HW227249   3.611   1.214   6.041  0.1070 -1.3913  0.4944
 5206SOL     OW27250   1.105   4.218   3.005 -0.4841  0.3006  0.1354
 5206SOL    HW127251   1.030   4.176   3.047 -0.2279 -2.6342 -2.3506
 5206SOL    HW227252   1.105   4.300   3.054 -0.4977 -0.0064  0.6529
 5207SOL     OW27253   0.835   3.235  15.017 -0.2323 -0.0444 -0.1220
 5207SOL    HW127254   0.878   3.155  15.048 -3.3284 -2.4760 -2.0911
 5207SOL    HW227255   0.820   3.289  15.095 -1.8949 -1.3537  0.4711
 5208SOL     OW27256   0.322   0.981   2.854  0.4700 -0.0004  0.6808
 5208SOL    HW127257   0.332   0.943   2.941  2.4863 -1.0274  0.0254
 5208SOL    HW227258   0.298   1.071   2.873  2.5433  1.0090 -1.3575
 5209SOL     OW27259   2.718   0.003  12.782  0.1109 -0.7019  0.2395
 5209SOL    HW127260   2.650   0.055  12.824 -0.1523  0.0415 -1.0927
 5209SOL    HW227261   2.708   0.030  12.691  1.5494 -0.7324  0.0743
 5210SOL     OW27262   3.156   4.023   4.686  0.5668  0.0717 -0.1510
 5210SOL    HW127263   3.136   3.943   4.639 -2.6193  1.8975 -1.9066
 5210SOL    HW227264   3.232   3.993   4.736  1.8648  2.1635 -0.8737
 5211SOL     OW27265   0.070   4.515   0.576  0.3466  0.4620 -0.1956
 5211SOL    HW127266   0.130   4.467   0.519  0.2426  1.0802 -0.8237
 5211SOL    HW227267   4.723   4.475   0.554  1.4545 -0.6755 -2.2744
 5212SOL     OW27268   2.911   1.056   4.292 -0.0687  0.1063  0.2745
 5212SOL    HW127269   2.903   0.964   4.267 -1.9313 -0.0436  1.4463
 5212SOL    HW227270   2.826   1.090   4.321  0.2871  1.5443 -0.3656
 5213SOL     OW27271   2.471   4.321   7.287 -0.4861 -0.3744  0.7085
 5213SOL    HW127272   2.420   4.297   7.210  0.0978  0.2717  0.1174
 5213SOL    HW227273   2.407   4.380   7.326  0.0061  0.8598 -0.3648
 5214SOL     OW27274   0.622   3.666  10.008 -0.2248 -0.6115 -0.1483
 5214SOL    HW127275   0.628   3.742   9.950  0.3756  0.1653  0.9254
 5214SOL    HW227276   0.716   3.650  10.020 -0.0055  0.3991 -0.5419
 5215SOL     OW27277   4.347   4.143   2.896 -0.0296  0.2063  0.3469
 5215SOL    HW127278   4.276   4.086   2.869 -0.1470  0.9226 -0.8366
 5215SOL    HW227279   4.416   4.132   2.830  0.7741  1.3151  0.9840
 5216SOL     OW27280   0.296   4.107   8.044  0.5273 -0.2301 -0.2088
 5216SOL    HW127281   0.385   4.126   8.073  0.4265 -0.3211  0.1576
 5216SOL    HW227282   0.303   4.019   8.008 -0.1144 -0.2162 -0.3679
 5217SOL     OW27283   3.681   0.410   5.541 -0.1533  0.4028  0.4685
 5217SOL    HW127284   3.762   0.362   5.555 -0.0569  0.7999  1.2657
 5217SOL    HW227285   3.625   0.340   5.506 -1.6264  1.7608  0.1070
 5218SOL     OW27286   0.404   1.169   0.034 -0.0685  0.1937  0.4838
 5218SOL    HW127287   0.385   1.096  17.718 -0.1701  1.2787 -0.8196
 5218SOL    HW227288   0.500   1.172   0.032 -0.1306  0.5925 -1.6839
 5219SOL     OW27289   3.358   4.513   2.094 -0.3088  0.3254  0.2365
 5219SOL    HW127290   3.443   4.503   2.137 -0.1979  0.4794  0.0506
 5219SOL    HW227291   3.309   4.560   2.161 -0.6417  0.4930 -0.1281
 5220SOL     OW27292   4.570   3.347   8.955  0.0045 -0.4158 -0.2351
 5220SOL    HW127293   4.649   3.331   9.006 -0.6531  1.7881  1.4454
 5220SOL    HW227294   4.599   3.313   8.870  0.4278  1.1195 -0.7057
 5221SOL     OW27295   4.422   1.107   4.530  0.1816  0.4479  0.1145
 5221SOL    HW127296   4.345   1.053   4.548 -1.3318  2.6616  0.3428
 5221SOL    HW227297   4.475   1.072   4.601 -0.4243  0.7450  0.7113
 5222SOL     OW27298   2.886   1.730  12.767 -0.0641 -0.0533  1.0363
 5222SOL    HW127299   2.972   1.698  12.794  0.0224  0.1492  1.0033
 5222SOL    HW227300   2.889   1.821  12.796 -2.3573  0.0645  0.9196
 5223SOL     OW27301   4.457   1.380   9.067 -0.3273 -0.2422  0.8130
 5223SOL    HW127302   4.478   1.292   9.035  0.6047  0.2937 -0.0480
 5223SOL    HW227303   4.544   1.410   9.094 -0.2833  1.0751 -0.7853
 5224SOL     OW27304   0.105   2.340   2.862  0.4089  0.3572 -0.6888
 5224SOL    HW127305   0.060   2.272   2.813 -0.3823  1.7531 -1.8953
 5224SOL    HW227306   0.123   2.302   2.948  0.4512  0.6040 -0.5887
 5225SOL     OW27307   2.694   3.842   7.403  0.2033 -0.2453  0.0869
 5225SOL    HW127308   2.719   3.916   7.347  0.1926 -1.6500 -1.7724
 5225SOL    HW227309   2.757   3.772   7.381  0.4686 -0.3948  1.3140
 5226SOL     OW27310   1.525   0.869   5.922 -0.1994  0.1853 -0.5460
 5226SOL    HW127311   1.476   0.894   6.001  0.8972 -1.9120  0.7909
 5226SOL    HW227312   1.552   0.952   5.883  0.9397  0.5178  0.9255
 5227SOL     OW27313   1.288   4.552  14.634 -0.0403 -0.0251 -0.0328
 5227SOL    HW127314   1.276   4.644  14.658  2.6164 -0.1108  1.6105
 5227SOL    HW227315   1.362   4.568  14.576 -3.3730  1.6530 -3.8459
 5228SOL     OW27316   1.176   2.926   2.707  0.0125 -0.4528  0.3827
 5228SOL    HW127317   1.114   2.975   2.760  1.4679  1.8383 -0.0188
 5228SOL    HW227318   1.261   2.922   2.751  0.6872 -1.8134 -1.0345
 5229SOL     OW27319   3.621   1.928   6.906  0.1216 -0.0612  0.6730
 5229SOL    HW127320   3.536   1.909   6.946 -0.2042 -1.0886 -0.4802
 5229SOL    HW227321   3.587   1.974   6.830 -2.5119 -2.1244  0.5897
 5230SOL     OW27322   3.212   3.076   3.751  0.3593 -0.1218 -0.7246
 5230SOL    HW127323   3.262   3.073   3.832 -0.6925 -0.1516 -0.0871
 5230SOL    HW227324   3.125   3.108   3.774  0.4740 -1.0099  0.9017
 5231SOL     OW27325   0.527   3.882   7.299  0.3106 -1.0656  0.6572
 5231SOL    HW127326   0.451   3.876   7.241 -0.9228  0.6484  2.1026
 5231SOL    HW227327   0.560   3.792   7.297  0.8679 -0.8127 -1.5137
 5232SOL     OW27328   3.881   3.808  12.872  0.0800  0.2113 -0.3772
 5232SOL    HW127329   3.911   3.722  12.903  0.7798 -0.2856 -2.4281
 5232SOL    HW227330   3.814   3.791  12.805  2.1647 -0.4729 -2.3107
 5233SOL     OW27331   0.387   3.612   1.321  0.2372  0.0491  0.4460
 5233SOL    HW127332   0.376   3.535   1.265 -0.4415 -0.0264  0.6852
 5233SOL    HW227333   0.324   3.668   1.276 -0.3201  0.8979  2.2807
 5234SOL     OW27334   1.699   1.580   4.736 -0.0098 -0.3133 -0.1450
 5234SOL    HW127335   1.694   1.502   4.681  0.2263 -0.8332  0.5700
 5234SOL    HW227336   1.791   1.603   4.725 -0.0232 -0.4349 -0.5269
 5235SOL     OW27337   3.179   2.674   5.211  0.3491 -0.3869  0.6972
 5235SOL    HW127338   3.127   2.665   5.291 -0.9112 -0.0115 -0.0931
 5235SOL    HW227339   3.129   2.613   5.158  1.3272 -0.2464 -0.3859
 5236SOL     OW27340   1.172   1.894  14.832  0.4506  0.3608  0.4747
 5236SOL    HW127341   1.266   1.892  14.850  0.4344 -1.5453  0.3210
 5236SOL    HW227342   1.159   1.803  14.804  1.4392 -0.2081  1.8931
 5237SOL     OW27343   1.408   0.920  12.480  0.4754 -0.7467 -0.2156
 5237SOL    HW127344   1.331   0.865  12.467 -0.7189  1.3787 -2.3263
 5237SOL    HW227345   1.408   0.972  12.399  1.4381 -0.2447  0.0961
 5238SOL     OW27346   2.064   3.674   4.468  0.4654 -0.4358  0.4889
 5238SOL    HW127347   1.994   3.731   4.438  1.3092  0.7606  0.8042
 5238SOL    HW227348   2.091   3.723   4.546 -1.4403  1.7812 -0.2643
 5239SOL     OW27349   0.412   3.873   2.580 -0.5164 -0.3071  0.1806
 5239SOL    HW127350   0.427   3.809   2.511  0.5633 -0.7315  0.8146
 5239SOL    HW227351   0.336   3.835   2.623 -2.1969 -0.9196 -3.2930
 5240SOL     OW27352   3.664   4.580  16.300  0.2562  0.3072  0.6124
 5240SOL    HW127353   3.642   4.626  16.218 -1.2481 -1.1360  0.1969
 5240SOL    HW227354   3.642   4.490  16.274  1.7046  0.3353 -0.7322
 5241SOL     OW27355   3.813   1.243   2.923 -0.2452 -0.3168 -0.1501
 5241SOL    HW127356   3.720   1.255   2.903 -0.1497 -0.6723 -0.8137
 5241SOL    HW227357   3.819   1.147   2.920 -0.7400 -0.3789  0.8399
 5242SOL     OW27358   0.374   1.355   5.404  0.0756 -1.0284 -1.1709
 5242SOL    HW127359   0.393   1.360   5.311  0.4143 -0.3810 -1.0709
 5242SOL    HW227360   0.280   1.370   5.416  0.5305  0.0536  1.0947
 5243SOL     OW27361   3.720   3.731   0.680  0.3106 -0.0822 -0.0907
 5243SOL    HW127362   3.650   3.718   0.617 -0.4559 -1.4732  1.0463
 5243SOL    HW227363   3.699   3.821   0.704  0.4279 -0.3066  0.8795
 5244SOL     OW27364   0.688   4.044   8.550 -0.0353 -0.2153 -0.3611
 5244SOL    HW127365   0.635   3.985   8.496 -0.5949 -0.2464  0.2288
 5244SOL    HW227366   0.769   4.062   8.502  0.6563 -1.4574  0.3432
 5245SOL     OW27367   2.856   2.995   3.603 -0.0030 -0.3480 -0.0241
 5245SOL    HW127368   2.856   3.026   3.693 -5.5236 -0.7517  0.1159
 5245SOL    HW227369   2.837   3.072   3.549  0.2484  0.6759  1.3587
 5246SOL     OW27370   3.201   2.021   2.996  0.4414  0.1262 -0.0250
 5246SOL    HW127371   3.109   2.027   3.022  0.1495 -1.1546 -0.7968
 5246SOL    HW227372   3.199   1.988   2.907 -0.6525  1.2409 -0.4195
 5247SOL     OW27373   1.733   3.399   5.201  0.2144  0.2272  0.7033
 5247SOL    HW127374   1.807   3.391   5.262  0.6684  0.6694  0.2085
 5247SOL    HW227375   1.716   3.492   5.218  0.5044  1.0518 -3.4766
 5248SOL     OW27376   3.546   3.362   9.287 -0.1771  0.2435 -0.2439
 5248SOL    HW127377   3.495   3.387   9.364 -0.7755 -4.4332  0.8494
 5248SOL    HW227378   3.632   3.349   9.327 -0.4023 -1.5231 -0.3628
 5249SOL     OW27379   4.698   3.345  16.165 -0.4318 -0.2918 -0.2245
 5249SOL    HW127380   4.682   3.251  16.156 -1.6987 -0.2825  1.9226
 5249SOL    HW227381   4.677   3.355  16.258  0.5608  0.1846 -0.0542
 5250SOL     OW27382   4.229   4.257  11.436  0.0478  0.2530 -0.4780
 5250SOL    HW127383   4.293   4.202  11.480 -0.5800  0.1368  0.2922
 5250SOL    HW227384   4.177   4.287  11.510  2.2824  1.3984  0.6172
 5251SOL     OW27385   2.847   3.511   6.058  0.0123  0.2257 -0.0007
 5251SOL    HW127386   2.892   3.588   6.024  0.3977 -0.4326 -1.0097
 5251SOL    HW227387   2.773   3.552   6.101 -1.3064 -1.8632 -0.2883
 5252SOL     OW27388   0.723   0.043  13.958 -0.1782 -0.0457 -0.3798
 5252SOL    HW127389   0.754   0.081  13.876  2.6532  0.3757  0.8641
 5252SOL    HW227390   0.757   0.102  14.026  1.5563 -0.0286 -1.2474
 5253SOL     OW27391   1.128   4.619   4.655 -0.0410 -0.4202 -0.1408
 5253SOL    HW127392   1.114   4.554   4.724 -0.9088  0.4507  0.5093
 5253SOL    HW227393   1.129   4.695   4.714 -0.9225  0.2258 -0.9444
 5254SOL     OW27394   3.759   1.104   4.794  0.0367  0.0656 -0.5833
 5254SOL    HW127395   3.810   1.165   4.848  2.3787 -1.7662 -0.7675
 5254SOL    HW227396   3.749   1.023   4.843  1.7355  0.4251  0.3354
 5255SOL     OW27397   2.944   2.327   9.874 -0.4684 -0.5236 -0.4242
 5255SOL    HW127398   3.027   2.307   9.916  0.0093 -0.1736 -1.2088
 5255SOL    HW227399   2.956   2.410   9.829 -1.7796  0.3895  0.9361
 5256SOL     OW27400   1.352   3.330  15.271 -0.0852 -0.3948 -0.0075
 5256SOL    HW127401   1.398   3.385  15.208  0.5541 -0.4712  0.3874
 5256SOL    HW227402   1.325   3.258  15.213  2.8208  1.4748 -3.6636
 5257SOL     OW27403   2.706   1.133   8.634 -0.2485 -0.2918 -0.2868
 5257SOL    HW127404   2.685   1.097   8.547 -0.3488  0.7347 -0.6890
 5257SOL    HW227405   2.635   1.196   8.650  0.1872  0.0372  0.3523
 5258SOL     OW27406   1.507   3.983  11.038  0.5146  0.1406 -0.3631
 5258SOL    HW127407   1.532   3.990  11.131  2.4589  0.6038 -0.9359
 5258SOL    HW227408   1.538   4.070  11.013  0.9701 -0.0367 -0.4154
 5259SOL     OW27409   1.998   3.095  11.123 -0.1647  0.3303  0.2404
 5259SOL    HW127410   1.958   3.023  11.171  2.4123 -1.1024  0.2569
 5259SOL    HW227411   1.994   3.169  11.183 -1.4737 -1.9843  2.9909
 5260SOL     OW27412   0.266   1.407   0.012 -0.1689  0.2763 -0.2014
 5260SOL    HW127413   0.300   1.401  17.665  4.1987  0.1456  1.4318
 5260SOL    HW227414   0.267   1.313   0.029 -0.7251  0.1258 -1.0257
 5261SOL     OW27415   3.288   1.828   5.396  0.6690  0.6743  0.3546
 5261SOL    HW127416   3.201   1.821   5.433  1.0606  0.7607  1.2912
 5261SOL    HW227417   3.277   1.891   5.325  1.6810 -0.0927 -0.4907
 5262SOL     OW27418   1.510   4.680   3.939  0.3352 -0.3848 -0.3298
 5262SOL    HW127419   1.602   4.687   3.915  0.1986  0.9107 -0.4799
 5262SOL    HW227420   1.504   4.585   3.938  2.3226 -0.5011 -1.3792
 5263SOL     OW27421   0.383   1.428   1.069  0.3208  0.1169 -0.0164
 5263SOL    HW127422   0.376   1.524   1.076 -1.2363 -0.0117  0.2716
 5263SOL    HW227423   0.459   1.413   1.013  2.2366  2.7691  1.8265
 5264SOL     OW27424   4.520   1.660   2.216  0.2939 -0.8370  0.0320
 5264SOL    HW127425   4.497   1.568   2.229  0.1653 -0.8223 -0.0901
 5264SOL    HW227426   4.612   1.661   2.242  0.2901 -1.5787  0.0923
 5265SOL     OW27427   1.271   2.211   5.919 -0.8374 -0.2773 -0.1035
 5265SOL    HW127428   1.263   2.115   5.912  0.2397 -0.4147  0.6439
 5265SOL    HW227429   1.359   2.225   5.953 -0.3192 -2.7425 -0.4025
 5266SOL     OW27430   1.925   0.705   3.991 -0.2552 -0.0089  0.2135
 5266SOL    HW127431   1.867   0.780   3.982 -1.7687 -1.0131  1.6322
 5266SOL    HW227432   1.951   0.698   4.083 -1.1945 -0.4071  0.4381
 5267SOL     OW27433   0.472   4.066  13.035  0.0618 -0.3382  0.3884
 5267SOL    HW127434   0.557   4.032  13.006  1.3714  1.8421  1.6736
 5267SOL    HW227435   0.424   3.983  13.037 -2.2130  0.9444 -1.7114
 5268SOL     OW27436   3.137   0.922  10.446 -0.1290  0.2525 -0.1871
 5268SOL    HW127437   3.083   0.905  10.524  0.7625  0.8533  0.5696
 5268SOL    HW227438   3.102   0.870  10.374  0.6764  0.5471 -0.7930
 5269SOL     OW27439   0.459   4.159   7.358  0.0771  0.2200 -0.8964
 5269SOL    HW127440   0.462   4.067   7.334 -0.7515  0.3131 -1.3769
 5269SOL    HW227441   0.426   4.152   7.447  0.9225 -0.7129 -0.6603
 5270SOL     OW27442   4.545   3.031  13.625 -0.5232 -0.4207  0.2018
 5270SOL    HW127443   4.510   3.083  13.553 -1.5116  1.3622  1.9581
 5270SOL    HW227444   4.486   2.960  13.649 -2.8060  1.4413  0.1269
 5271SOL     OW27445   3.239   1.110   7.991 -0.4077 -0.5151 -0.2921
 5271SOL    HW127446   3.333   1.104   7.972  0.0834  1.2679  1.6119
 5271SOL    HW227447   3.226   1.166   7.914  1.5130  3.2539  2.1567
 5272SOL     OW27448   3.631   2.873   0.941 -0.2604 -0.1605 -0.2720
 5272SOL    HW127449   3.584   2.842   1.019  0.9633  0.1865  0.5915
 5272SOL    HW227450   3.718   2.843   0.968 -0.1364 -2.1599 -2.9567
 5273SOL     OW27451   4.484   1.218   7.705 -0.1169  0.1516  0.2923
 5273SOL    HW127452   4.417   1.279   7.674 -0.4662  0.4781  1.6855
 5273SOL    HW227453   4.516   1.259   7.786 -2.2714  1.7588  0.3230
 5274SOL     OW27454   4.043   2.319   1.992 -0.5862  0.0328 -0.9639
 5274SOL    HW127455   4.044   2.270   1.910 -0.5150  0.5535 -1.2724
 5274SOL    HW227456   4.038   2.411   1.968 -1.1995  0.5115  0.9803
 5275SOL     OW27457   4.113   2.292  17.189 -0.6964  0.2621  0.1378
 5275SOL    HW127458   4.143   2.331  17.272  0.9156 -0.1353 -0.2608
 5275SOL    HW227459   4.086   2.367  17.137  0.2435  1.2157  1.0109
 5276SOL     OW27460   4.627   0.372   4.557  0.3569 -0.4178 -0.3070
 5276SOL    HW127461   4.535   0.368   4.584  0.6651  0.4420  0.8849
 5276SOL    HW227462   4.650   0.450   4.608  1.3296 -0.0793 -1.2430
 5277SOL     OW27463   3.568   2.925   3.296 -0.4534  0.3807  0.0891
 5277SOL    HW127464   3.643   2.972   3.331 -1.9867  2.8261  0.0686
 5277SOL    HW227465   3.534   2.891   3.379 -0.7865  1.1528  0.2648
 5278SOL     OW27466   0.861   3.075  11.153  0.6309  0.6383 -0.2713
 5278SOL    HW127467   0.808   3.155  11.145  1.4851  1.2232 -0.0985
 5278SOL    HW227468   0.788   3.016  11.172  2.7986 -1.2971  2.0008
 5279SOL     OW27469   4.193   2.030   2.718  0.1700  0.3401 -0.2594
 5279SOL    HW127470   4.157   2.100   2.663 -1.1123  1.2177  1.6807
 5279SOL    HW227471   4.206   1.962   2.652 -0.6947 -0.2220  0.1493
 5280SOL     OW27472   0.571   3.152   6.075 -0.0780 -0.3934  0.3253
 5280SOL    HW127473   0.592   3.061   6.096  1.5801  0.0599  0.6013
 5280SOL    HW227474   0.614   3.201   6.144  1.7942 -1.9741  0.2899
 5281SOL     OW27475   0.074   0.446   7.715 -0.5320  0.2531 -0.0800
 5281SOL    HW127476   0.022   0.499   7.776  0.0589 -0.0737  0.7058
 5281SOL    HW227477   0.009   0.420   7.650 -0.1516  0.0541 -0.3818
 5282SOL     OW27478   1.089   3.980  17.014 -0.8236 -0.0987  0.3972
 5282SOL    HW127479   1.093   3.977  17.110 -2.4130  0.4162  0.4889
 5282SOL    HW227480   1.157   3.921  16.985 -0.3873  1.0252 -0.8499
 5283SOL     OW27481   4.176   4.707  16.617  0.0991  0.2617 -0.3516
 5283SOL    HW127482   4.090   0.010  16.626  0.5743  1.0338  0.7792
 5283SOL    HW227483   4.184   4.697  16.522 -0.5146 -0.6753 -0.3081
 5284SOL     OW27484   0.969   4.129  16.821 -0.7228  0.2932  0.2353
 5284SOL    HW127485   0.919   4.058  16.780 -1.0120  0.2826  0.6128
 5284SOL    HW227486   1.014   4.082  16.891  1.3676 -0.0764 -1.3597
 5285SOL     OW27487   4.703   2.682   0.555  0.5147 -0.0036 -0.4513
 5285SOL    HW127488   0.062   2.692   0.546  0.5210 -2.2011 -2.8774
 5285SOL    HW227489   4.701   2.594   0.591  0.2763  0.4936  0.7320
 5286SOL     OW27490   1.538   0.331   8.146  0.3594 -0.1249 -0.0232
 5286SOL    HW127491   1.473   0.339   8.076 -1.6142 -1.1120  1.7195
 5286SOL    HW227492   1.510   0.244   8.174  0.3102 -0.3836 -0.8691
 5287SOL     OW27493   4.516   0.099   7.109 -0.0818 -0.3090 -0.2900
 5287SOL    HW127494   4.498   0.010   7.077  0.7394 -0.9627  1.0649
 5287SOL    HW227495   4.534   0.140   7.025  1.0807 -2.2390 -0.9947
 5288SOL     OW27496   2.903   2.877  11.287 -0.6318  0.5219  0.5840
 5288SOL    HW127497   2.929   2.846  11.374 -0.7766  0.2495  0.5320
 5288SOL    HW227498   2.814   2.910  11.298 -1.1495  0.1176 -2.2563
 5289SOL     OW27499   2.922   1.507  16.503  0.9596 -0.1842  0.1657
 5289SOL    HW127500   2.969   1.564  16.443  2.0624 -2.0266 -0.7044
 5289SOL    HW227501   2.938   1.547  16.589  1.4024 -0.2500  0.1102
 5290SOL     OW27502   1.385   0.169  12.699 -0.1823  0.5227 -0.2647
 5290SOL    HW127503   1.362   0.098  12.759  0.2933  1.0204  0.5117
 5290SOL    HW227504   1.300   0.209  12.684 -0.3186 -0.0380 -0.9805
 5291SOL     OW27505   0.350   2.175   8.265 -0.5412 -0.3356  0.3148
 5291SOL    HW127506   0.269   2.212   8.229 -0.3411  1.8186  2.0929
 5291SOL    HW227507   0.338   2.197   8.357  1.3876 -0.1983  0.5178
 5292SOL     OW27508   1.900   1.765  16.335 -0.5637  0.7956  0.1055
 5292SOL    HW127509   1.886   1.678  16.373 -0.5751 -0.3488 -2.5156
 5292SOL    HW227510   1.834   1.818  16.379 -0.3544  1.2760 -0.1651
 5293SOL     OW27511   0.218   2.562   0.593 -0.1195 -0.1124 -0.4371
 5293SOL    HW127512   0.212   2.473   0.629 -0.9924 -0.4144 -1.3253
 5293SOL    HW227513   0.248   2.622   0.661  0.4845  0.1594 -0.9501
 5294SOL     OW27514   3.028   1.006  16.283  0.0161 -0.3220  0.1464
 5294SOL    HW127515   3.078   1.023  16.363 -1.2342 -0.1908  0.8878
 5294SOL    HW227516   2.939   1.030  16.307  0.2082 -1.0370  1.6056
 5295SOL     OW27517   0.535   1.294   1.779  0.1970 -0.3090  0.4214
 5295SOL    HW127518   0.462   1.355   1.773 -0.3911 -1.0737 -0.2314
 5295SOL    HW227519   0.544   1.269   1.687  2.2908  0.8408  0.3153
 5296SOL     OW27520   3.966   3.761  13.414  0.3480  0.0141  0.7788
 5296SOL    HW127521   3.951   3.816  13.338 -2.7299 -0.3513  1.1202
 5296SOL    HW227522   3.879   3.767  13.453 -0.2200  5.1579 -1.2919
 5297SOL     OW27523   3.005   0.860   7.223  0.0773  0.0990  0.6199
 5297SOL    HW127524   2.933   0.852   7.286 -1.1557 -0.2713 -0.8323
 5297SOL    HW227525   2.945   0.860   7.148 -0.2300  1.6947  0.8661
 5298SOL     OW27526   2.242   3.956   4.285  0.1241 -0.9335  0.2194
 5298SOL    HW127527   2.167   3.953   4.344 -0.4200  0.3171 -0.4003
 5298SOL    HW227528   2.212   3.920   4.202  2.1235 -1.1330 -0.4167
 5299SOL     OW27529   3.636   0.840   5.156  0.1287  0.1522  0.2435
 5299SOL    HW127530   3.676   0.912   5.204 -1.3468  0.7982  0.4934
 5299SOL    HW227531   3.645   0.769   5.219  0.3330  1.0405  1.2109
 5300SOL     OW27532   0.720   3.680   8.459  0.5554  0.5296 -0.1956
 5300SOL    HW127533   0.747   3.672   8.550  0.1426  1.3954  0.0033
 5300SOL    HW227534   0.654   3.749   8.469 -1.3303 -1.5751  1.8000
 5301SOL     OW27535   2.859   3.359  11.681 -0.1066  0.3015 -0.0889
 5301SOL    HW127536   2.885   3.443  11.717 -0.6262  1.3635 -2.2171
 5301SOL    HW227537   2.942   3.332  11.640 -0.2433  0.5254 -0.5012
 5302SOL     OW27538   1.000   2.529  11.728  0.0971  0.0355  0.4189
 5302SOL    HW127539   1.071   2.592  11.744 -2.4495  3.1772 -0.6277
 5302SOL    HW227540   1.053   2.458  11.691  0.6354  0.8673 -0.4341
 5303SOL     OW27541   0.544   2.134  16.528  0.2847 -0.2370 -0.1117
 5303SOL    HW127542   0.596   2.182  16.592  0.0065 -0.2147  0.0989
 5303SOL    HW227543   0.486   2.208  16.510  0.2529 -0.0080  0.9137
 5304SOL     OW27544   1.384   4.140   4.195 -0.1002  0.2032 -0.1959
 5304SOL    HW127545   1.461   4.097   4.157 -0.1964 -1.1294  1.1623
 5304SOL    HW227546   1.319   4.124   4.127 -0.1713  0.4123 -0.1792
 5305SOL     OW27547   3.113   1.855  17.505  1.3879  0.4232  0.0861
 5305SOL    HW127548   3.130   1.915  17.433 -0.8187 -0.3144 -1.0490
 5305SOL    HW227549   3.201   1.836  17.535  0.6544 -0.4032  1.7236
 5306SOL     OW27550   3.567   0.797  17.193  0.9679 -0.9398 -0.4471
 5306SOL    HW127551   3.633   0.866  17.187  1.6597 -1.6424 -0.9013
 5306SOL    HW227552   3.578   0.754  17.108  0.6602 -0.2595 -0.8311
 5307SOL     OW27553   0.785   3.792   3.866 -0.0401  0.2385 -1.0274
 5307SOL    HW127554   0.702   3.815   3.826 -0.1085  1.1858 -0.3313
 5307SOL    HW227555   0.817   3.738   3.794  3.5796 -0.0541  0.7419
 5308SOL     OW27556   2.188   0.774  12.827  0.2412  0.0331 -0.0058
 5308SOL    HW127557   2.223   0.863  12.820  0.0138 -0.0052 -1.4880
 5308SOL    HW227558   2.254   0.735  12.885  0.9664 -0.8041 -1.4140
 5309SOL     OW27559   2.325   0.025   4.583 -0.5687  0.0637  0.1863
 5309SOL    HW127560   2.271   0.035   4.661 -1.9977 -2.0692 -0.5464
 5309SOL    HW227561   2.301   4.672   4.557  0.6930 -0.0901 -0.4676
 5310SOL     OW27562   1.557   3.880   2.477  0.5341 -0.2909  1.3571
 5310SOL    HW127563   1.483   3.825   2.504  0.0763  0.8187  2.3744
 5310SOL    HW227564   1.626   3.827   2.517  1.0780 -0.6098 -0.0135
 5311SOL     OW27565   1.185   4.178   5.956 -0.6772 -0.2437 -0.4710
 5311SOL    HW127566   1.099   4.137   5.956 -0.9312  0.2898 -1.3396
 5311SOL    HW227567   1.241   4.133   5.893 -1.3777 -0.6183 -0.8234
 5312SOL     OW27568   0.330   0.921  14.875  0.2273 -0.0928 -0.8021
 5312SOL    HW127569   0.303   1.006  14.911 -0.1050 -0.4050 -0.3154
 5312SOL    HW227570   0.421   0.946  14.858  0.8952 -1.8838  0.0872
 5313SOL     OW27571   2.631   4.561  15.503 -0.3936  0.2352 -0.4278
 5313SOL    HW127572   2.673   4.595  15.424 -0.1166  1.5757  0.3013
 5313SOL    HW227573   2.621   4.470  15.477  2.0052 -0.4571  1.0837
 5314SOL     OW27574   4.306   1.084   5.652  0.3585  0.0103 -0.3699
 5314SOL    HW127575   4.249   1.151   5.615  0.9447  0.5124 -0.3638
 5314SOL    HW227576   4.288   1.091   5.746 -0.9952 -2.0667 -0.4653
 5315SOL     OW27577   1.723   4.549   2.484 -0.0853  1.0273 -0.2131
 5315SOL    HW127578   1.783   4.521   2.414  2.0414  0.7781  1.7092
 5315SOL    HW227579   1.675   4.466   2.486 -0.8227  1.4547 -0.3952
 5316SOL     OW27580   4.668   4.593   8.803 -0.1643 -0.6099 -0.4259
 5316SOL    HW127581   4.643   4.596   8.896 -2.0974  1.6423 -1.0227
 5316SOL    HW227582   0.026   4.578   8.812 -0.0249  0.3406 -0.2310
 5317SOL     OW27583   1.309   2.545   5.256 -0.1086  0.2017  0.0866
 5317SOL    HW127584   1.227   2.592   5.248  0.4875  0.7607 -2.6993
 5317SOL    HW227585   1.276   2.456   5.242 -0.0182 -0.2143  2.5812
 5318SOL     OW27586   2.352   4.223   7.923 -0.4356  0.0811  0.3079
 5318SOL    HW127587   2.274   4.276   7.935 -0.4378 -0.0068  0.6992
 5318SOL    HW227588   2.349   4.161   7.996 -0.8150  0.4926  0.6417
 5319SOL     OW27589   4.165   0.179   2.707  0.0514  0.1138 -0.4446
 5319SOL    HW127590   4.236   0.116   2.718 -1.7317 -2.1974 -1.9766
 5319SOL    HW227591   4.211   0.262   2.700  2.0469 -0.9367  0.0759
 5320SOL     OW27592   2.213   2.755   3.451  0.7448  0.3862  0.2068
 5320SOL    HW127593   2.210   2.703   3.532 -0.4558  1.1730  0.6685
 5320SOL    HW227594   2.126   2.736   3.417  0.8334  2.5304 -1.1991
 5321SOL     OW27595   3.851   0.554   7.478  0.2741 -0.6191  0.0108
 5321SOL    HW127596   3.913   0.481   7.475 -0.5201 -1.3309  0.9778
 5321SOL    HW227597   3.903   0.616   7.528  0.6704 -1.6141  0.8474
 5322SOL     OW27598   1.091   3.396   4.424  0.3438 -0.1356  0.0345
 5322SOL    HW127599   1.028   3.384   4.353  0.6334  0.4383 -0.3080
 5322SOL    HW227600   1.116   3.484   4.398 -0.2030  0.0483  0.1112
 5323SOL     OW27601   3.898   1.338   3.714  0.3650 -0.4504 -0.6981
 5323SOL    HW127602   3.861   1.365   3.630 -1.8272 -0.8897  0.1422
 5323SOL    HW227603   3.992   1.339   3.693  0.0817 -0.7804 -2.0212
 5324SOL     OW27604   3.257   1.189   8.640  0.2356 -0.4473 -0.5204
 5324SOL    HW127605   3.218   1.264   8.595  1.5120  1.0830  0.9231
 5324SOL    HW227606   3.236   1.210   8.731  0.3053  1.1908 -0.8810
 5325SOL     OW27607   3.452   3.836   7.669 -0.2619 -0.2881 -0.1524
 5325SOL    HW127608   3.392   3.763   7.654  0.8533 -1.6724  2.1402
 5325SOL    HW227609   3.409   3.889   7.737 -0.4742  0.3166 -0.7612
 5326SOL     OW27610   2.243   3.654  12.071 -0.0355 -0.5191  0.6110
 5326SOL    HW127611   2.265   3.676  11.981  1.2450  0.6219  1.2008
 5326SOL    HW227612   2.188   3.725  12.105 -0.0754 -0.4791  0.4620
 5327SOL     OW27613   3.539   0.042   8.475 -0.5666  0.2885  0.6923
 5327SOL    HW127614   3.580   0.107   8.418  0.0890 -0.1231  0.6825
 5327SOL    HW227615   3.479   0.102   8.518  1.2159  2.3050  0.4022
 5328SOL     OW27616   0.773   2.191   3.961  0.0675 -0.6526  0.4564
 5328SOL    HW127617   0.844   2.199   3.897  1.4444  2.8986  2.4363
 5328SOL    HW227618   0.766   2.282   3.989  3.0272 -0.1898 -0.3282
 5329SOL     OW27619   2.076   2.472   8.906 -0.1579 -0.3723 -0.2305
 5329SOL    HW127620   2.146   2.509   8.959 -0.2967  2.3240 -1.9461
 5329SOL    HW227621   2.043   2.543   8.852  0.5135  0.7739  0.8676
 5330SOL     OW27622   4.075   3.820   8.577  0.2599  0.5538  0.6543
 5330SOL    HW127623   4.159   3.802   8.533 -0.0808 -0.3680  0.3842
 5330SOL    HW227624   4.075   3.915   8.566  1.7549  0.4156 -0.6729
 5331SOL     OW27625   3.502   1.235   0.670  0.3922 -0.0678 -0.6494
 5331SOL    HW127626   3.441   1.169   0.703  1.6826 -1.2317 -0.6355
 5331SOL    HW227627   3.513   1.285   0.751  0.4919 -1.8656  0.4525
 5332SOL     OW27628   3.056   2.815   2.360 -0.4759  0.3752  0.8510
 5332SOL    HW127629   3.041   2.807   2.266 -2.2197  1.4253  1.0370
 5332SOL    HW227630   3.125   2.880   2.370 -1.5969  2.0485 -2.3806
 5333SOL     OW27631   2.565   4.282   2.766  0.3438 -0.2056 -0.1854
 5333SOL    HW127632   2.647   4.307   2.723  0.1877 -0.4114 -0.5958
 5333SOL    HW227633   2.565   4.186   2.757 -3.5301 -0.2516  0.3374
 5334SOL     OW27634   2.145   0.649   5.181 -0.0497 -1.0836 -0.1032
 5334SOL    HW127635   2.106   0.693   5.257  1.7390 -1.1028  0.8182
 5334SOL    HW227636   2.161   0.564   5.221  2.9081  0.3457  1.7559
 5335SOL     OW27637   1.595   3.220   7.741 -0.6905  0.0005  0.3606
 5335SOL    HW127638   1.534   3.284   7.779 -2.1312 -0.8596 -0.5261
 5335SOL    HW227639   1.530   3.160   7.705  0.8561 -0.3244 -1.8533
 5336SOL     OW27640   1.412   3.229  11.124  0.0016 -0.2203  0.0686
 5336SOL    HW127641   1.504   3.212  11.105 -0.0932 -2.0127  1.2575
 5336SOL    HW227642   1.397   3.275  11.041  1.3365  1.1007  0.5718
 5337SOL     OW27643   3.021   1.829   5.469  0.5587 -0.0919  0.0102
 5337SOL    HW127644   2.956   1.875   5.521 -1.2314 -1.2868 -1.1711
 5337SOL    HW227645   2.985   1.742   5.451 -0.8126  0.6848 -1.0344
 5338SOL     OW27646   0.185   3.773   4.567 -0.0110  0.5112 -0.6766
 5338SOL    HW127647   0.096   3.795   4.594 -0.1083 -0.1341 -0.4596
 5338SOL    HW227648   0.198   3.695   4.621 -0.4567 -0.1051 -1.4666
 5339SOL     OW27649   1.114   0.924   3.356  0.1089  0.1193  0.5915
 5339SOL    HW127650   1.047   0.965   3.410 -1.3265  2.5433 -3.0216
 5339SOL    HW227651   1.179   0.904   3.423 -0.8590 -1.5797  1.0291
 5340SOL     OW27652   2.537   3.127   2.148 -0.1053  0.0786 -0.3829
 5340SOL    HW127653   2.450   3.153   2.178 -0.7258 -2.0547 -0.3599
 5340SOL    HW227654   2.537   3.040   2.188 -0.1040  1.2227  2.1142
 5341SOL     OW27655   4.348   1.839   7.079 -0.0739  0.4577 -0.8449
 5341SOL    HW127656   4.433   1.880   7.060  1.9121 -3.0393  0.5866
 5341SOL    HW227657   4.312   1.840   6.990 -0.5418 -0.2910 -0.6611
 5342SOL     OW27658   4.078   0.622   5.004  0.1174 -0.0333  0.3033
 5342SOL    HW127659   4.065   0.605   4.910  0.0835  0.7714  0.1581
 5342SOL    HW227660   4.018   0.572   5.059 -0.9732  1.4069  0.4283
 5343SOL     OW27661   4.241   0.915   2.256 -0.5955  0.2268 -0.0544
 5343SOL    HW127662   4.210   0.837   2.303  0.3649 -0.3147 -0.3064
 5343SOL    HW227663   4.164   0.971   2.247 -0.7150  0.4274  2.3806
 5344SOL     OW27664   4.232   1.379   9.478 -1.2397  0.1154 -0.6699
 5344SOL    HW127665   4.208   1.463   9.439  0.7272  1.0938  0.2466
 5344SOL    HW227666   4.293   1.405   9.547 -0.1030 -2.0764 -0.8365
 5345SOL     OW27667   2.859   0.324   4.526 -0.8419  0.2032 -0.3419
 5345SOL    HW127668   2.835   0.378   4.450 -2.7951 -0.1231  0.0425
 5345SOL    HW227669   2.954   0.324   4.516 -0.9088  0.9323 -1.0204
 5346SOL     OW27670   0.728   1.547  13.419 -0.0280 -0.3571  0.0558
 5346SOL    HW127671   0.763   1.624  13.375 -1.5520 -0.2404 -0.9687
 5346SOL    HW227672   0.689   1.490  13.354 -2.3823  1.3415 -0.0275
 5347SOL     OW27673   1.889   1.513   2.826 -0.4880 -0.2428  0.1410
 5347SOL    HW127674   1.961   1.564   2.788 -0.3754 -1.1712 -0.8773
 5347SOL    HW227675   1.927   1.491   2.912 -1.2996 -2.3075 -0.0290
 5348SOL     OW27676   0.806   1.467   8.205  0.4979 -0.1235 -0.5621
 5348SOL    HW127677   0.821   1.555   8.238 -0.7376  0.2531 -1.0001
 5348SOL    HW227678   0.886   1.449   8.155  0.7595 -1.1052  0.1913
 5349SOL     OW27679   3.748   1.959   4.383 -0.0628  0.2729  0.2772
 5349SOL    HW127680   3.687   1.888   4.404 -1.4851  1.5821  0.5265
 5349SOL    HW227681   3.712   1.991   4.300 -0.9674 -0.0385  0.5553
 5350SOL     OW27682   3.236   2.412   3.601 -0.6686 -0.3684 -0.0378
 5350SOL    HW127683   3.177   2.387   3.672 -3.5892 -0.3576 -2.4582
 5350SOL    HW227684   3.178   2.473   3.555  0.2415 -0.5033 -1.3861
 5351SOL     OW27685   3.101   4.463   9.185  0.2143  0.1546 -0.1780
 5351SOL    HW127686   3.120   4.543   9.234  1.8683  0.6068 -1.5960
 5351SOL    HW227687   3.047   4.488   9.110  0.4132 -0.9423 -0.6899
 5352SOL     OW27688   1.868   3.011  10.174 -0.2923  0.0877  0.5932
 5352SOL    HW127689   1.774   3.004  10.158 -0.1047  0.5562 -0.7799
 5352SOL    HW227690   1.883   2.920  10.198  0.4891  0.6645  2.3286
 5353SOL     OW27691   2.206   3.138   8.106  0.0568  0.5547 -0.1358
 5353SOL    HW127692   2.187   3.129   8.199 -2.2905 -0.5562 -0.7174
 5353SOL    HW227693   2.123   3.173   8.075  0.1854 -0.0806 -1.2243
 5354SOL     OW27694   1.108   3.641  17.107  0.0011 -0.0922 -0.2343
 5354SOL    HW127695   1.059   3.649  17.025  0.0914  1.5360 -0.1292
 5354SOL    HW227696   1.089   3.547  17.110 -0.8495  0.0453 -1.3082
 5355SOL     OW27697   0.865   3.920   8.275 -0.2571  0.8025 -0.0254
 5355SOL    HW127698   0.797   3.959   8.220 -0.8329 -0.9453 -0.5358
 5355SOL    HW227699   0.883   3.989   8.339 -2.4002  1.1309  0.2185
 5356SOL     OW27700   2.087   3.802   9.873  0.3643 -0.5035 -0.0423
 5356SOL    HW127701   2.076   3.760   9.958  1.6425 -0.4795  0.1448
 5356SOL    HW227702   2.060   3.888   9.906 -2.0013 -0.8708 -1.0256
 5357SOL     OW27703   1.755   2.540  15.410 -0.1607  0.5319  0.4212
 5357SOL    HW127704   1.789   2.530  15.322  1.6176 -0.2589  1.2126
 5357SOL    HW227705   1.825   2.506  15.465  0.1853  0.6017  0.0223
 5358SOL     OW27706   1.061   2.320  15.064  0.3734  0.0406 -0.1309
 5358SOL    HW127707   1.111   2.370  14.999 -0.1711 -0.7241 -1.1484
 5358SOL    HW227708   0.992   2.297  15.001  1.5376  2.2367 -2.2046
 5359SOL     OW27709   0.636   2.871   8.807  0.2262  0.5211 -0.0794
 5359SOL    HW127710   0.654   2.914   8.890  0.5080 -0.2499  0.2618
 5359SOL    HW227711   0.713   2.815   8.793 -0.0352  0.4963 -1.4458
 5360SOL     OW27712   4.609   1.467   4.740  0.2544 -0.4207 -0.1081
 5360SOL    HW127713   4.664   1.432   4.670  0.0751 -0.7780 -0.0671
 5360SOL    HW227714   4.646   1.556   4.743  1.6240 -1.0341  1.4358
 5361SOL     OW27715   4.722   3.657   7.362 -0.0214  0.0792  0.1312
 5361SOL    HW127716   4.635   3.620   7.378  0.6610 -2.0003 -0.9451
 5361SOL    HW227717   0.037   3.612   7.429 -2.2199  1.1114  2.5006
 5362SOL     OW27718   1.238   3.393  10.929  0.3468 -0.1429 -0.2154
 5362SOL    HW127719   1.300   3.372  10.859  0.6724  2.7749 -0.8269
 5362SOL    HW227720   1.223   3.310  10.974 -1.4365 -0.6973 -1.8429
 5363SOL     OW27721   3.439   3.562   0.389 -0.0638  0.0538 -0.1081
 5363SOL    HW127722   3.483   3.522   0.464  0.2609  0.8692  0.1474
 5363SOL    HW227723   3.482   3.648   0.390  1.7130 -0.8410  0.1943
 5364SOL     OW27724   1.113   4.564  13.048  0.0215 -0.0267 -0.1355
 5364SOL    HW127725   1.067   4.620  12.985 -0.7619  0.3487  0.7646
 5364SOL    HW227726   1.174   4.628  13.084 -1.7765  1.7550 -0.2727
 5365SOL     OW27727   3.476   3.946   6.788 -0.1036 -0.0035 -0.1293
 5365SOL    HW127728   3.533   3.974   6.860  1.0918  0.0796 -1.1076
 5365SOL    HW227729   3.523   3.999   6.724  0.8392 -1.0642 -0.3163
 5366SOL     OW27730   4.123   1.116   4.055  0.5941 -0.3213  0.1222
 5366SOL    HW127731   4.114   1.021   4.062  0.8684 -0.1913  2.2828
 5366SOL    HW227732   4.147   1.146   4.142  2.0225  0.6934 -0.6303
 5367SOL     OW27733   0.667   2.019   4.124  0.0694  0.0955 -0.1302
 5367SOL    HW127734   0.698   2.073   4.051 -0.6326  1.8982  0.9087
 5367SOL    HW227735   0.732   1.950   4.117  0.4936  0.4629  0.1536
 5368SOL     OW27736   3.555   4.617   8.247  0.1590  0.0761 -0.5074
 5368SOL    HW127737   3.560   4.705   8.285 -2.0962  0.0634 -0.1457
 5368SOL    HW227738   3.628   4.573   8.290  0.5301 -1.2226 -2.4783
 5369SOL     OW27739   3.959   4.706   1.526  0.2362 -1.0057  0.0748
 5369SOL    HW127740   3.906   4.641   1.573 -0.3254  0.0217  0.8891
 5369SOL    HW227741   3.957   4.668   1.439 -1.8639  1.6315 -1.0178
 5370SOL     OW27742   0.287   0.561  10.586  0.7093 -0.4621 -0.5046
 5370SOL    HW127743   0.304   0.550  10.493  2.4974 -5.1663  0.3881
 5370SOL    HW227744   0.197   0.595  10.585  0.2988 -1.6692 -3.4310
 5371SOL     OW27745   3.410   4.232   4.482  0.3011 -0.7324  0.1396
 5371SOL    HW127746   3.489   4.279   4.508 -0.8984  2.1420 -1.4231
 5371SOL    HW227747   3.363   4.232   4.565 -2.5806  0.0845 -1.4902
 5372SOL     OW27748   2.791   2.945  11.614  0.0891 -0.1262  0.6542
 5372SOL    HW127749   2.873   2.897  11.607  0.4306  0.7781 -1.4457
 5372SOL    HW227750   2.741   2.887  11.557  0.1242 -0.1524  0.6501
 5373SOL     OW27751   0.935   1.062   6.887 -0.0648 -0.0635  0.2682
 5373SOL    HW127752   0.912   1.079   6.978 -2.0289 -1.7730  0.0826
 5373SOL    HW227753   1.006   0.998   6.894  1.1162  1.1849 -0.2867
 5374SOL     OW27754   2.071   2.161   5.700 -0.8660 -0.3404  0.7084
 5374SOL    HW127755   2.099   2.165   5.609 -0.3608 -0.5472  0.8490
 5374SOL    HW227756   2.015   2.238   5.706  0.5556  0.6002  2.1078
 5375SOL     OW27757   4.060   0.619   4.448 -0.6157 -0.0977 -0.0380
 5375SOL    HW127758   4.016   0.687   4.397  0.4932  0.5893 -0.0718
 5375SOL    HW227759   3.992   0.552   4.446 -2.4468  1.8952 -3.5059
 5376SOL     OW27760   4.566   0.143   5.711 -0.1959 -0.0833  0.2163
 5376SOL    HW127761   4.573   0.179   5.622 -0.7684 -0.2542  0.1034
 5376SOL    HW227762   4.483   0.095   5.710 -0.8906  1.0715  1.1563
 5377SOL     OW27763   3.578   3.555   7.504 -0.1717 -0.0271 -0.3760
 5377SOL    HW127764   3.628   3.609   7.565 -1.1013  0.0851  0.2877
 5377SOL    HW227765   3.608   3.598   7.424  2.0281  0.1202  0.5354
 5378SOL     OW27766   2.543   3.627  11.764  0.6494 -0.3554 -0.0512
 5378SOL    HW127767   2.548   3.570  11.841  0.1602  0.3109  0.4734
 5378SOL    HW227768   2.556   3.568  11.690 -0.7657 -1.4999  0.5911
 5379SOL     OW27769   1.671   3.890   1.820 -0.1539  0.3178  0.0706
 5379SOL    HW127770   1.627   3.972   1.797 -3.2570 -1.1000  1.0474
 5379SOL    HW227771   1.759   3.908   1.785 -0.8354 -0.1466 -1.9067
 5380SOL     OW27772   2.471   0.752   8.751  0.1134  0.0265  0.5198
 5380SOL    HW127773   2.550   0.783   8.796  0.8207  0.1867 -0.8231
 5380SOL    HW227774   2.452   0.675   8.804  1.8916 -0.5602  0.3105
 5381SOL     OW27775   2.394   0.963   2.938 -0.4917  0.5917  0.6028
 5381SOL    HW127776   2.470   0.904   2.937 -1.1763 -0.2644 -0.6218
 5381SOL    HW227777   2.351   0.940   2.856  0.2300  1.0492  0.0968
 5382SOL     OW27778   0.834   3.753   7.956  0.5461 -0.4853  0.1864
 5382SOL    HW127779   0.751   3.799   7.966  1.2808  0.7201  0.6539
 5382SOL    HW227780   0.875   3.768   8.041 -2.4186  0.5328  1.4180
 5383SOL     OW27781   4.517   3.924   6.712  0.2011 -0.0743  0.1595
 5383SOL    HW127782   4.526   4.014   6.744  0.6069  0.2220 -0.7944
 5383SOL    HW227783   4.592   3.908   6.655  0.8124 -1.3452  1.3160
 5384SOL     OW27784   2.132   4.190   3.841 -0.1715  0.5346 -0.4237
 5384SOL    HW127785   2.225   4.184   3.865 -0.3969  1.1514  0.5994
 5384SOL    HW227786   2.141   4.256   3.774 -1.8660  1.5897  0.3855
 5385SOL     OW27787   3.521   3.703   8.010  0.1664 -0.0767 -0.2572
 5385SOL    HW127788   3.585   3.633   7.996 -0.4404 -0.5598 -0.6727
 5385SOL    HW227789   3.501   3.692   8.103  0.9812 -0.0306 -0.0836
 5386SOL     OW27790   2.421   3.604   0.204 -0.4516 -0.2622 -0.0943
 5386SOL    HW127791   2.399   3.673   0.142 -1.6784  0.9867  1.7276
 5386SOL    HW227792   2.517   3.609   0.210 -0.4561  1.4696 -1.2244
 5387SOL     OW27793   2.370   2.196   3.507  0.1900  0.0603 -0.3176
 5387SOL    HW127794   2.337   2.228   3.423 -0.0842 -0.4725 -0.4113
 5387SOL    HW227795   2.429   2.130   3.471 -0.3237 -0.7217  0.2770
 5388SOL     OW27796   4.654   2.259   5.869  0.3032  0.6920  0.3804
 5388SOL    HW127797   4.691   2.337   5.828 -0.9338  1.5886  0.9590
 5388SOL    HW227798   4.729   2.206   5.896  0.9646  1.0428 -0.7738
 5389SOL     OW27799   0.834   1.881  10.155 -0.4614 -0.3941 -0.3343
 5389SOL    HW127800   0.875   1.827  10.223 -0.3374  0.0950 -0.0209
 5389SOL    HW227801   0.857   1.965  10.194 -2.1543  0.8322 -1.9969
 5390SOL     OW27802   2.899   0.141   4.233  0.1852 -0.1898  0.2409
 5390SOL    HW127803   2.952   0.215   4.263 -1.8883  1.4120 -0.0329
 5390SOL    HW227804   2.807   0.166   4.246  0.7328  1.3937  1.0745
 5391SOL     OW27805   3.420   3.540   3.434  0.5027  0.0447 -0.2477
 5391SOL    HW127806   3.391   3.449   3.437  1.5158 -0.2704  0.2266
 5391SOL    HW227807   3.348   3.575   3.382  0.1730 -0.1229  0.0950
 5392SOL     OW27808   2.036   0.912  13.142  0.1055  0.8340  0.4344
 5392SOL    HW127809   1.990   0.907  13.058 -1.7909  0.1480  1.5000
 5392SOL    HW227810   2.091   0.989  13.133  1.1881  0.0382  0.1837
 5393SOL     OW27811   2.127   3.783   7.516  0.4086 -0.8846 -0.4611
 5393SOL    HW127812   2.133   3.877   7.496 -1.6631 -0.2117  2.2095
 5393SOL    HW227813   2.180   3.779   7.595 -2.5952 -0.7731  1.5657
 5394SOL     OW27814   2.923   3.120   6.966  0.4779  0.3217 -0.2351
 5394SOL    HW127815   2.838   3.165   6.963  0.1970 -0.2264 -0.4630
 5394SOL    HW227816   2.938   3.093   6.876 -4.0316 -2.9092 -0.0145
 5395SOL     OW27817   4.148   0.231  15.785 -0.6186 -0.0321  0.2159
 5395SOL    HW127818   4.218   0.174  15.752  0.5120 -0.3579  3.2128
 5395SOL    HW227819   4.108   0.173  15.849  1.9458 -0.5843  1.3214
 5396SOL     OW27820   1.136   4.314   0.389  0.1190  0.4049 -0.0872
 5396SOL    HW127821   1.072   4.385   0.388  0.9244  1.1142 -1.2819
 5396SOL    HW227822   1.110   4.266   0.310 -0.6146  0.8618 -0.1228
 5397SOL     OW27823   1.654   2.097   8.407 -0.3317 -0.4042 -0.2896
 5397SOL    HW127824   1.656   2.002   8.418  0.8295 -0.4258 -0.6327
 5397SOL    HW227825   1.624   2.084   8.317 -0.4187 -0.8439 -0.1979
 5398SOL     OW27826   0.105   2.048  16.107 -0.0144 -0.3363  0.0466
 5398SOL    HW127827   0.029   2.025  16.160 -1.8620 -1.9195 -3.2860
 5398SOL    HW227828   0.087   2.006  16.023  2.9087 -1.0359 -0.2194
 5399SOL     OW27829   1.424   3.362   8.298  0.0081 -0.3402 -0.7496
 5399SOL    HW127830   1.376   3.445   8.296 -1.6584 -1.2320  2.1896
 5399SOL    HW227831   1.422   3.347   8.203  0.1247 -0.3287 -0.7537
 5400SOL     OW27832   1.147   3.928   5.588  0.3498 -0.6598  0.4440
 5400SOL    HW127833   1.136   3.839   5.555  1.1617 -0.7497  0.4232
 5400SOL    HW227834   1.059   3.957   5.615  1.4738  0.9536  2.3652
 5401SOL     OW27835   4.721   1.031  17.046 -0.6041  0.3287 -0.1013
 5401SOL    HW127836   4.736   0.938  17.025 -0.0233  0.5576 -0.7199
 5401SOL    HW227837   4.649   1.029  17.109  0.0096  1.7542  0.6371
 5402SOL     OW27838   4.723   4.200  17.226  0.7206 -0.1977  0.1645
 5402SOL    HW127839   4.679   4.167  17.148  0.9116 -0.8952  0.3450
 5402SOL    HW227840   4.705   4.129  17.288  0.1465  0.0517  0.2742
 5403SOL     OW27841   0.063   4.654   0.236  0.1180 -0.0194  0.0709
 5403SOL    HW127842   0.049   4.734   0.186 -0.1006  0.3396  0.6971
 5403SOL    HW227843   0.155   4.667   0.258 -0.1677 -1.4958  2.1822
 5404SOL     OW27844   2.111   0.341   7.553 -0.6532  0.0919  0.2442
 5404SOL    HW127845   2.100   0.407   7.484 -0.0247 -1.4631 -1.3644
 5404SOL    HW227846   2.023   0.312   7.578 -0.6280 -0.8466 -0.7219
 5405SOL     OW27847   3.634   0.673   8.173 -0.1150 -0.0722 -0.2038
 5405SOL    HW127848   3.718   0.685   8.216 -1.9219  0.5146  3.1014
 5405SOL    HW227849   3.611   0.590   8.216 -0.8647  1.0725  1.6016
 5406SOL     OW27850   2.069   3.855  12.194 -1.1495 -0.2155 -0.5280
 5406SOL    HW127851   2.001   3.799  12.157 -1.1389  0.7009 -1.9254
 5406SOL    HW227852   2.075   3.925  12.129 -1.0298  2.8512  2.8626
 5407SOL     OW27853   3.405   1.951   7.770  0.1513  0.6547 -1.0602
 5407SOL    HW127854   3.479   1.944   7.830 -0.9409 -1.7509  0.0065
 5407SOL    HW227855   3.373   1.861   7.766 -0.7589  0.9220  0.2444
 5408SOL     OW27856   3.308   1.565  12.838 -0.1961 -1.1279  0.1740
 5408SOL    HW127857   3.295   1.650  12.796  4.7017  0.5010  2.0158
 5408SOL    HW227858   3.398   1.581  12.865  0.2100 -1.7213 -0.8028
 5409SOL     OW27859   1.086   0.063   0.833 -0.1547 -0.0469 -0.4541
 5409SOL    HW127860   1.153   0.015   0.784 -0.4375 -0.4978 -0.4009
 5409SOL    HW227861   1.068   0.008   0.909 -3.5023 -0.5153 -1.5915
 5410SOL     OW27862   2.068   1.593   6.006 -0.0545  0.0185  0.4860
 5410SOL    HW127863   2.043   1.658   5.941  2.8899  1.1263  0.4723
 5410SOL    HW227864   2.087   1.644   6.084 -3.1190 -0.6954  1.7065
 5411SOL     OW27865   0.108   2.148  15.653 -0.3690 -0.1887  0.4011
 5411SOL    HW127866   0.093   2.177  15.563  0.6019  0.6282  0.5087
 5411SOL    HW227867   0.156   2.222  15.689  0.2213  0.3494 -1.5011
 5412SOL     OW27868   0.008   0.875  14.972  0.1063 -0.2313  0.9326
 5412SOL    HW127869   0.062   0.809  15.016 -0.6254  2.0768  5.2994
 5412SOL    HW227870   4.675   0.885  15.037 -0.2416  1.5543  0.2760
 5413SOL     OW27871   1.556   2.920   7.776  0.0617  0.1829 -0.4901
 5413SOL    HW127872   1.598   2.973   7.843  1.2913  0.2553 -1.3117
 5413SOL    HW227873   1.505   2.855   7.824  1.7837 -0.9116 -0.1756
 5414SOL     OW27874   4.278   1.176   5.175  0.0987 -0.5532 -0.1467
 5414SOL    HW127875   4.362   1.139   5.149  0.6541  1.3799 -1.0655
 5414SOL    HW227876   4.244   1.097   5.216 -0.1454 -0.3624  0.0187
 5415SOL     OW27877   2.441   1.824   2.756 -0.3731  0.2561  0.0379
 5415SOL    HW127878   2.487   1.850   2.676 -0.0912  2.4657  0.9082
 5415SOL    HW227879   2.513   1.821   2.819  0.5503 -1.5584 -1.0919
 5416SOL     OW27880   1.092   0.317  12.708 -0.0905  0.1509 -0.4279
 5416SOL    HW127881   1.083   0.406  12.674 -1.1033  0.1917 -0.0605
 5416SOL    HW227882   1.052   0.317  12.795  1.5766  2.1555  0.3420
 5417SOL     OW27883   3.616   2.650   7.782 -0.7866  0.5853  0.2429
 5417SOL    HW127884   3.541   2.593   7.795 -0.6516  0.4087  0.2415
 5417SOL    HW227885   3.683   2.592   7.820 -0.9312 -0.6196 -1.3635
 5418SOL     OW27886   1.204   4.417   4.853  0.2916 -0.5529 -0.8527
 5418SOL    HW127887   1.266   4.349   4.828 -0.5039 -1.8058  0.5554
 5418SOL    HW227888   1.267   4.485   4.873 -0.4999  0.6129 -2.4136
 5419SOL     OW27889   1.992   1.988   3.064 -0.3315 -0.1797 -0.2918
 5419SOL    HW127890   1.976   1.902   3.103  1.6783  0.1550  1.2545
 5419SOL    HW227891   2.018   2.033   3.145  0.8678 -0.0661 -0.7474
 5420SOL     OW27892   0.198   1.028  10.894 -0.2453 -0.4721 -0.1852
 5420SOL    HW127893   0.127   1.078  10.854  0.4235  0.8894  0.2895
 5420SOL    HW227894   0.176   1.034  10.987 -1.3944 -1.5269 -0.3894
 5421SOL     OW27895   1.687   3.525  17.696 -0.4427 -0.0931 -0.0559
 5421SOL    HW127896   1.645   3.497   0.034 -0.1807 -1.5129 -0.4177
 5421SOL    HW227897   1.616   3.513  17.633  1.8028 -1.1712 -2.3823
 5422SOL     OW27898   0.568   1.040   6.169 -0.2097  0.0143 -0.1683
 5422SOL    HW127899   0.654   1.039   6.128  0.0012 -0.6173  0.3069
 5422SOL    HW227900   0.560   1.135   6.178 -1.6102 -0.2510  1.4538
 5423SOL     OW27901   0.572   0.615   8.283  0.1848 -0.0987  0.4317
 5423SOL    HW127902   0.666   0.605   8.295 -0.0025 -0.0718  1.8794
 5423SOL    HW227903   0.558   0.559   8.207 -1.7249  1.3283 -0.2816
 5424SOL     OW27904   1.272   3.301   8.828 -0.0308 -0.0580 -0.5010
 5424SOL    HW127905   1.361   3.281   8.800  0.9571  1.0998  1.9033
 5424SOL    HW227906   1.232   3.313   8.741 -0.7945  2.3299  0.1871
 5425SOL     OW27907   3.709   2.640  12.517  0.1402 -0.0408 -0.2972
 5425SOL    HW127908   3.785   2.605  12.471 -1.6151 -0.1810 -3.1217
 5425SOL    HW227909   3.678   2.720  12.475  1.1125 -0.0201 -0.9656
 5426SOL     OW27910   2.844   4.046  11.661  0.0200 -0.1519  0.5617
 5426SOL    HW127911   2.911   4.110  11.687 -1.6764  1.6635  0.4709
 5426SOL    HW227912   2.765   4.093  11.687  1.5857  1.1080  3.0387
 5427SOL     OW27913   4.679   3.540   6.756 -0.3252 -0.1873 -0.9932
 5427SOL    HW127914   0.031   3.552   6.720  0.3822  0.6652  1.0151
 5427SOL    HW227915   4.628   3.514   6.680  0.9175 -0.8338 -1.6029
 5428SOL     OW27916   1.480   3.369   6.688  0.4990  0.5033  0.4588
 5428SOL    HW127917   1.475   3.463   6.703 -1.8562  0.9023 -2.8244
 5428SOL    HW227918   1.539   3.376   6.613 -0.1396  4.5844  0.3472
 5429SOL     OW27919   4.024   2.883   1.990  0.2926 -0.5298 -0.1246
 5429SOL    HW127920   4.000   2.965   1.948  1.7853 -0.0218 -0.0123
 5429SOL    HW227921   4.119   2.890   2.002  0.5969  0.1409 -2.8521
 5430SOL     OW27922   3.440   2.166   5.874 -0.4510  0.1219  0.6641
 5430SOL    HW127923   3.436   2.225   5.799  1.5719  1.1277  1.3408
 5430SOL    HW227924   3.388   2.220   5.934 -0.7295  0.4867  0.0936
 5431SOL     OW27925   2.621   2.690   1.517 -0.1536 -0.0221 -0.2053
 5431SOL    HW127926   2.679   2.718   1.589 -1.4372 -2.0919  1.6511
 5431SOL    HW227927   2.543   2.660   1.563  0.0815  0.6827  0.6509
 5432SOL     OW27928   3.282   0.145   0.676 -0.0193 -0.3063  0.3544
 5432SOL    HW127929   3.293   0.075   0.611 -0.4721 -1.5854  1.6724
 5432SOL    HW227930   3.204   0.112   0.720  0.7104  0.9971  2.5988
 5433SOL     OW27931   3.012   1.531   2.572  0.3453 -0.2141 -0.1459
 5433SOL    HW127932   3.018   1.625   2.588  1.4326 -0.3580  0.3300
 5433SOL    HW227933   2.921   1.506   2.557  0.8496 -3.1610  1.6830
 5434SOL     OW27934   0.046   2.442  10.572  0.3760  0.1624  0.2527
 5434SOL    HW127935   0.003   2.377  10.517  0.3385 -0.9144  1.5487
 5434SOL    HW227936   0.104   2.475  10.504 -1.2338 -0.5910 -1.4666
 5435SOL     OW27937   3.693   1.347   5.100 -0.6244  0.3135 -0.3987
 5435SOL    HW127938   3.703   1.431   5.057  1.2491 -0.4804 -1.5046
 5435SOL    HW227939   3.786   1.329   5.116 -1.0836 -2.1742 -0.4638
 5436SOL     OW27940   1.963   2.757   7.466 -0.9844  0.2236 -0.4430
 5436SOL    HW127941   1.902   2.812   7.515 -4.5687 -2.1078 -2.2554
 5436SOL    HW227942   1.952   2.673   7.512 -0.3158  0.3411 -0.0750
 5437SOL     OW27943   2.795   3.816   9.614 -0.1275  0.4931  0.6709
 5437SOL    HW127944   2.872   3.854   9.656  0.8655  0.2893 -0.9315
 5437SOL    HW227945   2.801   3.855   9.526 -0.9987  0.3361  0.5381
 5438SOL     OW27946   4.037   0.184   1.396 -0.3640 -0.6179 -0.0654
 5438SOL    HW127947   3.960   0.217   1.351  1.1987  0.8544 -1.6272
 5438SOL    HW227948   3.999   0.111   1.446 -1.9833 -1.7858 -3.0140
 5439SOL     OW27949   1.090   1.847   9.398  0.9445  0.6474 -0.0059
 5439SOL    HW127950   1.182   1.830   9.414  0.5703 -1.2834  0.1759
 5439SOL    HW227951   1.062   1.920   9.453 -0.4790  0.5614 -0.6201
 5440SOL     OW27952   2.303   4.508   7.740 -0.1671  0.0029 -0.3511
 5440SOL    HW127953   2.210   4.487   7.751  0.3147 -2.3188 -0.7648
 5440SOL    HW227954   2.333   4.546   7.823  2.3051 -0.2440 -1.1415
 5441SOL     OW27955   4.328   4.287   5.425  0.1555 -0.1537  0.4926
 5441SOL    HW127956   4.254   4.333   5.386 -0.9713 -2.3041  0.0754
 5441SOL    HW227957   4.397   4.340   5.386  0.7208  1.6967  4.0106
 5442SOL     OW27958   4.701   1.408   9.158  0.3435  0.2756 -0.3621
 5442SOL    HW127959   0.056   1.433   9.171 -0.2947  2.4697 -0.2472
 5442SOL    HW227960   4.693   1.364   9.243  0.9358 -0.6957 -0.8136
 5443SOL     OW27961   3.123   3.847   7.022 -0.2355 -0.2832  0.2799
 5443SOL    HW127962   3.178   3.782   6.980  0.7236  0.5862  0.2052
 5443SOL    HW227963   3.175   3.926   7.027  0.0079 -0.3282 -1.6938
 5444SOL     OW27964   2.646   3.152   8.898 -0.3809 -0.0301  0.3534
 5444SOL    HW127965   2.623   3.062   8.875  0.4976  0.0816 -0.9255
 5444SOL    HW227966   2.603   3.162   8.984  0.7577 -1.2448  1.0654
 5445SOL     OW27967   3.736   2.181   5.642  0.5244  0.2013  0.0991
 5445SOL    HW127968   3.645   2.212   5.636  0.1017 -0.9717  0.5022
 5445SOL    HW227969   3.770   2.262   5.679  0.8588 -0.1840  0.6290
 5446SOL     OW27970   3.171   3.296   7.476  0.2673  0.2164  0.1497
 5446SOL    HW127971   3.251   3.321   7.522  0.2241  0.1372  0.2678
 5446SOL    HW227972   3.187   3.328   7.387  0.4076 -1.1986 -0.3444
 5447SOL     OW27973   1.713   1.139   0.336  0.2324  0.5639 -0.7413
 5447SOL    HW127974   1.796   1.178   0.362  0.7796 -0.3546 -1.1222
 5447SOL    HW227975   1.714   1.055   0.382 -0.6124  0.7696 -0.3422
 5448SOL     OW27976   2.858   0.494   9.151  0.0116  0.3350  0.0079
 5448SOL    HW127977   2.826   0.405   9.141  0.7247  0.0309  0.4221
 5448SOL    HW227978   2.819   0.525   9.233  1.3057  1.3630  0.2425
 5449SOL     OW27979   0.244   0.856   2.296 -0.2441 -0.5015 -0.0869
 5449SOL    HW127980   0.219   0.831   2.207 -0.8869 -0.2816  0.0345
 5449SOL    HW227981   0.157   0.878   2.330  0.0371 -1.3813  1.1908
 5450SOL     OW27982   1.701   4.395   8.560 -0.3275  0.3785 -0.5335
 5450SOL    HW127983   1.633   4.335   8.530  0.5262 -1.0767  0.4222
 5450SOL    HW227984   1.655   4.479   8.558 -0.2519  0.4226 -0.4286
 5451SOL     OW27985   3.674   0.964  10.941 -0.1005 -0.1376  0.2229
 5451SOL    HW127986   3.673   0.934  10.850  0.4026  2.3587 -0.5931
 5451SOL    HW227987   3.692   1.057  10.930 -0.0790 -0.4748 -2.6001
 5452SOL     OW27988   1.574   0.108   7.524  0.1588 -0.4946  0.0431
 5452SOL    HW127989   1.537   0.136   7.440 -1.9762  0.6362  1.3718
 5452SOL    HW227990   1.558   0.013   7.526 -0.2354 -0.4349 -0.1689
 5453SOL     OW27991   0.865   4.076   3.073 -0.0420 -0.9713 -0.0419
 5453SOL    HW127992   0.807   4.144   3.105 -0.1431 -1.4778  0.8457
 5453SOL    HW227993   0.816   3.994   3.075  0.7134 -1.4354 -0.3692
 5454SOL     OW27994   1.649   0.005   6.127  0.1856  0.4864  0.7308
 5454SOL    HW127995   1.639   0.068   6.055  2.5923 -1.9453 -1.7751
 5454SOL    HW227996   1.677   0.060   6.200 -2.0419  1.5251  0.7918
 5455SOL     OW27997   1.298   2.695   2.646  0.1810 -0.0370 -0.1627
 5455SOL    HW127998   1.256   2.781   2.643  0.7410  0.2139 -0.9556
 5455SOL    HW227999   1.250   2.662   2.722 -1.6912  3.0961  0.0074
 5456SOL     OW28000   3.173   3.007   1.481  0.0446  0.1596  0.2861
 5456SOL    HW128001   3.235   2.963   1.423 -2.1464 -2.1537 -0.3146
 5456SOL    HW228002   3.227   3.004   1.559  1.0832  0.7264 -0.4078
 5457SOL     OW28003   1.045   0.800   2.466  0.2727 -0.6119 -0.0013
 5457SOL    HW128004   1.115   0.783   2.403  0.1261  1.4342 -0.6942
 5457SOL    HW228005   0.965   0.794   2.415 -0.0857 -0.0642  0.4981
 5458SOL     OW28006   2.249   1.978   6.298 -0.0829  0.3183  0.4969
 5458SOL    HW128007   2.343   1.958   6.297 -0.1686 -0.0660 -0.0310
 5458SOL    HW228008   2.235   2.072   6.305  0.6917  0.4193  0.7075
 5459SOL     OW28009   2.687   1.421   5.556  0.6379  0.3517  0.0955
 5459SOL    HW128010   2.707   1.341   5.507 -1.9350 -1.2854  1.6983
 5459SOL    HW228011   2.635   1.478   5.499 -0.1002 -0.0885  0.3288
 5460SOL     OW28012   4.657   2.801   6.904 -0.0544 -0.8821 -0.3535
 5460SOL    HW128013   4.697   2.876   6.948  1.1253 -2.0106  0.4887
 5460SOL    HW228014   4.722   2.784   6.836  0.3796  0.3106 -0.2506
 5461SOL     OW28015   2.566   4.085   7.040 -0.2741 -0.5170  0.2471
 5461SOL    HW128016   2.484   4.039   7.022 -1.1551  0.7238  1.0242
 5461SOL    HW228017   2.554   4.161   6.983  0.4555  0.2756  1.1307
 5462SOL     OW28018   0.735   4.479   8.596  0.5066  0.5862 -0.0169
 5462SOL    HW128019   0.795   4.451   8.527  0.3830  1.8895 -0.6625
 5462SOL    HW228020   0.760   4.415   8.662 -0.1230  0.3495 -0.0049
 5463SOL     OW28021   0.045   0.172   4.671 -0.7474 -0.6000 -0.1154
 5463SOL    HW128022   4.713   0.228   4.632  1.0694 -0.3240 -2.9131
 5463SOL    HW228023   0.045   0.100   4.608 -1.5618 -1.6322  1.0736
 5464SOL     OW28024   2.942   2.121  11.616 -0.7899  0.7962  0.5989
 5464SOL    HW128025   2.929   2.064  11.693 -0.2962  0.7565  0.6518
 5464SOL    HW228026   3.016   2.077  11.574 -1.4343 -0.4130  0.6986
 5465SOL     OW28027   0.361   3.804   0.826 -0.0362  0.1339 -0.0215
 5465SOL    HW128028   0.431   3.740   0.816  0.3666  0.7412 -1.0775
 5465SOL    HW228029   0.295   3.771   0.766  0.3530 -2.0383  0.7697
 5466SOL     OW28030   0.980   4.703  12.816 -0.2081 -0.0209 -0.2749
 5466SOL    HW128031   1.012   4.726  12.729  1.0229  1.0959  0.4601
 5466SOL    HW228032   0.959   4.609  12.812 -0.9061  0.1318 -0.1367
 5467SOL     OW28033   3.190   1.891  16.185  0.1588  0.2058  0.2481
 5467SOL    HW128034   3.225   1.853  16.104 -0.1236  2.4281 -0.9511
 5467SOL    HW228035   3.198   1.985  16.165 -0.6067  0.2734  0.2535
 5468SOL     OW28036   2.062   2.478   5.732  0.5981  0.4690  0.4262
 5468SOL    HW128037   2.158   2.478   5.729  0.5377 -3.7697 -2.8624
 5468SOL    HW228038   2.044   2.569   5.707  1.5347  0.1203 -1.5377
 5469SOL     OW28039   4.716   3.268   2.168 -0.0521 -0.1362  0.2866
 5469SOL    HW128040   0.029   3.255   2.087 -0.6314 -0.6252  0.0190
 5469SOL    HW228041   4.646   3.203   2.158  1.3555 -1.5355 -0.3711
 5470SOL     OW28042   3.312   2.028   4.558 -0.1999 -0.1691 -0.1769
 5470SOL    HW128043   3.342   1.955   4.612  2.5078  0.2916 -1.0458
 5470SOL    HW228044   3.221   2.030   4.588  0.5232  1.0739  1.9882
 5471SOL     OW28045   3.328   1.245  15.104  0.1364  0.3686 -0.5645
 5471SOL    HW128046   3.378   1.311  15.151  0.5606  1.4941 -2.6188
 5471SOL    HW228047   3.364   1.250  15.016  1.8242 -1.5793  0.0142
 5472SOL     OW28048   1.939   3.422   1.028  0.0417 -0.0147  0.1797
 5472SOL    HW128049   1.959   3.399   1.119 -1.6357  2.0383  1.0627
 5472SOL    HW228050   1.935   3.333   0.994  0.7969 -0.0134  0.0759
 5473SOL     OW28051   2.316   1.257   1.781 -0.1492  0.4578  0.2143
 5473SOL    HW128052   2.293   1.277   1.690  0.4308  1.7852  0.3601
 5473SOL    HW228053   2.408   1.235   1.768  0.0527  2.7222 -2.2921
 5474SOL     OW28054   3.184   0.251   3.001 -0.2437 -0.1762  0.1729
 5474SOL    HW128055   3.241   0.243   3.078  1.6173 -1.2952 -1.3065
 5474SOL    HW228056   3.197   0.342   2.975  0.0116  0.7263  3.4614
 5475SOL     OW28057   4.439   3.656   5.160  0.5808  0.5767 -0.5853
 5475SOL    HW128058   4.394   3.740   5.175  1.0926  0.4394  1.7562
 5475SOL    HW228059   4.411   3.613   5.241 -1.5537  4.3533  0.6984
 5476SOL     OW28060   0.415   2.201   3.137 -0.3033 -0.7055 -0.2780
 5476SOL    HW128061   0.427   2.106   3.136  3.4626 -0.2560  1.7806
 5476SOL    HW228062   0.322   2.219   3.151 -0.0028  0.8384 -0.2291
 5477SOL     OW28063   4.470   2.656   4.428  0.0544  0.1212  0.2338
 5477SOL    HW128064   4.466   2.600   4.351 -0.2376  0.3192  0.1063
 5477SOL    HW228065   4.509   2.590   4.487 -2.7434 -2.3459 -0.6903
 5478SOL     OW28066   4.161   3.313   1.293  0.0401  0.0552  0.6761
 5478SOL    HW128067   4.105   3.388   1.312 -0.2847  0.2554 -1.0978
 5478SOL    HW228068   4.213   3.295   1.372  2.0104 -0.4398 -0.7163
 5479SOL     OW28069   1.676   0.476  15.266  0.0136  0.0635  0.6112
 5479SOL    HW128070   1.750   0.453  15.322  1.7734 -1.9216 -2.5299
 5479SOL    HW228071   1.716   0.545  15.212  0.9948 -0.3770  0.7882
 5480SOL     OW28072   4.057   0.372   7.450 -0.1512  0.0080 -0.5489
 5480SOL    HW128073   4.104   0.368   7.367  2.2320  2.2032  0.6912
 5480SOL    HW228074   4.130   0.360   7.510 -2.1905  1.3549  2.1822
 5481SOL     OW28075   2.792   1.377  10.559  0.1219 -0.1041  0.7382
 5481SOL    HW128076   2.829   1.454  10.602 -0.5595  0.6217  0.0154
 5481SOL    HW228077   2.748   1.337  10.634 -0.2822 -0.7280  0.1750
 5482SOL     OW28078   1.112   3.042   5.252  0.1751  0.3522  0.1238
 5482SOL    HW128079   1.159   2.974   5.203 -0.8067  2.0959 -3.2950
 5482SOL    HW228080   1.112   3.007   5.341 -1.5359  0.1372  0.0423
 5483SOL     OW28081   1.265   1.258  12.571 -0.1139  0.0766 -0.3450
 5483SOL    HW128082   1.196   1.196  12.548 -0.1688 -0.1483  0.4298
 5483SOL    HW228083   1.302   1.225  12.653 -1.9035 -2.4484 -0.5463
 5484SOL     OW28084   0.058   1.120   1.870 -0.3187  0.1879 -0.5643
 5484SOL    HW128085   0.136   1.101   1.922 -0.1305  0.7570 -0.6401
 5484SOL    HW228086   4.734   1.148   1.939  0.4113 -1.5769  0.7967
 5485SOL     OW28087   3.810   1.360   5.849 -0.3893 -0.4736  0.0401
 5485SOL    HW128088   3.722   1.361   5.813  0.8652  0.1917 -2.9998
 5485SOL    HW228089   3.859   1.351   5.767  1.9075  0.4447  1.3002
 5486SOL     OW28090   2.764   3.600   4.656 -0.2423 -0.0093  0.5482
 5486SOL    HW128091   2.707   3.670   4.689  1.0815 -0.1282  3.1392
 5486SOL    HW228092   2.812   3.581   4.737  1.9549 -1.9955 -1.2513
 5487SOL     OW28093   0.145   1.240   4.534 -0.4713  0.4137 -0.4606
 5487SOL    HW128094   0.050   1.251   4.533 -0.3781  1.3376  0.2221
 5487SOL    HW228095   0.143   1.211   4.443  0.7215  0.7748 -0.6020
 5488SOL     OW28096   0.777   4.475   5.680  0.0850 -0.4528 -0.5362
 5488SOL    HW128097   0.713   4.415   5.718  1.4228 -1.3284  0.3397
 5488SOL    HW228098   0.734   4.497   5.597 -0.5024  0.8256  0.1070
 5489SOL     OW28099   4.697   3.983   1.832  0.0256 -0.4686  0.0813
 5489SOL    HW128100   0.005   3.914   1.882  2.7588  1.4507  0.3294
 5489SOL    HW228101   4.697   4.057   1.893  1.2455 -0.1009 -0.3600
 5490SOL     OW28102   3.390   2.789   2.520  0.2604 -0.0110 -0.2094
 5490SOL    HW128103   3.333   2.712   2.511  0.1445  0.0590 -0.0786
 5490SOL    HW228104   3.444   2.761   2.594  0.2925  1.8890  0.4788
 5491SOL     OW28105   0.912   4.418   9.695  0.4492  0.5093 -0.0537
 5491SOL    HW128106   1.002   4.397   9.673  0.8344  0.3770  1.6764
 5491SOL    HW228107   0.907   4.514   9.692  0.2955  0.4950 -0.2828
 5492SOL     OW28108   0.632   0.458   4.215 -0.1201 -0.2083  0.1649
 5492SOL    HW128109   0.585   0.542   4.218  0.2459 -0.0773  1.8236
 5492SOL    HW228110   0.594   0.419   4.293  1.2550 -1.0968  0.3853
 5493SOL     OW28111   0.017   1.963  15.843  0.0738 -0.1549 -0.4904
 5493SOL    HW128112   4.694   2.037  15.854 -0.9189 -0.8550 -1.1621
 5493SOL    HW228113   0.064   1.998  15.767 -0.5924 -1.1574 -1.3666
 5494SOL     OW28114   0.969   1.071   8.486  0.7692 -0.2062  0.0958
 5494SOL    HW128115   0.884   1.096   8.450  0.0858 -0.7644  1.3188
 5494SOL    HW228116   0.935   1.008   8.550 -1.2912  3.9139  3.0825
 5495SOL     OW28117   2.027   4.682   2.963  0.1757  0.2844 -0.1761
 5495SOL    HW128118   1.953   4.626   2.987 -0.5766  1.8359  1.1202
 5495SOL    HW228119   2.007   0.024   3.014  0.2481 -0.0577  0.3754
 5496SOL     OW28120   3.454   3.241   8.765 -0.4070 -0.6627  0.5716
 5496SOL    HW128121   3.405   3.308   8.718  0.4297 -0.0476  0.5771
 5496SOL    HW228122   3.491   3.289   8.840 -4.4734  2.0953  0.8107
 5497SOL     OW28123   1.090   3.995  14.896 -0.2857  0.1260 -0.3538
 5497SOL    HW128124   1.031   3.998  14.971 -0.5456 -0.0280 -0.5525
 5497SOL    HW228125   1.092   4.089  14.881  0.5069 -0.0622 -1.4765
 5498SOL     OW28126   1.602   3.043   2.111  0.5332  0.2020  0.2493
 5498SOL    HW128127   1.627   2.981   2.180  1.9177  0.9772  0.4465
 5498SOL    HW228128   1.600   3.125   2.160  1.9882 -1.5673  3.3218
 5499SOL     OW28129   4.083   3.953   2.093  0.2107  0.3784  0.3077
 5499SOL    HW128130   3.988   3.945   2.080  0.2682 -0.0735  0.1970
 5499SOL    HW228131   4.084   4.007   2.172  1.6715  1.2622 -0.3267
 5500SOL     OW28132   0.113   4.084   6.856  0.1795 -0.5015  0.4487
 5500SOL    HW128133   0.070   4.150   6.801 -0.4173 -1.5889 -0.3947
 5500SOL    HW228134   0.111   4.131   6.939 -1.9555 -0.4578  0.3754
 5501SOL     OW28135   3.781   0.199   3.057  0.3184 -0.0749 -0.1622
 5501SOL    HW128136   3.875   0.189   3.043 -0.1037  0.8337 -3.5922
 5501SOL    HW228137   3.771   0.293   3.073 -2.7495 -0.1255 -1.5998
 5502SOL     OW28138   4.339   4.686   4.166 -0.4193 -0.8487  0.2514
 5502SOL    HW128139   4.272   0.014   4.142 -0.3529 -1.2238 -0.9661
 5502SOL    HW228140   4.415   4.703   4.110  0.0986  0.5815  1.3978
 5503SOL     OW28141   4.376   2.216   4.247  0.1982  0.0599 -0.0683
 5503SOL    HW128142   4.393   2.227   4.340  1.1453 -0.6198 -0.1587
 5503SOL    HW228143   4.285   2.247   4.250  1.8509  4.8777 -1.0766
 5504SOL     OW28144   4.078   4.374   6.654  0.1146 -0.2197  0.0135
 5504SOL    HW128145   4.005   4.418   6.699  0.5110  0.6811 -0.2396
 5504SOL    HW228146   4.040   4.287   6.644  1.4724 -0.8094  0.0224
 5505SOL     OW28147   1.458   4.359  16.251 -0.3322 -0.4198 -0.3671
 5505SOL    HW128148   1.518   4.346  16.324 -1.0731 -0.2283  0.2783
 5505SOL    HW228149   1.398   4.423  16.290  0.9051  1.7831 -2.1355
 5506SOL     OW28150   3.567   0.856   6.072 -0.0493 -0.0432 -0.2160
 5506SOL    HW128151   3.631   0.919   6.037  1.4908  0.7741  4.0298
 5506SOL    HW228152   3.594   0.773   6.032 -0.9992 -0.5775  0.2703
 5507SOL     OW28153   0.082   4.729  17.233  0.4466  0.5689  0.1260
 5507SOL    HW128154   4.727   4.708  17.250  0.4455  0.9448  0.6114
 5507SOL    HW228155   0.093   4.676  17.154 -0.3895  0.2309  0.2388
 5508SOL     OW28156   4.617   4.094   9.713 -0.0054  0.2097  0.3255
 5508SOL    HW128157   4.572   4.122   9.633  2.5267  0.6310 -0.9341
 5508SOL    HW228158   4.586   4.161   9.774 -0.4022 -0.7073  1.1378
 5509SOL     OW28159   2.815   1.183  14.448 -0.2107 -0.2293  0.2635
 5509SOL    HW128160   2.750   1.242  14.411  0.5057 -0.4693 -1.4230
 5509SOL    HW228161   2.883   1.182  14.380  0.8301  1.7050  1.2791
 5510SOL     OW28162   2.498   0.995  16.059 -0.3592 -0.2968 -0.3428
 5510SOL    HW128163   2.449   1.076  16.074  1.2414  0.4434  0.8367
 5510SOL    HW228164   2.567   1.029  16.003 -0.7770  1.1108  0.0057
 5511SOL     OW28165   0.088   1.531   8.877  0.1838  0.3642  0.1274
 5511SOL    HW128166   0.045   1.617   8.874 -0.2299  0.1297 -0.7684
 5511SOL    HW228167   0.102   1.523   8.971 -0.7823  0.7800  0.3109
 5512SOL     OW28168   0.568   2.042   6.150  0.3931 -0.0868  1.1335
 5512SOL    HW128169   0.598   2.116   6.097  1.8326 -2.1918 -0.9599
 5512SOL    HW228170   0.580   1.975   6.082 -0.7953  0.8604 -0.0248
 5513SOL     OW28171   1.790   3.725  15.610  0.6594 -0.4660 -0.1991
 5513SOL    HW128172   1.860   3.683  15.561  1.5773  1.4475 -0.5346
 5513SOL    HW228173   1.846   3.798  15.639 -1.6401  0.5157  1.7842
 5514SOL     OW28174   1.687   1.479  10.792  0.1558 -0.1560 -0.1635
 5514SOL    HW128175   1.730   1.558  10.825 -0.4611  0.2330 -0.2712
 5514SOL    HW228176   1.667   1.442  10.878 -2.1985  2.2386  0.3501
 5515SOL     OW28177   1.324   3.251  10.631  0.1936 -0.2828 -0.2749
 5515SOL    HW128178   1.273   3.191  10.576  0.2030  1.0160 -1.6620
 5515SOL    HW228179   1.252   3.310  10.655 -0.3548 -0.6494 -0.9937
 5516SOL     OW28180   4.642   0.267   0.367 -0.2062  0.7411 -0.1470
 5516SOL    HW128181   4.614   0.289   0.456 -1.3317 -0.8835 -0.0982
 5516SOL    HW228182   4.663   0.354   0.334  0.2244 -0.2247 -2.4148
 5517SOL     OW28183   4.535   2.218  13.695  0.0565 -0.0399  0.4934
 5517SOL    HW128184   4.615   2.197  13.646 -2.0441 -1.0176 -2.5705
 5517SOL    HW228185   4.479   2.253  13.625  0.9984  0.1519 -0.1617
 5518SOL     OW28186   4.203   3.067   7.303  0.1444 -0.2426  0.2259
 5518SOL    HW128187   4.197   3.156   7.338  1.8732  0.0838 -0.3145
 5518SOL    HW228188   4.193   3.086   7.210 -1.0072 -0.0508  0.3877
 5519SOL     OW28189   3.691   2.879  16.260 -0.5141  1.2303 -0.3516
 5519SOL    HW128190   3.621   2.821  16.232 -1.0856  0.8102  1.9480
 5519SOL    HW228191   3.718   2.918  16.177 -1.1439  1.7576 -0.3081
 5520SOL     OW28192   1.575   2.757  15.057 -0.8396  0.1022  0.6830
 5520SOL    HW128193   1.509   2.795  15.115 -0.9640 -1.6953  1.7323
 5520SOL    HW228194   1.533   2.670  15.059 -0.7528  0.0963  2.6016
 5521SOL     OW28195   3.094   0.149   3.911 -1.0937 -0.0188  0.5161
 5521SOL    HW128196   3.137   0.090   3.972  1.1991  0.9501 -0.1622
 5521SOL    HW228197   3.039   0.097   3.851 -0.3146 -2.6837  2.1231
 5522SOL     OW28198   0.523   2.457   8.080 -0.6630  0.4104  0.1186
 5522SOL    HW128199   0.460   2.499   8.021 -0.8937  0.6996  0.5654
 5522SOL    HW228200   0.516   2.365   8.053 -1.7620  0.9531 -1.4565
 5523SOL     OW28201   3.044   4.279   5.411 -0.5759 -0.3838  0.4341
 5523SOL    HW128202   3.063   4.340   5.482  0.9213 -0.1427 -0.1833
 5523SOL    HW228203   2.950   4.259   5.412 -0.1522 -2.3880  0.1396
 5524SOL     OW28204   4.188   3.985   9.287 -0.4928 -0.2428 -0.6538
 5524SOL    HW128205   4.115   3.964   9.345 -0.6006  0.4547 -0.5358
 5524SOL    HW228206   4.144   4.023   9.211  0.9258 -1.7648 -2.2301
 5525SOL     OW28207   2.880   3.386   5.681  0.2496  0.3545  0.6133
 5525SOL    HW128208   2.960   3.389   5.733 -0.9446  0.2143  2.4813
 5525SOL    HW228209   2.846   3.301   5.709 -0.4077  0.3266 -0.2729
 5526SOL     OW28210   2.192   0.753   8.250 -0.4231  0.5571 -0.8358
 5526SOL    HW128211   2.138   0.679   8.277  2.8472 -1.4748  0.2060
 5526SOL    HW228212   2.279   0.714   8.237  0.0325  0.9895  0.9159
 5527SOL     OW28213   0.845   2.314   3.374 -0.2426 -0.0905 -0.0754
 5527SOL    HW128214   0.884   2.241   3.326  1.4323 -1.8154  3.8179
 5527SOL    HW228215   0.763   2.329   3.328 -0.2265  0.1790 -0.0162
 5528SOL     OW28216   4.214   3.275  15.770 -0.1308 -0.9762  0.2463
 5528SOL    HW128217   4.269   3.309  15.700  0.1787 -1.8227  0.0744
 5528SOL    HW228218   4.135   3.328  15.782  0.2942  0.2955 -2.8702
 5529SOL     OW28219   2.902   3.383  12.041 -0.1051  0.4896 -0.2241
 5529SOL    HW128220   2.849   3.354  12.115 -0.4431  1.0384 -0.2465
 5529SOL    HW228221   2.829   3.404  11.983  0.7843 -1.5263 -2.0639
 5530SOL     OW28222   1.193   3.248   4.997  0.8296  0.2009  0.6230
 5530SOL    HW128223   1.175   3.169   5.049  2.0960 -1.0059 -0.7489
 5530SOL    HW228224   1.141   3.305   5.053 -1.3343  0.9726 -2.2067
 5531SOL     OW28225   3.926   3.803   0.834 -0.3806 -0.0946  0.1857
 5531SOL    HW128226   3.849   3.786   0.779  0.7958  0.0440 -1.5191
 5531SOL    HW228227   3.891   3.822   0.920 -1.1967  0.1333 -0.1982
 5532SOL     OW28228   1.234   0.735   5.976 -0.5420 -0.0305  0.8410
 5532SOL    HW128229   1.236   0.666   6.042  1.0089 -1.8036 -1.0583
 5532SOL    HW228230   1.293   0.693   5.913 -1.8387  2.6747 -2.1637
 5533SOL     OW28231   2.191   2.208  15.649 -0.0976 -0.1744 -0.7567
 5533SOL    HW128232   2.184   2.154  15.728  0.4947  0.9240  0.0443
 5533SOL    HW228233   2.162   2.294  15.680  0.9361 -0.2332  0.3519
 5534SOL     OW28234   2.956   2.722   5.594 -0.5200  0.0225 -0.0173
 5534SOL    HW128235   2.873   2.721   5.642  1.0596  2.3912  2.7684
 5534SOL    HW228236   2.938   2.786   5.525  0.8082 -0.2082 -0.5757
 5535SOL     OW28237   3.979   1.704   8.576  0.3423 -0.1795 -0.4099
 5535SOL    HW128238   4.068   1.727   8.603  0.0390  0.8571 -0.3210
 5535SOL    HW228239   3.961   1.757   8.499  1.5957  0.8354 -0.0037
 5536SOL     OW28240   4.319   2.840   6.491  0.2626  0.4520 -0.6110
 5536SOL    HW128241   4.365   2.820   6.573 -1.6395 -0.0067  0.3476
 5536SOL    HW228242   4.235   2.862   6.531 -0.8094 -0.3284 -2.4512
 5537SOL     OW28243   4.551   4.156  10.142  0.6124  0.4687 -0.7078
 5537SOL    HW128244   4.479   4.094  10.149  0.6526  0.5493  0.4682
 5537SOL    HW228245   4.621   4.104  10.179  0.0483  0.1053 -0.1521
 5538SOL     OW28246   4.608   3.893   2.834 -0.7482  0.0338 -0.2281
 5538SOL    HW128247   4.695   3.862   2.859 -0.3344  1.1192 -0.3565
 5538SOL    HW228248   4.580   3.826   2.771 -0.8857 -1.2438  1.1814
 5539SOL     OW28249   1.073   4.506   1.326 -0.0120  0.4807 -0.2308
 5539SOL    HW128250   0.987   4.521   1.364  0.1755 -2.3431  1.2832
 5539SOL    HW228251   1.102   4.597   1.329 -1.6461  1.0335 -0.9397
 5540SOL     OW28252   4.725   3.244   1.617  0.0159 -0.8876 -0.1259
 5540SOL    HW128253   4.657   3.257   1.683  0.8827 -0.9449  0.7701
 5540SOL    HW228254   4.731   3.332   1.580  0.3673 -0.5176  0.8074
 5541SOL     OW28255   2.988   2.763  12.276 -0.1018  0.2365 -0.3431
 5541SOL    HW128256   3.081   2.787  12.273  0.2103 -0.8133  0.7847
 5541SOL    HW228257   2.987   2.696  12.344  2.8117 -1.8767 -2.3979
 5542SOL     OW28258   2.571   2.122  13.779  0.7373 -0.2900 -0.2915
 5542SOL    HW128259   2.529   2.187  13.722 -0.0865  0.4451  1.1460
 5542SOL    HW228260   2.494   2.077  13.814  0.5569  0.2012 -0.0635
 5543SOL     OW28261   0.765   0.521  16.595 -0.0044 -0.4136 -0.4393
 5543SOL    HW128262   0.799   0.588  16.536 -0.6362  0.9912  0.7999
 5543SOL    HW228263   0.747   0.569  16.676  2.4380  1.0162 -0.7546
 5544SOL     OW28264   3.293   3.255  15.348 -0.9521  0.1674  0.7487
 5544SOL    HW128265   3.271   3.219  15.262 -1.2786  0.0890  0.8650
 5544SOL    HW228266   3.363   3.316  15.324 -1.8005  1.6309  2.0259
 5545SOL     OW28267   1.769   4.267   0.989  0.2242  0.3298 -0.3197
 5545SOL    HW128268   1.859   4.253   1.019 -0.2489  0.5020  1.1797
 5545SOL    HW228269   1.734   4.178   0.993  0.4183  0.2476 -0.4298
 5546SOL     OW28270   3.076   1.376   3.470  0.3406  0.0013  0.2552
 5546SOL    HW128271   3.046   1.380   3.379 -1.3323  0.5950  0.8367
 5546SOL    HW228272   2.990   1.395   3.507 -0.2039 -3.0696  0.5393
 5547SOL     OW28273   1.034   0.617  11.482 -0.4475 -0.0495  0.1942
 5547SOL    HW128274   1.052   0.553  11.414 -2.2430  0.3031 -0.6093
 5547SOL    HW228275   0.943   0.601  11.505 -1.0196  2.0588 -0.6035
 5548SOL     OW28276   3.630   1.391   7.842 -0.1239 -0.3357 -0.1426
 5548SOL    HW128277   3.594   1.421   7.925  1.0731 -0.7432  0.5203
 5548SOL    HW228278   3.636   1.472   7.791  0.7948 -0.0311  0.4372
 5549SOL     OW28279   4.009   3.756   7.075  0.1428 -0.0991  0.0240
 5549SOL    HW128280   4.103   3.751   7.060  0.6464  2.1101  2.4709
 5549SOL    HW228281   3.974   3.753   6.986 -1.6932  1.3047  0.7009
 5550SOL     OW28282   4.347   2.708  16.962  0.2462  0.1486  0.2166
 5550SOL    HW128283   4.333   2.752  17.046 -0.7155 -1.9515  1.1615
 5550SOL    HW228284   4.332   2.619  16.994  0.4219  0.1434  0.2840
 5551SOL     OW28285   0.010   4.608  11.109  0.6177  0.0320  0.4388
 5551SOL    HW128286   4.668   4.659  11.130  0.1758 -0.2235 -0.5941
 5551SOL    HW228287   0.085   4.667  11.104  0.4083  0.2711  0.1089
 5552SOL     OW28288   4.146   1.557  12.964 -0.5511 -0.1479 -0.7594
 5552SOL    HW128289   4.119   1.624  13.027  2.1630  1.3021 -1.1729
 5552SOL    HW228290   4.166   1.479  13.015 -0.7271 -0.4049 -1.0809
 5553SOL     OW28291   4.673   0.542   7.947  0.5969  0.4218 -0.2607
 5553SOL    HW128292   4.584   0.563   7.976  1.7184  1.0064  2.7393
 5553SOL    HW228293   4.668   0.449   7.927  1.6366  0.2038  0.4738
 5554SOL     OW28294   4.593   4.337   6.195 -0.6142  0.1608  0.6767
 5554SOL    HW128295   4.632   4.284   6.125 -2.2716 -1.1550  0.7581
 5554SOL    HW228296   4.624   4.296   6.275 -3.5771 -0.5982  1.4106
 5555SOL     OW28297   3.472   3.316   1.832  0.3751 -0.7021  0.4860
 5555SOL    HW128298   3.467   3.283   1.742 -1.2909  0.6619  0.0838
 5555SOL    HW228299   3.495   3.407   1.813  0.1607 -0.3578  1.8962
 5556SOL     OW28300   1.584   4.027   5.192  0.1247 -0.3551  0.4470
 5556SOL    HW128301   1.537   4.036   5.109  0.6547  1.9493  0.3873
 5556SOL    HW228302   1.508   4.001   5.245  0.7691  0.7100  1.8914
 5557SOL     OW28303   2.606   3.336  17.587 -0.2368  0.6555  0.4967
 5557SOL    HW128304   2.538   3.404  17.587 -0.7852  0.1016  0.9474
 5557SOL    HW228305   2.607   3.304  17.496  1.8752 -0.2764  0.8506
 5558SOL     OW28306   2.679   0.213   2.331  0.3093 -0.1074  0.7837
 5558SOL    HW128307   2.602   0.249   2.375 -1.0785 -1.4170 -0.5557
 5558SOL    HW228308   2.646   0.134   2.288 -1.4090  0.7915  0.4485
 5559SOL     OW28309   3.622   2.219   8.731 -0.5368  0.0285 -0.9758
 5559SOL    HW128310   3.680   2.277   8.781 -0.7219  0.5919 -1.4103
 5559SOL    HW228311   3.620   2.138   8.781  2.4218 -0.3356 -1.4660
 5560SOL     OW28312   3.530   3.912  14.746 -0.2999  0.1953  0.1161
 5560SOL    HW128313   3.619   3.948  14.751  0.8233 -2.6994  1.1269
 5560SOL    HW228314   3.536   3.871  14.833 -1.9226  0.9650  0.6003
 5561SOL     OW28315   2.532   0.879  15.475 -0.0595 -0.1436 -0.0617
 5561SOL    HW128316   2.444   0.900  15.445  0.1678 -0.0564 -0.6729
 5561SOL    HW228317   2.525   0.855  15.568  1.3181  0.5877  0.2351
 5562SOL     OW28318   3.207   0.845   7.753  0.9828  0.0455 -0.4425
 5562SOL    HW128319   3.291   0.886   7.731  1.3728  0.4793  1.7710
 5562SOL    HW228320   3.145   0.911   7.722  0.3773 -1.0737 -1.5910
 5563SOL     OW28321   4.492   4.475   8.568 -0.3036  0.5673 -0.0651
 5563SOL    HW128322   4.416   4.529   8.545 -2.1582 -1.3466  1.5461
 5563SOL    HW228323   4.525   4.525   8.643 -1.3545  2.8531 -1.1214
 5564SOL     OW28324   2.260   3.844   3.006 -0.6034  0.3986 -0.0493
 5564SOL    HW128325   2.295   3.785   3.073 -1.8154 -0.4292 -0.1322
 5564SOL    HW228326   2.330   3.908   3.000 -1.2015  1.0686  0.1808
 5565SOL     OW28327   4.573   2.502   4.625 -0.5890 -0.1150  0.5246
 5565SOL    HW128328   4.622   2.513   4.707 -1.9217 -1.5650  1.5229
 5565SOL    HW228329   4.497   2.450   4.652  0.6228 -1.0164  2.1906
 5566SOL     OW28330   1.279   2.430   9.004 -0.6203 -0.6334 -0.1227
 5566SOL    HW128331   1.369   2.414   8.974 -0.1350  1.7176  0.0751
 5566SOL    HW228332   1.282   2.419   9.099 -1.1549  0.0748 -0.0214
 5567SOL     OW28333   4.214   0.583   2.170  1.2158  0.0570 -0.4412
 5567SOL    HW128334   4.182   0.562   2.082 -1.1966  0.3498  0.3773
 5567SOL    HW228335   4.146   0.627   2.221  0.9881  0.0876 -0.7694
 5568SOL     OW28336   1.476   1.561   1.275 -0.4569 -0.6745  0.0461
 5568SOL    HW128337   1.487   1.495   1.207 -0.9977  1.2602 -1.9165
 5568SOL    HW228338   1.519   1.514   1.347  0.4963 -1.0828 -0.8040
 5569SOL     OW28339   3.559   1.414  12.131  0.1706  0.1928  0.7780
 5569SOL    HW128340   3.651   1.443  12.135  0.7102 -1.7839  2.5747
 5569SOL    HW228341   3.548   1.375  12.217  0.6703 -1.7188 -0.0191
 5570SOL     OW28342   4.523   0.218   3.433  0.1814 -0.2331 -0.1348
 5570SOL    HW128343   4.563   0.131   3.422  2.4451  0.8268 -0.1347
 5570SOL    HW228344   4.434   0.192   3.458 -0.3930  1.3990 -0.5094
 5571SOL     OW28345   3.895   2.771   4.502 -0.4959  0.6522 -0.1011
 5571SOL    HW128346   3.946   2.842   4.541 -0.8469  0.2091  1.1616
 5571SOL    HW228347   3.857   2.734   4.582  0.7707  0.0292  0.2094
 5572SOL     OW28348   3.097   4.074   5.967  0.4672  0.1293  0.0833
 5572SOL    HW128349   3.127   4.044   5.881 -0.9967 -1.3071  0.0806
 5572SOL    HW228350   3.176   4.114   6.004 -0.3341  2.9112 -1.2499
 5573SOL     OW28351   2.767   4.340   6.267 -0.0279  0.7274 -0.6667
 5573SOL    HW128352   2.859   4.340   6.244  0.2849  3.8011  0.6451
 5573SOL    HW228353   2.776   4.305   6.355  0.9503  0.8225 -0.7320
 5574SOL     OW28354   0.419   3.162  11.120 -0.5523 -0.1785  0.0976
 5574SOL    HW128355   0.352   3.105  11.159  0.8190 -2.1888 -0.5059
 5574SOL    HW228356   0.382   3.246  11.148 -1.1844 -0.8706  1.3687
 5575SOL     OW28357   0.509   2.969   2.284  0.0152  0.3444  0.3597
 5575SOL    HW128358   0.570   2.898   2.306 -0.7810 -0.1035  1.1359
 5575SOL    HW228359   0.516   3.033   2.355  0.7638 -0.1472  0.7322
 5576SOL     OW28360   3.074   4.689   0.750 -0.1618 -0.3017 -0.2351
 5576SOL    HW128361   3.038   4.615   0.700  1.9104 -1.9086  0.6324
 5576SOL    HW228362   3.002   0.016   0.751 -0.3979 -0.6007  1.4369
 5577SOL     OW28363   1.345   0.028   8.963 -0.3504 -0.6219  0.2776
 5577SOL    HW128364   1.261   0.021   8.917 -0.7130 -1.1363  1.0319
 5577SOL    HW228365   1.390   4.692   8.917  0.1800 -0.4888  0.5894
 5578SOL     OW28366   1.100   2.633   9.211  0.4088 -0.2945  0.0501
 5578SOL    HW128367   1.187   2.643   9.251  0.3764 -0.3171  0.1266
 5578SOL    HW228368   1.047   2.668   9.282  1.1759 -0.2087  0.5884
 5579SOL     OW28369   1.305   4.100   3.557  0.0165  0.6499 -0.2659
 5579SOL    HW128370   1.305   4.151   3.476 -0.2955  0.7849 -0.1788
 5579SOL    HW228371   1.387   4.125   3.601  0.6168 -2.0840  0.1786
 5580SOL     OW28372   3.667   1.276   6.550  0.0643  0.2969 -0.2920
 5580SOL    HW128373   3.760   1.255   6.543 -0.4380 -2.0182 -0.2197
 5580SOL    HW228374   3.625   1.222   6.482  0.6273  1.1578 -1.3297
 5581SOL     OW28375   4.660   1.970   5.151  0.0554  0.1757  0.5433
 5581SOL    HW128376   4.576   1.925   5.162  0.2757 -0.2411  0.5155
 5581SOL    HW228377   4.645   2.054   5.195  0.0199 -0.1893  1.2259
 5582SOL     OW28378   4.109   1.745   0.453 -0.3893  0.2320  0.4901
 5582SOL    HW128379   4.042   1.677   0.450 -0.5229  0.3365  1.2758
 5582SOL    HW228380   4.180   1.694   0.491  0.4361  1.6677  0.8536
 5583SOL     OW28381   1.027   2.680   2.049  0.2282  0.1530  0.1086
 5583SOL    HW128382   0.969   2.699   1.975  0.1792  0.0859  0.1300
 5583SOL    HW228383   1.003   2.755   2.104 -0.6838 -0.4783  0.5699
 5584SOL     OW28384   4.609   3.026  16.811  0.6067 -0.2191 -0.0515
 5584SOL    HW128385   4.516   3.031  16.834  0.4968  0.0600 -0.5747
 5584SOL    HW228386   4.620   2.933  16.794  1.8539 -0.2739  1.0531
 5585SOL     OW28387   0.792   4.037  17.266 -0.6705 -0.3074 -0.5174
 5585SOL    HW128388   0.835   4.114  17.229  1.1373 -1.7555 -1.3965
 5585SOL    HW228389   0.865   3.976  17.271  0.9733  1.5734 -1.4940
 5586SOL     OW28390   3.607   0.368   4.926  0.5016  0.7574 -0.0559
 5586SOL    HW128391   3.550   0.366   5.004 -0.5883  0.9023 -0.8502
 5586SOL    HW228392   3.552   0.424   4.871 -1.0677  0.5031  1.2161
 5587SOL     OW28393   0.221   1.906   8.875  0.2470  0.2101 -0.0684
 5587SOL    HW128394   0.306   1.928   8.837 -0.8244  3.3879 -0.6704
 5587SOL    HW228395   0.258   1.866   8.953 -2.7655 -0.8969  0.7986
 5588SOL     OW28396   1.136   2.291   4.980  0.8470 -0.0378  0.1099
 5588SOL    HW128397   1.132   2.313   5.073 -1.0818 -0.4475  0.1171
 5588SOL    HW228398   1.052   2.254   4.954  1.7664 -0.9342 -1.5940
 5589SOL     OW28399   3.645   0.935   7.005 -0.1243 -0.1002  0.3663
 5589SOL    HW128400   3.688   0.912   6.922  0.6191 -0.2808  0.8082
 5589SOL    HW228401   3.554   0.909   6.989 -0.1729  0.9754 -1.1592
 5590SOL     OW28402   0.565   4.729  17.603  0.6649 -0.1473  0.5132
 5590SOL    HW128403   0.541   0.085  17.597 -1.9795 -0.8166  0.7608
 5590SOL    HW228404   0.632   4.732  17.535  0.5655 -0.5456  0.4011
 5591SOL     OW28405   2.175   4.426   5.661  0.6882 -0.5784 -0.6208
 5591SOL    HW128406   2.079   4.422   5.665  0.8507  0.9305  3.6603
 5591SOL    HW228407   2.205   4.335   5.665 -1.4786 -1.1515  2.2600
 5592SOL     OW28408   3.933   2.724   4.947  0.4192  0.2116  0.0622
 5592SOL    HW128409   3.863   2.712   5.011  0.3514  0.1172 -0.0288
 5592SOL    HW228410   3.890   2.703   4.863 -1.4329  1.1252  0.7750
 5593SOL     OW28411   3.237   0.728   8.541  0.3912  0.2452 -0.5865
 5593SOL    HW128412   3.192   0.797   8.493  0.9049 -0.3708 -1.9524
 5593SOL    HW228413   3.324   0.733   8.503  0.9357 -0.1586  0.5939
 5594SOL     OW28414   2.521   4.539   9.547  0.3639 -0.4451  0.2240
 5594SOL    HW128415   2.514   4.568   9.638 -1.6487  0.1359 -0.1060
 5594SOL    HW228416   2.448   4.477   9.539 -0.2480  0.7018 -3.3311
 5595SOL     OW28417   0.846   3.162   8.586  0.2631  0.0202 -0.0578
 5595SOL    HW128418   0.815   3.207   8.508  1.7553  0.2774 -0.4943
 5595SOL    HW228419   0.798   3.080   8.596 -0.4312  0.6137  1.6127
 5596SOL     OW28420   3.394   0.430   7.173  0.3220 -0.3568 -0.2035
 5596SOL    HW128421   3.328   0.435   7.105 -0.8876 -2.6526  0.7866
 5596SOL    HW228422   3.391   0.336   7.192 -0.9415 -0.1389  0.6885
 5597SOL     OW28423   0.475   3.018   7.081  0.3265  0.2388  0.2814
 5597SOL    HW128424   0.561   2.997   7.118  0.6722 -2.0533 -1.8158
 5597SOL    HW228425   0.418   2.979   7.148 -0.8537  0.1767 -0.7595
 5598SOL     OW28426   0.180   0.275   8.118  0.5072 -0.5741 -0.0105
 5598SOL    HW128427   0.195   0.183   8.099  1.7082 -0.3169 -0.3435
 5598SOL    HW228428   0.208   0.307   8.033  0.7652  0.7830  0.5801
 5599SOL     OW28429   4.433   0.565   9.061 -0.0384 -0.3083 -0.0615
 5599SOL    HW128430   4.357   0.602   9.107  0.2610  2.4433 -1.7438
 5599SOL    HW228431   4.454   0.484   9.108 -0.7653 -1.9509 -2.5751
 5600SOL     OW28432   2.246   3.452   9.052  0.1399  0.4913  0.4958
 5600SOL    HW128433   2.255   3.388   9.123  0.1153 -2.1577 -1.9088
 5600SOL    HW228434   2.152   3.455   9.036  0.2978  0.8759 -0.3576
 5601SOL     OW28435   1.800   1.510  12.238  0.0591 -0.0717  0.4098
 5601SOL    HW128436   1.822   1.443  12.302 -0.2908 -1.8142 -1.2975
 5601SOL    HW228437   1.743   1.575  12.280 -2.0055  0.0997 -2.6365
 5602SOL     OW28438   2.985   4.677  11.998  0.3359  0.2506  0.1888
 5602SOL    HW128439   2.910   4.651  12.052  0.8264 -2.2098 -0.3420
 5602SOL    HW228440   3.048   4.622  12.044  2.6061 -0.3898 -3.7936
 5603SOL     OW28441   1.317   2.887   3.156 -0.6451  0.1927  0.0925
 5603SOL    HW128442   1.369   2.808   3.144 -1.4030 -0.2642 -0.1894
 5603SOL    HW228443   1.237   2.849   3.191 -1.1108  0.8121 -0.2838
 5604SOL     OW28444   0.486   2.054  12.541  0.3286 -0.3507 -0.0610
 5604SOL    HW128445   0.446   2.103  12.612 -0.4598 -1.8222  0.5015
 5604SOL    HW228446   0.575   2.087  12.557 -0.0199  1.4752 -1.9492
 5605SOL     OW28447   0.260   0.520  14.109  0.6484 -0.5951 -0.0599
 5605SOL    HW128448   0.313   0.487  14.181 -0.5231 -0.5784  0.8233
 5605SOL    HW228449   0.225   0.604  14.140  1.9787  0.8963 -2.5773
 5606SOL     OW28450   2.275   3.894   5.269  0.2908  0.2223  0.1219
 5606SOL    HW128451   2.235   3.813   5.239  0.8063  0.2399 -0.6097
 5606SOL    HW228452   2.204   3.958   5.265  0.8376  0.7588 -0.8659
 5607SOL     OW28453   4.425   3.287   0.795  0.0257  0.0188 -0.0305
 5607SOL    HW128454   4.450   3.308   0.885 -0.7818  0.1692  0.1544
 5607SOL    HW228455   4.507   3.303   0.749 -0.7857  1.8163 -0.8374
 5608SOL     OW28456   2.575   4.298  15.470  1.1907 -0.4692  0.6034
 5608SOL    HW128457   2.559   4.284  15.563  1.4501  0.1976  0.7550
 5608SOL    HW228458   2.669   4.280  15.466  1.3456  0.3698  0.4322
 5609SOL     OW28459   0.962   0.382   2.152  0.3702  0.1984  0.0063
 5609SOL    HW128460   0.991   0.414   2.238  2.0992 -3.1215  0.6457
 5609SOL    HW228461   1.048   0.370   2.114 -0.4537 -4.0248 -0.5131
 5610SOL     OW28462   0.651   4.086   3.683  0.1304 -0.2566 -0.0231
 5610SOL    HW128463   0.630   4.135   3.603 -1.7530 -1.1057 -0.0407
 5610SOL    HW228464   0.591   4.014   3.664 -1.0362  0.8050 -0.3663
 5611SOL     OW28465   1.097   0.968   6.624  0.7253 -0.4412  0.1445
 5611SOL    HW128466   1.171   1.022   6.596  0.3933  0.1420  0.3930
 5611SOL    HW228467   1.144   0.916   6.689  0.1237 -1.4715 -0.2388
 5612SOL     OW28468   1.117   4.043  15.393 -0.1242  0.4581  0.0383
 5612SOL    HW128469   1.111   4.079  15.482 -2.1592  0.5538 -0.1338
 5612SOL    HW228470   1.193   3.985  15.398 -0.1682  0.2984 -1.2592
 5613SOL     OW28471   2.977   3.308   4.757 -0.6010  0.0540 -0.0711
 5613SOL    HW128472   2.956   3.346   4.672  3.1566 -0.0317 -1.0367
 5613SOL    HW228473   2.905   3.245   4.757  0.4539 -1.1441 -4.2838
 5614SOL     OW28474   2.490   3.872   4.364  0.3087 -0.1044 -0.2293
 5614SOL    HW128475   2.475   3.781   4.340  0.1676  0.1161 -0.9812
 5614SOL    HW228476   2.402   3.898   4.334 -0.2317  0.7742  2.0775
 5615SOL     OW28477   3.416   1.323  12.836 -0.4767 -0.0525  0.4942
 5615SOL    HW128478   3.375   1.399  12.878 -0.7399 -0.4542  0.9743
 5615SOL    HW228479   3.399   1.355  12.747 -1.1526 -0.5810  0.4304
 5616SOL     OW28480   1.376   4.513   1.080 -0.7090  0.0361 -0.4724
 5616SOL    HW128481   1.358   4.484   0.991 -2.1362 -0.8012  0.0913
 5616SOL    HW228482   1.313   4.468   1.136  0.0318  0.7804  0.9553
 5617SOL     OW28483   2.196   1.452   7.692 -0.2458 -0.2065 -0.4397
 5617SOL    HW128484   2.112   1.429   7.654  0.5066 -0.2635 -2.0514
 5617SOL    HW228485   2.183   1.465   7.786 -0.5366  1.1687 -0.6770
 5618SOL     OW28486   0.528   0.174   1.342  0.0388  0.0342 -0.0254
 5618SOL    HW128487   0.498   0.257   1.379 -2.1268 -1.4129  1.4503
 5618SOL    HW228488   0.512   0.178   1.248 -1.1274 -0.6175  0.1399
 5619SOL     OW28489   1.657   4.241   5.988  0.4345  0.1471 -0.0631
 5619SOL    HW128490   1.621   4.154   5.972  0.2764  0.6836 -2.6194
 5619SOL    HW228491   1.589   4.296   6.027  0.0491  1.4563 -2.5038
 5620SOL     OW28492   0.055   0.310  12.138  0.4389 -0.3554  0.7892
 5620SOL    HW128493   0.149   0.325  12.153  0.0823  2.2646  0.4453
 5620SOL    HW228494   0.024   0.249  12.204 -0.3507 -1.1559 -0.3286
 5621SOL     OW28495   1.091   2.337   4.093 -1.0991 -0.1600  0.0472
 5621SOL    HW128496   1.077   2.260   4.038  0.0827 -0.2131 -0.1897
 5621SOL    HW228497   1.088   2.304   4.183 -1.0584 -1.1734 -0.3222
 5622SOL     OW28498   2.004   4.282   1.135  0.2799 -0.0317  0.4392
 5622SOL    HW128499   2.095   4.296   1.109  0.6402 -1.1829  1.0442
 5622SOL    HW228500   1.978   4.360   1.184 -0.6343 -0.0575  0.0092
 5623SOL     OW28501   4.345   1.126   9.580  0.2209 -0.1853  0.4120
 5623SOL    HW128502   4.411   1.168   9.524 -0.3443 -0.1786 -0.2450
 5623SOL    HW228503   4.277   1.101   9.518 -0.8803 -2.0630  2.3980
 5624SOL     OW28504   2.546   0.353   7.772 -0.1994  0.1448 -0.1965
 5624SOL    HW128505   2.574   0.444   7.779 -2.0743  0.5539  1.8723
 5624SOL    HW228506   2.613   0.316   7.714 -1.3206  0.0364 -1.4012
 5625SOL     OW28507   2.942   0.912   2.324 -0.7050  0.0185  0.1733
 5625SOL    HW128508   2.860   0.877   2.290 -0.1228 -0.2483 -0.9727
 5625SOL    HW228509   3.007   0.841   2.321  0.0358  0.7166 -0.4769
 5626SOL     OW28510   1.194   2.809  16.543 -0.0794  0.2353  0.2819
 5626SOL    HW128511   1.230   2.861  16.615  2.8058  1.1552 -1.8433
 5626SOL    HW228512   1.252   2.733  16.538 -0.7981 -0.4270  1.8714
 5627SOL     OW28513   1.744   0.220   0.619 -0.5819 -0.1670  0.3772
 5627SOL    HW128514   1.805   0.293   0.632 -0.6747  0.2843 -1.6821
 5627SOL    HW228515   1.769   0.158   0.687 -0.4477  0.0715  0.5421
 5628SOL     OW28516   3.162   2.993   0.925  1.0619 -0.0705 -0.4976
 5628SOL    HW128517   3.181   3.063   0.987  2.5960 -1.2472  0.3519
 5628SOL    HW228518   3.249   2.973   0.891  1.0999 -0.1025 -0.3820
 5629SOL     OW28519   4.413   0.578   6.054 -0.2835  0.0849  0.0460
 5629SOL    HW128520   4.340   0.516   6.066 -1.4600  1.3967 -0.3473
 5629SOL    HW228521   4.480   0.517   6.023 -0.4059  0.2522 -0.5415
 5630SOL     OW28522   0.051   1.167   3.077 -0.4485 -0.6995  0.0694
 5630SOL    HW128523   0.146   1.166   3.077 -0.4459 -0.5676 -0.1381
 5630SOL    HW228524   0.016   1.086   3.041 -0.2176 -0.6412 -0.2822
 5631SOL     OW28525   0.386   4.525   8.286  0.4819 -0.1504 -0.4135
 5631SOL    HW128526   0.366   4.436   8.315 -0.7944  0.3524  0.2319
 5631SOL    HW228527   0.433   4.550   8.366 -1.1601  4.6290 -0.9522
 5632SOL     OW28528   3.854   4.481   0.409  0.5651 -0.0405  0.0065
 5632SOL    HW128529   3.936   4.506   0.450  0.6995 -1.5644  0.6411
 5632SOL    HW228530   3.847   4.550   0.342 -1.6266  2.5710  2.9073
 5633SOL     OW28531   1.614   4.257   8.809  0.7189  0.5045 -0.2807
 5633SOL    HW128532   1.703   4.231   8.833  1.8943  2.3198 -2.6636
 5633SOL    HW228533   1.630   4.341   8.765  0.8757  1.2655  1.1972
 5634SOL     OW28534   3.775   2.977  17.685 -0.3392 -0.0603 -0.0976
 5634SOL    HW128535   3.722   2.951   0.017  2.2797 -2.1400  1.0291
 5634SOL    HW228536   3.735   3.054  17.645 -2.0163  0.4044  2.5210
 5635SOL     OW28537   0.255   3.011   1.868 -0.1818  0.0270  0.2241
 5635SOL    HW128538   0.310   3.055   1.933  0.6981 -2.5261  1.2107
 5635SOL    HW228539   0.182   3.069   1.848 -0.9537 -0.9840  0.1032
 5636SOL     OW28540   2.618   4.181   0.189  0.2290 -0.6618  0.2110
 5636SOL    HW128541   2.639   4.259   0.240 -0.4825  0.1895 -0.7906
 5636SOL    HW228542   2.664   4.193   0.106  1.6586 -1.5797  0.8862
 5637SOL     OW28543   4.083   0.816   0.736 -0.6748 -0.3052 -0.0560
 5637SOL    HW128544   4.173   0.820   0.770 -0.1422 -1.0667 -1.3944
 5637SOL    HW228545   4.072   0.898   0.689  2.1324  1.1868  1.8015
 5638SOL     OW28546   2.299   0.250  15.172  0.6083  0.6085 -0.0638
 5638SOL    HW128547   2.357   0.207  15.109  0.6598  2.0939 -1.0213
 5638SOL    HW228548   2.343   0.229  15.255  2.4317  0.1028 -1.1542
 5639SOL     OW28549   1.217   0.920  16.385 -0.2323 -0.2913 -0.0056
 5639SOL    HW128550   1.206   0.922  16.480 -1.4928  1.3552 -0.1920
 5639SOL    HW228551   1.212   1.013  16.362 -0.2456 -0.0147  1.1463
 5640SOL     OW28552   0.692   1.702   4.273 -0.1671  0.1742 -0.0855
 5640SOL    HW128553   0.702   1.650   4.352 -1.9249  0.7806  0.5446
 5640SOL    HW228554   0.779   1.741   4.263  0.6146 -1.8979 -1.3070
 5641SOL     OW28555   4.570   2.108  15.391  0.1907 -0.2236  0.2753
 5641SOL    HW128556   4.556   2.198  15.361 -0.0139  0.2660  1.8337
 5641SOL    HW228557   4.487   2.098  15.438 -0.6389  0.7170 -0.9885
 5642SOL     OW28558   1.384   2.902   2.384  0.3190 -0.6073 -0.0223
 5642SOL    HW128559   1.432   2.843   2.326 -0.3321 -1.6559  0.4841
 5642SOL    HW228560   1.456   2.941   2.432 -0.2260  0.3682 -0.0018
 5643SOL     OW28561   2.806   3.113  17.561 -0.5918 -0.3355 -0.0268
 5643SOL    HW128562   2.759   3.196  17.564  0.9621  0.5668 -0.2710
 5643SOL    HW228563   2.756   3.075  17.489 -0.1352 -0.8356 -0.0853
 5644SOL     OW28564   1.473   4.091  14.687  0.0116 -0.1434  0.3221
 5644SOL    HW128565   1.508   4.053  14.607  0.2796  0.6897  0.0432
 5644SOL    HW228566   1.522   4.174  14.685  0.0192 -0.2150 -1.7747
 5645SOL     OW28567   2.872   3.479  16.647  0.4999  0.0102  0.5618
 5645SOL    HW128568   2.918   3.543  16.594  1.5320 -1.5942 -0.4903
 5645SOL    HW228569   2.937   3.408  16.637  1.3221  0.8491 -0.0215
 5646SOL     OW28570   3.031   2.925   9.410  0.0595  0.5399  0.2979
 5646SOL    HW128571   2.942   2.895   9.392  0.1871 -0.3527  1.1341
 5646SOL    HW228572   3.023   3.019   9.394  0.4590 -0.1434 -4.0391
 5647SOL     OW28573   2.137   2.673   9.155 -0.5793  0.4636  0.0530
 5647SOL    HW128574   2.125   2.582   9.182  1.7563  0.8000  2.2019
 5647SOL    HW228575   2.211   2.673   9.094  0.7230  0.8705  1.6433
 5648SOL     OW28576   0.752   2.329   5.533  0.6251 -0.4180 -0.2503
 5648SOL    HW128577   0.682   2.278   5.574 -0.3801  2.1693  1.2392
 5648SOL    HW228578   0.795   2.377   5.604  1.6545 -2.2881  0.3720
 5649SOL     OW28579   0.904   2.856   6.170 -0.4700  0.7721  0.3390
 5649SOL    HW128580   0.942   2.776   6.133  0.0142  2.0918 -2.0337
 5649SOL    HW228581   0.986   2.895   6.200 -0.4166  0.8377  0.1042
 5650SOL     OW28582   3.727   4.727   1.856  0.8525 -0.1317 -0.1108
 5650SOL    HW128583   3.652   0.041   1.824  0.6683  1.0290  2.1400
 5650SOL    HW228584   3.740   0.022   1.946  0.8819 -3.1408  0.9126
 5651SOL     OW28585   2.602   2.798   6.020 -0.3712  0.2730  0.4999
 5651SOL    HW128586   2.657   2.844   6.083 -0.1430  1.2537 -0.4330
 5651SOL    HW228587   2.534   2.757   6.074  0.2110 -0.7881  0.4391
 5652SOL     OW28588   3.981   1.708  13.156 -0.4509 -0.2627 -0.0955
 5652SOL    HW128589   4.014   1.720  13.245  1.9901 -2.5911 -0.6788
 5652SOL    HW228590   3.900   1.659  13.168  0.9832 -2.4091  0.7558
 5653SOL     OW28591   0.816   3.911  15.663  0.1039  0.1084 -0.2403
 5653SOL    HW128592   0.909   3.903  15.684 -0.0298  0.1940  0.3853
 5653SOL    HW228593   0.801   3.983  15.601  0.8985  1.5905  1.3042
 5654SOL     OW28594   0.015   0.706   4.227  0.3865  0.4447 -0.2654
 5654SOL    HW128595   0.008   0.788   4.276  0.5057  0.3247 -0.0468
 5654SOL    HW228596   0.104   0.680   4.251  0.2398  0.1644 -0.0124
 5655SOL     OW28597   0.687   0.612   6.068  0.0171 -0.5285 -0.0884
 5655SOL    HW128598   0.729   0.698   6.074  0.8193 -1.1700  3.4228
 5655SOL    HW228599   0.716   0.576   6.152 -3.3349 -1.0682  0.8279
 5656SOL     OW28600   3.920   2.057   7.952  0.6275  0.4850  0.1772
 5656SOL    HW128601   3.899   2.139   7.906 -1.3635  0.7027  1.4562
 5656SOL    HW228602   3.898   2.085   8.041 -0.3942 -0.1197  0.1187
 5657SOL     OW28603   3.481   4.281  17.395  0.4764 -0.1553  0.2956
 5657SOL    HW128604   3.434   4.294  17.477  1.1531 -0.3593  0.7119
 5657SOL    HW228605   3.538   4.358  17.397  0.9675 -0.5597  1.5909
 5658SOL     OW28606   1.781   3.269   7.538 -0.3885 -0.1980 -0.4039
 5658SOL    HW128607   1.738   3.292   7.455  0.5985 -0.7818 -1.0850
 5658SOL    HW228608   1.705   3.244   7.590  0.1453 -0.9687  0.0086
 5659SOL     OW28609   3.879   1.169   7.838  0.3883  0.1255 -0.1716
 5659SOL    HW128610   3.812   1.213   7.784 -0.4105 -0.5224  0.2919
 5659SOL    HW228611   3.915   1.237   7.895  0.6353  0.5830 -0.8653
 5660SOL     OW28612   2.570   4.127   3.305 -0.0732 -0.3918 -0.1649
 5660SOL    HW128613   2.573   4.073   3.384  1.4636 -0.3511 -0.2033
 5660SOL    HW228614   2.476   4.140   3.294 -0.1656 -1.6306 -0.7145
 5661SOL     OW28615   3.305   2.252  17.038  0.3558 -0.3048  0.2512
 5661SOL    HW128616   3.285   2.345  17.049  0.1724 -0.0487 -2.3256
 5661SOL    HW228617   3.219   2.214  17.020  1.5194 -1.8146 -2.1023
 5662SOL     OW28618   4.350   2.963  16.866  0.0308  0.3963  0.7924
 5662SOL    HW128619   4.260   2.977  16.836  0.6235  0.0098 -1.1922
 5662SOL    HW228620   4.355   2.869  16.882 -1.1814  0.0307 -0.9224
 5663SOL     OW28621   1.674   3.562   7.924 -0.5747  0.7484  0.2051
 5663SOL    HW128622   1.694   3.632   7.862  1.3938  1.4205  1.6056
 5663SOL    HW228623   1.741   3.504   7.886  1.8124  2.5769  1.6626
 5664SOL     OW28624   2.669   1.947   7.507 -0.3161 -0.3756  0.2766
 5664SOL    HW128625   2.589   1.980   7.466  1.3906  1.7308 -1.3535
 5664SOL    HW228626   2.686   2.012   7.575  1.1228 -1.2616  0.7666
 5665SOL     OW28627   3.315   3.282   5.164 -0.0940  0.5141 -0.2933
 5665SOL    HW128628   3.383   3.279   5.096 -0.3764 -1.6137 -0.4969
 5665SOL    HW228629   3.319   3.195   5.205  0.0285  0.1000 -1.1714
 5666SOL     OW28630   3.020   0.871  17.671  0.4717  0.3161 -0.1657
 5666SOL    HW128631   3.103   0.823  17.673  0.7632  0.8233 -0.0845
 5666SOL    HW228632   2.975   0.824  17.742  0.1022  1.0947  0.1128
 5667SOL     OW28633   2.917   3.423   8.960  0.0921 -0.4857 -0.0353
 5667SOL    HW128634   2.910   3.363   9.034  0.0366 -1.1233 -0.5561
 5667SOL    HW228635   2.880   3.505   8.991 -0.2733  0.0719 -1.9765
 5668SOL     OW28636   0.859   2.246  11.840 -0.6214 -0.0075  0.2913
 5668SOL    HW128637   0.909   2.260  11.760 -2.0683 -1.7744 -0.9121
 5668SOL    HW228638   0.771   2.243  11.803 -0.8789 -1.7866  1.0655
 5669SOL     OW28639   0.232   3.283  15.760 -0.4399  0.0374 -0.1041
 5669SOL    HW128640   0.261   3.355  15.704  0.8983 -0.9196 -0.6201
 5669SOL    HW228641   0.204   3.338  15.833 -0.5451  3.1614 -2.4827
 5670SOL     OW28642   3.555   3.042   1.142  0.4877 -0.2317  0.2397
 5670SOL    HW128643   3.489   3.079   1.084  0.3167 -0.8210  0.0563
 5670SOL    HW228644   3.633   3.077   1.099  0.4381  0.2640  0.5665
 5671SOL     OW28645   3.386   4.185  17.161 -0.0455 -0.4710  0.0697
 5671SOL    HW128646   3.379   4.268  17.114  1.3751  0.1051  0.8696
 5671SOL    HW228647   3.414   4.218  17.246 -1.1316 -0.9811  0.6170
 5672SOL     OW28648   3.839   3.805  14.681  0.4542  0.4814 -0.1953
 5672SOL    HW128649   3.834   3.894  14.717 -0.4046  0.7417 -0.9561
 5672SOL    HW228650   3.836   3.821  14.586  0.4593 -1.5965 -0.5472
 5673SOL     OW28651   1.395   2.553  14.971 -0.0905 -0.2425 -0.8585
 5673SOL    HW128652   1.406   2.504  14.890 -0.6850 -1.4341 -0.2227
 5673SOL    HW228653   1.384   2.480  15.032 -1.7935  0.4284 -0.3532
 5674SOL     OW28654   1.033   4.727   1.099  0.3406  0.1361  0.7555
 5674SOL    HW128655   1.072   0.019   1.182  1.9962 -1.0367  0.3831
 5674SOL    HW228656   0.942   0.012   1.120  0.3064  2.0517 -1.3748
 5675SOL     OW28657   3.403   2.396   8.624  0.0164  0.3794  0.1716
 5675SOL    HW128658   3.352   2.331   8.576  1.3986 -0.4686 -0.1579
 5675SOL    HW228659   3.486   2.352   8.641  1.0691  1.5081 -2.0449
 5676SOL     OW28660   2.628   0.027  14.666  0.0769  0.1744  0.2770
 5676SOL    HW128661   2.625   4.697  14.598 -0.9058 -0.7350  1.1999
 5676SOL    HW228662   2.713   0.028  14.710 -0.7515  1.3366  1.8482
 5677SOL     OW28663   2.102   4.337   4.561  0.0280  0.1605  0.4883
 5677SOL    HW128664   2.047   4.412   4.583 -1.1745 -0.1185 -1.6008
 5677SOL    HW228665   2.188   4.365   4.593 -0.4157 -0.0036  1.8508
 5678SOL     OW28666   2.381   1.377  12.291 -0.4195  0.3844  0.0035
 5678SOL    HW128667   2.425   1.294  12.274  0.1845  0.6028  0.5003
 5678SOL    HW228668   2.452   1.419  12.341  0.6960  0.7419 -1.8657
 5679SOL     OW28669   0.961   3.457  17.626 -0.2394  0.1990 -0.3185
 5679SOL    HW128670   0.982   3.437  17.535 -0.6424 -1.2729 -0.0849
 5679SOL    HW228671   0.980   3.550  17.619 -1.2649  0.4824  0.7452
 5680SOL     OW28672   0.695   4.028   8.093  0.3923 -0.3815  0.6581
 5680SOL    HW128673   0.636   3.992   8.027  0.1056  1.4318 -0.0672
 5680SOL    HW228674   0.670   4.120   8.085  0.0497 -0.4256  1.2513
 5681SOL     OW28675   4.549   3.621   9.894 -0.4498 -0.0234  0.3183
 5681SOL    HW128676   4.588   3.709   9.890 -0.4285 -0.0731 -0.7333
 5681SOL    HW228677   4.537   3.612   9.988  1.0045  1.4431  0.6391
 5682SOL     OW28678   2.842   4.421  11.916  0.1556 -0.1683 -0.5255
 5682SOL    HW128679   2.793   4.476  11.976  3.1632 -0.0865  1.8607
 5682SOL    HW228680   2.823   4.465  11.833  2.0912  0.4627 -0.6372
 5683SOL     OW28681   0.409   0.234  10.262 -0.6023  0.0386  0.2550
 5683SOL    HW128682   0.352   0.298  10.305  0.2414  0.5442  0.6378
 5683SOL    HW228683   0.341   0.180  10.223  1.0108 -2.9571  1.6130
 5684SOL     OW28684   4.198   2.327   3.952 -0.5081 -0.1484 -0.1607
 5684SOL    HW128685   4.246   2.404   3.984  1.6049 -1.6875  0.3669
 5684SOL    HW228686   4.110   2.362   3.965 -0.5413 -0.3202  0.0751
 5685SOL     OW28687   2.838   3.952  15.552  0.1816  0.2889 -0.4011
 5685SOL    HW128688   2.774   3.938  15.621  2.0628  0.4300  1.3663
 5685SOL    HW228689   2.899   3.878  15.560 -1.3205 -1.0431 -1.2545
 5686SOL     OW28690   3.454   1.292  15.482 -0.4695  0.5071  0.1895
 5686SOL    HW128691   3.405   1.348  15.422  0.9750  1.2767 -0.2458
 5686SOL    HW228692   3.438   1.335  15.566 -1.6462  0.2988  0.0716
 5687SOL     OW28693   1.162   1.257  15.399 -0.1990 -0.1171 -0.1026
 5687SOL    HW128694   1.092   1.275  15.461  0.8212 -0.5258  1.1765
 5687SOL    HW228695   1.173   1.163  15.413 -2.5119 -0.2189  1.0361
 5688SOL     OW28696   0.941   3.746   5.349  0.2597 -0.1388 -0.3428
 5688SOL    HW128697   0.891   3.753   5.430  1.7858  1.0174  0.4994
 5688SOL    HW228698   0.880   3.701   5.290 -1.7138  0.0431  1.5628
 5689SOL     OW28699   3.382   3.796   6.034 -0.5749 -0.0321  0.0821
 5689SOL    HW128700   3.291   3.807   6.062  0.4954  4.3245  1.8018
 5689SOL    HW228701   3.363   3.777   5.942  2.7273 -0.4681 -0.5176
 5690SOL     OW28702   2.011   4.191   0.028  0.0006  0.2824 -0.7767
 5690SOL    HW128703   1.941   4.153   0.083  1.4787  0.0495  0.9386
 5690SOL    HW228704   2.034   4.116  17.716 -0.3652 -0.4152  0.0079
 5691SOL     OW28705   4.254   4.174   1.397 -0.6257 -0.5794  0.0980
 5691SOL    HW128706   4.238   4.153   1.489  2.2340  1.8007  1.1654
 5691SOL    HW228707   4.285   4.265   1.395  1.0863 -1.2183 -3.0510
 5692SOL     OW28708   0.303   2.786   2.264 -0.3064  0.5502  0.2785
 5692SOL    HW128709   0.247   2.852   2.304 -1.3830 -0.5969  0.6825
 5692SOL    HW228710   0.384   2.835   2.250  0.3836 -0.2603  1.3998
 5693SOL     OW28711   4.541   1.484  10.499  0.4231 -0.6956  0.7863
 5693SOL    HW128712   4.509   1.527  10.579  0.0367 -1.5838  1.1114
 5693SOL    HW228713   4.467   1.427  10.475 -0.4325  0.8241 -0.1613
 5694SOL     OW28714   3.247   2.624  10.130 -0.1320 -0.0993 -0.2049
 5694SOL    HW128715   3.301   2.698  10.102  1.4733 -0.8059  0.9827
 5694SOL    HW228716   3.290   2.558  10.075  3.4993  1.1288  1.1250
 5695SOL     OW28717   2.781   4.215   5.385 -0.0665 -0.0420  0.1330
 5695SOL    HW128718   2.801   4.127   5.352  1.6888 -1.0050  3.6879
 5695SOL    HW228719   2.692   4.206   5.418 -0.1047  2.8900  0.8383
 5696SOL     OW28720   0.575   3.321  13.992  0.3101  0.6416  0.4545
 5696SOL    HW128721   0.560   3.378  14.067 -0.9214 -0.2640  0.9125
 5696SOL    HW228722   0.667   3.343  13.978  0.3315 -0.1431 -0.6978
 5697SOL     OW28723   0.604   1.880   5.938 -0.9239  0.3495 -0.4485
 5697SOL    HW128724   0.538   1.810   5.940 -0.2685 -0.2247  1.2268
 5697SOL    HW228725   0.683   1.836   5.969 -1.4176 -0.1971  0.0286
 5698SOL     OW28726   2.743   2.413   7.104  0.7081  0.4821  0.2157
 5698SOL    HW128727   2.734   2.397   7.010 -0.6502 -1.1434  0.6202
 5698SOL    HW228728   2.677   2.482   7.116 -1.5683 -1.2186 -2.7260
 5699SOL     OW28729   3.429   2.629   6.007  0.4250  0.1662  0.0453
 5699SOL    HW128730   3.394   2.609   5.920  0.3035 -2.1325  0.6211
 5699SOL    HW228731   3.493   2.557   6.012 -1.0142 -1.0311  1.1142
 5700SOL     OW28732   4.457   4.450   7.224 -0.1221 -0.8678  0.3732
 5700SOL    HW128733   4.411   4.480   7.303  2.5456  0.8289  1.2891
 5700SOL    HW228734   4.385   4.446   7.161  1.2389  0.8507 -1.2831
 5701SOL     OW28735   4.101   2.202   6.775 -0.3355  0.0639  0.1755
 5701SOL    HW128736   4.025   2.144   6.767 -0.2286 -0.1104  0.4060
 5701SOL    HW228737   4.081   2.261   6.848  0.1856  1.0134 -0.4502
 5702SOL     OW28738   2.542   3.763   6.440  0.5095 -0.0989 -0.2491
 5702SOL    HW128739   2.489   3.734   6.514 -0.2763  1.0498 -0.3723
 5702SOL    HW228740   2.629   3.738   6.473  0.1509  0.3260  1.0000
 5703SOL     OW28741   0.625   3.062  11.829  0.1222 -0.2462  0.0853
 5703SOL    HW128742   0.611   3.129  11.897  0.1018 -0.9971  0.8199
 5703SOL    HW228743   0.694   3.108  11.781  0.7460 -1.0683  0.1957
 5704SOL     OW28744   4.366   2.391   5.164  0.8768 -0.2021 -0.1807
 5704SOL    HW128745   4.347   2.474   5.208  3.8711  0.5265 -0.2551
 5704SOL    HW228746   4.455   2.402   5.130  0.5884 -2.5557 -1.7336
 5705SOL     OW28747   3.279   2.193   8.483 -0.4358  0.2275 -0.7472
 5705SOL    HW128748   3.308   2.182   8.393  2.1674 -0.7979  0.2245
 5705SOL    HW228749   3.332   2.128   8.530  0.6044  0.3643 -1.7461
 5706SOL     OW28750   1.484   1.112  13.286 -0.6035  0.4481  0.3352
 5706SOL    HW128751   1.417   1.045  13.276 -0.0870 -0.0574  0.2741
 5706SOL    HW228752   1.449   1.168  13.217  1.7039  1.1582 -0.2559
 5707SOL     OW28753   0.597   3.953   4.209  0.5005  0.1057 -0.1315
 5707SOL    HW128754   0.503   3.937   4.219  0.4586 -0.2497 -1.1516
 5707SOL    HW228755   0.608   4.015   4.138 -1.3347 -1.0748 -1.4758
 5708SOL     OW28756   3.870   3.880   3.745 -0.2053 -0.5412  0.2242
 5708SOL    HW128757   3.867   3.964   3.700  2.2423  0.2187  1.4547
 5708SOL    HW228758   3.916   3.907   3.825 -1.6320  1.8284  0.2497
 5709SOL     OW28759   2.163   1.793   2.674 -0.2062 -0.2380  0.5196
 5709SOL    HW128760   2.253   1.806   2.702 -0.7731  2.2275  1.1479
 5709SOL    HW228761   2.154   1.702   2.703  1.5564 -0.5971 -0.0575
 5710SOL     OW28762   3.101   0.072   8.570 -0.2174  0.2379 -0.3082
 5710SOL    HW128763   3.143   0.040   8.491  0.6758  0.2256  0.1679
 5710SOL    HW228764   3.108   0.165   8.550 -2.6094 -0.0473 -2.4273
 5711SOL     OW28765   4.652   0.774   6.613  0.2867  0.1213  0.0455
 5711SOL    HW128766   4.700   0.731   6.541  1.9626 -1.6676  2.2385
 5711SOL    HW228767   4.598   0.704   6.649  1.6608 -1.8651 -1.6845
 5712SOL     OW28768   4.369   0.678  15.366 -0.7775  0.0448 -0.2653
 5712SOL    HW128769   4.452   0.708  15.328 -1.6419  0.3660 -1.9403
 5712SOL    HW228770   4.337   0.752  15.417  0.9828  0.7224 -0.1243
 5713SOL     OW28771   4.208   0.953  15.163  0.6681  0.3432 -0.1001
 5713SOL    HW128772   4.303   0.954  15.167  0.7227 -0.3105 -1.3261
 5713SOL    HW228773   4.195   1.006  15.242 -0.5776 -1.3312  0.8354
 5714SOL     OW28774   4.358   0.011   2.006 -0.1162 -0.0435  0.6191
 5714SOL    HW128775   4.432   4.728   1.948 -0.5001 -2.5608  0.9717
 5714SOL    HW228776   4.397   0.084   2.054  0.7129 -0.2806  0.3088
 5715SOL     OW28777   4.180   1.273   0.589 -0.7387  0.0397 -0.3270
 5715SOL    HW128778   4.211   1.261   0.499  0.9763  0.9639  0.1341
 5715SOL    HW228779   4.206   1.364   0.602  0.4003 -0.3143 -0.0625
 5716SOL     OW28780   1.799   4.267   1.837 -0.6263  0.6639 -0.1752
 5716SOL    HW128781   1.856   4.332   1.879  0.0694  0.8948 -1.4809
 5716SOL    HW228782   1.721   4.262   1.892 -0.1929  0.2622  0.4045
 5717SOL     OW28783   0.769   1.604   2.650  0.6159  0.2292  0.0608
 5717SOL    HW128784   0.728   1.681   2.610 -0.7294 -1.2222 -1.3334
 5717SOL    HW228785   0.850   1.636   2.690 -0.3063  0.8362  1.4687
 5718SOL     OW28786   1.463   2.921   6.265  0.5769  0.0339 -0.2659
 5718SOL    HW128787   1.521   2.996   6.260  1.5668 -0.7292 -0.2706
 5718SOL    HW228788   1.497   2.893   6.350 -0.0702  1.8914  0.6082
 5719SOL     OW28789   4.583   0.117   9.735 -0.0464 -0.0668 -0.5688
 5719SOL    HW128790   4.502   0.070   9.715 -0.0905 -0.3865  0.3925
 5719SOL    HW228791   4.639   0.047   9.766 -0.3432  1.0322  2.4227
 5720SOL     OW28792   1.043   0.805   4.572  0.0638  0.4036  0.5135
 5720SOL    HW128793   1.024   0.882   4.626  1.1735  0.2664  1.1032
 5720SOL    HW228794   1.045   0.738   4.641 -1.5414  0.1084  0.2656
 5721SOL     OW28795   4.023   4.720   8.756  0.0955 -1.0798  0.1496
 5721SOL    HW128796   4.097   0.041   8.738 -0.2589 -0.3316  1.0574
 5721SOL    HW228797   3.975   4.735   8.675 -0.5053  2.7167  1.2232
 5722SOL     OW28798   0.624   0.046   3.664  0.1805  0.3965  0.0032
 5722SOL    HW128799   0.691   0.017   3.727  0.2830  0.1477 -0.2194
 5722SOL    HW228800   0.682   0.068   3.592  0.7612  0.3620  0.4561
 5723SOL     OW28801   3.628   3.491  12.888  0.1378  0.6882 -0.1602
 5723SOL    HW128802   3.650   3.451  12.972 -0.2458  1.7729  0.4492
 5723SOL    HW228803   3.704   3.464  12.836  1.5262  2.0301  1.1821
 5724SOL     OW28804   4.186   1.839   5.392  0.2874  0.9101  0.0854
 5724SOL    HW128805   4.171   1.869   5.481  2.1778  0.8955  0.4102
 5724SOL    HW228806   4.094   1.849   5.366  0.4234  0.6511 -0.5007
 5725SOL     OW28807   1.268   4.680  13.416  0.5033  0.1094  0.4529
 5725SOL    HW128808   1.363   4.685  13.422  0.4586 -0.0665  1.3603
 5725SOL    HW228809   1.245   4.627  13.493  0.2764  1.3043  1.1998
 5726SOL     OW28810   3.380   0.245   8.601  0.0708  0.4630 -0.8983
 5726SOL    HW128811   3.290   0.271   8.581 -0.0563 -1.1464 -2.4659
 5726SOL    HW228812   3.411   0.336   8.597 -0.6520  0.6799 -1.5325
 5727SOL     OW28813   2.223   1.147  10.163  0.5354 -0.5823 -0.0782
 5727SOL    HW128814   2.187   1.217  10.108  0.2158 -1.1248 -0.5571
 5727SOL    HW228815   2.269   1.099  10.094 -1.9307  0.1471 -2.2446
 5728SOL     OW28816   1.799   0.541  13.291  0.1794 -0.6646  0.6051
 5728SOL    HW128817   1.841   0.567  13.208 -2.4334  0.5315 -0.3185
 5728SOL    HW228818   1.867   0.547  13.358 -1.5412 -0.3374  2.3150
 5729SOL     OW28819   2.174   1.355   6.873  0.4674 -0.0465  0.6604
 5729SOL    HW128820   2.242   1.361   6.806 -0.0908 -2.6684 -0.1255
 5729SOL    HW228821   2.223   1.339   6.954  0.5164 -1.3977  0.3636
 5730SOL     OW28822   3.864   0.079   5.472 -0.3802  0.6544  0.5812
 5730SOL    HW128823   3.783   0.060   5.519 -0.8693  0.5679 -0.3009
 5730SOL    HW228824   3.848   0.021   5.397  0.6712 -0.4034  1.1763
 5731SOL     OW28825   2.208   1.154   2.137 -0.1025  0.1067  0.4346
 5731SOL    HW128826   2.114   1.167   2.131 -0.0412 -0.8208 -2.5669
 5731SOL    HW228827   2.233   1.246   2.144 -0.9808  0.4509 -0.8497
 5732SOL     OW28828   1.109   0.441  10.084  0.1846 -0.2581  0.5672
 5732SOL    HW128829   1.137   0.522  10.125  1.0798  0.3364 -1.2366
 5732SOL    HW228830   1.114   0.470   9.993  2.4350 -1.3884  0.3396
 5733SOL     OW28831   0.718   1.544   6.160 -0.3895  0.5069 -0.0533
 5733SOL    HW128832   0.680   1.565   6.245 -0.6045 -0.6872  0.1427
 5733SOL    HW228833   0.733   1.630   6.121  1.6152 -0.1464 -0.7078
 5734SOL     OW28834   0.565   0.997   4.082 -0.1405  0.1356 -0.7191
 5734SOL    HW128835   0.600   0.955   4.003 -0.6950  1.5092 -1.7037
 5734SOL    HW228836   0.601   1.086   4.075  2.7960 -0.8339  2.0406
 5735SOL     OW28837   4.491   4.679   9.056  0.2770  1.1729 -0.0625
 5735SOL    HW128838   4.427   0.013   9.072 -1.4375 -0.3645 -0.2382
 5735SOL    HW228839   4.439   4.611   9.098  1.0890  1.3476  1.2221
 5736SOL     OW28840   0.283   0.897   3.099 -0.1985  0.7040  0.3815
 5736SOL    HW128841   0.218   0.828   3.114  1.8592 -1.8703 -2.3625
 5736SOL    HW228842   0.351   0.884   3.165  1.7214 -0.4049 -1.8143
 5737SOL     OW28843   0.399   1.107  17.314 -0.1889  0.6377  0.0908
 5737SOL    HW128844   0.415   1.186  17.366 -2.9213  2.3621 -1.7152
 5737SOL    HW228845   0.309   1.118  17.284  0.8100  0.6395 -2.8728
 5738SOL     OW28846   0.968   2.337  12.605  0.0950 -0.2218 -0.5989
 5738SOL    HW128847   1.012   2.286  12.537  1.6985 -0.1492  0.3969
 5738SOL    HW228848   1.009   2.422  12.589  1.6571 -0.9305 -0.3127
 5739SOL     OW28849   1.682   1.828  10.400 -0.1214  0.3235 -0.3004
 5739SOL    HW128850   1.679   1.739  10.436  1.0983 -0.1051 -1.2135
 5739SOL    HW228851   1.773   1.853  10.418 -0.8924  0.5284  3.1829
 5740SOL     OW28852   1.178   4.394   3.854 -0.3508 -0.1032  0.2403
 5740SOL    HW128853   1.198   4.488   3.853  3.0049 -0.8535 -2.5830
 5740SOL    HW228854   1.120   4.383   3.779 -0.9915 -0.2195  0.7588
 5741SOL     OW28855   4.327   0.758   5.622 -0.4553  0.0090  0.1939
 5741SOL    HW128856   4.365   0.761   5.535 -0.9150 -3.2945 -0.1517
 5741SOL    HW228857   4.310   0.849   5.645 -0.7279 -0.1354  0.5684
 5742SOL     OW28858   4.427   3.921   4.742 -0.0007 -0.3830 -0.1255
 5742SOL    HW128859   4.338   3.889   4.755 -0.4978  1.2518  0.4834
 5742SOL    HW228860   4.476   3.888   4.817 -1.0420 -1.6158  0.0083
 5743SOL     OW28861   3.678   0.754   3.887 -0.1525  0.1256  0.4949
 5743SOL    HW128862   3.633   0.742   3.971 -0.2295  0.9290  0.5731
 5743SOL    HW228863   3.673   0.664   3.855 -0.8363 -0.0879  1.2104
 5744SOL     OW28864   2.277   1.061   7.482 -0.0883  0.5424  0.3228
 5744SOL    HW128865   2.230   0.989   7.524 -2.7829  1.8499 -0.4746
 5744SOL    HW228866   2.281   1.124   7.553 -2.2478  1.7133 -0.5897
 5745SOL     OW28867   3.945   0.440   9.162 -0.7104 -0.7659 -0.5499
 5745SOL    HW128868   3.858   0.400   9.160 -0.4959 -1.2042 -1.3535
 5745SOL    HW228869   3.979   0.402   9.243 -1.2989 -1.6654 -0.7179
 5746SOL     OW28870   0.973   3.597  14.599  0.0687 -0.0362  0.0025
 5746SOL    HW128871   1.067   3.590  14.614 -0.0086 -0.6983  0.1969
 5746SOL    HW228872   0.948   3.669  14.657  0.0409  1.3110 -1.6952
 5747SOL     OW28873   1.916   2.865   0.288 -0.7470 -0.4546 -0.0858
 5747SOL    HW128874   1.863   2.945   0.293  2.0908  1.5980 -3.8519
 5747SOL    HW228875   1.968   2.876   0.209 -0.1031 -1.2122  0.2366
 5748SOL     OW28876   3.143   2.855  15.155  0.3438  0.4563 -0.0853
 5748SOL    HW128877   3.117   2.795  15.225 -0.9062 -2.1050 -2.7512
 5748SOL    HW228878   3.062   2.864  15.105  0.1067  0.5282  0.3171
 5749SOL     OW28879   3.836   1.743   5.183  1.0725 -0.5821  0.4429
 5749SOL    HW128880   3.931   1.730   5.172  1.2002  1.6936 -1.1163
 5749SOL    HW228881   3.815   1.704   5.268 -1.8457 -1.3967 -0.6779
 5750SOL     OW28882   0.932   1.975   6.202  0.5790  0.4493 -0.1140
 5750SOL    HW128883   1.001   2.042   6.202 -0.4239  1.4915  1.5692
 5750SOL    HW228884   0.862   2.002   6.262  0.3114  0.5737 -0.4809
 5751SOL     OW28885   1.188   0.573   9.327 -0.0044  0.1637  0.3170
 5751SOL    HW128886   1.131   0.649   9.333 -1.1989 -0.5899 -1.6933
 5751SOL    HW228887   1.132   0.524   9.267 -1.4828 -1.2200  2.8192
 5752SOL     OW28888   1.532   4.544   4.724  0.6310 -0.3770 -0.3158
 5752SOL    HW128889   1.610   4.505   4.684  0.9822 -0.0073  0.0103
 5752SOL    HW228890   1.490   4.565   4.641  0.1559  0.1209  0.0576
 5753SOL     OW28891   0.282   0.296   5.613 -0.3137  0.1626  0.5761
 5753SOL    HW128892   0.209   0.353   5.588  0.3725  0.9900  0.4899
 5753SOL    HW228893   0.287   0.317   5.706  1.4694 -0.5752  0.6338
 5754SOL     OW28894   1.594   4.704   3.466  0.7873  0.3417 -0.3284
 5754SOL    HW128895   1.669   0.017   3.500  1.0971 -0.6642  0.4373
 5754SOL    HW228896   1.600   0.006   3.379  1.0732  0.1085 -0.4129
 5755SOL     OW28897   0.605   2.017  10.098  0.0472  0.2856 -0.2651
 5755SOL    HW128898   0.534   1.954  10.090 -1.1235  1.4104  1.1749
 5755SOL    HW228899   0.680   1.961  10.120  0.4090  1.4933  1.5764
 5756SOL     OW28900   1.468   0.997   3.893 -0.2267 -0.4019 -0.4586
 5756SOL    HW128901   1.562   1.011   3.875 -0.1329 -0.1885  0.2116
 5756SOL    HW228902   1.477   0.903   3.905 -0.7808 -0.4499 -0.4461
 5757SOL     OW28903   0.824   3.884   0.485  0.2955 -0.4595 -0.4576
 5757SOL    HW128904   0.876   3.898   0.564  0.4207  2.3278 -1.0595
 5757SOL    HW228905   0.848   3.945   0.416 -2.5560  0.2619 -0.8277
 5758SOL     OW28906   2.552   1.680  11.539 -0.1756  0.4700  0.0839
 5758SOL    HW128907   2.560   1.718  11.452 -0.1467  0.8416  0.2512
 5758SOL    HW228908   2.474   1.625  11.532  1.3561 -1.4892 -1.7649
 5759SOL     OW28909   3.297   4.341   7.266 -0.5101  0.4260  0.3167
 5759SOL    HW128910   3.310   4.394   7.187 -0.3944  2.3971  1.6502
 5759SOL    HW228911   3.219   4.290   7.244  0.1738  0.8809 -3.1721
 5760SOL     OW28912   2.594   1.569  16.645  0.3920  0.1896  0.0794
 5760SOL    HW128913   2.643   1.529  16.717  1.1353 -0.7866 -0.9685
 5760SOL    HW228914   2.593   1.663  16.664 -1.7335  0.1369  0.1803
 5761SOL     OW28915   1.354   0.310   7.935  0.4839  0.0797  0.4697
 5761SOL    HW128916   1.336   0.402   7.915  0.6601  0.0268  0.0668
 5761SOL    HW228917   1.263   0.282   7.926  0.4952  0.5254 -0.9528
 5762SOL     OW28918   4.050   3.208   9.551  0.3735 -0.4962 -0.2564
 5762SOL    HW128919   3.986   3.138   9.563  0.1838 -0.8370 -3.3189
 5762SOL    HW228920   4.039   3.255   9.634 -4.2017 -1.2023 -0.4834
 5763SOL     OW28921   0.167   3.604  12.975 -0.2321  0.0536  0.1111
 5763SOL    HW128922   0.116   3.568  13.048  0.6343 -0.1060  0.6379
 5763SOL    HW228923   0.171   3.538  12.906 -0.8798 -1.2232  1.3058
 5764SOL     OW28924   2.349   1.146   4.597  0.1347 -0.1757 -0.2948
 5764SOL    HW128925   2.350   1.232   4.555  0.7692 -0.6502 -1.2478
 5764SOL    HW228926   2.264   1.159   4.639  0.7433  0.6664  0.6583
 5765SOL     OW28927   0.686   4.150  17.633 -0.5561 -0.2608  0.5625
 5765SOL    HW128928   0.604   4.192  17.607  0.1487  0.9222  0.2672
 5765SOL    HW228929   0.746   4.196  17.575 -1.6815  0.8280  0.2370
 5766SOL     OW28930   1.173   4.717   5.485  0.7527 -0.1821 -0.8783
 5766SOL    HW128931   1.177   4.633   5.439 -1.5929 -1.0124  0.4257
 5766SOL    HW228932   1.187   0.047   5.417  0.4808  1.2044  0.4136
 5767SOL     OW28933   3.185   3.751   4.347 -0.5378 -0.9102  0.5942
 5767SOL    HW128934   3.193   3.720   4.257  1.1142 -1.0227  0.7735
 5767SOL    HW228935   3.091   3.769   4.353 -0.5542 -0.5756 -0.6724
 5768SOL     OW28936   0.015   3.589  13.438  0.1652 -0.1106 -0.1951
 5768SOL    HW128937   0.098   3.558  13.474  0.0600 -1.9616 -1.5740
 5768SOL    HW228938   4.713   3.645  13.506 -1.0308 -1.1092 -0.0444
 5769SOL     OW28939   0.189   4.058   6.423  0.1888  0.6703 -0.1138
 5769SOL    HW128940   0.272   4.097   6.452  1.2750 -0.8192 -1.1836
 5769SOL    HW228941   0.140   4.136   6.398  0.8823  0.8477 -0.9013
 5770SOL     OW28942   4.493   3.502   1.656  0.1492 -0.3825  0.4926
 5770SOL    HW128943   4.497   3.517   1.561  1.9401  0.9799  0.7920
 5770SOL    HW228944   4.567   3.552   1.689 -0.9953  1.2498  0.5949
 5771SOL     OW28945   1.154   3.218   2.648 -0.1658 -0.1058 -0.0630
 5771SOL    HW128946   1.209   3.192   2.722  0.3119  1.1939  0.0414
 5771SOL    HW228947   1.215   3.227   2.575 -0.2124 -1.5543 -0.2808
 5772SOL     OW28948   0.088   3.607   8.049 -0.4599 -0.5099  0.0894
 5772SOL    HW128949   0.120   3.531   8.097  0.5608  1.0145  1.8167
 5772SOL    HW228950   4.734   3.603   8.082 -0.0766  0.1527  1.1920
 5773SOL     OW28951   1.420   1.674   7.784 -0.4698 -0.1916  0.1380
 5773SOL    HW128952   1.401   1.736   7.855 -1.6184 -0.5794  0.1598
 5773SOL    HW228953   1.358   1.704   7.718 -1.6449  0.0102  1.3411
 5774SOL     OW28954   3.947   3.571   3.445  0.1934 -0.3031  0.1794
 5774SOL    HW128955   4.011   3.640   3.428  2.3975 -2.6711 -1.2655
 5774SOL    HW228956   3.918   3.589   3.535 -2.0791 -0.5010 -0.5164
 5775SOL     OW28957   4.221   0.096  10.928  0.2323 -0.2129 -0.5469
 5775SOL    HW128958   4.199   0.089  11.021  0.9006 -1.0455 -0.4514
 5775SOL    HW228959   4.165   0.171  10.907 -0.2929 -0.7511 -1.0500
 5776SOL     OW28960   0.513   0.756   8.778  0.3162 -0.0568 -0.2582
 5776SOL    HW128961   0.440   0.695   8.785  0.4936 -0.4164 -1.6518
 5776SOL    HW228962   0.506   0.770   8.684  1.8798  3.0521  0.0925
 5777SOL     OW28963   3.562   3.912   7.419 -0.3567 -0.1270  0.0332
 5777SOL    HW128964   3.478   3.935   7.379 -0.3806 -0.5638 -0.1697
 5777SOL    HW228965   3.537   3.888   7.508 -0.9952 -3.3882 -1.0403
 5778SOL     OW28966   2.499   3.880   1.149 -0.1086  1.2981  0.4558
 5778SOL    HW128967   2.574   3.825   1.174 -1.6903 -0.7369  0.7348
 5778SOL    HW228968   2.503   3.964   1.195 -0.8467  2.2365 -1.1936
 5779SOL     OW28969   3.983   4.683  11.685  0.9397  0.5840  0.4930
 5779SOL    HW128970   4.043   0.004  11.640 -0.6464 -0.1977 -2.5996
 5779SOL    HW228971   3.988   4.710  11.777  2.3699  2.6284 -0.2033
 5780SOL     OW28972   3.112   0.541   7.460  0.2507 -0.4134  0.0520
 5780SOL    HW128973   3.172   0.502   7.523  1.0698  1.4018  0.3970
 5780SOL    HW228974   3.030   0.551   7.508  0.3052  0.1450  0.0232
 5781SOL     OW28975   0.907   1.603   2.359 -0.5101  0.0875 -0.1697
 5781SOL    HW128976   0.914   1.527   2.417  0.2057 -0.4651 -0.9769
 5781SOL    HW228977   0.968   1.669   2.393 -0.3673  0.6523 -1.5088
 5782SOL     OW28978   0.598   4.279   0.633  0.0462 -0.4558 -0.0261
 5782SOL    HW128979   0.619   4.251   0.722 -0.5735 -0.4558  0.1171
 5782SOL    HW228980   0.599   4.192   0.593  0.2024  0.0562 -1.1277
 5783SOL     OW28981   2.037   3.681  15.212  0.5947  0.2650 -0.6096
 5783SOL    HW128982   1.965   3.622  15.187 -0.1950  0.5425  0.9997
 5783SOL    HW228983   1.993   3.765  15.198  0.1748 -0.1525 -1.8084
 5784SOL     OW28984   1.552   0.291   5.988  0.9148 -1.0646 -0.2814
 5784SOL    HW128985   1.559   0.354   6.060 -2.4526 -0.3335 -0.5553
 5784SOL    HW228986   1.461   0.261   5.993  1.0827 -1.7398 -1.4574
 5785SOL     OW28987   2.275   2.864  11.759  0.0116 -0.2848  0.9906
 5785SOL    HW128988   2.212   2.839  11.691  0.4499 -4.5056  2.1638
 5785SOL    HW228989   2.359   2.846  11.717  0.3211  0.7815  1.1571
 5786SOL     OW28990   1.313   0.827   5.597 -0.4030 -0.0076  0.5171
 5786SOL    HW128991   1.386   0.789   5.646 -1.0117 -0.1455  1.3181
 5786SOL    HW228992   1.238   0.798   5.649 -0.5709  1.2577  0.9785
 5787SOL     OW28993   2.042   1.952   0.925 -0.7279  0.0169 -0.4815
 5787SOL    HW128994   1.968   1.989   0.974  0.3400  0.4691  0.8093
 5787SOL    HW228995   2.069   2.019   0.863 -0.5597  1.2899  0.9654
 5788SOL     OW28996   4.606   3.514   5.449 -0.0279 -0.1441 -0.8890
 5788SOL    HW128997   4.678   3.577   5.450  0.4293 -0.7232  2.1195
 5788SOL    HW228998   4.536   3.573   5.421 -1.0528 -0.4417  1.0311
 5789SOL     OW28999   2.706   2.558   2.785  0.4070 -0.0366  0.0830
 5789SOL    HW129000   2.698   2.479   2.839  0.3770 -1.4491 -1.9851
 5789SOL    HW229001   2.782   2.540   2.730 -0.6868  0.3533 -1.5260
 5790SOL     OW29002   0.084   1.777  16.385 -0.2653  0.1102 -0.2558
 5790SOL    HW129003   0.161   1.833  16.375  0.0966 -0.6957 -1.9769
 5790SOL    HW229004   0.129   1.694  16.400 -1.6053 -0.4326  0.7093
 5791SOL     OW29005   0.736   0.114   3.437  0.1812  0.2051 -0.4309
 5791SOL    HW129006   0.809   0.176   3.430  1.2827 -0.9756  0.7771
 5791SOL    HW229007   0.681   0.162   3.375 -0.9050 -1.7524 -0.9654
 5792SOL     OW29008   4.527   3.371   3.000  0.1178  0.5141 -0.0295
 5792SOL    HW129009   4.537   3.284   3.037 -3.2055  0.1984  0.1433
 5792SOL    HW229010   4.544   3.355   2.907  1.8610  0.9132  0.2209
 5793SOL     OW29011   2.741   4.220   8.062  0.0393 -0.2125  0.0199
 5793SOL    HW129012   2.774   4.280   8.130 -0.8051 -0.5537  0.7343
 5793SOL    HW229013   2.670   4.275   8.031  1.0442 -0.5554 -2.8581
 5794SOL     OW29014   4.008   0.710   7.654 -0.7481  0.1882  0.4079
 5794SOL    HW129015   3.917   0.736   7.668 -1.1390 -1.0741  0.2282
 5794SOL    HW229016   4.036   0.777   7.591  2.3269 -0.7662  0.7598
 5795SOL     OW29017   4.294   0.730   7.307  0.1638 -0.2902  0.2710
 5795SOL    HW129018   4.325   0.791   7.374  3.2332 -0.5756 -0.9086
 5795SOL    HW229019   4.210   0.767   7.277 -0.3284 -2.4550 -1.0066
 5796SOL     OW29020   1.642   0.232  17.317  0.1132 -0.2103 -0.0499
 5796SOL    HW129021   1.695   0.297  17.271 -1.6799 -1.1927 -3.5002
 5796SOL    HW229022   1.721   0.180  17.330 -0.0912 -0.0299  2.0009
 5797SOL     OW29023   1.088   4.656   5.098 -0.0160  0.4737  0.1593
 5797SOL    HW129024   1.161   4.689   5.046 -0.4026 -1.1371 -1.3987
 5797SOL    HW229025   1.069   4.582   5.041 -1.4257  0.0095  1.2335
 5798SOL     OW29026   4.267   0.836  15.592  0.0643 -0.0995  0.3656
 5798SOL    HW129027   4.201   0.905  15.591 -0.7302 -0.8384  2.4344
 5798SOL    HW229028   4.344   0.887  15.617  0.8311 -1.0426 -0.0551
 5799SOL     OW29029   1.532   0.732  11.956 -0.7841  0.2391  0.1829
 5799SOL    HW129030   1.516   0.646  11.995 -2.3801 -0.1750 -1.4240
 5799SOL    HW229031   1.587   0.713  11.880  0.6870 -0.0603  1.3185
 5800SOL     OW29032   3.517   2.720   6.850 -0.4630  0.1243 -0.0043
 5800SOL    HW129033   3.554   2.640   6.886  1.0136  1.6334  1.8405
 5800SOL    HW229034   3.430   2.682   6.838 -0.4202 -0.0810  0.3630
 5801SOL     OW29035   4.155   1.565   2.443  0.1001  0.3707 -0.0133
 5801SOL    HW129036   4.229   1.551   2.384 -0.5585 -0.4049 -0.6587
 5801SOL    HW229037   4.202   1.570   2.526  0.2560  2.3288 -0.2295
 5802SOL     OW29038   2.833   1.189   6.744  0.0912 -0.2497  0.3655
 5802SOL    HW129039   2.856   1.101   6.713 -0.4093  0.6775 -2.5783
 5802SOL    HW229040   2.907   1.215   6.799  1.1012 -1.2625 -0.5077
 5803SOL     OW29041   1.025   3.569   1.413 -0.3908 -0.5131 -0.2222
 5803SOL    HW129042   0.986   3.626   1.345 -0.1186 -0.7741 -0.5944
 5803SOL    HW229043   1.120   3.573   1.405 -0.3956 -1.4851 -0.7361
 5804SOL     OW29044   1.444   4.210   8.431 -0.5204  0.1367  0.2502
 5804SOL    HW129045   1.469   4.144   8.367  1.9817 -0.0651  1.4647
 5804SOL    HW229046   1.394   4.157   8.494  0.0270 -0.1283  0.4548
 5805SOL     OW29047   1.158   0.338   6.835 -0.1706  0.0085 -0.1843
 5805SOL    HW129048   1.122   0.319   6.921 -0.5108 -0.1778 -0.3715
 5805SOL    HW229049   1.087   0.306   6.780 -1.9015  2.2493  0.7550
 5806SOL     OW29050   4.316   4.009  12.266 -0.1491 -0.2705 -0.4126
 5806SOL    HW129051   4.319   4.105  12.273  4.4496 -0.4088 -0.4882
 5806SOL    HW229052   4.402   3.976  12.292 -0.3676  2.3711  3.6493
 5807SOL     OW29053   3.153   3.389   5.346 -0.0050  0.2591 -0.0690
 5807SOL    HW129054   3.165   3.345   5.430  1.9445 -1.7080 -1.3822
 5807SOL    HW229055   3.204   3.341   5.281  0.8919 -1.9427  2.2536
 5808SOL     OW29056   3.301   3.986   6.497 -0.0286 -0.2993 -0.3740
 5808SOL    HW129057   3.316   4.049   6.567  1.0911 -1.1969  0.1761
 5808SOL    HW229058   3.327   3.906   6.541  1.1462  1.6286  2.4650
 5809SOL     OW29059   2.153   3.289  17.284 -0.2413  0.2637 -0.3598
 5809SOL    HW129060   2.222   3.345  17.318  1.0170 -1.7940  0.5308
 5809SOL    HW229061   2.197   3.226  17.226  1.1367  0.7351  0.1740
 5810SOL     OW29062   3.887   2.843   2.849  0.0113 -0.0413  0.0516
 5810SOL    HW129063   3.872   2.937   2.863  0.9814  0.0549  0.5024
 5810SOL    HW229064   3.848   2.822   2.764 -1.0038 -1.1211  0.7950
 5811SOL     OW29065   3.589   0.614   5.863  0.9947  0.4076 -0.4807
 5811SOL    HW129066   3.660   0.551   5.878  1.3233  0.9861  0.3987
 5811SOL    HW229067   3.544   0.575   5.788 -0.2683 -0.5179  0.7752
 5812SOL     OW29068   3.687   0.001  14.867  0.3749 -0.3104  0.3537
 5812SOL    HW129069   3.761   0.058  14.845 -1.7987  1.4305 -2.5937
 5812SOL    HW229070   3.627   0.067  14.902 -1.0163 -2.8753  2.7388
 5813SOL     OW29071   2.626   0.803   9.434  0.4239 -0.2470  0.2554
 5813SOL    HW129072   2.601   0.860   9.507  1.5427 -0.5779  0.9008
 5813SOL    HW229073   2.712   0.766   9.455 -0.0206 -1.5468 -0.2491
 5814SOL     OW29074   0.981   2.676  15.205 -0.0466 -0.3047 -0.2157
 5814SOL    HW129075   1.061   2.688  15.154 -0.3791  0.8032 -0.4647
 5814SOL    HW229076   0.955   2.764  15.229 -1.0872  0.3156 -3.5978
 5815SOL     OW29077   3.058   1.930   4.311 -0.3073 -0.2076  0.0332
 5815SOL    HW129078   2.982   1.987   4.298 -1.1080 -1.3477 -0.4062
 5815SOL    HW229079   3.017   1.854   4.352  1.2557 -0.9370  0.2190
 5816SOL     OW29080   1.308   4.731  13.160 -0.1129  0.8452 -0.2301
 5816SOL    HW129081   1.361   0.074  13.172  1.4703 -0.5187  1.7381
 5816SOL    HW229082   1.286   4.697  13.246  0.0791  1.3870  0.0339
 5817SOL     OW29083   1.064   4.669   8.933  0.0422  0.1179 -0.2236
 5817SOL    HW129084   0.978   4.630   8.950  0.2900  0.3962  1.6506
 5817SOL    HW229085   1.116   4.592   8.911 -0.7996 -0.1471 -1.3063
 5818SOL     OW29086   1.619   4.475   3.616 -0.5797  0.5028  0.8718
 5818SOL    HW129087   1.653   4.538   3.679  2.6615  0.4665 -0.8830
 5818SOL    HW229088   1.594   4.535   3.546 -0.3954  1.2457  1.4483
 5819SOL     OW29089   2.599   3.099  17.374 -0.1834 -0.4480 -0.1249
 5819SOL    HW129090   2.506   3.085  17.396 -0.0197  0.1916  0.9748
 5819SOL    HW229091   2.595   3.184  17.330 -3.3315 -0.8128 -0.6061
 5820SOL     OW29092   2.829   4.411   8.265 -0.7514  0.3317 -0.0847
 5820SOL    HW129093   2.763   4.413   8.334 -1.2882  0.1711 -0.5892
 5820SOL    HW229094   2.827   4.504   8.240 -0.4108  0.1148 -0.9199
 5821SOL     OW29095   3.964   1.468   6.612 -0.0497  0.2515 -0.5773
 5821SOL    HW129096   3.950   1.373   6.605  1.0482  0.2212 -2.6165
 5821SOL    HW229097   3.922   1.497   6.531  0.0407 -1.1032 -1.1114
 5822SOL     OW29098   2.266   1.905   7.144  0.3199  0.1667  0.5517
 5822SOL    HW129099   2.223   1.954   7.074  1.5011 -0.0516 -0.3283
 5822SOL    HW229100   2.358   1.905   7.119  0.0344 -2.3027 -0.5205
 5823SOL     OW29101   3.706   3.805   3.228 -0.4262 -0.2933  0.4935
 5823SOL    HW129102   3.705   3.899   3.212  0.4889 -0.3688 -0.0228
 5823SOL    HW229103   3.665   3.773   3.147  1.2404  0.8581 -0.8028
 5824SOL     OW29104   1.963   1.247   4.562  0.3540 -0.0034 -0.3237
 5824SOL    HW129105   2.031   1.216   4.622  0.9225  1.6822 -0.0904
 5824SOL    HW229106   1.982   1.188   4.488 -0.3249 -2.5944  1.5790
 5825SOL     OW29107   0.729   2.186  12.600 -0.0440 -0.6143 -0.3144
 5825SOL    HW129108   0.790   2.253  12.571 -0.6472 -0.0167 -0.2108
 5825SOL    HW229109   0.776   2.106  12.579  1.9717  0.7213 -0.9089
 5826SOL     OW29110   4.627   1.906  14.448 -0.2982  0.1008  0.0583
 5826SOL    HW129111   4.584   1.820  14.449 -0.4736  0.1867 -0.1802
 5826SOL    HW229112   4.551   1.963  14.456 -0.0542  0.5714 -0.9860
 5827SOL     OW29113   2.251   2.697  14.176 -0.2883 -0.5684  0.9848
 5827SOL    HW129114   2.221   2.641  14.104 -1.4950 -1.2013  1.9889
 5827SOL    HW229115   2.282   2.779  14.136 -0.8155 -0.9531 -0.2147
 5828SOL     OW29116   3.666   0.921   8.960  0.0222  0.6943 -0.4074
 5828SOL    HW129117   3.598   0.967   8.910  0.3853  1.7582  0.0699
 5828SOL    HW229118   3.747   0.971   8.954  0.2891  0.0462 -2.0149
 5829SOL     OW29119   1.294   2.586   4.544  0.0079  0.0989 -0.1775
 5829SOL    HW129120   1.204   2.568   4.573 -0.6384  3.0958 -0.3847
 5829SOL    HW229121   1.283   2.611   4.452 -0.4675  1.3355  0.2220
 5830SOL     OW29122   3.107   3.290   2.957  0.3350 -0.4267 -0.4377
 5830SOL    HW129123   3.093   3.246   3.041 -0.8353  0.7838  0.0067
 5830SOL    HW229124   3.119   3.379   2.989 -0.2100 -0.0025 -1.3875
 5831SOL     OW29125   1.094   0.676   3.252 -0.3399  0.1969  0.0072
 5831SOL    HW129126   1.118   0.763   3.286  3.4032 -0.3970 -1.0945
 5831SOL    HW229127   0.999   0.688   3.253 -0.1420  1.7341  0.8161
 5832SOL     OW29128   2.429   1.548   4.638 -0.4420 -0.0401 -0.0363
 5832SOL    HW129129   2.471   1.512   4.716 -1.7199 -0.1862  0.5994
 5832SOL    HW229130   2.483   1.627   4.629 -0.2409  0.2558  3.6954
 5833SOL     OW29131   3.065   1.151  16.043 -0.5344 -0.0807 -0.1095
 5833SOL    HW129132   3.045   1.104  16.124  1.7434  1.1927  1.1851
 5833SOL    HW229133   3.031   1.084  15.985 -0.8255 -0.8180  0.9027
 5834SOL     OW29134   0.020   0.228   1.320 -0.1838  0.0872  0.6070
 5834SOL    HW129135   4.700   0.283   1.374 -1.2232  0.6144 -0.9975
 5834SOL    HW229136   0.012   0.274   1.236 -0.5473 -0.7350  0.1929
 5835SOL     OW29137   4.389   1.413  15.359 -0.1924  0.4560 -0.0893
 5835SOL    HW129138   4.426   1.499  15.338 -1.6102  1.0658 -0.0649
 5835SOL    HW229139   4.344   1.436  15.440 -0.8029 -1.1752  0.0426
 5836SOL     OW29140   2.334   3.367   1.065 -0.1125 -0.5620  0.2347
 5836SOL    HW129141   2.252   3.408   1.093  0.7554  0.7804  0.7820
 5836SOL    HW229142   2.391   3.443   1.075 -0.5499  0.1863 -3.1126
 5837SOL     OW29143   4.465   1.128  13.535 -0.2589  0.4430 -0.1664
 5837SOL    HW129144   4.536   1.159  13.479 -0.1505  1.8398  0.7332
 5837SOL    HW229145   4.478   1.171  13.619 -1.0131 -0.8098  0.5914
 5838SOL     OW29146   1.379   0.177   4.318  0.1875 -0.2508 -1.0905
 5838SOL    HW129147   1.328   0.101   4.347 -0.3535  1.3442  2.0259
 5838SOL    HW229148   1.362   0.179   4.223  0.6382  0.7316 -1.1432
 5839SOL     OW29149   2.778   3.119   4.771 -0.6788  0.4124 -0.2167
 5839SOL    HW129150   2.714   3.110   4.701  1.8133 -1.0075 -2.2770
 5839SOL    HW229151   2.728   3.142   4.850  0.4412 -1.2902  1.0089
 5840SOL     OW29152   0.776   1.206   8.353  0.2508  0.5292  0.1887
 5840SOL    HW129153   0.753   1.242   8.268  0.3615 -1.6001 -0.7409
 5840SOL    HW229154   0.712   1.135   8.362  0.2561  0.8974  3.2346
 5841SOL     OW29155   1.921   4.534   6.665  0.4858 -0.4994 -0.2663
 5841SOL    HW129156   1.879   4.600   6.610  0.8314 -0.4413 -0.4600
 5841SOL    HW229157   1.917   4.564   6.756 -1.0197 -2.0338  0.1691
 5842SOL     OW29158   3.077   0.792   3.544 -0.0517  0.2135 -0.2529
 5842SOL    HW129159   3.167   0.764   3.530 -0.4421 -2.1951  2.0536
 5842SOL    HW229160   3.081   0.864   3.481 -0.8731  0.7372  0.2825
 5843SOL     OW29161   2.112   4.114  12.650 -1.0708 -0.0834  0.0333
 5843SOL    HW129162   2.066   4.041  12.692 -1.3242 -0.7899 -1.4657
 5843SOL    HW229163   2.117   4.176  12.723 -0.3636  0.6965 -0.6778
 5844SOL     OW29164   0.932   1.089   4.118  0.1491 -0.2835 -0.0921
 5844SOL    HW129165   0.876   1.154   4.160  0.6425  2.1501 -3.1771
 5844SOL    HW229166   0.998   1.082   4.187  0.3200  0.3588 -0.1905
 5845SOL     OW29167   0.278   4.478   6.982 -0.3521  0.4086 -0.3573
 5845SOL    HW129168   0.342   4.503   7.048 -0.5374  0.5761 -0.2408
 5845SOL    HW229169   0.328   4.411   6.936 -1.5797 -0.0501 -1.0458
 5846SOL     OW29170   0.667   4.676   4.706  0.0138 -0.0872 -0.1530
 5846SOL    HW129171   0.737   4.711   4.652  0.1087  0.3006  0.2188
 5846SOL    HW229172   0.596   0.004   4.712  0.0275  0.0719 -1.8343
 5847SOL     OW29173   3.960   4.531   7.330 -0.6542 -0.1309  0.0288
 5847SOL    HW129174   3.963   4.451   7.383 -1.1819  1.2794  2.2053
 5847SOL    HW229175   3.955   4.592   7.404 -1.4736  2.3270 -2.0751
 5848SOL     OW29176   3.419   0.102   8.115  0.2799 -0.3185 -0.3457
 5848SOL    HW129177   3.505   0.107   8.157  0.9593 -0.8129 -1.6561
 5848SOL    HW229178   3.435   0.117   8.022  2.1636  0.6213  0.1245
 5849SOL     OW29179   1.241   4.179   4.418 -0.1073 -0.1407 -0.6696
 5849SOL    HW129180   1.278   4.175   4.330  1.5067 -1.4159  0.0657
 5849SOL    HW229181   1.191   4.261   4.412 -0.3259 -0.3317 -1.3771
 5850SOL     OW29182   2.737   1.021  15.324 -0.1396 -0.1624 -0.0917
 5850SOL    HW129183   2.771   0.981  15.404  1.1890  2.1852  0.5304
 5850SOL    HW229184   2.647   0.990  15.330 -0.6103  1.3149  0.5265
 5851SOL     OW29185   1.744   2.723   8.227 -0.1731  0.4218 -0.1883
 5851SOL    HW129186   1.761   2.715   8.321  1.2079  0.4875 -0.4400
 5851SOL    HW229187   1.816   2.779   8.199  0.5843  0.2954  1.5289
 5852SOL     OW29188   2.402   4.364  13.426  0.2337  0.3172 -0.3832
 5852SOL    HW129189   2.345   4.289  13.444  0.5651 -0.2409 -1.7073
 5852SOL    HW229190   2.390   4.424  13.500  0.5451  1.6012 -1.3875
 5853SOL     OW29191   3.671   0.913  12.452 -0.5181 -0.0778  0.4367
 5853SOL    HW129192   3.733   0.851  12.413 -0.0260  1.5365 -1.3506
 5853SOL    HW229193   3.593   0.921  12.398 -1.3539 -0.8088  1.5594
 5854SOL     OW29194   3.935   2.897   3.152 -0.2487  0.0478 -0.0130
 5854SOL    HW129195   4.011   2.954   3.163 -0.6724  0.5706  0.2150
 5854SOL    HW229196   3.872   2.952   3.105  0.7411  2.1451  1.1373
 5855SOL     OW29197   1.965   0.838   5.297 -0.6292  0.3178  0.3282
 5855SOL    HW129198   1.912   0.914   5.318 -0.3350  0.2375  1.3363
 5855SOL    HW229199   1.950   0.812   5.206 -1.5882 -1.5092  0.9994
 5856SOL     OW29200   4.434   4.411  15.912 -0.2458 -0.3595 -0.3003
 5856SOL    HW129201   4.519   4.403  15.870  1.8891  0.0264  3.9564
 5856SOL    HW229202   4.462   4.392  16.002 -1.5587 -2.2693 -0.2851
 5857SOL     OW29203   1.946   0.444  16.709  0.5563 -0.0395 -0.1190
 5857SOL    HW129204   1.992   0.415  16.631 -0.9989  1.7479 -1.7162
 5857SOL    HW229205   1.918   0.528  16.672  1.8359  0.2476 -0.4250
 5858SOL     OW29206   0.197   0.583   4.659 -0.2139 -0.1820 -0.3560
 5858SOL    HW129207   0.282   0.623   4.673 -0.0593 -0.6694  0.0962
 5858SOL    HW229208   0.202   0.516   4.728  1.5879  0.7336  0.3816
 5859SOL     OW29209   2.896   0.625   2.226  0.4546  0.2971 -0.3890
 5859SOL    HW129210   2.944   0.556   2.180  2.3998  0.7573  0.9303
 5859SOL    HW229211   2.952   0.655   2.297  1.2004 -0.5734 -0.6105
 5860SOL     OW29212   4.227   2.225   5.605  0.1623  0.0372  0.7518
 5860SOL    HW129213   4.276   2.174   5.541  0.1766  1.0183 -0.0143
 5860SOL    HW229214   4.290   2.296   5.613 -2.5067  2.4843  0.0052
 5861SOL     OW29215   3.115   3.420   6.456  0.5392 -0.1940  0.7991
 5861SOL    HW129216   3.143   3.505   6.422 -1.2924  0.5169  1.1133
 5861SOL    HW229217   3.199   3.376   6.443  1.6237  1.6539  1.6110
 5862SOL     OW29218   0.277   1.527   0.334 -0.3447 -0.0299 -0.3134
 5862SOL    HW129219   0.221   1.449   0.327  0.0071 -0.3664  0.6321
 5862SOL    HW229220   0.299   1.527   0.240 -0.6458 -1.3181 -0.3963
 5863SOL     OW29221   0.494   0.036  17.244  0.0229  0.7282  0.3573
 5863SOL    HW129222   0.513   4.685  17.278 -0.5553  0.9130  1.1472
 5863SOL    HW229223   0.560   0.047  17.175 -2.1063  0.7893 -1.6279
 5864SOL     OW29224   2.010   4.355   3.305 -0.0230 -0.4001  0.1602
 5864SOL    HW129225   1.976   4.418   3.369  1.7909  0.1801  0.5523
 5864SOL    HW229226   2.079   4.409   3.267 -0.3774  1.0807  1.6307
 5865SOL     OW29227   0.673   1.198   4.801  0.3256 -0.5317  0.6457
 5865SOL    HW129228   0.657   1.275   4.855 -0.5359  0.6921 -1.4004
 5865SOL    HW229229   0.654   1.229   4.713  3.6743 -1.4707 -0.4046
 5866SOL     OW29230   2.375   4.284   3.525  0.0767 -0.0103 -0.2936
 5866SOL    HW129231   2.439   4.300   3.594 -0.9513  0.5827  0.5184
 5866SOL    HW229232   2.412   4.323   3.446 -0.2376  1.9848  0.5592
 5867SOL     OW29233   0.077   1.401  13.186  0.2547  0.2740  0.1425
 5867SOL    HW129234   0.056   1.353  13.266  2.6120  0.4171  0.8545
 5867SOL    HW229235   0.130   1.467  13.231 -1.1416  1.3559  0.2047
 5868SOL     OW29236   1.101   2.719   5.235  0.2418 -0.0621  0.1097
 5868SOL    HW129237   1.181   2.767   5.212  0.2783 -0.6787 -1.0363
 5868SOL    HW229238   1.043   2.785   5.198 -0.3349 -1.6778 -1.8410
 5869SOL     OW29239   1.131   4.657  10.888  0.9322 -0.0652  0.1189
 5869SOL    HW129240   1.226   4.658  10.901  1.2155  3.4768 -2.1631
 5869SOL    HW229241   1.098   4.599  10.957 -1.1822 -0.2119 -1.0370
 5870SOL     OW29242   2.832   3.307   9.243 -0.2066  0.6958  0.2864
 5870SOL    HW129243   2.840   3.365   9.319  0.1323  0.3404  0.5215
 5870SOL    HW229244   2.737   3.295   9.239 -0.1984  0.7834 -0.2012
 5871SOL     OW29245   3.232   0.589   9.392 -0.4420  0.8588 -0.0677
 5871SOL    HW129246   3.248   0.680   9.368  2.5701  0.3326  0.0085
 5871SOL    HW229247   3.138   0.590   9.410 -0.0438  0.1952  2.0686
 5872SOL     OW29248   0.239   0.868   5.576 -0.0838  0.0680  0.2405
 5872SOL    HW129249   0.240   0.785   5.529  0.0263 -1.1921  2.4929
 5872SOL    HW229250   0.311   0.855   5.638 -0.6497  0.2671  0.9494
 5873SOL     OW29251   0.086   1.035   5.064  0.5739  0.6602  0.1721
 5873SOL    HW129252   0.101   1.084   4.983 -0.4026  1.0798  0.2478
 5873SOL    HW229253   0.085   1.090   5.142  1.2164  0.6087  0.2179
 5874SOL     OW29254   2.509   0.563   4.006 -0.1447 -0.0949 -0.5078
 5874SOL    HW129255   2.538   0.472   4.011 -3.7514 -1.1775  1.1904
 5874SOL    HW229256   2.567   0.584   3.933  0.5031 -2.4697 -0.6741
 5875SOL     OW29257   1.504   3.664   6.072 -0.8487  0.5011 -0.5154
 5875SOL    HW129258   1.422   3.670   6.122 -1.5742 -0.3337 -1.5855
 5875SOL    HW229259   1.564   3.704   6.134 -1.0169 -0.3453  0.2030
 5876SOL     OW29260   4.383   0.345   9.361 -0.3200  0.4154  0.2328
 5876SOL    HW129261   4.450   0.407   9.393 -0.3952  0.1998  0.8127
 5876SOL    HW229262   4.409   0.334   9.270  1.0187  0.0834  0.6463
 5877SOL     OW29263   1.204   1.377   7.165 -0.0971 -0.0558  0.3885
 5877SOL    HW129264   1.288   1.378   7.118 -0.9764  0.0755 -1.1715
 5877SOL    HW229265   1.241   1.355   7.251  0.7597 -0.1961 -0.0162
 5878SOL     OW29266   4.358   1.544  14.898  0.3722  0.8161  0.2333
 5878SOL    HW129267   4.304   1.564  14.975  1.5604 -0.4884  1.4067
 5878SOL    HW229268   4.428   1.496  14.942  0.1211 -1.2269 -1.5997
 5879SOL     OW29269   1.637   0.085   2.497 -0.6384 -0.1418 -0.0865
 5879SOL    HW129270   1.561   0.056   2.548 -1.8173  1.5270 -0.9001
 5879SOL    HW229271   1.692   0.006   2.492  0.1504  0.4908 -1.4111
 5880SOL     OW29272   4.006   0.672   8.820 -0.3101 -0.1246 -0.6811
 5880SOL    HW129273   3.937   0.622   8.778 -1.3085  0.2910  0.4635
 5880SOL    HW229274   4.072   0.667   8.751 -1.5827 -2.3609 -1.7146
 5881SOL     OW29275   3.468   1.119  10.448 -0.1293 -0.2738 -0.0989
 5881SOL    HW129276   3.548   1.171  10.445  0.2098 -0.7561  0.4046
 5881SOL    HW229277   3.406   1.191  10.457 -0.0102 -0.0431 -1.1316
 5882SOL     OW29278   0.475   3.361  11.305  0.1242  0.0457  0.2780
 5882SOL    HW129279   0.494   3.344  11.397  0.9116  0.5567  0.2092
 5882SOL    HW229280   0.494   3.455  11.299 -1.4446  0.3979  0.8691
 5883SOL     OW29281   1.304   3.664  15.854  0.0896 -0.3202  0.7314
 5883SOL    HW129282   1.380   3.669  15.912 -0.2015 -1.9031  1.2294
 5883SOL    HW229283   1.245   3.638  15.924 -0.1821 -0.8911  0.2926
 5884SOL     OW29284   1.503   0.476   3.026 -1.1181 -0.2489 -0.5587
 5884SOL    HW129285   1.450   0.461   3.105 -0.8010 -2.8141 -0.8580
 5884SOL    HW229286   1.489   0.407   2.962  0.9300 -2.2084  1.1124
 5885SOL     OW29287   0.174   1.940   7.076 -0.2084  0.5045 -0.3187
 5885SOL    HW129288   0.149   2.032   7.084 -0.9326  0.2030  0.8516
 5885SOL    HW229289   0.222   1.946   6.993  0.4869 -1.5958 -0.0665
 5886SOL     OW29290   2.279   2.787   9.673  0.6336  0.4315  0.4068
 5886SOL    HW129291   2.225   2.735   9.733  0.5654 -0.9152 -0.8057
 5886SOL    HW229292   2.235   2.765   9.591 -0.8997 -1.5080  1.7157
 5887SOL     OW29293   3.095   3.616  10.361  0.1109 -0.7386 -0.1247
 5887SOL    HW129294   3.161   3.618  10.431  0.8897  1.7108 -0.9320
 5887SOL    HW229295   3.036   3.552  10.401  0.7763 -1.2194  0.1079
 5888SOL     OW29296   3.182   3.998  17.110  0.3190  0.1811  0.3017
 5888SOL    HW129297   3.268   4.035  17.130  0.1380  0.0646  1.3050
 5888SOL    HW229298   3.113   4.063  17.121 -0.2278 -0.6840  2.0629
 5889SOL     OW29299   0.900   4.155   8.457 -0.3749 -0.5872  0.2787
 5889SOL    HW129300   0.929   4.187   8.542 -1.1726  1.5670 -0.2736
 5889SOL    HW229301   0.909   4.227   8.395  1.3683 -0.1742  1.0377
 5890SOL     OW29302   1.537   2.008   3.188  0.1025 -0.0298 -0.3199
 5890SOL    HW129303   1.578   2.032   3.105  1.2574 -0.8999  0.0098
 5890SOL    HW229304   1.613   1.976   3.236  0.0046 -1.5097 -1.1360
 5891SOL     OW29305   0.430   1.147  11.055 -0.0686  0.4891  0.1791
 5891SOL    HW129306   0.354   1.095  11.083 -0.8505  0.4993 -1.9788
 5891SOL    HW229307   0.420   1.230  11.102  0.5709  1.2142 -0.9917
 5892SOL     OW29308   3.506   2.263  11.599 -0.2737  0.4276  0.6776
 5892SOL    HW129309   3.521   2.174  11.629 -1.9566  0.3195  1.2175
 5892SOL    HW229310   3.414   2.269  11.624 -0.1019 -0.0749  1.4331
 5893SOL     OW29311   4.606   3.934   1.465 -0.1934  0.1556 -0.0920
 5893SOL    HW129312   4.516   3.923   1.435 -0.2725  1.1876 -0.2105
 5893SOL    HW229313   4.617   4.024   1.436  2.4916  0.2338  1.1826
 5894SOL     OW29314   3.344   2.191   1.204  0.2077  0.1672 -0.3997
 5894SOL    HW129315   3.400   2.193   1.281  0.1809  1.0898 -0.4087
 5894SOL    HW229316   3.266   2.236   1.237  1.3920  0.5999  1.7959
 5895SOL     OW29317   3.633   3.742   7.007  0.1838  0.5780  0.4738
 5895SOL    HW129318   3.687   3.697   6.942 -1.0326  0.8520 -0.7162
 5895SOL    HW229319   3.643   3.835   6.990 -0.8208  0.5916 -0.0693
 5896SOL     OW29320   1.263   4.239   7.246  0.6927  1.1790  0.3415
 5896SOL    HW129321   1.222   4.228   7.331  0.9329  1.2726  0.4718
 5896SOL    HW229322   1.346   4.191   7.247 -2.2866 -3.8829  1.4042
 5897SOL     OW29323   3.501   3.028   2.466  0.4206 -0.5097 -0.2579
 5897SOL    HW129324   3.462   2.943   2.486 -1.8638  0.7069  0.5216
 5897SOL    HW229325   3.547   3.040   2.549 -1.7095  4.0241  0.3208
 5898SOL     OW29326   2.913   4.565  12.819 -0.4160 -0.1495  0.3441
 5898SOL    HW129327   2.999   4.602  12.834  0.4084 -1.4037 -1.2468
 5898SOL    HW229328   2.848   4.632  12.797  0.9445  1.0405  0.0227
 5899SOL     OW29329   0.354   2.464   8.342 -0.3281 -0.3095 -0.5090
 5899SOL    HW129330   0.380   2.431   8.429 -3.9080 -1.6430  0.0488
 5899SOL    HW229331   0.410   2.415   8.282  0.6695 -0.4262  0.5032
 5900SOL     OW29332   4.196   3.155   4.975  0.7541 -0.0674 -0.0579
 5900SOL    HW129333   4.255   3.081   4.961  1.1162  0.6671 -2.4293
 5900SOL    HW229334   4.239   3.200   5.047 -1.4732  1.5808  0.2407
 5901SOL     OW29335   0.636   2.384  14.973 -0.1533 -0.0346  0.1954
 5901SOL    HW129336   0.578   2.309  14.981 -0.1995 -0.1426 -1.2480
 5901SOL    HW229337   0.721   2.341  14.978  0.2253  0.6923 -0.0234
 5902SOL     OW29338   3.774   4.503   6.911  0.3077  0.5212 -0.0899
 5902SOL    HW129339   3.757   4.584   6.863 -0.1877  0.9914  0.8560
 5902SOL    HW229340   3.802   4.551   6.990  0.3316 -0.1960  0.3332
 5903SOL     OW29341   3.158   4.182  16.581 -0.4406  0.3828  0.6299
 5903SOL    HW129342   3.234   4.143  16.624 -0.2400 -2.7113 -2.5331
 5903SOL    HW229343   3.116   4.242  16.642  0.0072  1.2797  0.0569
 5904SOL     OW29344   3.417   1.434   6.470 -0.4968  0.8036  0.1958
 5904SOL    HW129345   3.478   1.466   6.536 -0.3764  0.6018  0.1824
 5904SOL    HW229346   3.441   1.343   6.452  1.5553  1.1147  1.4351
 5905SOL     OW29347   1.103   4.196   2.722  0.4239  0.3229  0.2226
 5905SOL    HW129348   1.147   4.120   2.684 -1.0952  0.3699 -1.6161
 5905SOL    HW229349   1.086   4.171   2.813 -0.4036  2.5514  0.6790
 5906SOL     OW29350   0.649   3.889   1.016 -0.1923  0.3508  0.2070
 5906SOL    HW129351   0.672   3.863   1.105 -0.7871 -0.2722  0.1762
 5906SOL    HW229352   0.670   3.811   0.965 -0.2421  0.1116  0.5563
 5907SOL     OW29353   2.356   2.858   8.254  0.6911 -0.1265  0.0899
 5907SOL    HW129354   2.402   2.884   8.175 -0.0436 -0.5179 -0.4689
 5907SOL    HW229355   2.291   2.929   8.259 -1.2122 -1.9357  1.4618
 5908SOL     OW29356   3.913   1.553   0.739 -0.1880  0.0811 -0.1934
 5908SOL    HW129357   3.841   1.611   0.763 -0.7535 -0.6932 -0.0280
 5908SOL    HW229358   3.906   1.539   0.645 -1.6993  0.6767 -0.1752
 5909SOL     OW29359   0.862   3.607   4.906 -0.1792 -0.0168  0.2252
 5909SOL    HW129360   0.889   3.684   4.857 -0.6181 -1.3433 -2.0755
 5909SOL    HW229361   0.923   3.549   4.861 -0.0582 -0.0627  0.4481
 5910SOL     OW29362   2.899   1.654   4.340  0.4480  0.2282 -0.1954
 5910SOL    HW129363   2.854   1.620   4.418  0.3268  2.1293  0.5652
 5910SOL    HW229364   2.872   1.589   4.275  0.9262 -0.8501  0.6980
 5911SOL     OW29365   1.446   1.707  12.109 -0.5408 -0.2669  0.1937
 5911SOL    HW129366   1.470   1.615  12.120  0.3441 -0.2252 -1.3115
 5911SOL    HW229367   1.373   1.723  12.168 -3.1694 -0.8449 -2.9279
 5912SOL     OW29368   4.048   1.404   6.189  0.6953  0.4473  0.7093
 5912SOL    HW129369   4.099   1.386   6.267  0.6022 -0.4496  0.5657
 5912SOL    HW229370   4.103   1.469   6.145  1.0974 -0.1265  0.3627
 5913SOL     OW29371   2.723   0.775   7.164 -0.1913 -0.2291  0.0465
 5913SOL    HW129372   2.650   0.741   7.111  0.4159  0.9736 -1.5605
 5913SOL    HW229373   2.684   0.741   7.245 -0.6315  1.0575  0.3821
 5914SOL     OW29374   3.965   4.290   3.401 -0.2005 -0.2595  0.1907
 5914SOL    HW129375   3.894   4.354   3.411 -1.7401 -1.7385 -1.1179
 5914SOL    HW229376   4.024   4.341   3.346 -0.3267 -1.0309 -0.6575
 5915SOL     OW29377   0.653   1.941   3.264  0.0716  0.7692 -0.2850
 5915SOL    HW129378   0.619   2.023   3.300 -2.9643  0.3291 -2.0888
 5915SOL    HW229379   0.708   1.908   3.334 -0.1382 -0.3450 -0.6522
 5916SOL     OW29380   2.794   3.196   7.985 -0.0280 -0.3547  0.3751
 5916SOL    HW129381   2.880   3.235   8.001  0.6329 -1.4103 -0.5639
 5916SOL    HW229382   2.739   3.272   8.004  1.6941  1.7046 -2.8371
 5917SOL     OW29383   3.967   0.332   5.480  0.0003 -0.3654  0.0390
 5917SOL    HW129384   4.024   0.338   5.403 -1.9129  3.0759 -1.1141
 5917SOL    HW229385   3.939   0.241   5.468  1.8965 -1.1225  1.3939
 5918SOL     OW29386   4.572   1.490   7.605  0.3872 -0.7890 -0.0013
 5918SOL    HW129387   4.652   1.522   7.562  0.8468 -0.6970  0.9164
 5918SOL    HW229388   4.528   1.450   7.530 -0.5322  1.0617 -0.4723
 5919SOL     OW29389   0.090   3.771   1.979  0.4359 -0.3807  0.8365
 5919SOL    HW129390   0.157   3.835   2.003 -0.0876  0.1390  0.9203
 5919SOL    HW229391   0.150   3.699   1.962  0.8739  0.4278 -1.0184
 5920SOL     OW29392   2.028   0.103   2.122  0.1779 -0.3637 -0.6067
 5920SOL    HW129393   2.084   0.042   2.170  2.9086  1.9141 -0.9253
 5920SOL    HW229394   2.002   0.046   2.049 -1.5195 -0.9379  0.4434
 5921SOL     OW29395   0.533   1.545   9.625  0.3214  0.0168  0.2204
 5921SOL    HW129396   0.594   1.583   9.688  0.3138 -1.7926  1.3211
 5921SOL    HW229397   0.571   1.459   9.605  1.2686  0.5533 -0.2778
 5922SOL     OW29398   2.295   0.890   6.383 -0.5432  0.1508  0.2030
 5922SOL    HW129399   2.284   0.815   6.440 -1.5704  0.0310 -0.1494
 5922SOL    HW229400   2.387   0.881   6.357 -0.9221  0.4190 -1.2623
 5923SOL     OW29401   3.161   2.249   6.669 -0.0486  0.0836 -0.0236
 5923SOL    HW129402   3.168   2.165   6.715 -3.8090 -1.3506 -2.0385
 5923SOL    HW229403   3.116   2.296   6.738 -1.2786 -0.9615 -0.1137
 5924SOL     OW29404   0.985   3.768   1.219 -0.3741  0.1195 -0.2537
 5924SOL    HW129405   0.990   3.804   1.130  1.4775  0.3453 -0.0534
 5924SOL    HW229406   1.079   3.755   1.228 -0.5559 -1.7215 -1.0748
 5925SOL     OW29407   0.566   1.435   8.048  0.0573 -0.0498  0.4679
 5925SOL    HW129408   0.562   1.529   8.027  0.9392  0.3035  1.7911
 5925SOL    HW229409   0.648   1.434   8.098 -1.5282  0.7272  3.1404
 5926SOL     OW29410   0.854   4.531   1.484 -0.0398  0.2010  0.1375
 5926SOL    HW129411   0.808   4.615   1.477 -1.3654 -0.3899  1.7519
 5926SOL    HW229412   0.775   4.478   1.498  0.2344  0.0515  1.1143
 5927SOL     OW29413   1.652   2.469   2.939 -0.0635 -0.3724  0.1636
 5927SOL    HW129414   1.732   2.439   2.896  0.4981  1.0588  0.1941
 5927SOL    HW229415   1.587   2.424   2.885 -1.4408  2.4195 -0.4989
 5928SOL     OW29416   0.975   2.708   8.977 -1.2432  0.0242 -0.4624
 5928SOL    HW129417   0.889   2.689   9.015 -0.5898 -1.5480  0.2041
 5928SOL    HW229418   1.031   2.692   9.053  1.4483 -0.4216 -2.5224
 5929SOL     OW29419   3.869   1.833   2.723 -0.0740  0.0333 -0.2873
 5929SOL    HW129420   3.922   1.755   2.741 -0.4203  0.0190  0.6748
 5929SOL    HW229421   3.810   1.839   2.798  0.3648 -0.8483  0.1338
 5930SOL     OW29422   2.901   1.567   8.569  0.5142 -0.4328  0.0631
 5930SOL    HW129423   2.843   1.521   8.509  1.7678 -1.4923 -0.3227
 5930SOL    HW229424   2.878   1.659   8.559  1.0462 -0.4040 -0.7947
 5931SOL     OW29425   0.642   1.734   1.948 -0.7060 -0.7275  0.1615
 5931SOL    HW129426   0.672   1.649   1.917 -4.1731 -1.0753 -2.2820
 5931SOL    HW229427   0.685   1.743   2.033 -0.1339 -1.5382 -0.0521
 5932SOL     OW29428   3.398   3.005   6.071  0.1602 -0.2749 -0.6873
 5932SOL    HW129429   3.371   3.070   6.135 -1.0577 -0.5313 -0.9446
 5932SOL    HW229430   3.492   3.003   6.086  0.3436  1.7889 -1.6150
 5933SOL     OW29431   4.576   4.495   5.528 -0.6606  0.7923  0.3749
 5933SOL    HW129432   4.501   4.551   5.548 -0.0242  2.5533 -2.0050
 5933SOL    HW229433   4.548   4.411   5.564 -0.6772  1.5233  2.0313
 5934SOL     OW29434   3.646   2.237   3.282 -0.1110  0.2167  0.0723
 5934SOL    HW129435   3.609   2.286   3.208  0.1985  0.9983  0.4406
 5934SOL    HW229436   3.581   2.266   3.346  0.6223  1.3876  0.2734
 5935SOL     OW29437   0.375   1.210  10.778 -0.4052 -0.2654 -0.1437
 5935SOL    HW129438   0.293   1.161  10.778  0.1472 -1.1764 -0.1613
 5935SOL    HW229439   0.422   1.185  10.857  1.4685  0.0771 -1.1368
 5936SOL     OW29440   0.800   3.463  13.936 -0.0807 -0.4408 -0.0926
 5936SOL    HW129441   0.757   3.518  13.871 -1.0752 -1.3684 -0.2220
 5936SOL    HW229442   0.885   3.450  13.894  0.3664  1.2136  0.3007
 5937SOL     OW29443   3.406   3.106   3.103 -0.0766 -0.3822 -0.5515
 5937SOL    HW129444   3.433   3.060   3.182 -2.0304  0.1748  0.4471
 5937SOL    HW229445   3.412   3.036   3.038 -1.9730 -0.2501 -0.8973
 5938SOL     OW29446   0.716   3.815  11.334 -0.4649 -0.7138  0.1878
 5938SOL    HW129447   0.785   3.859  11.383 -1.2199 -0.5097  1.0647
 5938SOL    HW229448   0.772   3.769  11.271  1.3346  2.4137 -0.4611
 5939SOL     OW29449   4.374   4.490   0.586  0.2530 -0.8145  0.8176
 5939SOL    HW129450   4.419   4.557   0.638  1.3253 -0.8979 -0.0216
 5939SOL    HW229451   4.435   4.486   0.513  0.3140 -2.2544  0.9400
 5940SOL     OW29452   2.249   0.853   6.956  0.2046  0.1784  0.0613
 5940SOL    HW129453   2.206   0.934   6.930 -1.3127 -0.5656  0.2349
 5940SOL    HW229454   2.314   0.842   6.887 -0.4109  0.7971 -0.6084
 5941SOL     OW29455   0.341   0.043   5.593 -0.1436  0.2064  0.0893
 5941SOL    HW129456   0.317   0.134   5.611  1.6077  0.4499  1.1846
 5941SOL    HW229457   0.317   0.008   5.679  1.1676 -1.9984 -0.4464
 5942SOL     OW29458   3.264   0.170   3.546 -0.0952  0.3856  0.4527
 5942SOL    HW129459   3.301   0.196   3.631  1.5524 -0.7392  0.0812
 5942SOL    HW229460   3.240   0.079   3.561 -0.2348  0.7663  2.6699
 5943SOL     OW29461   1.935   0.423  10.666  0.2219  0.2426 -0.0445
 5943SOL    HW129462   2.017   0.433  10.617 -1.0435 -1.1879 -2.4202
 5943SOL    HW229463   1.861   0.461  10.619  0.0126  1.0940  0.9709
 5944SOL     OW29464   4.019   4.657  14.059  0.1503 -0.3125  0.2351
 5944SOL    HW129465   3.998   4.729  13.999  3.2925 -0.7018 -1.3061
 5944SOL    HW229466   3.934   4.626  14.090  0.7346  0.7530  2.9287
 5945SOL     OW29467   1.381   0.464   6.787 -0.0006 -0.6628  0.3996
 5945SOL    HW129468   1.412   0.476   6.877 -2.2702 -0.3965  1.1486
 5945SOL    HW229469   1.299   0.420   6.809 -0.2093 -0.3154  0.3326
 5946SOL     OW29470   4.656   1.857   9.775 -0.9510  0.0230  0.1105
 5946SOL    HW129471   0.000   1.811   9.750 -1.0380  0.7010 -1.4248
 5946SOL    HW229472   4.628   1.782   9.829 -0.9554  0.4540  0.7018
 5947SOL     OW29473   3.821   2.999  16.064  0.6566 -0.1203  0.6549
 5947SOL    HW129474   3.917   2.999  16.070  0.8026 -0.2373 -1.8143
 5947SOL    HW229475   3.813   3.065  15.995  0.0804 -0.5312  0.3293
 5948SOL     OW29476   1.764   3.245   4.993  0.3228  0.2953 -0.0524
 5948SOL    HW129477   1.753   3.306   5.066 -0.0599 -0.4906  0.5351
 5948SOL    HW229478   1.703   3.283   4.930  0.7594 -1.3351 -1.4554
 5949SOL     OW29479   3.503   3.554   3.117  0.0967 -0.2787  0.0055
 5949SOL    HW129480   3.437   3.494   3.151 -0.0783 -0.7311 -1.1493
 5949SOL    HW229481   3.573   3.535   3.179 -0.3130  1.3216  0.9684
 5950SOL     OW29482   2.887   3.074   4.482 -0.5122  0.7404 -0.5999
 5950SOL    HW129483   2.871   3.035   4.568 -1.9967 -0.3925 -1.3871
 5950SOL    HW229484   2.872   3.165   4.506  1.6680  0.7798  0.6058
 5951SOL     OW29485   0.175   1.441  17.312 -0.5264  0.4445  0.1764
 5951SOL    HW129486   0.227   1.419  17.235  1.7251 -0.0672  1.8293
 5951SOL    HW229487   0.096   1.457  17.260  0.4795  3.1608 -0.5412
 5952SOL     OW29488   2.907   4.208   8.983  0.0771  0.6476  0.2723
 5952SOL    HW129489   3.000   4.190   8.995  0.0212  0.6846  0.7732
 5952SOL    HW229490   2.908   4.304   8.985 -1.4083  0.6514  0.8007
 5953SOL     OW29491   3.217   4.505   6.177  0.3802  0.3907 -0.3656
 5953SOL    HW129492   3.301   4.489   6.133 -1.0402  0.0318 -2.9436
 5953SOL    HW229493   3.233   4.595   6.205 -0.4626  0.7943 -1.1818
 5954SOL     OW29494   2.521   3.142   4.851 -0.7294  0.2212  0.0188
 5954SOL    HW129495   2.445   3.087   4.832 -0.2570 -0.1388 -0.8258
 5954SOL    HW229496   2.487   3.173   4.935 -2.0832  0.2440 -0.5309
 5955SOL     OW29497   1.319   2.443   8.361  0.1147 -0.4322 -0.0818
 5955SOL    HW129498   1.253   2.497   8.316  0.4632 -0.7087 -0.9323
 5955SOL    HW229499   1.287   2.439   8.451 -0.5962  2.0783 -0.2305
 5956SOL     OW29500   2.324   3.092  17.461  0.0882 -0.2335  0.3314
 5956SOL    HW129501   2.272   3.160  17.505 -0.8878 -2.0281  1.9613
 5956SOL    HW229502   2.259   3.047  17.408 -0.7358  0.2627  0.9022
 5957SOL     OW29503   2.976   2.290   7.941 -0.0360  0.2697  0.1077
 5957SOL    HW129504   3.061   2.245   7.944 -0.4051 -0.2071  2.8994
 5957SOL    HW229505   2.935   2.250   8.018  1.6637  1.0288  1.4016
 5958SOL     OW29506   0.582   3.621   8.170 -0.2379 -0.0573 -0.1679
 5958SOL    HW129507   0.547   3.535   8.145 -1.5508  1.2625 -2.8004
 5958SOL    HW229508   0.655   3.596   8.227 -2.4009  1.1606  3.1136
 5959SOL     OW29509   3.058   4.214   7.241 -0.5914  0.7204 -0.6655
 5959SOL    HW129510   3.008   4.275   7.296  0.2194  1.9806 -1.3197
 5959SOL    HW229511   3.024   4.127   7.257 -2.3136  1.4660 -0.2812
 5960SOL     OW29512   2.119   3.717   6.144  0.1116  0.6371  0.4483
 5960SOL    HW129513   2.038   3.675   6.171  0.9670 -0.9989  0.5087
 5960SOL    HW229514   2.174   3.639   6.134  0.0405  0.4759  1.3079
 5961SOL     OW29515   4.587   4.144   5.169  0.0376 -0.1795  0.3900
 5961SOL    HW129516   4.492   4.146   5.164  0.1819  1.8080 -1.2894
 5961SOL    HW229517   4.596   4.237   5.192  0.2154  0.2748 -1.5262
 5962SOL     OW29518   3.262   1.152   1.104 -1.0521  0.1928 -1.0885
 5962SOL    HW129519   3.345   1.189   1.134 -1.4802  1.0767 -1.0080
 5962SOL    HW229520   3.211   1.139   1.184  1.3069 -1.3393  0.1839
 5963SOL     OW29521   2.910   0.882  13.307 -0.4067  0.4069 -0.4033
 5963SOL    HW129522   2.997   0.919  13.317 -0.7261  0.6179  1.4564
 5963SOL    HW229523   2.921   0.809  13.245 -0.1921  2.4251 -2.7628
 5964SOL     OW29524   3.051   2.993  16.693  0.2366 -0.2720 -0.2079
 5964SOL    HW129525   3.020   2.924  16.751 -0.0949 -0.1810 -0.2784
 5964SOL    HW229526   3.145   2.992  16.710  0.0030 -0.3213  1.1434
 5965SOL     OW29527   0.695   0.956  13.681  0.1516 -0.5755  0.3847
 5965SOL    HW129528   0.789   0.966  13.700 -0.0859  4.9402 -1.3967
 5965SOL    HW229529   0.670   0.913  13.763 -1.9477  1.1371  0.6445
 5966SOL     OW29530   2.185   2.098   9.050 -0.1642  0.0601 -0.1994
 5966SOL    HW129531   2.274   2.106   9.017 -0.9391  1.0036 -2.0737
 5966SOL    HW229532   2.138   2.135   8.975  2.9479  0.0884 -2.1364
 5967SOL     OW29533   4.098   0.057  12.484  0.0700 -0.0944 -0.0752
 5967SOL    HW129534   4.150   0.136  12.501 -0.0212 -0.3165  1.2703
 5967SOL    HW229535   4.070   0.037  12.573 -2.3392 -0.5973 -0.9425
 5968SOL     OW29536   3.356   2.036   8.912  0.1958  0.4520  0.2109
 5968SOL    HW129537   3.338   2.053   9.004 -1.7879  1.0995 -0.2995
 5968SOL    HW229538   3.443   1.996   8.914 -0.0448 -0.0678  0.4211
 5969SOL     OW29539   3.345   4.509   8.136 -0.7945  0.2767  0.1395
 5969SOL    HW129540   3.395   4.447   8.189  0.2674  0.6189 -0.4689
 5969SOL    HW229541   3.406   4.582   8.146 -0.3625  0.3170 -2.8485
 5970SOL     OW29542   0.759   2.115   0.535 -0.2104 -0.5255 -0.0396
 5970SOL    HW129543   0.820   2.179   0.498  0.5928 -0.4850  1.3475
 5970SOL    HW229544   0.704   2.088   0.462  1.0253 -0.0887 -1.1500
 5971SOL     OW29545   1.657   4.252   3.968 -0.0967  0.4008 -0.4419
 5971SOL    HW129546   1.751   4.268   3.960 -0.1263  0.6575 -0.2839
 5971SOL    HW229547   1.670   4.210   4.053 -2.0829 -0.8707 -0.7670
 5972SOL     OW29548   3.804   3.787  10.592  0.3570 -0.5372 -0.0888
 5972SOL    HW129549   3.892   3.822  10.579  1.2656 -2.1996  1.5417
 5972SOL    HW229550   3.825   3.698  10.623 -1.0696 -2.0929 -3.6100
 5973SOL     OW29551   1.086   3.693  13.590  0.7921 -0.3783  0.3866
 5973SOL    HW129552   1.009   3.714  13.644 -0.6314  0.2103 -1.8665
 5973SOL    HW229553   1.084   3.765  13.528 -1.0304  0.0158  0.8962
 5974SOL     OW29554   1.475   0.783  12.829  0.4740  0.1089 -0.2323
 5974SOL    HW129555   1.445   0.724  12.760  0.8185 -0.5703  0.1945
 5974SOL    HW229556   1.487   0.862  12.776  2.2632  0.6747  1.0067
 5975SOL     OW29557   1.114   2.777   5.943  0.1576 -0.1333 -0.5795
 5975SOL    HW129558   1.118   2.694   5.895  0.8047 -0.2172 -0.3664
 5975SOL    HW229559   1.195   2.777   5.993  0.4431  0.0826 -1.0382
 5976SOL     OW29560   3.385   3.510   0.999  0.1250 -0.6890 -0.1661
 5976SOL    HW129561   3.330   3.438   0.967 -0.4918 -0.5038  0.4795
 5976SOL    HW229562   3.405   3.568   0.926  0.8044 -1.7310 -0.8182
 5977SOL     OW29563   1.232   4.233  17.644 -0.5329  0.3773 -0.1220
 5977SOL    HW129564   1.198   4.261  17.560 -0.4763  0.2315 -0.1949
 5977SOL    HW229565   1.324   4.217  17.624  0.0205  2.2986  0.8653
 5978SOL     OW29566   2.954   0.562  15.276  0.1116  0.8698  0.6873
 5978SOL    HW129567   2.869   0.598  15.301 -0.2467 -0.6741  1.6386
 5978SOL    HW229568   2.981   0.634  15.218 -1.6007  0.7190 -0.2699
 5979SOL     OW29569   0.952   0.160   6.748 -0.4135  0.8174  0.2763
 5979SOL    HW129570   0.885   0.210   6.794 -1.5462  1.3283 -1.9136
 5979SOL    HW229571   0.898   0.103   6.693  0.2163 -1.7585  2.3332
 5980SOL     OW29572   0.875   3.343  14.604 -0.5477 -0.6825  0.1759
 5980SOL    HW129573   0.838   3.324  14.517 -0.4728  0.8854 -0.2060
 5980SOL    HW229574   0.892   3.437  14.594 -1.0315 -0.4934  1.2192
 5981SOL     OW29575   2.218   1.933   4.231 -0.2183 -0.2110  0.4202
 5981SOL    HW129576   2.155   2.002   4.212 -1.8221 -1.3629  1.5334
 5981SOL    HW229577   2.199   1.921   4.324  1.9481 -1.8462  0.6499
 5982SOL     OW29578   4.458   3.453   4.954  0.1040  0.5482  0.1602
 5982SOL    HW129579   4.535   3.401   4.979 -1.1994 -1.1921  0.5636
 5982SOL    HW229580   4.452   3.496   5.040 -1.3731  1.7862 -0.5754
 5983SOL     OW29581   4.119   2.263   4.291 -0.1361 -0.1023  0.6127
 5983SOL    HW129582   4.027   2.240   4.302 -0.0462 -0.4058  0.7382
 5983SOL    HW229583   4.108   2.342   4.237  0.6593 -0.6352 -0.3287
 5984SOL     OW29584   2.882   2.930   3.226  0.1030 -0.2256 -0.3157
 5984SOL    HW129585   2.970   2.897   3.246  0.7437  0.5485 -1.9217
 5984SOL    HW229586   2.891   3.025   3.231  1.7927 -0.4010 -0.2494
 5985SOL     OW29587   4.441   1.042   6.538  0.0746  0.2044 -0.3086
 5985SOL    HW129588   4.451   1.103   6.611 -0.1647  0.7191 -0.7071
 5985SOL    HW229589   4.364   1.076   6.493 -0.2594 -0.5055 -0.2766
 5986SOL     OW29590   4.373   1.764   1.722 -0.0467  0.1461 -0.4028
 5986SOL    HW129591   4.437   1.765   1.652 -0.2826  1.0861 -0.6026
 5986SOL    HW229592   4.397   1.840   1.775  0.3069 -0.7977  0.7863
 5987SOL     OW29593   0.053   2.538   3.286 -0.6999  0.4028 -0.1831
 5987SOL    HW129594   4.723   2.575   3.345 -1.0387  0.7333 -0.7610
 5987SOL    HW229595   0.029   2.576   3.201  0.3292  1.2491 -0.1048
 5988SOL     OW29596   3.008   1.526   7.411  0.2504  0.4423 -0.0443
 5988SOL    HW129597   2.974   1.613   7.393 -3.1490 -0.8687  0.0551
 5988SOL    HW229598   2.982   1.502   7.500  0.6170  2.8934  0.7243
 5989SOL     OW29599   2.927   0.430   6.204 -0.7679 -0.2002 -0.6377
 5989SOL    HW129600   2.962   0.415   6.116 -1.3422  2.3475 -1.3062
 5989SOL    HW229601   2.841   0.388   6.194 -0.7495 -0.5475  0.7016
 5990SOL     OW29602   0.968   4.519   0.383 -0.3070 -0.3409  0.0214
 5990SOL    HW129603   0.881   4.517   0.422  0.4371 -2.0022  1.5981
 5990SOL    HW229604   1.008   4.606   0.385 -0.9079 -0.0522 -0.4367
 5991SOL     OW29605   4.093   2.913   8.131 -1.1354 -0.3801 -0.1313
 5991SOL    HW129606   4.039   2.992   8.138 -1.5241 -0.7133  0.7891
 5991SOL    HW229607   4.024   2.847   8.145 -1.5198 -0.0628 -0.5640
 5992SOL     OW29608   3.034   0.773   0.492  0.3950 -0.1885 -0.5221
 5992SOL    HW129609   3.057   0.773   0.584 -2.9466  0.4746  0.3155
 5992SOL    HW229610   2.938   0.767   0.494  0.2480  2.4862  0.2720
 5993SOL     OW29611   0.458   1.541   2.281 -0.6130 -0.0593  0.2311
 5993SOL    HW129612   0.511   1.492   2.218 -1.2126  0.3796 -0.6174
 5993SOL    HW229613   0.409   1.585   2.212  0.7164 -0.5886 -1.0371
 5994SOL     OW29614   0.940   0.096  13.779 -0.1728  0.0259  0.3627
 5994SOL    HW129615   0.888   0.100  13.698  1.4646  0.0721 -0.6866
 5994SOL    HW229616   0.984   0.011  13.781  2.1746  1.2306  0.0614
 5995SOL     OW29617   1.113   1.666   3.644  0.7203 -0.2048 -0.3708
 5995SOL    HW129618   1.200   1.630   3.659 -0.0856 -2.3253 -0.8176
 5995SOL    HW229619   1.082   1.620   3.566  0.0403 -0.1455 -0.1322
 5996SOL     OW29620   3.624   2.390   4.244 -0.1001  0.0134 -0.6195
 5996SOL    HW129621   3.564   2.363   4.314  0.0422 -1.0087 -0.8865
 5996SOL    HW229622   3.648   2.304   4.210  0.7096 -0.6087  1.4747
 5997SOL     OW29623   0.336   4.160   1.098 -0.1640  0.0833 -0.2781
 5997SOL    HW129624   0.411   4.120   1.143 -0.5835 -1.7281 -1.1887
 5997SOL    HW229625   0.293   4.210   1.168  0.1676 -0.1598  0.0997
 5998SOL     OW29626   3.561   1.621   4.044 -0.5219 -0.1788 -0.1804
 5998SOL    HW129627   3.614   1.577   3.977  1.5122  0.3326  1.1002
 5998SOL    HW229628   3.594   1.572   4.119 -0.5185 -0.6636 -0.4999
 5999SOL     OW29629   0.866   3.361   3.583 -0.0669 -0.1786 -0.4449
 5999SOL    HW129630   0.935   3.301   3.610  0.6660  1.0047  0.3141
 5999SOL    HW229631   0.800   3.316   3.635  2.0464 -0.4283  2.0287
 6000SOL     OW29632   4.183   2.902  14.045 -0.2954 -0.1679  0.1809
 6000SOL    HW129633   4.210   2.832  14.105 -1.0957 -1.4924 -1.0190
 6000SOL    HW229634   4.211   2.975  14.100 -0.5432  1.8132 -2.3194
 6001SOL     OW29635   3.024   3.260  16.671 -0.1261  0.0087 -0.2775
 6001SOL    HW129636   3.068   3.271  16.755  0.3710  0.3077 -0.5757
 6001SOL    HW229637   3.010   3.165  16.665  0.2333  0.1238 -2.9495
 6002SOL     OW29638   1.516   1.820   1.210  0.5253 -0.0625 -1.1005
 6002SOL    HW129639   1.484   1.734   1.236  0.3588  0.5511  0.7041
 6002SOL    HW229640   1.429   1.858   1.195 -0.5952 -2.0686  0.3388
 6003SOL     OW29641   3.443   2.551   8.276 -0.7542 -0.1451  0.0475
 6003SOL    HW129642   3.414   2.640   8.253 -2.3340 -0.8478 -0.7240
 6003SOL    HW229643   3.461   2.555   8.370  1.2476 -1.2610 -0.3100
 6004SOL     OW29644   1.192   0.542  13.533 -0.5380 -0.3382  0.1465
 6004SOL    HW129645   1.140   0.503  13.604 -0.6063  1.1955  0.9318
 6004SOL    HW229646   1.230   0.467  13.486 -0.2939 -0.6438  0.8272
 6005SOL     OW29647   3.300   4.141   5.283  0.0231 -0.0730 -0.9556
 6005SOL    HW129648   3.264   4.064   5.327 -0.8266 -0.1843 -1.8433
 6005SOL    HW229649   3.235   4.203   5.318 -0.3505  0.0292 -1.8320
 6006SOL     OW29650   3.903   2.097  17.217 -0.3836  0.6034  0.7110
 6006SOL    HW129651   3.952   2.022  17.186  1.6857  1.5852  1.6078
 6006SOL    HW229652   3.956   2.167  17.179 -0.9734  0.1424 -0.9309
 6007SOL     OW29653   2.180   3.687   2.733  0.0668 -0.0476 -0.0681
 6007SOL    HW129654   2.205   3.749   2.802 -0.3649 -0.4382  0.4396
 6007SOL    HW229655   2.163   3.606   2.781  0.7872  0.4334  0.9983
 6008SOL     OW29656   2.954   1.188   8.370 -0.2338  0.0010 -0.4314
 6008SOL    HW129657   2.996   1.225   8.293 -2.1795  0.4313 -1.2922
 6008SOL    HW229658   2.862   1.191   8.342  0.2316  2.6568 -1.6361
 6009SOL     OW29659   0.568   0.938   2.618  0.6395 -0.2054 -0.0025
 6009SOL    HW129660   0.496   1.000   2.630 -0.3602 -1.2400 -0.5905
 6009SOL    HW229661   0.528   0.885   2.549  1.0895 -1.4674  0.6875
 6010SOL     OW29662   1.502   2.908   7.261  0.1514  0.0569 -0.2538
 6010SOL    HW129663   1.407   2.921   7.263  0.3082  1.3089 -1.0220
 6010SOL    HW229664   1.516   2.903   7.356 -3.0386 -0.8920  0.1954
 6011SOL     OW29665   1.766   3.982   2.808 -0.3672  0.3251 -0.3169
 6011SOL    HW129666   1.675   3.952   2.804  0.1034 -1.2483  0.4308
 6011SOL    HW229667   1.790   3.960   2.898 -0.6896 -0.8367 -0.5033
 6012SOL     OW29668   3.799   3.094   9.625 -0.0167 -0.4778 -0.9207
 6012SOL    HW129669   3.747   3.126   9.699 -3.3311 -3.8652 -1.8158
 6012SOL    HW229670   3.765   3.150   9.555  1.9678 -2.0050 -3.1216
 6013SOL     OW29671   3.563   2.320   9.559 -0.0415  0.2454 -0.3323
 6013SOL    HW129672   3.639   2.312   9.616 -0.3676  0.2712  0.1071
 6013SOL    HW229673   3.540   2.408   9.588  0.3269 -0.0358  0.7892
 6014SOL     OW29674   2.870   2.651   9.478 -0.5414  0.1432 -0.8130
 6014SOL    HW129675   2.837   2.717   9.417  2.3491  0.8298 -1.6363
 6014SOL    HW229676   2.887   2.701   9.557 -2.3488  1.3050 -1.1757
 6015SOL     OW29677   2.616   4.653   1.805 -0.5363 -0.3378  0.0335
 6015SOL    HW129678   2.603   4.628   1.714 -1.1928  0.3498 -0.0643
 6015SOL    HW229679   2.532   4.632   1.846  0.1405  0.0766  1.6150
 6016SOL     OW29680   1.186   0.132   7.254  0.7642 -0.3163  0.1291
 6016SOL    HW129681   1.173   0.134   7.159  1.1893  0.5021  0.0934
 6016SOL    HW229682   1.112   0.184   7.286  0.6427  0.0958 -0.8141
 6017SOL     OW29683   3.712   1.048  15.595 -0.1998 -0.0633  0.1170
 6017SOL    HW129684   3.715   0.959  15.629  1.2588  0.7231  2.0335
 6017SOL    HW229685   3.681   1.102  15.667 -0.1519  0.2701 -0.1111
 6018SOL     OW29686   1.910   0.206   2.591 -0.4850 -0.0485  0.3343
 6018SOL    HW129687   1.991   0.188   2.545 -0.7804  0.2486 -0.3083
 6018SOL    HW229688   1.843   0.188   2.525 -1.6379 -0.6016  1.6269
 6019SOL     OW29689   0.002   3.672  12.396  0.1139  0.0572  0.7014
 6019SOL    HW129690   0.070   3.607  12.415 -1.0379 -1.1735  0.6317
 6019SOL    HW229691   4.661   3.619  12.374 -0.0800  0.9245 -0.6997
 6020SOL     OW29692   1.664   2.821   3.895 -0.1569  0.4939 -0.2656
 6020SOL    HW129693   1.696   2.884   3.831 -0.5508 -0.5146 -1.4667
 6020SOL    HW229694   1.711   2.740   3.877 -2.0658 -0.4267 -1.1411
 6021SOL     OW29695   4.326   0.982   6.168  0.2641 -0.1794 -0.2506
 6021SOL    HW129696   4.279   0.920   6.114 -0.3681 -0.7630  0.9737
 6021SOL    HW229697   4.400   0.930   6.200  0.0639  1.2786  2.6724
 6022SOL     OW29698   4.568   4.625   4.426  0.4277  0.5997 -0.1311
 6022SOL    HW129699   4.581   4.588   4.339  0.8809 -0.9254  0.5895
 6022SOL    HW229700   4.514   4.554   4.461  0.6646  0.5261  0.0814
 6023SOL     OW29701   2.776   2.119   9.314 -0.3438  0.1298 -0.1972
 6023SOL    HW129702   2.827   2.115   9.233  0.8895 -0.2274  0.5990
 6023SOL    HW229703   2.786   2.035   9.359 -1.1133  0.9024  1.4410
 6024SOL     OW29704   0.029   0.319   9.681 -0.3260 -0.4881  0.0967
 6024SOL    HW129705   0.063   0.312   9.770 -1.4432 -2.8011  0.3304
 6024SOL    HW229706   4.700   0.250   9.674 -0.5018 -0.1863 -1.3225
 6025SOL     OW29707   1.266   0.007   4.091  0.0918 -0.2520  0.3600
 6025SOL    HW129708   1.291   0.080   4.034  1.9752 -0.9184  0.3202
 6025SOL    HW229709   1.349   4.700   4.110  0.0656 -0.5198 -0.1596
 6026SOL     OW29710   3.391   0.881  10.546  0.8821 -0.0615 -0.1661
 6026SOL    HW129711   3.310   0.930  10.533  1.4139  0.8189 -0.1415
 6026SOL    HW229712   3.451   0.951  10.519  0.0061  0.9143  0.4200
 6027SOL     OW29713   3.032   2.564   6.327  0.0809  0.3694 -0.3403
 6027SOL    HW129714   3.084   2.538   6.251 -0.8728  0.0088 -0.8557
 6027SOL    HW229715   2.945   2.589   6.297 -0.3698 -1.2478 -0.3703
 6028SOL     OW29716   3.247   1.680   7.147 -0.3352  0.5581  0.1433
 6028SOL    HW129717   3.173   1.734   7.121 -0.2544  1.6810  2.2183
 6028SOL    HW229718   3.270   1.739   7.219 -1.0676  1.1507 -0.1134
 6029SOL     OW29719   3.475   1.352   9.502  0.3117  0.0148 -0.1598
 6029SOL    HW129720   3.417   1.427   9.514 -1.4892 -1.5155  0.8892
 6029SOL    HW229721   3.550   1.403   9.531  1.3285 -0.8683 -1.2016
 6030SOL     OW29722   1.976   0.559   8.405 -0.3002 -0.6302 -0.0287
 6030SOL    HW129723   1.954   0.548   8.497 -3.5439 -1.4171 -0.9127
 6030SOL    HW229724   1.913   0.625   8.376 -0.1572  0.7390  2.7683
 6031SOL     OW29725   4.371   0.057   9.378 -0.3376  0.3214 -0.1746
 6031SOL    HW129726   4.301   0.044   9.314  0.3293 -2.6485 -0.2845
 6031SOL    HW229727   4.364   0.152   9.392  0.8325  0.1868  1.4129
 6032SOL     OW29728   2.025   1.260  12.175  0.1414  0.0840 -0.3580
 6032SOL    HW129729   1.968   1.292  12.105  0.2473  2.3008  0.5639
 6032SOL    HW229730   1.974   1.190  12.217  0.3735  0.4789  0.5717
 6033SOL     OW29731   1.461   2.295   5.373  0.0184  0.0944 -0.0031
 6033SOL    HW129732   1.498   2.355   5.309 -0.6992 -1.1118 -1.5610
 6033SOL    HW229733   1.450   2.365   5.438 -2.5652  0.0709 -0.4098
 6034SOL     OW29734   0.161   1.912   4.273  0.4426  0.1221 -0.0237
 6034SOL    HW129735   0.231   1.850   4.293  0.3259  0.5557  1.7265
 6034SOL    HW229736   0.179   1.911   4.179 -0.2577 -4.3868 -0.1106
 6035SOL     OW29737   2.723   2.398   5.353 -0.3805  0.0632 -0.6810
 6035SOL    HW129738   2.646   2.421   5.301 -0.0033 -1.9922 -2.1498
 6035SOL    HW229739   2.689   2.418   5.440 -0.0751  1.8287 -0.9613
 6036SOL     OW29740   2.537   1.732   4.049  0.2522  0.1382  0.1124
 6036SOL    HW129741   2.543   1.826   4.032  2.1920  0.4694  2.6629
 6036SOL    HW229742   2.443   1.714   4.040  0.9936 -2.6445 -1.9688
 6037SOL     OW29743   1.782   2.519   8.769  0.5016  0.2684 -0.0283
 6037SOL    HW129744   1.797   2.502   8.676 -0.2444  0.8327 -0.2579
 6037SOL    HW229745   1.856   2.576   8.789  0.7116  0.3620 -1.0798
 6038SOL     OW29746   1.262   0.178  16.728  0.5398  0.3820  0.7786
 6038SOL    HW129747   1.311   0.251  16.767 -1.6059  2.5530 -0.5202
 6038SOL    HW229748   1.325   0.141  16.667  0.6641  2.2278 -0.2096
 6039SOL     OW29749   1.225   1.884  16.399  0.2352 -0.2269  0.1045
 6039SOL    HW129750   1.232   1.976  16.375  1.1615 -0.4803 -0.5583
 6039SOL    HW229751   1.134   1.858  16.385  0.5456  0.4236 -3.0258
 6040SOL     OW29752   1.298   1.050   0.674 -0.1876  0.4133  0.7267
 6040SOL    HW129753   1.237   1.090   0.736 -2.1208 -0.4144 -0.6309
 6040SOL    HW229754   1.296   1.110   0.600  2.0910 -0.2888  0.0908
 6041SOL     OW29755   1.254   3.598   8.305  0.6626 -0.6066 -0.1637
 6041SOL    HW129756   1.165   3.572   8.329 -0.1536  2.4486  0.0803
 6041SOL    HW229757   1.234   3.674   8.251  1.1810 -0.8825 -0.7385
 6042SOL     OW29758   1.600   0.449   5.760  0.1728  0.3587 -0.3932
 6042SOL    HW129759   1.551   0.370   5.780 -0.5854  0.1521 -3.0595
 6042SOL    HW229760   1.614   0.427   5.668  1.1970 -0.7600  0.0324
 6043SOL     OW29761   0.614   1.355   5.531  0.0162 -0.4337  0.2512
 6043SOL    HW129762   0.647   1.371   5.442  0.6128 -0.0563  0.5392
 6043SOL    HW229763   0.519   1.363   5.524  0.0894 -1.0804 -1.4603
 6044SOL     OW29764   3.862   0.548   7.051  0.4810  0.0719  0.6317
 6044SOL    HW129765   3.808   0.471   7.066  1.6341 -0.4274  2.2539
 6044SOL    HW229766   3.806   0.611   7.096  1.1163  0.9963  0.1305
 6045SOL     OW29767   1.547   3.475   3.954  0.4930  0.1067 -0.4537
 6045SOL    HW129768   1.610   3.499   4.022  0.6831 -1.2754 -0.1472
 6045SOL    HW229769   1.463   3.492   3.998  1.2484  0.3249  0.9000
 6046SOL     OW29770   1.945   0.897   7.913 -0.1359 -0.1113  0.2316
 6046SOL    HW129771   1.970   0.962   7.847 -2.3907 -1.9668 -2.4081
 6046SOL    HW229772   2.009   0.913   7.983 -0.6815 -1.0659  0.9468
 6047SOL     OW29773   3.995   2.618  15.895  0.4680 -0.2206  0.0667
 6047SOL    HW129774   3.972   2.705  15.863 -4.9169 -1.8630 -0.5308
 6047SOL    HW229775   3.934   2.600  15.967  0.5688 -1.5699 -0.1771
 6048SOL     OW29776   4.272   1.873   8.195 -0.0736 -0.2926  0.9699
 6048SOL    HW129777   4.277   1.957   8.240  1.4852 -0.0707  0.3767
 6048SOL    HW229778   4.232   1.895   8.111  0.4512  0.2671  0.8659
 6049SOL     OW29779   3.163   3.509  12.066 -0.1025  0.5036 -0.1680
 6049SOL    HW129780   3.069   3.490  12.059 -0.2237  0.4729  1.6631
 6049SOL    HW229781   3.158   3.601  12.091  1.0540  0.4923  0.0656
 6050SOL     OW29782   2.550   2.498   5.153 -0.2615  0.3659 -1.1269
 6050SOL    HW129783   2.487   2.503   5.081 -1.5520 -1.7575 -0.1524
 6050SOL    HW229784   2.635   2.506   5.109  0.6873 -0.8408  0.4812
 6051SOL     OW29785   3.066   1.272   4.698  0.3287 -0.3429  0.1832
 6051SOL    HW129786   3.093   1.240   4.612  0.5177  0.3965 -0.0309
 6051SOL    HW229787   3.145   1.312   4.734 -0.4421  1.3141  0.0126
 6052SOL     OW29788   0.331   3.371   0.032 -0.6054  0.3524  0.3754
 6052SOL    HW129789   0.308   3.290  17.730 -1.6903  0.5479  0.5777
 6052SOL    HW229790   0.250   3.421   0.020 -0.9556 -0.3173 -0.0356
 6053SOL     OW29791   2.130   2.898   1.165  0.2143 -0.2684  0.0950
 6053SOL    HW129792   2.213   2.871   1.125 -1.0113 -1.0781 -1.8826
 6053SOL    HW229793   2.078   2.847   1.103 -0.2999 -0.7670  0.9397
 6054SOL     OW29794   0.640   3.137  11.409  0.1037 -0.1902 -0.0917
 6054SOL    HW129795   0.648   3.042  11.401 -1.6853 -0.2891 -0.6583
 6054SOL    HW229796   0.583   3.163  11.337  0.9930 -0.1922 -0.7895
 6055SOL     OW29797   2.457   4.505   3.391  0.3420  0.5015  0.3526
 6055SOL    HW129798   2.535   4.557   3.409  0.0627  1.4786 -1.2252
 6055SOL    HW229799   2.389   4.571   3.403 -0.4470 -0.5534  1.7647
 6056SOL     OW29800   3.661   4.305   7.632 -0.2168 -0.5612  0.1109
 6056SOL    HW129801   3.651   4.220   7.675  1.6768 -0.8445 -0.0228
 6056SOL    HW229802   3.570   4.315   7.603  0.3677 -0.1964 -1.6041
 6057SOL     OW29803   2.108   3.719   5.139  0.2274 -0.2709 -0.1021
 6057SOL    HW129804   2.032   3.744   5.087 -0.3871  0.4796  1.1324
 6057SOL    HW229805   2.132   3.651   5.078  0.8703 -0.8562  0.8057
 6058SOL     OW29806   3.099   0.790   6.553 -0.2789  0.0077 -0.4715
 6058SOL    HW129807   3.121   0.790   6.460  1.0664  0.9850 -0.1546
 6058SOL    HW229808   3.186   0.768   6.584 -1.4673 -2.4078  1.1578
 6059SOL     OW29809   0.499   1.905   6.385  0.2692 -0.1797  0.0278
 6059SOL    HW129810   0.519   1.964   6.312 -1.0881  0.8668  0.5021
 6059SOL    HW229811   0.482   1.820   6.345  0.8120  0.0786 -0.7537
 6060SOL     OW29812   4.354   3.563   2.415  0.0278  0.7301 -0.1050
 6060SOL    HW129813   4.386   3.520   2.335 -1.7032 -1.3030  0.2886
 6060SOL    HW229814   4.310   3.498   2.470 -0.8446  1.4387  0.0346
 6061SOL     OW29815   2.558   3.454   5.262 -0.1085 -0.4332  0.0156
 6061SOL    HW129816   2.568   3.534   5.313  0.0535  0.3372 -1.2324
 6061SOL    HW229817   2.628   3.460   5.197 -1.4201  1.6554 -1.1823
 6062SOL     OW29818   1.791   1.401  11.968  0.2486  0.0863  0.0686
 6062SOL    HW129819   1.744   1.463  11.911  1.3886  0.8328 -0.0523
 6062SOL    HW229820   1.792   1.444  12.054 -0.5949  0.3798 -0.0633
 6063SOL     OW29821   0.718   4.587  14.301 -0.3558  0.1313  0.2433
 6063SOL    HW129822   0.797   4.538  14.280 -0.2659 -0.3492  1.7199
 6063SOL    HW229823   0.669   4.516  14.343 -0.4057  1.3056  2.1813
 6064SOL     OW29824   4.158   3.182   4.074 -0.4840 -0.8424 -0.1299
 6064SOL    HW129825   4.094   3.111   4.071 -2.1760  0.6771 -0.1488
 6064SOL    HW229826   4.181   3.194   4.166 -1.6187  0.1464  0.0290
 6065SOL     OW29827   3.325   3.474   8.657 -0.4622 -0.2451 -0.0883
 6065SOL    HW129828   3.375   3.556   8.658 -0.5212 -0.2230  0.6331
 6065SOL    HW229829   3.254   3.496   8.717  1.2737 -0.4275  2.0198
 6066SOL     OW29830   1.340   2.933   3.896 -0.3055 -0.0163  0.1993
 6066SOL    HW129831   1.399   2.916   3.822  2.2952 -1.5633  2.6665
 6066SOL    HW229832   1.350   3.028   3.896 -0.8793  0.0408  1.2621
 6067SOL     OW29833   2.056   2.087   5.160  0.9429 -0.3239 -0.1932
 6067SOL    HW129834   2.080   1.995   5.174  1.8766  0.2067  1.6566
 6067SOL    HW229835   1.963   2.076   5.140  0.8536  0.3177 -0.1367
 6068SOL     OW29836   0.915   4.381   5.230 -0.1838  0.1167  0.1593
 6068SOL    HW129837   0.927   4.403   5.138 -1.1203  2.0902  0.5073
 6068SOL    HW229838   0.892   4.468   5.264  2.3198 -0.0900  2.4100
 6069SOL     OW29839   3.895   3.900  14.962 -0.3900  1.0182 -0.6336
 6069SOL    HW129840   3.962   3.906  15.030 -1.1667  0.1836  0.2254
 6069SOL    HW229841   3.817   3.938  15.003 -0.5839 -1.4123  1.2835
 6070SOL     OW29842   2.799   4.649   2.017  0.0772 -0.2805  0.4943
 6070SOL    HW129843   2.722   4.674   2.068  1.0860  1.7527  1.0311
 6070SOL    HW229844   2.760   4.668   1.931  3.0157  2.6734 -0.1786
 6071SOL     OW29845   2.114   1.435   8.217  0.6395 -0.1459  0.4968
 6071SOL    HW129846   2.130   1.359   8.273 -1.9463 -0.3572  0.9608
 6071SOL    HW229847   2.100   1.492   8.293  1.1736 -0.8905  1.1553
 6072SOL     OW29848   1.947   2.057   8.410  0.2061 -0.0047  0.6201
 6072SOL    HW129849   1.855   2.059   8.436 -0.2595 -0.8386 -0.9625
 6072SOL    HW229850   1.984   2.002   8.479 -1.5854 -1.8331  0.1176
 6073SOL     OW29851   1.593   4.554  11.450 -0.6025 -0.1761 -0.0716
 6073SOL    HW129852   1.510   4.601  11.446  0.1947  1.2637  0.3376
 6073SOL    HW229853   1.570   4.462  11.433  1.5442 -0.7284  0.0212
 6074SOL     OW29854   2.059   0.889   5.738  0.9786  0.9295  0.0075
 6074SOL    HW129855   2.003   0.845   5.674  2.1337 -0.0833 -0.3018
 6074SOL    HW229856   1.996   0.914   5.807  0.3400 -1.1860  0.2008
 6075SOL     OW29857   4.088   4.461   5.398  0.1464 -0.5308 -0.4714
 6075SOL    HW129858   4.045   4.448   5.313  1.1446 -0.9691 -0.9064
 6075SOL    HW229859   4.014   4.435   5.453  2.7584 -1.7069  2.4670
 6076SOL     OW29860   1.726   3.241   4.082 -0.1501  0.2362 -0.0045
 6076SOL    HW129861   1.807   3.266   4.039  1.8923 -1.3654  2.8653
 6076SOL    HW229862   1.730   3.147   4.100 -2.8504  0.0902 -0.0256
 6077SOL     OW29863   4.718   4.471   6.577 -0.6436  0.1351 -0.7221
 6077SOL    HW129864   4.640   4.526   6.584 -2.3211 -2.1772 -0.8777
 6077SOL    HW229865   0.048   4.509   6.634  0.0133  0.7164 -1.8868
 6078SOL     OW29866   2.515   3.969   2.976 -0.3098 -0.2732 -0.0534
 6078SOL    HW129867   2.579   3.900   2.993  1.4558  0.9633 -1.6843
 6078SOL    HW229868   2.570   4.046   2.992 -0.5438 -0.3633  1.1847
 6079SOL     OW29869   1.588   2.895   1.865  0.3212  0.3811  0.1012
 6079SOL    HW129870   1.546   2.907   1.950  0.7088  1.5189  0.1380
 6079SOL    HW229871   1.506   2.904   1.817  1.0533  1.4281 -0.9523
 6080SOL     OW29872   1.302   2.760   7.070  0.3904  0.1616  0.0074
 6080SOL    HW129873   1.245   2.826   7.029  0.6735 -0.0544 -0.7341
 6080SOL    HW229874   1.377   2.813   7.097  1.8726 -2.7344  1.5195
 6081SOL     OW29875   2.693   2.155   7.151  0.0688 -0.7810  0.9853
 6081SOL    HW129876   2.706   2.250   7.158  1.7735 -0.9440  0.0562
 6081SOL    HW229877   2.725   2.142   7.062 -1.1520  0.5388  0.3471
 6082SOL     OW29878   1.898   2.051   2.620 -0.0556 -0.4167  0.1610
 6082SOL    HW129879   1.964   2.060   2.688  0.1303  0.3233 -0.1159
 6082SOL    HW229880   1.941   2.102   2.551 -1.9187  2.4480  1.1392
 6083SOL     OW29881   4.684   4.439  14.913 -0.1222  0.0891  0.4465
 6083SOL    HW129882   0.028   4.475  14.951  0.6804  0.6892 -1.8130
 6083SOL    HW229883   4.649   4.514  14.865  0.9621  1.8833  2.4884
 6084SOL     OW29884   1.207   2.691  14.568  0.2156  0.3363 -0.1590
 6084SOL    HW129885   1.146   2.737  14.509 -3.2164 -1.3538  2.0650
 6084SOL    HW229886   1.185   2.715  14.658  1.1527  2.9575 -0.6561
 6085SOL     OW29887   0.760   2.592   4.983 -0.2625  0.0374 -0.6453
 6085SOL    HW129888   0.776   2.498   4.972 -0.5453 -0.1739  0.7484
 6085SOL    HW229889   0.809   2.631   4.910  1.5464 -2.3591 -0.6969
 6086SOL     OW29890   3.354   1.702   8.095 -0.1180 -0.0802  0.2938
 6086SOL    HW129891   3.358   1.689   8.001 -2.2911 -2.4179  0.5478
 6086SOL    HW229892   3.447   1.707   8.121  0.3721  2.6376 -1.9960
 6087SOL     OW29893   2.050   4.115   4.771 -0.1884  0.1584  0.2267
 6087SOL    HW129894   2.067   4.195   4.722  0.7986 -0.9969 -1.3010
 6087SOL    HW229895   2.119   4.120   4.837  0.8818 -1.0254 -0.8061
 6088SOL     OW29896   0.116   0.653  15.095  0.1683 -0.9488 -0.0769
 6088SOL    HW129897   0.181   0.638  15.026 -0.8658 -0.9058 -1.0432
 6088SOL    HW229898   0.047   0.610  15.046 -1.4255  1.1855  0.2994
 6089SOL     OW29899   2.184   2.633  17.667  0.2367 -0.2478  0.0475
 6089SOL    HW129900   2.200   2.562  17.730 -2.7151 -1.6776 -0.8387
 6089SOL    HW229901   2.261   2.687  17.686 -0.2393  0.2030  0.7045
 6090SOL     OW29902   4.486   1.311  10.763 -0.0170  0.5652  0.0275
 6090SOL    HW129903   4.439   1.395  10.767  0.1392  0.6713 -0.2874
 6090SOL    HW229904   4.441   1.250  10.821  0.2725 -0.4855 -0.8681
 6091SOL     OW29905   4.645   3.798   3.835 -0.2045  0.0154  0.3212
 6091SOL    HW129906   4.627   3.891   3.821  0.0684 -0.4101 -2.9058
 6091SOL    HW229907   4.687   3.780   3.751 -1.4655 -0.5220 -0.2037
 6092SOL     OW29908   3.617   0.441  11.089 -0.3861  0.1683  0.1162
 6092SOL    HW129909   3.608   0.503  11.161 -0.3904  1.0283 -0.6243
 6092SOL    HW229910   3.546   0.482  11.039  1.6133  2.2091 -1.0679
 6093SOL     OW29911   2.450   1.389   3.121 -0.6854  0.0104  0.3021
 6093SOL    HW129912   2.393   1.312   3.130 -0.7200 -0.0194 -0.1878
 6093SOL    HW229913   2.527   1.338   3.148 -0.4572  1.2631  2.0548
 6094SOL     OW29914   0.977   3.261   2.932  0.5067  1.2037  0.5935
 6094SOL    HW129915   0.942   3.320   2.866  0.4982  0.5100 -0.0144
 6094SOL    HW229916   1.068   3.278   2.906  1.3989 -0.4514  2.5600
 6095SOL     OW29917   3.136   2.487   7.417 -0.5783  0.3534 -0.1061
 6095SOL    HW129918   3.090   2.405   7.401  1.5778 -0.5614 -1.5342
 6095SOL    HW229919   3.131   2.490   7.512 -3.5426 -0.1139 -0.2480
 6096SOL     OW29920   1.946   0.011   7.442 -0.0405  0.2237 -0.1286
 6096SOL    HW129921   1.912   0.098   7.463  2.4116  0.8944  0.9915
 6096SOL    HW229922   1.929   0.010   7.348  0.7910 -4.1583 -0.2008
 6097SOL     OW29923   3.909   2.859   9.665  0.5105  0.2434 -0.0391
 6097SOL    HW129924   3.949   2.845   9.579  0.4072  0.6257 -0.1531
 6097SOL    HW229925   3.858   2.939   9.651  0.6503  0.5466  1.2115
 6098SOL     OW29926   4.600   3.070   2.934  0.4047  0.5324 -0.0748
 6098SOL    HW129927   4.618   3.012   2.861 -2.3209  1.3481 -1.3830
 6098SOL    HW229928   4.505   3.073   2.929  0.4341 -0.4736 -1.1101
 6099SOL     OW29929   3.839   2.395   8.392 -0.4976  0.6387 -0.7991
 6099SOL    HW129930   3.866   2.466   8.450 -5.6753  0.2661  2.0682
 6099SOL    HW229931   3.850   2.423   8.301  1.8684 -0.1375 -0.7374
 6100SOL     OW29932   3.081   4.336  16.793 -0.4323 -0.0427 -0.3193
 6100SOL    HW129933   3.027   4.370  16.864 -1.2930 -1.5479 -0.2329
 6100SOL    HW229934   3.163   4.341  16.842  1.2717 -0.9944 -3.0354
 6101SOL     OW29935   4.078   0.963   5.871 -0.4163 -0.0622 -0.2676
 6101SOL    HW129936   4.115   1.040   5.915  0.1995 -0.7788  0.4671
 6101SOL    HW229937   4.019   1.009   5.812 -1.4627 -0.9309  0.0940
 6102SOL     OW29938   3.697   0.954   8.363 -0.1286  0.1296  0.3025
 6102SOL    HW129939   3.739   1.006   8.431  0.6996  0.9283 -0.8315
 6102SOL    HW229940   3.771   0.929   8.309 -0.2147 -1.3926  0.8866
 6103SOL     OW29941   1.419   3.834  14.791  0.1018 -0.1504  0.0671
 6103SOL    HW129942   1.507   3.796  14.792  0.6889  1.1312 -2.4820
 6103SOL    HW229943   1.452   3.924  14.782  0.3867 -0.2155  0.4508
 6104SOL     OW29944   4.684   0.034   6.082 -0.3019 -0.3284  0.0019
 6104SOL    HW129945   4.666   4.711   6.009 -1.9191 -0.1711  0.2747
 6104SOL    HW229946   4.699   4.712   6.156 -0.6079  0.3279  0.5791
 6105SOL     OW29947   1.505   2.619   2.510 -0.2547 -0.4631  0.3085
 6105SOL    HW129948   1.425   2.650   2.552 -1.0324 -1.8272 -0.1781
 6105SOL    HW229949   1.481   2.616   2.417 -3.1864 -0.3543  1.0793
 6106SOL     OW29950   1.036   0.089  12.564  0.4958 -0.4929  0.5835
 6106SOL    HW129951   1.095   0.098  12.490  0.2273 -1.1091  0.2931
 6106SOL    HW229952   1.049   0.174  12.605 -0.0757  0.0305 -0.3112
 6107SOL     OW29953   4.048   0.513   2.948  0.0704 -0.2313  0.3804
 6107SOL    HW129954   4.086   0.600   2.942 -0.0285 -0.1143  1.5010
 6107SOL    HW229955   4.002   0.511   2.863 -0.9315 -2.6987  0.9614
 6108SOL     OW29956   1.002   3.439   5.640 -0.2889 -0.2239 -0.1513
 6108SOL    HW129957   1.068   3.430   5.572 -1.3397 -0.7521 -1.1115
 6108SOL    HW229958   1.058   3.467   5.712 -1.2246  0.5833  0.2809
 6109SOL     OW29959   3.128   0.356   8.535  0.5114  0.5945  0.2204
 6109SOL    HW129960   3.125   0.434   8.591  3.5872  0.4790  0.5735
 6109SOL    HW229961   3.137   0.383   8.444  2.6832  1.2249  0.6151
 6110SOL     OW29962   1.607   2.494  13.885 -0.6429  0.1681 -0.3678
 6110SOL    HW129963   1.567   2.573  13.849 -0.6841 -0.1810 -1.1054
 6110SOL    HW229964   1.526   2.450  13.910 -0.4137  0.1944  0.4107
 6111SOL     OW29965   3.586   2.125   8.097  0.9687  0.2694  0.5670
 6111SOL    HW129966   3.598   2.055   8.034  1.7107  0.5391  0.3982
 6111SOL    HW229967   3.675   2.123   8.134  0.4162  0.1352  1.8956
 6112SOL     OW29968   0.388   3.554  11.638 -0.3178 -0.1297  0.0473
 6112SOL    HW129969   0.443   3.482  11.606 -0.9308 -0.0814 -1.1240
 6112SOL    HW229970   0.344   3.514  11.713 -0.0698  1.2412  0.9285
 6113SOL     OW29971   4.215   0.058   0.673  0.0676 -0.4260  0.6064
 6113SOL    HW129972   4.167   0.135   0.643  1.6592 -0.4631 -2.0457
 6113SOL    HW229973   4.267   0.036   0.595  1.6881 -1.7846  2.0616
 6114SOL     OW29974   0.768   0.037   4.951 -0.0499  0.1437 -0.1199
 6114SOL    HW129975   0.723   4.717   4.888 -0.0577 -1.4385  1.2928
 6114SOL    HW229976   0.765   4.726   5.035  1.3160  0.1303 -0.0820
 6115SOL     OW29977   4.075   4.444   6.371 -0.6323 -0.0306 -0.8506
 6115SOL    HW129978   4.081   4.418   6.463 -0.5603 -0.5289 -0.9974
 6115SOL    HW229979   4.143   4.512   6.372 -0.4650 -0.2429  1.4635
 6116SOL     OW29980   0.679   2.861  11.554  0.1405 -0.1911 -0.2412
 6116SOL    HW129981   0.698   2.822  11.639 -1.5283 -0.5283 -0.0342
 6116SOL    HW229982   0.764   2.851  11.511  0.6199 -1.1919  0.9416
 6117SOL     OW29983   3.485   0.041   8.812  0.2601  0.2761  0.3807
 6117SOL    HW129984   3.407   0.055   8.866  0.1274  4.2202 -0.8423
 6117SOL    HW229985   3.470   0.097   8.735 -0.6667 -2.0520 -1.1383
 6118SOL     OW29986   4.353   4.153   7.794  0.3931  0.0452 -0.5761
 6118SOL    HW129987   4.297   4.173   7.869  0.9799 -0.4607 -0.0015
 6118SOL    HW229988   4.376   4.244   7.776  0.5761  0.3927  1.3878
 6119SOL     OW29989   0.267   1.886  12.442  0.1956 -0.0912 -0.1308
 6119SOL    HW129990   0.258   1.908  12.349  0.9440 -1.2363 -0.4798
 6119SOL    HW229991   0.328   1.956  12.464 -0.3240  0.1298  0.5984
 6120SOL     OW29992   4.406   3.666   1.422 -0.1463  0.0038  0.6444
 6120SOL    HW129993   4.397   3.759   1.400 -3.9561  0.2169  2.9729
 6120SOL    HW229994   4.363   3.614   1.354 -0.7744  0.0425  1.0121
 6121SOL     OW29995   4.460   3.812   9.587  0.9722  0.2927 -0.2423
 6121SOL    HW129996   4.439   3.874   9.517  1.3270  0.7476  0.0574
 6121SOL    HW229997   4.540   3.843   9.628  1.0557 -2.1798  1.4892
 6122SOL     OW29998   2.811   4.023   7.203 -0.0810 -0.9165 -0.4795
 6122SOL    HW129999   2.721   4.029   7.170 -0.1496  1.9822  0.2265
 6122SOL    HW230000   2.863   3.994   7.128  0.5650  0.2541 -0.4808
 6123SOL     OW30001   1.477   1.037  12.712 -0.2530 -0.1683  0.3772
 6123SOL    HW130002   1.454   1.012  12.623  1.7719  0.5386 -0.3535
 6123SOL    HW230003   1.394   1.069  12.746  0.4207  1.4077  0.5435
 6124SOL     OW30004   4.188   0.862   9.479  0.5900  0.3073  0.5433
 6124SOL    HW130005   4.171   0.955   9.491 -1.0789 -0.0705  1.0695
 6124SOL    HW230006   4.103   0.827   9.505  0.2893  0.6326 -0.0113
 6125SOL     OW30007   0.796   1.643   3.131 -0.5481  0.4215 -0.0588
 6125SOL    HW130008   0.747   1.676   3.055 -1.3474 -1.6042 -0.4171
 6125SOL    HW230009   0.725   1.643   3.195  0.4777  1.1329  1.0771
 6126SOL     OW30010   2.641   3.864   7.669 -0.4072  0.2790 -0.7536
 6126SOL    HW130011   2.649   3.857   7.574  1.8425  0.8016 -0.6040
 6126SOL    HW230012   2.710   3.929   7.679 -0.0295 -0.0307 -1.3486
 6127SOL     OW30013   4.550   3.500   6.514  0.4300 -0.4611  0.1793
 6127SOL    HW130014   4.533   3.500   6.420  1.1126  0.7357  0.0630
 6127SOL    HW230015   4.483   3.438   6.542  0.7750 -0.7338  0.4098
 6128SOL     OW30016   0.904   1.914   2.760  0.5105  0.1032 -0.6586
 6128SOL    HW130017   0.918   1.819   2.754 -1.2989 -0.0744 -1.9721
 6128SOL    HW230018   0.934   1.948   2.676  0.8268 -0.1981 -0.6715
 6129SOL     OW30019   1.011   0.675  14.258 -0.4048 -0.1527  0.6686
 6129SOL    HW130020   1.030   0.649  14.168  0.6521 -0.7011  1.0578
 6129SOL    HW230021   0.915   0.676  14.257 -0.3970 -1.0666 -0.2884
 6130SOL     OW30022   4.194   1.485   4.412  0.5771  0.0066 -0.3028
 6130SOL    HW130023   4.272   1.520   4.455  0.6473  0.1697 -0.5665
 6130SOL    HW230024   4.146   1.567   4.420 -0.6227 -0.5508 -1.7636
 6131SOL     OW30025   4.445   0.615   1.642 -0.2567  0.7038 -0.3055
 6131SOL    HW130026   4.485   0.577   1.720 -0.7599 -2.0551 -1.3925
 6131SOL    HW230027   4.490   0.565   1.574 -0.1342 -0.3544  0.5465
 6132SOL     OW30028   0.801   0.392  10.037  0.1397  0.2306 -1.0641
 6132SOL    HW130029   0.754   0.319  10.078  1.3110 -0.7638 -1.5031
 6132SOL    HW230030   0.889   0.359  10.018 -0.6072 -2.5403  0.3343
 6133SOL     OW30031   0.534   0.963   0.391  0.1719  0.2653 -0.0135
 6133SOL    HW130032   0.543   0.868   0.385  1.7712  0.5685 -2.1435
 6133SOL    HW230033   0.624   0.973   0.423 -0.0869 -0.8501  1.0795
 6134SOL     OW30034   2.592   4.143  11.711 -0.3198 -0.0037 -0.7303
 6134SOL    HW130035   2.552   4.205  11.651 -0.1124  0.2977 -0.5553
 6134SOL    HW230036   2.552   4.170  11.794 -2.1039  0.3816 -1.7323
 6135SOL     OW30037   1.621   0.615  16.077  0.1239 -0.9514 -0.0954
 6135SOL    HW130038   1.662   0.692  16.038 -0.3457  0.1722  1.6482
 6135SOL    HW230039   1.530   0.640  16.093  1.0922  2.6654 -0.2881
 6136SOL     OW30040   2.406   0.641   5.758  0.2436  0.1541 -0.2756
 6136SOL    HW130041   2.443   0.697   5.826  2.4764 -0.9235 -0.6040
 6136SOL    HW230042   2.348   0.591   5.816  1.0271  1.0884  1.3042
 6137SOL     OW30043   3.849   1.147   0.940 -0.3838 -0.2116  0.2159
 6137SOL    HW130044   3.852   1.148   1.035  1.4946 -0.0627  0.1588
 6137SOL    HW230045   3.932   1.180   0.906 -0.7935 -0.6208 -1.2066
 6138SOL     OW30046   0.189   4.249   5.420 -0.3024  0.1852  0.3684
 6138SOL    HW130047   0.192   4.309   5.345 -1.2584 -0.3575 -0.1060
 6138SOL    HW230048   0.227   4.177   5.369  1.6327  0.3225  1.6072
 6139SOL     OW30049   0.238   3.104   6.368  0.1355  0.0788 -0.1154
 6139SOL    HW130050   0.267   3.091   6.277  1.0819 -1.9347  0.4722
 6139SOL    HW230051   0.144   3.120   6.356  0.2784 -0.4293 -1.9397
 6140SOL     OW30052   1.703   0.663   2.444  0.4970 -0.5190 -0.3547
 6140SOL    HW130053   1.667   0.576   2.459 -0.5248  0.2306  1.5446
 6140SOL    HW230054   1.733   0.676   2.533  0.5343 -0.4075 -0.3835
 6141SOL     OW30055   2.198   3.960   6.242  0.2450 -0.6015 -0.3207
 6141SOL    HW130056   2.294   3.955   6.240  0.2798 -0.3773  0.7920
 6141SOL    HW230057   2.180   3.876   6.198  0.2734  1.2023 -3.8000
 6142SOL     OW30058   1.493   3.760  14.395  0.2731  0.0709 -0.3081
 6142SOL    HW130059   1.425   3.765  14.328  0.9856  2.9248 -0.8179
 6142SOL    HW230060   1.498   3.666  14.413  1.0320 -0.2352 -2.1222
 6143SOL     OW30061   1.978   1.728  17.053 -0.3306 -0.1317 -0.1311
 6143SOL    HW130062   2.051   1.671  17.077 -0.9004 -0.0736  1.7153
 6143SOL    HW230063   2.028   1.809  17.065 -0.5852 -0.0983  0.6863
 6144SOL     OW30064   3.234   4.167  15.787  0.3699  0.1988  0.1196
 6144SOL    HW130065   3.238   4.229  15.715  2.0685  3.0779  2.6844
 6144SOL    HW230066   3.142   4.153  15.810  1.2909 -1.2020  2.9447
 6145SOL     OW30067   4.159   1.625   4.755 -0.7482  0.2205 -0.5687
 6145SOL    HW130068   4.069   1.593   4.760 -0.7751  0.4023  0.2363
 6145SOL    HW230069   4.156   1.721   4.751  1.5414  0.3370  0.2846
 6146SOL     OW30070   3.410   1.894   8.334  1.2562  0.0062 -0.1878
 6146SOL    HW130071   3.331   1.880   8.385  0.0868 -0.7060 -2.1906
 6146SOL    HW230072   3.379   1.951   8.263  0.6671 -0.9768 -0.7121
 6147SOL     OW30073   2.767   3.755  10.154 -0.5839 -0.3866  0.0097
 6147SOL    HW130074   2.795   3.694  10.222  0.6793  1.5496  1.2091
 6147SOL    HW230075   2.748   3.837  10.200  0.1327 -0.2670  0.0934
 6148SOL     OW30076   4.284   3.699   1.659 -0.1088 -0.2599 -0.4836
 6148SOL    HW130077   4.333   3.685   1.740  2.6443  0.1200 -2.1277
 6148SOL    HW230078   4.344   3.669   1.592 -0.5234  3.1914 -2.4072
 6149SOL     OW30079   4.392   4.563   8.097 -0.0607  0.1345  0.1020
 6149SOL    HW130080   4.347   4.635   8.052 -1.9374 -1.1544 -0.1131
 6149SOL    HW230081   4.482   4.581   8.071  0.6085  1.9960  3.7555
 6150SOL     OW30082   2.372   4.413   3.120  0.1827  0.4957  0.2236
 6150SOL    HW130083   2.301   4.454   3.169 -0.8562  0.0548 -0.9274
 6150SOL    HW230084   2.438   4.415   3.189 -0.5471  0.7829  0.9157
 6151SOL     OW30085   3.556   2.910   4.549 -0.0287  0.0879 -0.2287
 6151SOL    HW130086   3.630   2.927   4.607  1.0644 -0.7178 -1.3753
 6151SOL    HW230087   3.573   2.954   4.466  1.0167  3.0444  1.5439
 6152SOL     OW30088   0.280   0.313  16.989 -0.3630 -0.7760 -0.1546
 6152SOL    HW130089   0.230   0.279  17.063 -0.0852  0.2396  0.4965
 6152SOL    HW230090   0.367   0.317  17.030 -0.5063 -0.1766  0.0855
 6153SOL     OW30091   4.318   3.777   6.612 -0.0053  0.5979 -0.0007
 6153SOL    HW130092   4.378   3.764   6.539 -0.7048  1.1473 -0.6752
 6153SOL    HW230093   4.364   3.848   6.657 -1.0766  2.6104 -2.1092
 6154SOL     OW30094   2.514   0.007   4.386 -0.6354 -0.4359 -0.2558
 6154SOL    HW130095   2.484   4.672   4.329 -0.9366 -0.0576 -0.5714
 6154SOL    HW230096   2.440   0.015   4.447  1.0132 -0.8954  1.7977
 6155SOL     OW30097   4.731   3.243   8.330 -0.4033 -0.0097  0.1903
 6155SOL    HW130098   0.014   3.193   8.409 -0.4328  0.3518  0.4304
 6155SOL    HW230099   4.635   3.242   8.324 -0.4681  1.8300  1.0024
 6156SOL     OW30100   1.706   2.694   3.523 -0.3414 -0.8135  0.4772
 6156SOL    HW130101   1.687   2.605   3.494 -3.6111 -0.5590  1.8932
 6156SOL    HW230102   1.649   2.724   3.594 -0.0355 -0.7294  0.6902
 6157SOL     OW30103   3.095   1.370   8.508  0.3036 -0.5608  0.3259
 6157SOL    HW130104   3.053   1.289   8.479 -3.2260  1.6070 -0.5992
 6157SOL    HW230105   3.023   1.431   8.495  2.3023  1.8834  0.8432
 6158SOL     OW30106   3.235   2.345   5.969 -0.5414  0.0968  0.6978
 6158SOL    HW130107   3.302   2.393   6.018 -0.2991 -0.0084  0.4702
 6158SOL    HW230108   3.191   2.287   6.032  1.3889  0.3670  2.2819
 6159SOL     OW30109   3.271   2.108   0.399  0.0241  0.9614 -0.1590
 6159SOL    HW130110   3.314   2.177   0.449 -0.0308 -0.8584  2.3802
 6159SOL    HW230111   3.196   2.167   0.384 -1.8801 -1.3651  0.2278
 6160SOL     OW30112   3.500   3.500   7.052  0.2425 -0.1034  0.1000
 6160SOL    HW130113   3.558   3.568   7.089  2.0848 -0.6789 -1.7331
 6160SOL    HW230114   3.415   3.542   7.044  0.8860  1.1192 -0.3473
 6161SOL     OW30115   3.837   2.286  10.071 -0.5282 -0.1286  0.4276
 6161SOL    HW130116   3.835   2.299   9.976 -0.6158 -0.4564  0.3844
 6161SOL    HW230117   3.905   2.220  10.084 -0.2111  0.2897  0.8989
 6162SOL     OW30118   3.219   2.031   4.041  0.0853 -0.3630 -0.2855
 6162SOL    HW130119   3.233   2.121   4.071 -1.7926 -0.3999  0.7351
 6162SOL    HW230120   3.246   1.990   4.123  0.6848 -0.5018 -0.5519
 6163SOL     OW30121   3.602   3.946   0.794  0.2078 -0.5171 -0.1488
 6163SOL    HW130122   3.603   3.986   0.881  0.4642 -0.2340 -0.2819
 6163SOL    HW230123   3.588   4.029   0.747  1.5159  0.6385  1.5052
 6164SOL     OW30124   3.944   0.489   9.554  0.0287 -0.1228  0.4776
 6164SOL    HW130125   3.990   0.434   9.491 -0.7716  1.3308 -1.3636
 6164SOL    HW230126   3.883   0.420   9.581 -1.4490  0.2784 -1.8590
 6165SOL     OW30127   0.359   1.058   9.684 -0.2963 -0.5660 -0.4461
 6165SOL    HW130128   0.278   1.103   9.661 -1.1427 -1.0164  1.7190
 6165SOL    HW230129   0.322   0.979   9.724  1.2282 -0.3062  1.4516
 6166SOL     OW30130   3.527   3.540   4.392  0.5149  0.4159 -0.4435
 6166SOL    HW130131   3.617   3.571   4.381  0.3938  0.5795 -0.9796
 6166SOL    HW230132   3.502   3.575   4.477  0.2397 -2.2624  0.5994
 6167SOL     OW30133   1.117   0.075   5.739  0.0101 -0.0047  0.0563
 6167SOL    HW130134   1.122   0.040   5.650 -1.9603  2.7801 -1.1213
 6167SOL    HW230135   1.041   0.036   5.782  2.4060  0.5538  4.8702
 6168SOL     OW30136   4.160   2.841   9.782  0.0937  0.2633 -0.0079
 6168SOL    HW130137   4.190   2.768   9.729 -1.5765  0.2852 -0.9990
 6168SOL    HW230138   4.068   2.839   9.755  0.3457 -3.5899 -0.5196
 6169SOL     OW30139   2.116   0.536   4.650 -0.3517 -0.1829 -0.4669
 6169SOL    HW130140   2.023   0.549   4.631 -0.4450 -1.2929 -0.7725
 6169SOL    HW230141   2.121   0.535   4.746 -1.8528  0.9167 -0.3820
 6170SOL     OW30142   0.105   4.586  17.533 -0.2846 -0.5066 -0.7049
 6170SOL    HW130143   0.045   4.534  17.481 -0.3431  0.6517 -1.7984
 6170SOL    HW230144   0.114   4.656  17.469  1.0232  0.1510  0.1814
 6171SOL     OW30145   1.440   4.338  11.409  0.3310 -0.2886 -0.2757
 6171SOL    HW130146   1.390   4.280  11.351  0.4203  1.3737 -1.9969
 6171SOL    HW230147   1.370   4.369  11.467 -0.2065 -1.0255 -0.5216
 6172SOL     OW30148   0.061   0.954   7.817  0.0075 -0.0607 -0.8844
 6172SOL    HW130149   0.007   0.896   7.764 -0.5299 -2.3997  2.2505
 6172SOL    HW230150   0.071   1.034   7.765  1.0729  0.2550 -0.2100
 6173SOL     OW30151   2.859   1.369  12.248  0.9245  0.0066 -0.1200
 6173SOL    HW130152   2.865   1.427  12.172 -1.0797  0.6081  0.1783
 6173SOL    HW230153   2.870   1.421  12.328  0.5984  0.8412 -0.6163
 6174SOL     OW30154   3.984   0.022  10.442 -0.3076  0.1500 -0.0162
 6174SOL    HW130155   3.949   4.695  10.505  1.6451 -1.1889 -0.2784
 6174SOL    HW230156   4.053   0.067  10.491 -1.2725  0.4129  1.0872
 6175SOL     OW30157   1.317   4.408   5.443 -0.7613 -0.0917  0.4810
 6175SOL    HW130158   1.410   4.388   5.435 -0.2091  1.6268  2.6804
 6175SOL    HW230159   1.295   4.414   5.536  1.0144 -3.0537  1.0825
 6176SOL     OW30160   1.433   1.602   8.110 -0.2311 -0.5643 -0.2396
 6176SOL    HW130161   1.469   1.546   8.041 -1.6291  0.3887 -1.7444
 6176SOL    HW230162   1.444   1.683   8.060  1.4222  1.1563  2.8973
 6177SOL     OW30163   3.944   0.720   5.812 -0.1049 -0.1631  0.5837
 6177SOL    HW130164   3.949   0.682   5.900  0.2193  0.0342  0.6505
 6177SOL    HW230165   3.991   0.802   5.828  0.7458 -0.6167  0.4455
 6178SOL     OW30166   2.732   2.091   5.348 -0.2571  0.0902  0.0600
 6178SOL    HW130167   2.749   2.010   5.300  0.8773  0.5364 -0.2958
 6178SOL    HW230168   2.655   2.134   5.309  1.4551  1.7259 -1.4980
 6179SOL     OW30169   4.140   4.580   7.764  0.0693 -0.4235 -0.2974
 6179SOL    HW130170   4.122   4.560   7.856  1.4068 -0.2884 -0.0115
 6179SOL    HW230171   4.220   4.630   7.780 -0.1246 -0.7950  1.8245
 6180SOL     OW30172   3.429   4.318   6.453  0.0057 -0.8030 -0.0495
 6180SOL    HW130173   3.342   4.356   6.460  0.7036  0.6088  0.8575
 6180SOL    HW230174   3.462   4.391   6.400 -0.5793 -0.6459 -0.1961
 6181SOL     OW30175   4.538   2.778   4.918  0.5506  0.0521 -0.0769
 6181SOL    HW130176   4.621   2.807   4.881  2.3542 -3.3800  1.2547
 6181SOL    HW230177   4.557   2.685   4.932  0.4019 -0.0595 -0.5995
 6182SOL     OW30178   4.457   2.841  10.952 -0.4000  0.4634  0.0429
 6182SOL    HW130179   4.549   2.855  10.930 -0.0670  0.8519  1.7061
 6182SOL    HW230180   4.442   2.881  11.038  0.5864  0.1387  0.3625
 6183SOL     OW30181   2.190   0.438   5.342  0.1526  0.1253 -0.1717
 6183SOL    HW130182   2.121   0.398   5.395 -1.2208  1.6873 -0.7611
 6183SOL    HW230183   2.215   0.509   5.401  1.3971  0.5433 -1.2035
 6184SOL     OW30184   2.688   3.196   2.917 -0.1744  0.4594  0.1454
 6184SOL    HW130185   2.772   3.188   2.963  0.1112 -1.8903 -0.7746
 6184SOL    HW230186   2.624   3.196   2.988  2.4767 -4.2794  2.5400
 6185SOL     OW30187   0.470   2.408   7.466 -0.3503 -0.1433  0.0588
 6185SOL    HW130188   0.435   2.376   7.382  0.2265  3.1092 -1.4170
 6185SOL    HW230189   0.437   2.342   7.527  0.9348 -1.3692 -0.5688
 6186SOL     OW30190   1.000   3.178   7.989  1.0612 -0.0794 -0.0410
 6186SOL    HW130191   0.969   3.119   8.057 -4.5612  1.6234 -1.1181
 6186SOL    HW230192   0.979   3.270   8.005  2.5864  0.0127  1.3847
 6187SOL     OW30193   0.041   1.684  13.492  0.2707  0.2401 -1.0661
 6187SOL    HW130194   4.715   1.757  13.485  2.4143  2.1691 -0.1470
 6187SOL    HW230195   4.717   1.613  13.513  1.4166 -0.7913 -1.2772
 6188SOL     OW30196   4.417   4.082   0.404  0.0321  0.5932  0.1178
 6188SOL    HW130197   4.360   4.024   0.354 -0.2841  0.0330  1.1438
 6188SOL    HW230198   4.402   4.052   0.494 -0.1103  1.7572  0.4919
 6189SOL     OW30199   1.332   2.297  17.057 -0.9257  0.1441  0.6380
 6189SOL    HW130200   1.306   2.276  17.146  0.1080 -1.8089  0.4727
 6189SOL    HW230201   1.360   2.210  17.028 -0.6208  0.2346  0.6649
 6190SOL     OW30202   1.408   4.143   6.749 -0.1855 -0.0124  0.0677
 6190SOL    HW130203   1.446   4.071   6.800 -0.6486 -1.1181 -1.1467
 6190SOL    HW230204   1.318   4.146   6.780  0.1231  0.4779  0.9141
 6191SOL     OW30205   0.250   1.924   9.537 -0.6512  0.0487  0.5015
 6191SOL    HW130206   0.255   2.006   9.586 -1.1099  0.7540 -0.6227
 6191SOL    HW230207   0.196   1.948   9.461  0.2149  0.8953  0.1607
 6192SOL     OW30208   4.405   0.054   4.681 -0.0925  0.5251  0.2345
 6192SOL    HW130209   4.404   0.028   4.588  1.4474  3.3480 -0.5695
 6192SOL    HW230210   4.478   4.735   4.710 -0.0346  0.5441  0.1240
 6193SOL     OW30211   2.745   3.425  12.815  0.1527  0.2052 -0.6070
 6193SOL    HW130212   2.779   3.424  12.725 -1.7726 -2.8361 -1.2955
 6193SOL    HW230213   2.773   3.513  12.842 -2.1457  1.0202 -0.8406
 6194SOL     OW30214   2.591   3.419   8.107  0.5711 -0.0899  0.2338
 6194SOL    HW130215   2.682   3.409   8.131  0.2673 -0.6113  1.1430
 6194SOL    HW230216   2.559   3.428   8.197 -1.0430 -0.4075 -0.2990
 6195SOL     OW30217   1.439   1.787   2.999 -0.1362 -0.0541 -0.4659
 6195SOL    HW130218   1.483   1.854   2.948  0.1843 -0.1857 -0.3592
 6195SOL    HW230219   1.460   1.811   3.090 -1.3320 -0.1879 -0.1511
 6196SOL     OW30220   2.990   2.058   2.255  0.3153 -0.3268 -0.1575
 6196SOL    HW130221   3.025   1.975   2.220  1.7026  0.4401 -0.5850
 6196SOL    HW230222   3.032   2.118   2.193  0.3622 -1.2701 -1.0494
 6197SOL     OW30223   1.409   3.000   6.970 -0.1276  0.2213 -0.5132
 6197SOL    HW130224   1.340   3.058   6.938 -1.0689 -0.5693  0.0846
 6197SOL    HW230225   1.457   3.052   7.034 -1.0249  1.4741 -0.8671
 6198SOL     OW30226   3.695   1.659   7.208  0.1793 -0.5043 -0.5064
 6198SOL    HW130227   3.762   1.656   7.140  0.6098 -0.6435 -0.0814
 6198SOL    HW230228   3.627   1.608   7.165 -0.5161 -0.1736  0.1951
 6199SOL     OW30229   2.052   0.349   6.070 -0.2267 -0.2116  0.2272
 6199SOL    HW130230   2.095   0.285   6.127  0.0929 -1.4849 -1.4480
 6199SOL    HW230231   1.961   0.320   6.068  0.0782 -1.0467 -1.5581
 6200SOL     OW30232   1.822   0.383   1.642  0.1503 -0.0345 -0.2253
 6200SOL    HW130233   1.908   0.346   1.661 -0.6506 -0.2467  3.0443
 6200SOL    HW230234   1.769   0.342   1.711  5.4102  0.0549  3.8766
 6201SOL     OW30235   0.217   4.733   8.161  0.1912  0.0228  0.7111
 6201SOL    HW130236   0.273   4.672   8.209  0.0077  0.5478  1.5895
 6201SOL    HW230237   0.168   4.675   8.103 -0.3521  1.4831 -0.2916
 6202SOL     OW30238   2.904   3.039   1.535 -0.5427  0.0666 -0.8367
 6202SOL    HW130239   2.882   2.947   1.523 -0.8956  0.0169  0.1204
 6202SOL    HW230240   2.999   3.035   1.524 -0.7209 -0.5713 -2.1390
 6203SOL     OW30241   2.409   1.526   2.854 -0.4393  0.2528 -0.8536
 6203SOL    HW130242   2.444   1.498   2.938 -2.1379  1.0784  0.1422
 6203SOL    HW230243   2.435   1.618   2.850  3.2539 -0.6279  3.2174
 6204SOL     OW30244   2.204   1.913   5.686 -0.1208  0.1425 -0.1918
 6204SOL    HW130245   2.127   1.909   5.630  0.6644 -2.4807 -1.0628
 6204SOL    HW230246   2.189   1.994   5.734 -1.6361 -0.5592  0.5158
 6205SOL     OW30247   0.369   0.400   4.372  0.8660 -0.3777  0.4540
 6205SOL    HW130248   0.337   0.311   4.387 -1.1429  0.2418 -0.1194
 6205SOL    HW230249   0.439   0.408   4.436  1.8222  2.5522 -0.9356
 6206SOL     OW30250   2.754   4.035   2.313  0.1868 -0.4019  0.4707
 6206SOL    HW130251   2.759   3.950   2.267 -0.7100  0.6702 -1.6164
 6206SOL    HW230252   2.821   4.025   2.380  0.5267 -0.2138  0.1554
 6207SOL     OW30253   0.446   3.130   4.909  0.3631  0.0813  0.7092
 6207SOL    HW130254   0.428   3.054   4.965  2.8925 -2.0447 -1.3371
 6207SOL    HW230255   0.534   3.144   4.943  0.5418 -2.0436  1.1079
 6208SOL     OW30256   0.444   2.914   5.055  0.3725 -0.4545 -0.4245
 6208SOL    HW130257   0.511   2.948   5.114 -1.9414  0.0844  1.8843
 6208SOL    HW230258   0.488   2.833   5.029  2.7253  0.7094 -0.0540
 6209SOL     OW30259   1.290   0.872   3.534 -0.0293  0.6815  0.7203
 6209SOL    HW130260   1.366   0.929   3.540  0.1592  0.3974  1.0108
 6209SOL    HW230261   1.298   0.833   3.621  0.6007 -3.2932 -1.1433
 6210SOL     OW30262   2.823   0.307   8.471  0.2299  0.2417 -0.7684
 6210SOL    HW130263   2.884   0.357   8.526  0.8339  2.8470 -3.8288
 6210SOL    HW230264   2.744   0.359   8.484  0.8640  1.1567 -0.5329
 6211SOL     OW30265   1.582   3.890   6.470  0.4413  0.7879 -0.1939
 6211SOL    HW130266   1.622   3.963   6.518  0.4716 -0.2262  1.3151
 6211SOL    HW230267   1.619   3.905   6.383  0.5223 -0.9787 -0.4680
 6212SOL     OW30268   1.943   1.247   5.821 -0.0481 -0.9075  0.0285
 6212SOL    HW130269   2.031   1.285   5.826 -1.3739  2.0265  0.7677
 6212SOL    HW230270   1.929   1.267   5.729 -0.4603  0.7569  0.4649
 6213SOL     OW30271   4.334   3.718   2.632 -0.0105 -0.3865 -0.5874
 6213SOL    HW130272   4.360   3.666   2.555 -3.5453 -1.3130 -1.1677
 6213SOL    HW230273   4.359   3.670   2.710  0.0006  0.2291 -0.2137
 6214SOL     OW30274   3.376   2.301   0.546  0.1561 -0.3239 -0.0011
 6214SOL    HW130275   3.339   2.389   0.547 -0.1000 -0.4499  1.3000
 6214SOL    HW230276   3.340   2.276   0.631  1.2171  0.1201  0.5893
 6215SOL     OW30277   1.833   0.234   7.553  0.0492  0.3703  0.0659
 6215SOL    HW130278   1.786   0.285   7.488  0.9367  0.4893 -0.4813
 6215SOL    HW230279   1.759   0.213   7.610 -0.1117 -0.0908 -0.3134
 6216SOL     OW30280   3.311   2.756   8.435  0.2617  0.4984  0.6943
 6216SOL    HW130281   3.235   2.706   8.403  0.7672  0.5453 -0.5816
 6216SOL    HW230282   3.264   2.817   8.491 -1.4459  1.2925 -1.5868
 6217SOL     OW30283   0.059   2.446   5.735 -0.0849 -0.6784  0.5260
 6217SOL    HW130284   0.147   2.421   5.763 -0.5743 -0.0777  2.6718
 6217SOL    HW230285   0.074   2.537   5.708 -1.0610 -0.0586  2.0153
 6218SOL     OW30286   3.354   0.022   6.220 -0.1192  0.0869 -0.3505
 6218SOL    HW130287   3.394   0.001   6.136  0.4833 -3.1785  0.7283
 6218SOL    HW230288   3.359   0.117   6.218  1.7926  0.0419  1.6369
 6219SOL     OW30289   3.556   2.621   9.646  0.0324 -0.7141 -0.1246
 6219SOL    HW130290   3.546   2.692   9.583 -0.3112  0.4987  1.3217
 6219SOL    HW230291   3.650   2.624   9.665 -0.3632  2.5184  1.2168
 6220SOL     OW30292   0.669   0.278   1.922 -0.0229  0.1550  0.1595
 6220SOL    HW130293   0.675   0.288   1.827  3.8340 -3.3955  0.0157
 6220SOL    HW230294   0.729   0.204   1.932 -0.1394  0.1328  0.6892
 6221SOL     OW30295   2.307   2.528   5.842 -0.4920  0.3969  0.1635
 6221SOL    HW130296   2.249   2.567   5.908  0.7338  0.3205  1.2975
 6221SOL    HW230297   2.332   2.598   5.783  1.9737  0.2455  1.0514
 6222SOL     OW30298   1.835   1.940   1.150  0.1930  0.6031 -0.0023
 6222SOL    HW130299   1.866   2.024   1.185 -0.7145  0.2215  1.7412
 6222SOL    HW230300   1.740   1.941   1.160  0.2770 -1.8010  1.0486
 6223SOL     OW30301   1.690   2.951  16.927  0.7943 -0.4544 -0.5334
 6223SOL    HW130302   1.662   2.880  16.869  1.2610 -2.7252  2.0630
 6223SOL    HW230303   1.607   2.967  16.972  1.3783 -1.9251  1.0234
 6224SOL     OW30304   3.572   0.146   2.328 -0.2992  0.0615 -0.4347
 6224SOL    HW130305   3.608   0.211   2.388  0.5158 -2.6877  2.0870
 6224SOL    HW230306   3.487   0.185   2.308 -1.0150 -1.7636 -0.9350
 6225SOL     OW30307   2.534   1.891   8.440  0.2311 -0.2710  0.1422
 6225SOL    HW130308   2.613   1.945   8.443 -2.0833  3.2473 -1.6989
 6225SOL    HW230309   2.497   1.930   8.361  1.2123 -0.8400 -0.5852
 6226SOL     OW30310   1.430   0.634  12.607  0.5934 -0.0869 -0.5613
 6226SOL    HW130311   1.369   0.566  12.635 -0.2793  1.2145  0.7139
 6226SOL    HW230312   1.383   0.654  12.526 -2.3178 -1.7589  0.7207
 6227SOL     OW30313   2.138   3.200   3.957  0.0930 -0.5539 -0.0173
 6227SOL    HW130314   2.177   3.162   3.878  0.2978  0.7448 -0.5418
 6227SOL    HW230315   2.134   3.120   4.010 -1.8833  0.8272  1.9087
 6228SOL     OW30316   3.429   2.334   9.309 -0.5624 -0.2776  0.1540
 6228SOL    HW130317   3.491   2.343   9.381 -0.0757  0.3237 -0.3441
 6228SOL    HW230318   3.393   2.248   9.331 -0.5834 -0.5217 -0.8222
 6229SOL     OW30319   2.878   4.004   8.171 -0.3930 -0.0508  0.1432
 6229SOL    HW130320   2.835   4.088   8.153 -1.4640 -0.4288  0.8851
 6229SOL    HW230321   2.842   3.952   8.100 -0.0762  1.0478 -0.8129
 6230SOL     OW30322   4.288   3.670   0.764 -0.4668 -0.4390  0.3024
 6230SOL    HW130323   4.381   3.665   0.785 -0.7031  0.5549  1.5906
 6230SOL    HW230324   4.261   3.740   0.824  3.9075  1.0193  0.5456
 6231SOL     OW30325   4.423   4.561   2.932  0.2332  0.3423 -0.6326
 6231SOL    HW130326   4.475   4.486   2.903 -1.7641 -1.9506  1.7498
 6231SOL    HW230327   4.443   4.582   3.023 -2.8614  2.3317 -0.4108
 6232SOL     OW30328   2.735   3.827  12.361  0.1139  0.3708 -0.5752
 6232SOL    HW130329   2.740   3.815  12.456 -2.3998 -0.2088 -0.5055
 6232SOL    HW230330   2.750   3.738  12.330 -1.0623  0.4683 -1.3967
 6233SOL     OW30331   4.203   2.105  16.857 -0.4490  0.2005  0.2758
 6233SOL    HW130332   4.128   2.156  16.828 -0.5362  0.1105  0.3442
 6233SOL    HW230333   4.271   2.151  16.807  0.5586 -2.3155 -0.6658
 6234SOL     OW30334   2.688   1.431   7.730 -0.6820  0.1181  0.3140
 6234SOL    HW130335   2.687   1.371   7.804 -1.3541 -0.4104 -0.1293
 6234SOL    HW230336   2.602   1.415   7.693 -0.9382  0.1822  0.8774
 6235SOL     OW30337   2.129   0.141  11.180 -0.2230 -0.1161  0.4807
 6235SOL    HW130338   2.108   0.229  11.148 -0.9725 -0.7932 -0.8905
 6235SOL    HW230339   2.149   0.168  11.269  0.9564  0.4041  0.0687
 6236SOL     OW30340   2.399   1.671   6.076 -0.5459 -0.1356  0.1641
 6236SOL    HW130341   2.351   1.745   6.113 -0.7508  0.9978 -2.3788
 6236SOL    HW230342   2.377   1.684   5.984  1.7101  0.3211 -0.3077
 6237SOL     OW30343   4.426   0.677   7.065 -0.4347 -0.2497 -0.2748
 6237SOL    HW130344   4.472   0.609   7.114  0.4803  0.8945  0.4710
 6237SOL    HW230345   4.354   0.695   7.126  1.0294 -0.1827  1.4200
 6238SOL     OW30346   1.616   1.324   6.405 -0.1178 -0.5239 -0.0397
 6238SOL    HW130347   1.604   1.302   6.313 -0.6996 -0.0111 -0.0859
 6238SOL    HW230348   1.610   1.420   6.406  0.1497 -0.4861 -1.6160
 6239SOL     OW30349   2.547   3.670   9.247  0.6274 -0.0119  0.1695
 6239SOL    HW130350   2.603   3.721   9.305  1.3990  1.3484 -1.7470
 6239SOL    HW230351   2.589   3.585   9.260 -1.7458 -1.1135  0.6348
 6240SOL     OW30352   2.216   1.545   3.215 -0.2713 -0.4861  0.1438
 6240SOL    HW130353   2.241   1.634   3.240 -1.9120 -0.2808  1.0450
 6240SOL    HW230354   2.295   1.515   3.170  0.1737  1.1054 -0.1085
 6241SOL     OW30355   1.444   3.161   9.206  0.8267  0.7961 -0.5419
 6241SOL    HW130356   1.501   3.099   9.159 -3.3428 -1.8251 -2.0770
 6241SOL    HW230357   1.371   3.105   9.230  0.4383  1.1505 -0.8968
 6242SOL     OW30358   1.447   3.938   1.490 -0.1056  0.3939  0.1548
 6242SOL    HW130359   1.491   3.855   1.470 -0.9820 -0.0311 -0.0078
 6242SOL    HW230360   1.509   4.001   1.451  1.7432 -1.2699  0.4159
 6243SOL     OW30361   0.066   4.665  15.068 -0.5983  0.2612  0.2988
 6243SOL    HW130362   0.099   0.019  15.067  0.0775 -0.0048 -0.9489
 6243SOL    HW230363   0.011   4.669  14.990  0.5837  1.7822 -0.4566
 6244SOL     OW30364   0.785   3.670  14.317 -0.3464  0.5659  0.3166
 6244SOL    HW130365   0.818   3.627  14.396  0.5818  0.6149 -0.0394
 6244SOL    HW230366   0.781   3.762  14.339  1.8064  0.4843  1.0009
 6245SOL     OW30367   2.467   0.787  17.131  0.5300 -0.4681  0.0813
 6245SOL    HW130368   2.495   0.769  17.221 -0.5398 -1.4004  0.2278
 6245SOL    HW230369   2.534   0.747  17.076 -0.9187  0.0759 -2.0384
 6246SOL     OW30370   3.766   3.491   4.763 -0.0750 -0.3943  0.3812
 6246SOL    HW130371   3.715   3.411   4.747 -1.7710 -0.1148  4.5869
 6246SOL    HW230372   3.790   3.516   4.674 -1.9718 -0.4684 -0.1453
 6247SOL     OW30373   0.312   0.199   1.928 -0.1204  0.2341  0.3529
 6247SOL    HW130374   0.376   0.163   1.867 -0.6466 -0.4115  0.1778
 6247SOL    HW230375   0.278   0.280   1.889 -0.7255 -1.2755 -2.2111
 6248SOL     OW30376   3.533   3.708   9.440  0.2773 -0.1881  0.1090
 6248SOL    HW130377   3.553   3.798   9.414 -3.0783  0.3817 -0.4860
 6248SOL    HW230378   3.532   3.723   9.535 -2.0497 -0.2594  0.0796
 6249SOL     OW30379   4.648   2.841   9.511  0.3675  0.2403 -0.5946
 6249SOL    HW130380   4.575   2.876   9.460  0.2143  0.1327 -0.4493
 6249SOL    HW230381   4.620   2.859   9.601  2.6127  0.1524  0.1339
 6250SOL     OW30382   2.045   2.058   3.365 -0.2962 -0.0497 -0.1951
 6250SOL    HW130383   2.131   2.021   3.346 -0.4758  0.2159 -1.5234
 6250SOL    HW230384   2.036   2.044   3.459  3.0213  2.2720  0.4683
 6251SOL     OW30385   2.564   2.384   7.869  0.7544  0.0357  0.3226
 6251SOL    HW130386   2.477   2.355   7.842 -0.5217  2.8416  1.2945
 6251SOL    HW230387   2.546   2.413   7.959 -1.4409 -2.0527  0.5414
 6252SOL     OW30388   3.580   0.660  11.273 -0.2916 -0.4756 -0.2129
 6252SOL    HW130389   3.593   0.751  11.247 -0.9630 -0.5774 -0.9063
 6252SOL    HW230390   3.652   0.644  11.335  0.9344 -1.1493 -1.7862
 6253SOL     OW30391   0.598   1.344  15.891  0.2888 -0.0739  0.5557
 6253SOL    HW130392   0.589   1.338  15.796  1.4225 -0.2233  0.4533
 6253SOL    HW230393   0.535   1.288  15.936 -1.5489  0.1192 -1.7547
 6254SOL     OW30394   3.551   4.197   3.843  0.3409  0.2321 -0.1812
 6254SOL    HW130395   3.593   4.138   3.906  0.7861  2.0792  1.2684
 6254SOL    HW230396   3.620   4.263   3.838 -1.0291  1.8877  2.5569
 6255SOL     OW30397   0.890   0.552   4.213 -0.2753  0.1588  0.7180
 6255SOL    HW130398   0.848   0.634   4.239 -0.3715  0.2718  0.2178
 6255SOL    HW230399   0.820   0.488   4.226 -1.0210  0.0285 -3.7770
 6256SOL     OW30400   2.671   1.689  13.630  0.0276  0.1339  0.4551
 6256SOL    HW130401   2.579   1.663  13.628  0.1677 -0.1353 -2.0333
 6256SOL    HW230402   2.715   1.605  13.644  2.1414  0.9664 -1.1498
 6257SOL     OW30403   2.139   2.742   5.915 -0.0578  0.2159  0.4946
 6257SOL    HW130404   2.062   2.798   5.920 -0.8420 -0.8227  0.1623
 6257SOL    HW230405   2.196   2.790   5.855  0.8653 -2.5048 -0.8445
 6258SOL     OW30406   1.587   2.416   8.924  0.7719  0.0723  0.3795
 6258SOL    HW130407   1.657   2.443   8.865  0.5432  0.9641  0.5215
 6258SOL    HW230408   1.644   2.400   8.999  0.0053 -2.2007  0.4761
 6259SOL     OW30409   1.277   3.982   4.844  0.2219 -0.5748 -0.2977
 6259SOL    HW130410   1.328   4.008   4.767  0.3653 -0.9665 -0.3391
 6259SOL    HW230411   1.324   4.029   4.913 -0.5939 -2.2837  1.4229
 6260SOL     OW30412   2.029   1.568   4.626 -0.3206  0.0499  0.0173
 6260SOL    HW130413   2.010   1.475   4.610 -3.4946  0.4929  1.1827
 6260SOL    HW230414   2.089   1.573   4.700 -0.0673  0.6005 -0.2273
 6261SOL     OW30415   1.205   1.207   3.542 -0.3227  0.2063  0.4637
 6261SOL    HW130416   1.132   1.147   3.557 -1.6000  1.2961 -1.4270
 6261SOL    HW230417   1.223   1.236   3.632  0.6807 -2.6576  1.1894
 6262SOL     OW30418   4.702   1.271   2.332 -0.2225  0.3872  0.4660
 6262SOL    HW130419   4.659   1.294   2.250 -1.6346 -0.7825  0.8588
 6262SOL    HW230420   4.624   1.245   2.382  0.4704 -2.7400 -0.0938
 6263SOL     OW30421   0.308   3.010   7.307 -0.6911  0.0287  0.0230
 6263SOL    HW130422   0.226   3.045   7.343  0.4748  0.9899  1.7822
 6263SOL    HW230423   0.363   3.087   7.323  1.1606 -0.7975 -2.4849
 6264SOL     OW30424   3.483   3.462   8.248  0.2233 -0.5954  0.2094
 6264SOL    HW130425   3.405   3.421   8.285 -0.8384  0.4484 -0.8539
 6264SOL    HW230426   3.526   3.383   8.217 -0.2741 -0.7932  0.0188
 6265SOL     OW30427   3.957   1.906  17.003  0.4189  0.2278  0.1687
 6265SOL    HW130428   4.050   1.888  17.009  0.5296  0.0607 -1.8911
 6265SOL    HW230429   3.950   1.878  16.911 -1.6483 -0.3409  0.4884
 6266SOL     OW30430   3.265   1.682   4.053  0.3088 -0.6180 -0.0067
 6266SOL    HW130431   3.356   1.657   4.037  0.7150  1.1181 -0.4302
 6266SOL    HW230432   3.248   1.638   4.137 -0.0418 -1.2727 -0.4268
 6267SOL     OW30433   2.619   4.622  14.164 -0.2448  0.0350 -0.1908
 6267SOL    HW130434   2.620   4.554  14.231  2.5705  0.8914  0.6424
 6267SOL    HW230435   2.551   4.684  14.191 -1.1752 -1.0386 -0.1092
 6268SOL     OW30436   1.528   3.567   8.885  0.4043  0.2062 -0.5752
 6268SOL    HW130437   1.542   3.515   8.964 -2.3210 -1.6644 -1.3347
 6268SOL    HW230438   1.539   3.505   8.812 -2.7160  0.8569 -1.6422
 6269SOL     OW30439   1.682   2.068  11.299 -0.3509  0.2860 -0.1755
 6269SOL    HW130440   1.714   1.978  11.312 -0.0086  0.7602  2.2725
 6269SOL    HW230441   1.679   2.083  11.205 -1.4608 -0.9091 -0.3178
 6270SOL     OW30442   0.412   2.891   5.875 -0.0476 -0.1698  0.6061
 6270SOL    HW130443   0.437   2.842   5.797  1.5122  1.9405 -0.2380
 6270SOL    HW230444   0.463   2.849   5.945  1.6079  0.7360 -0.0566
 6271SOL     OW30445   2.569   0.664   4.777 -0.3282  0.2791 -0.3554
 6271SOL    HW130446   2.628   0.663   4.702  1.2387  0.5951  0.8799
 6271SOL    HW230447   2.507   0.734   4.755 -1.0114 -0.2797 -0.2070
 6272SOL     OW30448   4.031   3.543   0.722  0.3705 -0.0926 -0.1800
 6272SOL    HW130449   4.012   3.636   0.728  1.0429 -0.1236  2.2873
 6272SOL    HW230450   4.126   3.559   0.720  0.6145 -1.5864 -1.0140
 6273SOL     OW30451   4.339   0.139   5.131 -0.0268  0.2324  0.9387
 6273SOL    HW130452   4.282   0.120   5.206 -0.1917  0.9321  0.9907
 6273SOL    HW230453   4.391   0.207   5.173 -1.5406  1.8021  0.2419
 6274SOL     OW30454   2.386   0.420   9.173 -0.4568  0.1807 -0.1749
 6274SOL    HW130455   2.399   0.330   9.202  0.8491  0.8574  1.3809
 6274SOL    HW230456   2.405   0.472   9.252  1.5054 -0.8941  0.0568
 6275SOL     OW30457   4.424   0.489  16.557  0.0044  0.7260 -0.5630
 6275SOL    HW130458   4.431   0.449  16.644 -0.2195  1.1636 -0.3407
 6275SOL    HW230459   4.506   0.464  16.516  0.4490 -0.7985  1.2340
 6276SOL     OW30460   4.103   0.709   2.402  0.3577  0.4918 -0.5046
 6276SOL    HW130461   4.088   0.627   2.450  1.8084  2.3591  3.1684
 6276SOL    HW230462   4.019   0.754   2.410  0.5564  0.8868 -0.6692
 6277SOL     OW30463   0.672   2.363   3.165  0.0371 -0.0466 -0.2491
 6277SOL    HW130464   0.603   2.425   3.188  1.3840  0.2330  3.0398
 6277SOL    HW230465   0.628   2.293   3.115 -2.3716  0.3240  1.3261
 6278SOL     OW30466   3.320   0.817   2.613  0.1332  0.0605 -0.0559
 6278SOL    HW130467   3.318   0.846   2.522 -1.0114  0.3210  0.0422
 6278SOL    HW230468   3.295   0.725   2.602  1.0223 -0.0119 -1.3308
 6279SOL     OW30469   0.449   0.175   4.694 -0.7169 -1.1891 -0.5186
 6279SOL    HW130470   0.370   0.127   4.669 -2.9453  1.5838  1.0523
 6279SOL    HW230471   0.405   0.242   4.748  3.5021  0.3375  1.0193
 6280SOL     OW30472   1.465   3.269  10.854  0.4473 -0.0849 -0.1050
 6280SOL    HW130473   1.556   3.245  10.836  0.4432 -0.4238  0.3200
 6280SOL    HW230474   1.418   3.236  10.778  2.4123 -0.2889 -1.2305
 6281SOL     OW30475   2.922   2.371  11.095 -0.8799 -0.2390 -0.0708
 6281SOL    HW130476   2.897   2.425  11.170  0.0047  0.9892 -0.6671
 6281SOL    HW230477   2.996   2.420  11.059 -0.7928  0.7209  1.4134
 6282SOL     OW30478   2.062   4.496   6.006 -0.4811 -0.3941 -0.0789
 6282SOL    HW130479   2.129   4.483   6.073 -0.2674 -1.0426 -0.4170
 6282SOL    HW230480   2.117   4.558   5.958  1.1052 -1.3925  0.4423
 6283SOL     OW30481   4.425   0.276  15.387 -0.4285  0.0595  0.0916
 6283SOL    HW130482   4.452   0.276  15.295 -1.6244  0.8158 -0.2591
 6283SOL    HW230483   4.394   0.186  15.401 -1.7628  0.0169 -3.1406
 6284SOL     OW30484   1.181   3.859   0.465 -0.7354  0.1187  0.1969
 6284SOL    HW130485   1.201   3.770   0.494  1.0128  1.2362  2.4129
 6284SOL    HW230486   1.268   3.898   0.467 -0.2723 -0.9440  0.5409
 6285SOL     OW30487   2.915   1.561  10.306  0.6030  0.2125  0.1357
 6285SOL    HW130488   2.903   1.532  10.396  0.7985  0.9283  0.3923
 6285SOL    HW230489   3.002   1.527  10.284  0.3929 -1.2005  1.4671
 6286SOL     OW30490   0.292   0.488   7.429 -0.2402  0.1517  0.1691
 6286SOL    HW130491   0.308   0.429   7.356 -0.2792 -1.1782  1.2387
 6286SOL    HW230492   0.196   0.486   7.426 -0.2156 -0.3959 -0.0836
 6287SOL     OW30493   0.285   2.650   0.351 -0.0262  0.0669  0.2754
 6287SOL    HW130494   0.292   2.610   0.437  0.9334 -0.4551 -0.0455
 6287SOL    HW230495   0.234   2.591   0.296  0.5058  0.3797 -0.5588
 6288SOL     OW30496   1.212   2.305   5.247 -0.1796  0.1072 -0.4877
 6288SOL    HW130497   1.149   2.288   5.316  0.7825  0.5499  0.5080
 6288SOL    HW230498   1.288   2.281   5.301  0.3619 -0.5911 -1.5691
 6289SOL     OW30499   1.966   0.569   3.258 -0.8578 -0.4374 -0.3503
 6289SOL    HW130500   1.921   0.505   3.313  1.6444 -0.0871  2.0804
 6289SOL    HW230501   2.048   0.521   3.245  0.1521  1.0535  0.6442
 6290SOL     OW30502   3.811   1.359   7.567 -0.1894  0.1406  0.0350
 6290SOL    HW130503   3.831   1.308   7.488  1.8268 -0.8002  1.1616
 6290SOL    HW230504   3.846   1.445   7.541  1.9772 -1.0283 -0.8564
 6291SOL     OW30505   2.977   0.983   9.326 -0.6033  0.1972 -0.8197
 6291SOL    HW130506   3.070   1.000   9.311 -0.0743 -0.7896  1.3875
 6291SOL    HW230507   2.973   0.890   9.347  4.5072 -0.2686 -2.0872
 6292SOL     OW30508   2.029   1.816  10.807  0.4879 -0.2451 -0.3935
 6292SOL    HW130509   2.030   1.724  10.782 -0.3986 -0.0036 -1.3083
 6292SOL    HW230510   2.103   1.824  10.867  0.7723  1.4784 -0.9693
 6293SOL     OW30511   4.003   0.154  13.912 -0.6314 -0.0809 -0.0904
 6293SOL    HW130512   3.951   0.234  13.901 -3.8368 -1.8722  2.3207
 6293SOL    HW230513   4.084   0.197  13.941 -0.7214 -0.4445  0.6789
 6294SOL     OW30514   2.282   2.701   7.066 -0.0764  0.0567 -0.5399
 6294SOL    HW130515   2.226   2.679   7.140  1.2706  0.4484  0.6083
 6294SOL    HW230516   2.263   2.632   7.003 -0.1489  1.4945 -2.1225
 6295SOL     OW30517   0.120   1.768   7.851  0.0881  0.4212 -0.1255
 6295SOL    HW130518   0.133   1.752   7.758 -0.1773  1.7586 -0.3930
 6295SOL    HW230519   0.081   1.682   7.865  1.5778  0.1317  2.4368
 6296SOL     OW30520   3.937   0.394   1.717 -0.0151  0.2270  0.2603
 6296SOL    HW130521   3.865   0.389   1.654 -1.4634  0.7920  1.8640
 6296SOL    HW230522   3.939   0.306   1.753  0.2942  0.1544  0.0590
 6297SOL     OW30523   3.094   3.011  16.369  0.3232  0.6788  0.3254
 6297SOL    HW130524   3.056   2.924  16.380  0.2734  0.6008 -0.4848
 6297SOL    HW230525   3.015   3.062  16.381  0.6264  0.1523  4.5687
 6298SOL     OW30526   2.144   4.687   1.082 -0.1449 -0.2749 -0.6017
 6298SOL    HW130527   2.225   4.705   1.034 -0.0267  1.9029  0.3956
 6298SOL    HW230528   2.091   4.662   1.006 -0.7240  0.8309 -0.5756
 6299SOL     OW30529   3.284   2.090   9.405 -0.2760 -0.4377 -0.1258
 6299SOL    HW130530   3.342   2.036   9.459 -0.6343  0.2785  0.9796
 6299SOL    HW230531   3.209   2.102   9.463 -0.8368 -1.0560 -0.7306
 6300SOL     OW30532   4.040   1.404   2.982  0.8495  0.5806 -0.3725
 6300SOL    HW130533   3.951   1.371   2.968  0.4266  0.3617  2.6989
 6300SOL    HW230534   4.058   1.361   3.066  2.9145 -1.9487 -2.0880
 6301SOL     OW30535   1.824   4.507   6.173  0.3518  0.7296 -0.3102
 6301SOL    HW130536   1.873   4.551   6.103  0.2652  0.8607 -0.2887
 6301SOL    HW230537   1.743   4.557   6.164 -0.1472 -0.5890 -2.9698
 6302SOL     OW30538   1.801   4.733   1.710 -0.2712 -0.3364  0.2657
 6302SOL    HW130539   1.714   0.034   1.719 -0.2654  0.1612 -1.5576
 6302SOL    HW230540   1.856   0.074   1.725 -0.8094 -0.0335  0.6651
 6303SOL     OW30541   0.016   1.620   4.397 -0.1917 -0.3509 -0.1335
 6303SOL    HW130542   0.108   1.620   4.425 -0.0860 -1.4672 -0.4740
 6303SOL    HW230543   4.728   1.711   4.413  2.8287  0.4233  0.1300
 6304SOL     OW30544   4.098   2.161   7.104 -0.2163  0.0137 -0.2909
 6304SOL    HW130545   4.065   2.235   7.053  0.2755 -0.9529 -1.9998
 6304SOL    HW230546   4.165   2.130   7.043 -0.5042 -2.3751  0.6129
 6305SOL     OW30547   2.672   1.437   6.369  0.4430  0.2924 -0.3378
 6305SOL    HW130548   2.584   1.400   6.374  1.0064 -1.2684 -1.7197
 6305SOL    HW230549   2.690   1.464   6.459 -1.5221  2.0908 -0.4923
 6306SOL     OW30550   0.025   1.049   3.527 -0.2653  0.2275 -0.0078
 6306SOL    HW130551   4.699   1.043   3.600  0.6919  0.8721  0.8525
 6306SOL    HW230552   0.102   1.086   3.570 -0.9029  0.8102  0.6492
 6307SOL     OW30553   4.080   1.003   6.786 -1.0755 -0.1411  0.0002
 6307SOL    HW130554   4.071   1.080   6.842 -0.6008  0.4218 -0.7031
 6307SOL    HW230555   4.166   0.967   6.808 -1.5905  0.4444  3.0191
 6308SOL     OW30556   1.128   2.835  15.885  0.3769  0.7468  0.2023
 6308SOL    HW130557   1.083   2.781  15.820 -1.5803  1.1391  1.2415
 6308SOL    HW230558   1.053   2.880  15.923 -0.2056 -0.2583  0.2536
 6309SOL     OW30559   1.461   2.398   7.312 -0.7824  0.1330  0.2973
 6309SOL    HW130560   1.530   2.442   7.262 -0.1831  0.6450  1.5754
 6309SOL    HW230561   1.490   2.414   7.402 -2.6876  3.8758  0.2191
 6310SOL     OW30562   0.546   1.687   7.941 -0.6853 -0.3633  0.0149
 6310SOL    HW130563   0.613   1.747   7.907 -1.0743  0.8256  1.3305
 6310SOL    HW230564   0.487   1.751   7.981  1.7692  1.6065  0.4726
 6311SOL     OW30565   1.851   0.900  12.931  0.7579  0.1869 -0.5718
 6311SOL    HW130566   1.811   0.813  12.929 -2.6471  1.7587 -1.7565
 6311SOL    HW230567   1.782   0.963  12.956  0.3308 -0.9027  1.0120
 6312SOL     OW30568   1.905   1.093   2.391  0.4975  0.0682  0.0776
 6312SOL    HW130569   1.890   1.021   2.330 -0.1429  0.5138 -0.2896
 6312SOL    HW230570   1.984   1.072   2.440 -0.2298 -2.3210  0.2158
 6313SOL     OW30571   4.121   1.805   5.838  0.5241 -0.1439 -0.6047
 6313SOL    HW130572   4.053   1.751   5.798  1.3694 -2.5420  1.2471
 6313SOL    HW230573   4.087   1.894   5.830 -1.0284 -0.6680  0.2532
 6314SOL     OW30574   1.394   3.300  13.395  0.1083 -0.4095 -0.7106
 6314SOL    HW130575   1.389   3.209  13.369 -0.9875 -0.7909  0.8467
 6314SOL    HW230576   1.489   3.310  13.397  0.0531  0.4455 -2.4801
 6315SOL     OW30577   2.744   4.507  16.666 -0.0894  0.1795 -0.2375
 6315SOL    HW130578   2.657   4.537  16.693 -0.3425 -0.5982 -0.1830
 6315SOL    HW230579   2.711   4.446  16.600 -1.5180  1.7314 -0.9669
 6316SOL     OW30580   3.996   0.975  16.727 -0.2338 -0.6606 -0.0201
 6316SOL    HW130581   3.993   0.879  16.738 -0.9704 -0.3381  2.5782
 6316SOL    HW230582   3.964   0.980  16.637 -1.7167 -1.6807  0.4477
 6317SOL     OW30583   1.734   2.584   5.410  0.1816  0.0057 -0.5340
 6317SOL    HW130584   1.657   2.567   5.464 -0.2263 -0.1692 -1.1705
 6317SOL    HW230585   1.770   2.669   5.434 -0.5893  0.5862 -1.4443
 6318SOL     OW30586   0.756   0.423   2.549  0.0469 -0.2567  0.3374
 6318SOL    HW130587   0.826   0.394   2.608 -1.3191 -0.0463  2.0485
 6318SOL    HW230588   0.779   0.514   2.531  3.8759 -0.9977  1.4623
 6319SOL     OW30589   2.658   1.463   3.591 -0.3413  0.0959 -0.1553
 6319SOL    HW130590   2.607   1.386   3.566 -2.0493  0.4973  2.0926
 6319SOL    HW230591   2.728   1.420   3.639 -1.2332 -1.8723 -0.5996
 6320SOL     OW30592   2.594   3.385   5.721 -0.4253 -0.2531 -0.7860
 6320SOL    HW130593   2.592   3.356   5.813  0.4810 -1.2890 -1.1018
 6320SOL    HW230594   2.685   3.413   5.714 -0.3312  0.0986  1.5199
 6321SOL     OW30595   3.975   0.224   3.501  0.3013 -0.7203  0.1993
 6321SOL    HW130596   3.954   0.253   3.413  4.1011  2.3146  0.3039
 6321SOL    HW230597   3.904   0.262   3.553 -1.3349 -0.0801 -2.5482
 6322SOL     OW30598   1.948   0.587   3.570  0.1103 -0.0062  0.1649
 6322SOL    HW130599   1.997   0.666   3.545 -0.2565 -0.0951 -0.8217
 6322SOL    HW230600   1.981   0.575   3.659  1.1896 -0.6413 -0.3197
 6323SOL     OW30601   1.231   1.923   9.776  0.0391 -0.5102 -0.3242
 6323SOL    HW130602   1.158   1.984   9.762  0.8093  0.3165 -0.8312
 6323SOL    HW230603   1.287   1.942   9.700  0.4815  0.4773  0.2513
 6324SOL     OW30604   3.040   1.269   4.144  0.1792  0.1392  0.0341
 6324SOL    HW130605   3.003   1.212   4.212  0.6819 -1.1730 -0.7923
 6324SOL    HW230606   3.043   1.213   4.067 -1.3459  0.3112 -0.1452
 6325SOL     OW30607   4.480   1.474   1.317 -0.3653 -0.1797  0.2546
 6325SOL    HW130608   4.431   1.483   1.398  0.4744 -1.6315  0.9113
 6325SOL    HW230609   4.573   1.471   1.342  0.0701  0.5663 -1.2097
 6326SOL     OW30610   1.185   4.572  10.042  0.3139 -0.0996  0.2802
 6326SOL    HW130611   1.103   4.611  10.012 -1.4478 -0.6953  4.3737
 6326SOL    HW230612   1.157   4.501  10.100  0.1151 -0.7791 -0.6548
 6327SOL     OW30613   4.097   3.896   1.817  0.4517  0.0167  0.1202
 6327SOL    HW130614   4.145   3.960   1.869 -0.6328  0.6130  0.4005
 6327SOL    HW230615   4.091   3.825   1.881  0.3604 -0.3417 -0.2836
 6328SOL     OW30616   3.635   3.944   9.385  0.4978 -0.0692 -0.3422
 6328SOL    HW130617   3.676   3.951   9.299 -0.2634 -0.2125 -0.7113
 6328SOL    HW230618   3.687   4.006   9.436 -0.0439  0.1975 -0.1185
 6329SOL     OW30619   0.214   0.199   2.718 -0.2638 -0.5186  0.9770
 6329SOL    HW130620   0.222   0.106   2.738  0.7354  0.2166  4.0227
 6329SOL    HW230621   0.239   0.200   2.625  0.2006  0.3584  1.1110
 6330SOL     OW30622   2.497   4.451  16.493  0.3487 -0.0304  0.5630
 6330SOL    HW130623   2.414   4.471  16.535  0.3639  2.3607 -0.5380
 6330SOL    HW230624   2.511   4.361  16.522  0.7352  0.5368  2.1112
 6331SOL     OW30625   2.733   3.210   3.475 -0.4259  0.2292  0.1181
 6331SOL    HW130626   2.806   3.270   3.492 -1.0350  0.9728  0.0764
 6331SOL    HW230627   2.696   3.250   3.396  0.4002  1.1756  0.2037
 6332SOL     OW30628   3.095   1.797   4.633  0.0469  0.0240  0.2992
 6332SOL    HW130629   3.184   1.777   4.605 -0.2367 -2.1907  0.9166
 6332SOL    HW230630   3.056   1.710   4.623 -1.4876  1.0249 -2.2166
 6333SOL     OW30631   0.793   1.524   3.616  0.1121  0.1438 -0.0745
 6333SOL    HW130632   0.782   1.585   3.543 -1.4852 -1.0065 -0.7881
 6333SOL    HW230633   0.870   1.472   3.596  0.8961  1.5696 -0.6913
 6334SOL     OW30634   2.391   1.440  15.242 -0.5640  0.3730 -0.3406
 6334SOL    HW130635   2.344   1.387  15.306  0.2562  1.4942  1.1880
 6334SOL    HW230636   2.411   1.372  15.178 -1.0129 -0.3882  0.3219
 6335SOL     OW30637   2.743   2.136   7.721  0.3109  0.5045  0.3632
 6335SOL    HW130638   2.683   2.186   7.777  1.4588  0.8179  1.2948
 6335SOL    HW230639   2.806   2.105   7.786  0.4055 -2.2662 -1.0655
 6336SOL     OW30640   3.412   2.168   5.058  0.6343  0.1332  0.0529
 6336SOL    HW130641   3.503   2.196   5.069  0.2563  1.6340 -0.6964
 6336SOL    HW230642   3.415   2.133   4.969 -1.9222 -0.5147  0.2226
 6337SOL     OW30643   4.382   3.107  10.273  0.1610  0.3450 -0.0966
 6337SOL    HW130644   4.379   3.049  10.349  1.6544  1.4372  0.7906
 6337SOL    HW230645   4.287   3.116  10.267 -0.1063 -2.1636  0.3609
 6338SOL     OW30646   1.270   3.204   6.843  0.2799 -0.0307  0.0381
 6338SOL    HW130647   1.343   3.242   6.794 -1.5791  0.6267 -2.2181
 6338SOL    HW230648   1.250   3.282   6.896  1.7235  0.2080  0.2502
 6339SOL     OW30649   3.080   3.312  15.742 -0.0002  0.6840 -0.1410
 6339SOL    HW130650   3.098   3.400  15.775 -1.8137  0.3646  1.7520
 6339SOL    HW230651   3.045   3.270  15.821 -0.7764 -2.3788 -2.1047
 6340SOL     OW30652   1.112   0.350   2.417  0.0019  0.2753 -0.2166
 6340SOL    HW130653   1.087   0.259   2.402  3.4025 -0.4375 -1.4706
 6340SOL    HW230654   1.206   0.336   2.401 -0.0488  0.0172 -0.2904
 6341SOL     OW30655   1.827   1.082   6.507 -0.0889 -0.6924 -0.0342
 6341SOL    HW130656   1.883   1.009   6.532 -0.8329 -0.7967  1.3629
 6341SOL    HW230657   1.880   1.119   6.437 -1.8739  2.7301  0.3971
 6342SOL     OW30658   2.359   1.470   5.187 -0.0256  0.1265  0.5801
 6342SOL    HW130659   2.414   1.494   5.113  1.1972 -4.8642 -0.0930
 6342SOL    HW230660   2.416   1.511   5.252  0.9932  1.1197 -0.9422
 6343SOL     OW30661   2.534   2.188   5.210 -0.1103 -0.4473 -0.1519
 6343SOL    HW130662   2.563   2.277   5.189  2.3026 -0.7928  1.6993
 6343SOL    HW230663   2.514   2.153   5.123 -1.2666 -2.4723  0.9457
 6344SOL     OW30664   2.428   3.470   0.679  0.0256 -0.4054 -0.2328
 6344SOL    HW130665   2.404   3.436   0.593  0.4629 -0.6293 -0.2615
 6344SOL    HW230666   2.373   3.549   0.671  0.6988  0.1719  0.8447
 6345SOL     OW30667   3.703   1.604   8.844  0.9575 -0.0607  0.0558
 6345SOL    HW130668   3.712   1.510   8.860 -3.1309 -0.9934 -3.2766
 6345SOL    HW230669   3.776   1.620   8.784  0.7112 -0.2668 -0.2948
 6346SOL     OW30670   1.781   0.050   0.829  0.0246  0.2086  0.4673
 6346SOL    HW130671   1.738   4.706   0.861 -2.1556  1.0911 -0.2907
 6346SOL    HW230672   1.807   0.085   0.914  2.3753 -1.2780  0.3834
 6347SOL     OW30673   3.555   4.285   3.200 -0.1303  0.1312  0.0117
 6347SOL    HW130674   3.565   4.319   3.111 -2.3287 -0.1326 -0.3481
 6347SOL    HW230675   3.480   4.331   3.238  0.0526  1.9731 -1.8057
 6348SOL     OW30676   2.285   0.457  13.737  0.1410 -0.2630  0.2002
 6348SOL    HW130677   2.260   0.480  13.827  1.4231  0.5289  0.3470
 6348SOL    HW230678   2.297   0.549  13.711 -0.1622 -0.4475 -0.5829
 6349SOL     OW30679   0.795   3.730   0.843 -0.2200  0.3744  0.1081
 6349SOL    HW130680   0.864   3.794   0.822  0.1410 -0.0865 -0.1063
 6349SOL    HW230681   0.847   3.654   0.868  1.1388  1.5137  0.7839
 6350SOL     OW30682   3.504   1.775   8.709  0.0815  0.0016  0.5187
 6350SOL    HW130683   3.447   1.722   8.654 -2.8278  2.1148  1.5130
 6350SOL    HW230684   3.551   1.707   8.757  0.0563  0.1228  0.7179
 6351SOL     OW30685   4.388   3.489   3.736 -0.0006 -0.1274  0.0687
 6351SOL    HW130686   4.469   3.458   3.775 -0.3638 -1.5243 -0.3000
 6351SOL    HW230687   4.432   3.536   3.665 -2.0942 -0.9659 -1.8071
 6352SOL     OW30688   4.652   2.985   6.487 -0.5592 -0.0965  0.4654
 6352SOL    HW130689   4.666   3.049   6.416 -0.1397 -0.1038  0.5374
 6352SOL    HW230690   4.625   3.044   6.557  0.8754  2.4752 -1.1434
 6353SOL     OW30691   2.919   0.999   4.660  0.7244 -0.3734 -0.0463
 6353SOL    HW130692   2.990   0.940   4.684 -0.6336 -1.3622  1.5269
 6353SOL    HW230693   2.959   1.086   4.665 -0.7869  0.5457 -3.8687
 6354SOL     OW30694   0.331   2.790   6.816 -0.5385  0.1302  0.0116
 6354SOL    HW130695   0.290   2.705   6.800 -1.0298  0.4537 -0.4578
 6354SOL    HW230696   0.415   2.786   6.771 -1.3937  1.7913 -1.7563
 6355SOL     OW30697   2.307   3.028  11.964  0.1823  0.3609  0.5983
 6355SOL    HW130698   2.305   2.975  11.884 -2.0990  0.1812  0.7550
 6355SOL    HW230699   2.252   2.972  12.019  1.2501 -3.2963 -1.9933
 6356SOL     OW30700   1.183   4.181   1.797 -0.1220 -0.6990 -0.0473
 6356SOL    HW130701   1.217   4.204   1.710  0.7418 -0.1465  0.4371
 6356SOL    HW230702   1.249   4.224   1.851  1.4110 -2.8415 -0.2166
 6357SOL     OW30703   2.017   3.074   5.232 -0.4157  0.6078  0.1871
 6357SOL    HW130704   1.930   3.083   5.193  0.2859  3.4163 -0.7217
 6357SOL    HW230705   2.000   3.054   5.325  0.4704 -0.3371  0.1446
 6358SOL     OW30706   0.671   3.633   2.893 -0.1113 -0.0103 -0.4469
 6358SOL    HW130707   0.745   3.573   2.889 -0.8948 -0.9584 -0.5380
 6358SOL    HW230708   0.604   3.575   2.856 -0.2188 -1.7088  2.4436
 6359SOL     OW30709   3.529   0.394   7.751 -0.0127  0.1792 -0.0047
 6359SOL    HW130710   3.555   0.441   7.672  1.4737  0.7401  0.8291
 6359SOL    HW230711   3.506   0.471   7.803  1.6596  0.3179  0.5317
 6360SOL     OW30712   0.570   4.091   8.788  0.4592  0.0175  1.0144
 6360SOL    HW130713   0.626   4.086   8.710  0.0196  1.5083  0.6192
 6360SOL    HW230714   0.494   4.140   8.756  0.0741  1.1059  3.5691
 6361SOL     OW30715   1.880   4.242   8.702 -0.5711  0.1882 -0.2943
 6361SOL    HW130716   1.964   4.257   8.660 -0.7251  2.1245  0.1010
 6361SOL    HW230717   1.836   4.312   8.654 -0.5079 -0.7086 -1.6620
 6362SOL     OW30718   1.004   1.358   6.004 -0.2001 -0.0770 -0.1394
 6362SOL    HW130719   1.021   1.429   6.065 -0.8969 -1.2238  1.3751
 6362SOL    HW230720   1.096   1.335   5.987  0.1441  0.4814  0.9977
 6363SOL     OW30721   3.043   3.822   8.874 -0.4118  0.5710 -0.0746
 6363SOL    HW130722   3.026   3.869   8.792  0.6811  0.1947 -0.5187
 6363SOL    HW230723   3.060   3.897   8.932  1.4293  1.1981 -1.4056
 6364SOL     OW30724   1.401   4.702  11.290 -0.3858 -0.1784 -0.1222
 6364SOL    HW130725   1.375   0.013  11.210 -1.1811 -0.4656 -0.0354
 6364SOL    HW230726   1.365   0.026  11.355  0.8561 -0.6039  0.9617
 6365SOL     OW30727   2.429   0.246  11.114 -0.5276  0.6916 -0.0431
 6365SOL    HW130728   2.347   0.290  11.096 -0.5340  0.4071 -0.7335
 6365SOL    HW230729   2.495   0.315  11.107 -0.9830  0.9179 -1.9833
 6366SOL     OW30730   3.687   2.170   4.563  0.7519 -0.3485  0.0494
 6366SOL    HW130731   3.618   2.220   4.520  0.1748  0.4519  1.9011
 6366SOL    HW230732   3.705   2.103   4.497 -4.4425  0.0624 -1.8072
 6367SOL     OW30733   3.488   4.073  12.218  0.3084 -0.2022  0.5060
 6367SOL    HW130734   3.410   4.094  12.166 -0.1203  0.2259  1.3214
 6367SOL    HW230735   3.498   4.149  12.275  0.6290  0.0103  0.1699
 6368SOL     OW30736   2.435   4.594  10.439  0.6004 -0.5822  0.1490
 6368SOL    HW130737   2.530   4.606  10.431  0.0221  2.4800 -2.2144
 6368SOL    HW230738   2.417   4.682  10.473  1.4020  0.6298 -2.5163
 6369SOL     OW30739   1.519   3.056  17.607  0.3835 -0.4447 -0.2656
 6369SOL    HW130740   1.590   3.022  17.661 -0.3744  1.3651  1.8943
 6369SOL    HW230741   1.563   3.044  17.523  1.3091 -1.5165  0.3858
 6370SOL     OW30742   4.007   1.041   0.610 -0.7787 -0.3199  0.1392
 6370SOL    HW130743   3.929   1.088   0.581 -0.3911  0.6854  0.7276
 6370SOL    HW230744   4.071   1.112   0.614 -0.4177 -0.5842 -0.9699
 6371SOL     OW30745   2.247   1.339   3.830 -0.3485  0.5502 -0.3605
 6371SOL    HW130746   2.153   1.353   3.827 -0.4077 -0.6908 -3.7665
 6371SOL    HW230747   2.287   1.422   3.805 -0.3556  1.3026  2.1593
 6372SOL     OW30748   2.539   2.978  11.734 -0.2977 -0.0350  0.3457
 6372SOL    HW130749   2.627   3.005  11.709  0.0615 -0.1248  1.4795
 6372SOL    HW230750   2.512   3.058  11.780 -0.9805 -0.3807  0.5602
 6373SOL     OW30751   2.922   4.443   2.159 -0.4901 -0.1687 -0.7809
 6373SOL    HW130752   2.942   4.385   2.086 -1.8214 -1.3490 -0.1974
 6373SOL    HW230753   2.854   4.506   2.134  0.0167 -0.4240 -2.8263
 6374SOL     OW30754   3.784   2.364   9.771  0.7859 -0.1205 -0.6171
 6374SOL    HW130755   3.747   2.453   9.771  1.5604  0.1962  0.0257
 6374SOL    HW230756   3.865   2.379   9.723  0.2840  1.4350 -0.9934
 6375SOL     OW30757   4.001   4.326   0.989  0.2712  0.0613  0.6336
 6375SOL    HW130758   4.065   4.388   1.025 -0.2988  0.7384  0.4779
 6375SOL    HW230759   3.943   4.391   0.949 -0.6036 -1.8701 -1.2293
 6376SOL     OW30760   0.478   0.708   4.258  0.5288 -0.1236  0.3465
 6376SOL    HW130761   0.450   0.790   4.298  1.7780  1.4773 -2.0834
 6376SOL    HW230762   0.402   0.653   4.277  1.3373 -1.1608  0.5833
 6377SOL     OW30763   1.594   1.325   3.231  0.0712  0.1904 -0.0714
 6377SOL    HW130764   1.536   1.377   3.287 -0.6752 -0.3728 -0.3174
 6377SOL    HW230765   1.536   1.261   3.190  0.7461 -2.0753  2.4634
 6378SOL     OW30766   4.707   1.760   9.066 -0.0164  0.0317  0.1468
 6378SOL    HW130767   0.045   1.717   9.107 -1.3310 -1.5686  0.8299
 6378SOL    HW230768   4.626   1.727   9.105 -0.8145  1.8750  0.0879
 6379SOL     OW30769   2.641   0.250   4.281 -0.3911  0.4095 -0.1613
 6379SOL    HW130770   2.615   0.328   4.330  1.2683  2.7571 -2.9790
 6379SOL    HW230771   2.592   0.189   4.336  1.1246 -0.1857  0.5028
 6380SOL     OW30772   1.140   4.448  17.145 -0.7833 -0.1724  0.2431
 6380SOL    HW130773   1.196   4.410  17.078  0.9925  1.8739  0.5799
 6380SOL    HW230774   1.202   4.511  17.180 -1.1776  0.6286 -0.4900
 6381SOL     OW30775   3.084   4.057   5.673  0.1708  0.1268  0.2335
 6381SOL    HW130776   3.177   4.056   5.650 -0.3348 -0.7478 -1.7497
 6381SOL    HW230777   3.046   4.025   5.591  0.2469 -1.9808  1.0244
 6382SOL     OW30778   2.545   3.284   5.472  0.0248 -0.3001 -0.2637
 6382SOL    HW130779   2.548   3.342   5.548  2.4815 -0.4887 -0.2256
 6382SOL    HW230780   2.538   3.351   5.403  1.7254 -1.4319 -1.5453
 6383SOL     OW30781   1.993   4.363   2.788  0.1992  0.7425  0.7302
 6383SOL    HW130782   2.069   4.338   2.736 -0.1625 -0.2425  0.6630
 6383SOL    HW230783   2.042   4.389   2.866  0.8585  1.2436  0.1410
 6384SOL     OW30784   2.929   2.632  14.136 -0.3198  0.1050 -0.0379
 6384SOL    HW130785   2.889   2.718  14.122 -0.7210 -0.0563  0.1324
 6384SOL    HW230786   2.920   2.600  14.046  2.0994  0.1535 -0.3059
 6385SOL     OW30787   0.252   3.758   8.411 -0.5104  0.3848  0.3393
 6385SOL    HW130788   0.256   3.663   8.409 -2.2902  0.2375  3.1292
 6385SOL    HW230789   0.160   3.768   8.388 -0.6118  0.4457  0.7708
 6386SOL     OW30790   0.562   2.234   5.750 -0.1231  0.7497 -0.9780
 6386SOL    HW130791   0.510   2.158   5.724  0.2724 -0.0178  0.4496
 6386SOL    HW230792   0.507   2.255   5.826  3.5795  0.8015  1.7258
 6387SOL     OW30793   1.870   1.574  13.078 -0.1997 -0.2251 -0.3394
 6387SOL    HW130794   1.898   1.626  13.153 -1.2660 -0.6447  0.3499
 6387SOL    HW230795   1.948   1.574  13.022 -0.3166 -1.7215 -0.5050
 6388SOL     OW30796   1.633   3.989  14.480 -0.0669  0.2816  0.4766
 6388SOL    HW130797   1.598   3.903  14.459 -1.7524  0.8372  0.9365
 6388SOL    HW230798   1.648   4.017  14.390  0.1515 -0.9088  0.1450
 6389SOL     OW30799   0.694   2.835   3.727  0.5004 -0.2312 -0.0317
 6389SOL    HW130800   0.607   2.860   3.696 -0.6241  0.1491  3.3765
 6389SOL    HW230801   0.740   2.807   3.648  0.4280  0.6349 -0.3794
 6390SOL     OW30802   2.684   0.010  11.057 -0.0212 -0.4698 -0.4204
 6390SOL    HW130803   2.723   0.084  11.011  2.2610 -2.2665 -1.3765
 6390SOL    HW230804   2.593   0.039  11.057 -0.6288 -2.3285  0.2351
 6391SOL     OW30805   0.680   2.834  11.966  0.8324 -0.6314  0.4934
 6391SOL    HW130806   0.716   2.781  11.895  2.6272  0.3578  0.6500
 6391SOL    HW230807   0.653   2.913  11.918  0.6962 -0.0329  1.5412
 6392SOL     OW30808   0.762   0.997   2.107  0.0400  0.4934  0.0318
 6392SOL    HW130809   0.805   1.082   2.114  1.9184 -0.5339  0.9500
 6392SOL    HW230810   0.713   1.002   2.189 -1.6641  1.8664 -1.0647
 6393SOL     OW30811   0.379   1.627  16.907  0.2825  0.1164 -0.4114
 6393SOL    HW130812   0.354   1.566  16.838  1.4701 -1.0033  0.1430
 6393SOL    HW230813   0.471   1.635  16.881  0.0032  1.2857 -1.0577
 6394SOL     OW30814   4.180   2.532   3.006  0.6781  0.1568 -0.0966
 6394SOL    HW130815   4.257   2.562   2.958  0.5997  0.0980 -0.2598
 6394SOL    HW230816   4.171   2.598   3.074  0.9074 -0.8946  0.9615
 6395SOL     OW30817   0.131   4.429   4.564  0.0005 -0.0285 -0.3213
 6395SOL    HW130818   0.184   4.360   4.524  1.4258  0.3794  0.8329
 6395SOL    HW230819   0.083   4.383   4.633  1.4675  0.5241  1.0632
 6396SOL     OW30820   4.092   4.510   0.677 -0.3446  0.1478  0.2060
 6396SOL    HW130821   4.168   4.510   0.620 -0.1764 -0.9396  0.4282
 6396SOL    HW230822   4.107   4.583   0.737 -0.1575 -1.1145  1.7129
 6397SOL     OW30823   0.318   1.866   6.859  0.0388  0.4102 -0.2479
 6397SOL    HW130824   0.265   1.809   6.803 -1.4360  0.4202  1.1308
 6397SOL    HW230825   0.366   1.916   6.793 -1.6200  2.4420  0.0722
 6398SOL     OW30826   0.871   3.078  15.643 -0.3697  0.3550 -0.4410
 6398SOL    HW130827   0.894   2.995  15.684  2.1431  1.0891 -0.3509
 6398SOL    HW230828   0.919   3.138  15.700  0.0654 -1.5351  1.1799
 6399SOL     OW30829   2.044   1.154   2.767  0.2344  0.2652 -0.3529
 6399SOL    HW130830   1.958   1.175   2.804 -0.0745 -2.7760  0.6281
 6399SOL    HW230831   2.092   1.171   2.848  0.6861  0.9803 -0.7727
 6400SOL     OW30832   3.706   4.481   7.952  0.0259  0.4102 -0.2253
 6400SOL    HW130833   3.711   4.551   7.888  2.1641  1.0885  0.7007
 6400SOL    HW230834   3.700   4.543   8.025  3.5709 -1.5701  1.7582
 6401SOL     OW30835   1.023   0.537  14.039 -0.0891 -0.1128  0.7461
 6401SOL    HW130836   0.961   0.478  13.997 -0.7275  1.4487 -0.5053
 6401SOL    HW230837   1.105   0.516  13.994  0.4432 -0.3344  1.8071
 6402SOL     OW30838   3.176   0.539   7.743 -0.2303  0.6172  0.0448
 6402SOL    HW130839   3.260   0.582   7.759  0.2824 -0.2882 -0.2364
 6402SOL    HW230840   3.112   0.594   7.788  1.0658  1.4728  0.8384
 6403SOL     OW30841   0.245   3.996   1.398 -0.2258  0.1986  0.2747
 6403SOL    HW130842   0.228   4.017   1.490  0.7731  2.0698  0.0471
 6403SOL    HW230843   0.333   3.959   1.410 -0.0518  0.6229  0.3244
 6404SOL     OW30844   2.122   4.395   8.263 -0.0885  0.1039 -0.5088
 6404SOL    HW130845   2.064   4.461   8.301 -0.7060 -0.2978 -0.7641
 6404SOL    HW230846   2.112   4.337   8.339  2.0835  1.0740  0.5021
 6405SOL     OW30847   1.933   1.027   4.228  0.1346 -0.1692  0.1801
 6405SOL    HW130848   1.859   1.014   4.287  1.1005  1.4219  1.7624
 6405SOL    HW230849   2.006   0.991   4.278  0.0273 -1.7444 -0.8196
 6406SOL     OW30850   4.203   4.192   4.893 -0.4469  0.1934 -0.2025
 6406SOL    HW130851   4.133   4.256   4.892 -1.4592 -0.9074 -0.4259
 6406SOL    HW230852   4.183   4.140   4.815 -0.2671 -0.3192  0.0891
 6407SOL     OW30853   1.415   1.635  14.957 -0.2693  0.2143 -0.4222
 6407SOL    HW130854   1.420   1.660  14.865 -1.4698 -0.5097 -0.6918
 6407SOL    HW230855   1.510   1.633  14.969 -0.2997 -2.8532 -0.6263
 6408SOL     OW30856   0.022   0.805   2.802 -0.1462 -0.2274 -0.1221
 6408SOL    HW130857   4.728   0.719   2.773 -0.9415  0.1588 -0.4454
 6408SOL    HW230858   0.086   0.827   2.735 -1.0503 -0.5697 -1.1114
 6409SOL     OW30859   1.513   2.202   0.060  0.0682  0.4898 -0.3845
 6409SOL    HW130860   1.450   2.225   0.128 -0.6590 -2.9020  0.0701
 6409SOL    HW230861   1.570   2.142   0.108  1.4368 -0.4014 -3.1182
 6410SOL     OW30862   3.050   1.046   4.953  0.8383  0.0452 -0.2694
 6410SOL    HW130863   3.098   1.127   4.940 -1.3794  1.5145  0.6514
 6410SOL    HW230864   3.113   0.976   4.934 -0.2135 -1.0380  0.2266
 6411SOL     OW30865   3.776   1.688  11.936 -0.3070  0.4393  0.1193
 6411SOL    HW130866   3.745   1.704  12.025 -1.1491  4.4207 -0.8899
 6411SOL    HW230867   3.703   1.711  11.878 -1.5913  1.2863  2.0801
 6412SOL     OW30868   3.322   3.082   4.325  0.1257 -0.5065  0.3319
 6412SOL    HW130869   3.257   3.151   4.340  3.4645  3.2883 -2.5057
 6412SOL    HW230870   3.272   3.015   4.371  3.1135 -1.4532  2.2574
 6413SOL     OW30871   1.753   1.612  16.739 -0.0846 -0.0485  0.3100
 6413SOL    HW130872   1.659   1.600  16.746  0.1917 -3.1839 -1.2161
 6413SOL    HW230873   1.772   1.578  16.652 -0.9048 -0.4476  0.2897
 6414SOL     OW30874   1.484   0.511   6.432 -0.5579 -0.3714  0.0845
 6414SOL    HW130875   1.559   0.514   6.491 -1.1609 -4.1125  1.0729
 6414SOL    HW230876   1.419   0.551   6.491  1.0539  1.1531  0.8153
 6415SOL     OW30877   1.349   0.042   8.058 -0.6824 -0.3782 -0.0184
 6415SOL    HW130878   1.338   0.120   8.004 -0.1033  2.6977  4.3707
 6415SOL    HW230879   1.261   0.012   8.078 -0.0720 -2.3112 -0.1584
 6416SOL     OW30880   1.501   4.193   2.851  0.5612  0.2742 -0.1471
 6416SOL    HW130881   1.536   4.110   2.882 -0.4597  0.7237  2.1657
 6416SOL    HW230882   1.579   4.240   2.822 -0.2936  0.1864 -2.6150
 6417SOL     OW30883   2.753   3.172  16.754  0.1161  0.6066 -0.6005
 6417SOL    HW130884   2.739   3.093  16.701  0.7483 -2.0794  3.2400
 6417SOL    HW230885   2.695   3.231  16.707 -2.4520 -1.0442  0.5501
 6418SOL     OW30886   2.739   0.086   0.544  0.2905 -0.4352 -0.6670
 6418SOL    HW130887   2.817   0.037   0.521  0.8307 -0.3320  0.9590
 6418SOL    HW230888   2.713   0.116   0.457  1.6025  2.0845 -0.1929
 6419SOL     OW30889   3.489   0.237  10.388  0.9171  0.3126  0.2056
 6419SOL    HW130890   3.540   0.159  10.411  1.1805 -0.0875 -1.7192
 6419SOL    HW230891   3.565   0.295  10.396  1.7219 -0.8569  1.0783
 6420SOL     OW30892   2.400   3.541   5.607 -0.2590 -0.2690 -0.0436
 6420SOL    HW130893   2.461   3.476   5.642 -0.0837  0.3434  0.8127
 6420SOL    HW230894   2.457   3.602   5.561 -0.3721 -0.2976 -0.2223
 6421SOL     OW30895   3.438   0.959   5.692 -0.2519 -0.0595 -0.2471
 6421SOL    HW130896   3.377   1.031   5.681 -0.4768 -0.0936  0.7635
 6421SOL    HW230897   3.406   0.932   5.778 -1.4684  1.4095 -0.2469
 6422SOL     OW30898   2.990   2.964  12.916  0.2780  0.5379  0.1951
 6422SOL    HW130899   2.971   3.001  12.830  0.6938 -0.6272 -0.3960
 6422SOL    HW230900   2.904   2.970  12.957 -0.2250  1.6449 -1.0309
 6423SOL     OW30901   1.757   1.120  13.321 -0.1271  0.4098  0.3297
 6423SOL    HW130902   1.725   1.032  13.301 -0.0170  0.3128  0.5739
 6423SOL    HW230903   1.839   1.124  13.272 -0.4615  0.6279 -0.2110
 6424SOL     OW30904   2.212   3.372   2.506 -0.2736 -0.7859  0.0445
 6424SOL    HW130905   2.135   3.426   2.525  0.5847 -0.4232  2.4306
 6424SOL    HW230906   2.259   3.430   2.445  1.7872 -1.9333  0.5499
 6425SOL     OW30907   3.042   4.277   3.822 -0.2062  0.1877 -0.0779
 6425SOL    HW130908   3.021   4.274   3.915  1.3718  0.6618  0.2928
 6425SOL    HW230909   3.122   4.224   3.820 -0.4614 -0.2387  1.2378
 6426SOL     OW30910   1.523   3.845  15.623  0.0630  0.1793 -0.1567
 6426SOL    HW130911   1.505   3.835  15.716  1.3094 -2.2894 -0.1822
 6426SOL    HW230912   1.610   3.805  15.619 -0.4344 -0.9968  0.8853
 6427SOL     OW30913   2.045   0.159   0.858  0.1300  0.0836 -0.4497
 6427SOL    HW130914   2.006   0.091   0.804  1.7420 -2.7638  1.9933
 6427SOL    HW230915   2.136   0.133   0.842  0.6965  2.0583 -0.5508
 6428SOL     OW30916   0.314   0.674   5.140  0.5116  0.7358 -0.1692
 6428SOL    HW130917   0.320   0.708   5.230  0.4701 -1.1151  0.5519
 6428SOL    HW230918   0.393   0.620   5.132  1.1462  1.6474 -0.0836
 6429SOL     OW30919   3.712   4.400   8.361 -0.1456  0.1072 -0.2670
 6429SOL    HW130920   3.637   4.366   8.311  0.7951 -0.0646 -1.5685
 6429SOL    HW230921   3.702   4.349   8.441  0.4056  0.2958 -0.0778
 6430SOL     OW30922   0.376   2.169   7.610  0.3486 -0.3942 -0.5876
 6430SOL    HW130923   0.306   2.109   7.635  0.5920 -0.4509 -0.0410
 6430SOL    HW230924   0.458   2.119   7.618  0.6143 -0.0835 -1.4111
 6431SOL     OW30925   0.604   1.380   6.647 -0.6912  0.3711 -0.6838
 6431SOL    HW130926   0.646   1.327   6.714  1.2945  1.0301 -1.4042
 6431SOL    HW230927   0.669   1.365   6.578  0.0307  1.8590 -0.3266
 6432SOL     OW30928   4.401   2.666  10.745 -0.0039  0.5620 -0.6771
 6432SOL    HW130929   4.411   2.751  10.788  0.1460 -0.4854  1.3853
 6432SOL    HW230930   4.342   2.625  10.809  3.3308 -1.9247  0.8354
 6433SOL     OW30931   2.570   4.236   6.726 -0.1371  0.0317 -0.3535
 6433SOL    HW130932   2.580   4.331   6.733 -3.0012  0.2887  0.3248
 6433SOL    HW230933   2.553   4.212   6.635  0.3439 -1.5532 -0.0306
 6434SOL     OW30934   2.019   2.370   4.574  0.5788  0.5225  0.8969
 6434SOL    HW130935   1.928   2.340   4.576  0.0089  2.1332 -0.6716
 6434SOL    HW230936   2.059   2.297   4.621  0.3866 -0.5438 -0.5865
 6435SOL     OW30937   3.912   2.707   9.117 -0.2352  0.0444 -0.0248
 6435SOL    HW130938   3.830   2.715   9.069  0.1415  1.5184 -0.4173
 6435SOL    HW230939   3.886   2.692   9.208 -1.2379  0.1660 -0.2947
 6436SOL     OW30940   4.248   0.367   8.089 -0.1953 -0.5157  0.2693
 6436SOL    HW130941   4.176   0.304   8.086  0.4624 -1.1337 -2.7933
 6436SOL    HW230942   4.225   0.417   8.167  0.5771  0.3127 -0.0305
 6437SOL     OW30943   0.119   4.417  10.936 -0.1317 -0.3946 -0.3957
 6437SOL    HW130944   0.087   4.488  10.880  2.0173  1.2187  0.4173
 6437SOL    HW230945   0.076   4.439  11.018 -2.7419 -1.8338 -1.3687
 6438SOL     OW30946   0.223   2.794   1.707 -0.5887 -0.1914 -0.3557
 6438SOL    HW130947   0.196   2.859   1.642 -2.1840 -0.3039  0.1932
 6438SOL    HW230948   0.249   2.859   1.772 -1.1791 -1.3514  1.0360
 6439SOL     OW30949   0.413   0.329  17.685  0.1033  0.3428  0.4992
 6439SOL    HW130950   0.499   0.293  17.705  0.7259  0.7160 -1.4856
 6439SOL    HW230951   0.346   0.294   0.001  0.8057  1.6636  2.0814
 6440SOL     OW30952   4.648   3.246   7.877 -0.0019  0.2652  0.0458
 6440SOL    HW130953   4.728   3.295   7.856 -0.6173  0.7949 -1.1296
 6440SOL    HW230954   4.684   3.164   7.909 -1.0298  0.2993  1.2929
 6441SOL     OW30955   4.517   2.910   5.438  0.3300 -0.0391  0.4742
 6441SOL    HW130956   4.562   2.987   5.405  0.0466 -0.2073 -0.3128
 6441SOL    HW230957   4.435   2.919   5.389  1.6341 -1.0189 -1.9223
 6442SOL     OW30958   4.569   0.723   4.506  0.1176 -0.2049 -0.3921
 6442SOL    HW130959   4.477   0.700   4.494 -0.5796  2.1018  0.4608
 6442SOL    HW230960   4.576   0.818   4.497  0.3728 -0.1650  0.2171
 6443SOL     OW30961   0.501   4.377  15.919  0.2794 -0.1838  0.1036
 6443SOL    HW130962   0.485   4.447  15.982 -2.2747 -0.7137  0.0558
 6443SOL    HW230963   0.594   4.374  15.941  0.0950  2.6809  1.2816
 6444SOL     OW30964   2.809   0.459  10.313  0.0002  0.5154 -0.2319
 6444SOL    HW130965   2.868   0.534  10.321 -1.0047  1.4142 -1.1140
 6444SOL    HW230966   2.838   0.427  10.228 -0.0501  1.2470 -0.5248
 6445SOL     OW30967   0.201   3.015   9.084 -0.3887 -0.0957 -0.1969
 6445SOL    HW130968   0.129   3.078   9.097 -0.5406  0.1615 -2.2547
 6445SOL    HW230969   0.277   3.065   9.113  0.6118 -1.1855 -0.9632
 6446SOL     OW30970   2.401   0.122  14.952  0.4225 -0.0852  0.0548
 6446SOL    HW130971   2.308   0.125  14.930  0.2499  1.3767  0.9679
 6446SOL    HW230972   2.443   0.144  14.869 -2.0985  1.4491 -0.8070
 6447SOL     OW30973   4.206   0.795   3.741 -0.1526 -0.0256 -0.0179
 6447SOL    HW130974   4.235   0.848   3.667  2.2528 -0.2945  0.7230
 6447SOL    HW230975   4.281   0.735   3.746  1.0263  1.5451  1.6094
 6448SOL     OW30976   1.449   4.140   4.976  0.1452 -0.1036  0.1468
 6448SOL    HW130977   1.464   4.208   4.910 -0.6393 -0.7443 -0.6871
 6448SOL    HW230978   1.438   4.197   5.052  2.5588 -1.0909  1.2356
 6449SOL     OW30979   2.954   1.166  13.173 -0.2599  0.2795 -1.0020
 6449SOL    HW130980   3.025   1.106  13.198 -0.4245  0.2428 -0.6391
 6449SOL    HW230981   3.012   1.239  13.154 -0.3833  0.3293 -1.1856
 6450SOL     OW30982   2.688   1.047   2.571  0.1462  0.1871  0.1588
 6450SOL    HW130983   2.593   1.043   2.569  0.1747 -0.1224 -0.8646
 6450SOL    HW230984   2.708   1.106   2.498  2.1722  1.0047  1.3726
 6451SOL     OW30985   3.335   1.428   8.369 -0.0427 -0.3963  0.4959
 6451SOL    HW130986   3.262   1.454   8.425 -1.4712 -1.7885 -0.6904
 6451SOL    HW230987   3.288   1.375   8.304  0.0827  0.5946 -0.4076
 6452SOL     OW30988   4.670   0.590   4.748 -0.5579 -0.7320 -0.2040
 6452SOL    HW130989   0.027   0.604   4.733 -0.4795  1.0287  1.8870
 6452SOL    HW230990   4.629   0.647   4.683  0.2231 -0.1379 -0.1698
 6453SOL     OW30991   1.093   3.920   5.181  0.5187  0.2982 -0.2687
 6453SOL    HW130992   1.031   3.989   5.205 -0.0577 -0.3490  0.0743
 6453SOL    HW230993   1.060   3.851   5.238  0.7675 -0.8671 -1.5271
 6454SOL     OW30994   2.158   0.835  12.071 -0.3549 -0.3540 -0.6390
 6454SOL    HW130995   2.146   0.927  12.047  1.9850  0.2727  0.6591
 6454SOL    HW230996   2.129   0.828  12.162 -0.3405  0.0708 -0.6026
 6455SOL     OW30997   2.689   2.256   3.397 -0.5250 -0.0399 -0.3767
 6455SOL    HW130998   2.733   2.171   3.398 -1.4805 -0.5594 -1.9152
 6455SOL    HW230999   2.740   2.299   3.465 -2.0053  0.0653  0.6602
 6456SOL     OW31000   1.303   1.652  12.888 -0.2735  0.4400  0.2610
 6456SOL    HW131001   1.373   1.659  12.823  2.4715 -1.3072  3.0648
 6456SOL    HW231002   1.315   1.742  12.919  0.1832 -0.8344  3.8264
 6457SOL     OW31003   0.618   2.090  11.694 -0.2271 -0.5010  0.5307
 6457SOL    HW131004   0.533   2.059  11.722  0.1523 -1.0584  1.0621
 6457SOL    HW231005   0.663   2.011  11.662 -1.7699 -2.4616  3.2281
 6458SOL     OW31006   2.249   0.399   6.631  0.3790  0.5216 -0.3289
 6458SOL    HW131007   2.266   0.410   6.725  1.4125 -3.3550 -0.0307
 6458SOL    HW231008   2.323   0.341   6.613  0.5670  0.2095  1.3959
 6459SOL     OW31009   1.901   4.535   3.494 -0.0074  0.3199 -0.1034
 6459SOL    HW131010   1.806   4.546   3.505 -0.0269  0.1771 -0.1279
 6459SOL    HW231011   1.941   4.622   3.488  0.3811  0.2733  1.9759
 6460SOL     OW31012   2.278   2.499   0.826 -0.2436 -0.2312  0.4524
 6460SOL    HW131013   2.366   2.524   0.856 -0.2505 -0.3193  0.5478
 6460SOL    HW231014   2.253   2.581   0.783 -1.7915 -0.7534  0.3692
 6461SOL     OW31015   0.264   3.818   9.302  0.4162 -0.5730 -0.6271
 6461SOL    HW131016   0.210   3.870   9.362  2.8497  0.2749  0.8667
 6461SOL    HW231017   0.299   3.759   9.369  1.6243  2.4968  1.4565
 6462SOL     OW31018   2.800   4.447   4.288 -0.1498  0.7007  0.1312
 6462SOL    HW131019   2.847   4.450   4.372  1.9691  2.3351 -1.1199
 6462SOL    HW231020   2.844   4.516   4.238 -1.2614  0.3201 -1.3612
 6463SOL     OW31021   3.179   3.025  15.396 -0.0357 -0.0700  0.3808
 6463SOL    HW131022   3.144   3.030  15.307 -0.6916 -1.3069  0.5666
 6463SOL    HW231023   3.222   3.111  15.395 -1.2575  0.5592  1.7341
 6464SOL     OW31024   2.568   0.582  13.784  0.1533 -0.4286  0.3132
 6464SOL    HW131025   2.549   0.655  13.843 -2.5755  0.1164 -1.2908
 6464SOL    HW231026   2.497   0.596  13.723  1.3482 -1.3279 -1.2832
 6465SOL     OW31027   0.855   0.693  13.519  0.4700  0.2483  0.3807
 6465SOL    HW131028   0.848   0.690  13.614  0.4633  0.2937  0.3814
 6465SOL    HW231029   0.792   0.755  13.480  0.6660  0.7653  0.8976
 6466SOL     OW31030   2.866   0.003   6.219 -0.9777  0.4389 -0.1952
 6466SOL    HW131031   2.910   0.022   6.136  1.9254  2.5739  1.8200
 6466SOL    HW231032   2.935   4.712   6.279 -2.2298 -2.6626 -0.1526
 6467SOL     OW31033   0.221   4.541   2.040 -0.0043 -0.5464 -0.5151
 6467SOL    HW131034   0.187   4.502   1.959  0.1956  0.9805 -1.3405
 6467SOL    HW231035   0.315   4.540   2.018  0.1761  1.4886  0.1589
 6468SOL     OW31036   4.705   0.550   0.304 -0.4855  0.3809 -0.0074
 6468SOL    HW131037   0.062   0.570   0.299 -0.7218  1.3129 -0.7270
 6468SOL    HW231038   4.679   0.609   0.375 -0.9612 -1.4396  1.3299
 6469SOL     OW31039   4.276   1.520   5.136  0.1992 -0.1911 -0.4431
 6469SOL    HW131040   4.342   1.484   5.195 -0.0740  0.5275  0.3095
 6469SOL    HW231041   4.288   1.449   5.073  1.3088 -1.4065  1.1359
 6470SOL     OW31042   2.904   4.001   9.825 -0.6892 -0.3011 -0.5798
 6470SOL    HW131043   2.912   4.094   9.804 -3.8413 -0.7902 -3.9072
 6470SOL    HW231044   2.809   4.000   9.841 -1.0644  0.0633 -2.8834
 6471SOL     OW31045   0.833   4.711   2.191 -0.6481 -0.0670  0.0035
 6471SOL    HW131046   0.758   4.664   2.228 -3.1610  3.9858 -0.0404
 6471SOL    HW231047   0.818   0.063   2.225  1.9469  1.0416 -1.6796
 6472SOL     OW31048   3.503   3.209   8.098  0.1155  0.2781 -0.5111
 6472SOL    HW131049   3.553   3.175   8.024  1.0637 -0.2380  0.3668
 6472SOL    HW231050   3.563   3.210   8.172  2.2809 -0.2424 -2.2817
 6473SOL     OW31051   1.861   2.079  17.071  0.3284  0.0001 -0.1639
 6473SOL    HW131052   1.802   2.153  17.055  1.5999  1.5248  2.2455
 6473SOL    HW231053   1.849   2.021  16.996  1.4512  1.4790 -1.5191
 6474SOL     OW31054   0.620   0.952   8.275  0.2795  0.3280 -0.0229
 6474SOL    HW131055   0.558   0.932   8.204 -1.5461  0.2331  1.5937
 6474SOL    HW231056   0.559   0.941   8.348  1.2511  2.2723  1.0609
 6475SOL     OW31057   2.585   3.450   0.893 -0.5751  0.6654  0.0487
 6475SOL    HW131058   2.575   3.532   0.941  1.5853 -0.0861  1.7815
 6475SOL    HW231059   2.540   3.464   0.810 -0.1408  0.9375 -0.1371
 6476SOL     OW31060   3.840   1.115   1.198  0.2748 -0.2027  0.3598
 6476SOL    HW131061   3.810   1.083   1.283 -1.0733 -0.2192 -0.1352
 6476SOL    HW231062   3.914   1.169   1.229 -1.5466  2.2421  0.4838
 6477SOL     OW31063   4.323   2.777   5.876  0.4922 -0.3001 -0.4316
 6477SOL    HW131064   4.415   2.760   5.896  0.7662 -0.4823 -1.8843
 6477SOL    HW231065   4.313   2.724   5.797  3.1763  0.6275 -1.4009
 6478SOL     OW31066   3.324   0.120  15.365  0.3916  0.1453  0.6214
 6478SOL    HW131067   3.281   0.196  15.402 -0.4553  0.3914 -0.8451
 6478SOL    HW231068   3.376   0.154  15.292 -1.1164 -0.7703 -0.8845
 6479SOL     OW31069   3.307   4.302  16.346  1.0103 -0.1084  0.1065
 6479SOL    HW131070   3.268   4.388  16.334  1.8543  0.4081  1.0971
 6479SOL    HW231071   3.278   4.263  16.428  1.2243 -0.7260 -0.1056
 6480SOL     OW31072   4.083   1.016   9.860  0.1859  0.2398 -0.2887
 6480SOL    HW131073   4.055   0.931   9.826 -1.2333  0.3441  0.5896
 6480SOL    HW231074   4.000   1.046   9.898  0.6723 -0.9286  1.6939
 6481SOL     OW31075   1.514   4.511   3.108  0.2090  0.4468 -0.0248
 6481SOL    HW131076   1.477   4.423   3.101 -0.4183  0.6282  1.0111
 6481SOL    HW231077   1.457   4.541   3.179 -1.3591  2.0806 -1.9858
 6482SOL     OW31078   0.226   1.012   5.333  0.1402  0.4621 -0.1546
 6482SOL    HW131079   0.246   0.999   5.426 -0.1502 -1.8039 -0.4008
 6482SOL    HW231080   0.312   1.042   5.303  0.7975  0.1663  1.3848
 6483SOL     OW31081   1.159   1.859   6.915  0.4604  0.1131  0.0675
 6483SOL    HW131082   1.121   1.784   6.959  0.6777 -0.1516 -0.1974
 6483SOL    HW231083   1.135   1.854   6.823 -2.4728 -0.2016  0.8528
 6484SOL     OW31084   0.161   4.521   5.882 -0.3199  0.2595  0.8222
 6484SOL    HW131085   0.081   4.569   5.861  1.5283  2.3823 -1.3405
 6484SOL    HW231086   0.169   4.481   5.795 -0.1082  0.1071  0.9120
 6485SOL     OW31087   3.912   2.929   7.841 -0.4617  0.0611 -0.4604
 6485SOL    HW131088   3.868   2.895   7.764 -0.0799  0.0625 -0.6804
 6485SOL    HW231089   3.993   2.949   7.793  0.0861 -0.8351  0.0971
 6486SOL     OW31090   0.493   4.628   1.906 -0.1764 -0.4146 -0.6799
 6486SOL    HW131091   0.586   4.621   1.884 -0.7539 -0.8448 -2.9863
 6486SOL    HW231092   0.477   4.701   1.846 -0.2851  1.0556  1.1297
 6487SOL     OW31093   2.314   1.760   3.343 -0.3382  0.2531  0.0209
 6487SOL    HW131094   2.345   1.831   3.287 -1.3441 -0.6474 -1.6698
 6487SOL    HW231095   2.316   1.803   3.428 -0.9986 -0.9217  0.6330
 6488SOL     OW31096   3.767   0.481   2.144 -0.5034  0.0284 -0.7302
 6488SOL    HW131097   3.819   0.527   2.078 -0.9943  0.6885 -0.6538
 6488SOL    HW231098   3.805   0.393   2.140 -1.7432 -0.5071 -0.9562
 6489SOL     OW31099   1.220   2.031   8.101  0.0578 -0.2504  0.4947
 6489SOL    HW131100   1.214   1.983   8.184  0.4624 -1.0407  0.0594
 6489SOL    HW231101   1.279   2.097   8.136 -0.1256  0.5207 -0.6633
 6490SOL     OW31102   2.785   3.472   2.855 -0.4093  0.4603  0.4292
 6490SOL    HW131103   2.728   3.397   2.874 -0.3143  0.5372  1.0044
 6490SOL    HW231104   2.718   3.541   2.851  0.0689  0.9185  0.3251
 6491SOL     OW31105   2.422   4.179   7.650  0.2469 -0.2550  0.4333
 6491SOL    HW131106   2.395   4.232   7.724 -0.3169 -0.5398  0.4314
 6491SOL    HW231107   2.384   4.093   7.669  1.3465 -1.2163 -1.7204
 6492SOL     OW31108   0.034   3.546  14.657 -0.0879  0.1340  0.3374
 6492SOL    HW131109   0.045   3.603  14.733  1.3789  0.9082 -0.4399
 6492SOL    HW231110   0.099   3.478  14.676  0.5067  0.9545  1.1889
 6493SOL     OW31111   4.267   1.249  14.418  0.5464 -1.0663  0.2343
 6493SOL    HW131112   4.269   1.215  14.329  1.7963 -2.5977  0.8548
 6493SOL    HW231113   4.173   1.260  14.430  0.7916  0.5711  0.6814
 6494SOL     OW31114   2.189   0.237   2.992  0.2869  0.2417  0.5193
 6494SOL    HW131115   2.253   0.166   2.989 -2.5222 -2.2908  0.3449
 6494SOL    HW231116   2.201   0.271   3.081 -1.4539 -0.7293  1.1216
 6495SOL     OW31117   3.610   4.686   9.127 -0.1519  0.0306  0.3146
 6495SOL    HW131118   3.653   0.000   9.058  2.1641  0.4193  2.0451
 6495SOL    HW231119   3.545   4.631   9.083  0.3247  1.1603 -1.8108
 6496SOL     OW31120   0.685   0.587   8.899  0.3026 -0.0861  0.0686
 6496SOL    HW131121   0.615   0.651   8.890 -0.1584 -0.4809  0.8491
 6496SOL    HW231122   0.756   0.647   8.877  0.5775 -1.1645 -1.9972
 6497SOL     OW31123   1.986   2.860  10.931 -0.1846 -0.3843  0.2225
 6497SOL    HW131124   1.938   2.927  10.881  1.1383 -0.2293 -0.8316
 6497SOL    HW231125   1.907   2.819  10.967 -0.8328  0.1836 -0.5448
 6498SOL     OW31126   3.724   1.037   5.919  0.3166  0.0280  0.1659
 6498SOL    HW131127   3.784   1.097   5.963  0.8395  0.0999 -0.6474
 6498SOL    HW231128   3.747   1.036   5.826 -1.0450  0.2512 -0.1838
 6499SOL     OW31129   3.971   4.318   6.142  0.3776  0.7230  0.4649
 6499SOL    HW131130   4.027   4.253   6.101  0.4371 -0.0378  1.7289
 6499SOL    HW231131   4.005   4.348   6.226  0.4739  0.0505  0.6677
 6500SOL     OW31132   2.016   1.023   8.501 -0.0332  0.6734 -0.3924
 6500SOL    HW131133   1.977   1.027   8.588  0.4717 -0.3049 -0.1203
 6500SOL    HW231134   2.085   0.962   8.527 -1.4029 -0.3024  0.9525
 6501SOL     OW31135   3.372   4.649   5.476 -0.6353 -0.5054 -0.3624
 6501SOL    HW131136   3.291   4.676   5.432 -0.0852  0.9777 -0.4478
 6501SOL    HW231137   3.362   4.557   5.503  1.9090 -0.0103  2.2724
 6502SOL     OW31138   2.553   3.568   1.141 -0.4667  0.4784  0.2909
 6502SOL    HW131139   2.642   3.585   1.172 -0.7713  0.4338  1.1903
 6502SOL    HW231140   2.512   3.654   1.153 -1.7071 -0.1353  0.4920
 6503SOL     OW31141   3.233   3.689   7.599 -0.1462 -0.3164 -0.8367
 6503SOL    HW131142   3.195   3.749   7.535  1.1468  2.8974  1.3990
 6503SOL    HW231143   3.150   3.653   7.630 -0.5230  2.5885  1.5307
 6504SOL     OW31144   1.620   2.998   6.580  0.6684  0.2690 -0.3317
 6504SOL    HW131145   1.634   2.958   6.665 -0.8833  0.3430 -0.0363
 6504SOL    HW231146   1.641   3.091   6.592  0.7579  0.6095 -3.0091
 6505SOL     OW31147   3.343   0.134   9.706  0.1377  0.3439  0.6341
 6505SOL    HW131148   3.372   0.183   9.629  0.7308 -0.2840  0.4510
 6505SOL    HW231149   3.427   0.103   9.740  0.1840  0.4817  0.6425
 6506SOL     OW31150   3.239   0.528   2.939  0.3681 -0.2900  0.5080
 6506SOL    HW131151   3.262   0.550   2.849 -0.7034 -1.4510 -0.0528
 6506SOL    HW231152   3.323   0.548   2.979  0.1371 -1.3360  1.5350
 6507SOL     OW31153   0.675   3.132   5.691 -0.1134 -0.8489  0.1066
 6507SOL    HW131154   0.745   3.099   5.634  0.6649  3.1029 -1.1939
 6507SOL    HW231155   0.719   3.184   5.758  0.5032 -0.9688 -0.2107
 6508SOL     OW31156   0.208   1.762   5.787  0.2463  0.2924 -0.3319
 6508SOL    HW131157   0.135   1.823   5.774  0.1938  0.2385 -0.2861
 6508SOL    HW231158   0.235   1.754   5.695 -1.9367  0.4755 -0.9855
 6509SOL     OW31159   4.015   2.288   6.052  0.0204 -0.5400 -0.1904
 6509SOL    HW131160   4.065   2.214   6.087 -0.2540 -1.3388 -1.4979
 6509SOL    HW231161   3.951   2.240   6.001 -0.2839 -0.0278 -0.2859
 6510SOL     OW31162   2.426   1.009   2.539 -0.0951  0.2760 -1.1994
 6510SOL    HW131163   2.352   1.066   2.561  0.2051 -0.0717  0.6771
 6510SOL    HW231164   2.401   0.943   2.603  0.1687  2.5250  1.2173
 6511SOL     OW31165   4.139   3.364   3.295  0.0223 -0.0787  0.7389
 6511SOL    HW131166   4.045   3.376   3.284  0.4777  0.2738 -2.7907
 6511SOL    HW231167   4.144   3.334   3.385 -0.8478 -1.4787  0.3138
 6512SOL     OW31168   3.657   1.569  12.393  0.3185  0.3574 -0.2178
 6512SOL    HW131169   3.747   1.543  12.371  0.5178  1.5836 -0.8321
 6512SOL    HW231170   3.613   1.484  12.397 -0.6649  0.9112  0.7171
 6513SOL     OW31171   4.343   3.529   6.760  0.4924 -0.1424 -0.1244
 6513SOL    HW131172   4.379   3.598   6.816 -1.5913  0.8980 -0.0514
 6513SOL    HW231173   4.292   3.590   6.706  3.0076  0.9392 -1.3076
 6514SOL     OW31174   1.281   1.349   1.050 -0.6473 -0.3632  0.0805
 6514SOL    HW131175   1.186   1.344   1.060 -0.8424  0.3054 -1.4928
 6514SOL    HW231176   1.303   1.359   1.143 -2.2882  2.3637  0.1728
 6515SOL     OW31177   2.185   1.963   1.810  0.7427 -0.2946 -0.1040
 6515SOL    HW131178   2.179   1.891   1.872 -0.7072  1.1285  1.3756
 6515SOL    HW231179   2.278   1.967   1.784  1.1572  1.1572  1.6298
 6516SOL     OW31180   0.936   4.137   5.613 -0.1852  0.4699 -0.0023
 6516SOL    HW131181   0.869   4.180   5.560  0.2206 -2.1197 -2.5540
 6516SOL    HW231182   0.951   4.193   5.689  0.8803  0.7952 -0.4471
 6517SOL     OW31183   4.550   3.820   5.712 -0.1420  0.2862  0.0311
 6517SOL    HW131184   4.598   3.902   5.700  1.6514 -0.5632  1.4647
 6517SOL    HW231185   4.489   3.829   5.639  2.2405 -0.5598 -2.0190
 6518SOL     OW31186   2.569   1.631   7.443  0.0957 -0.2777  0.2655
 6518SOL    HW131187   2.627   1.621   7.368 -0.8452 -0.1307 -0.4829
 6518SOL    HW231188   2.623   1.668   7.513  0.0705  0.1824  0.0471
 6519SOL     OW31189   0.803   0.261  14.571 -0.5827  0.5528 -0.0128
 6519SOL    HW131190   0.721   0.211  14.568 -0.1474 -0.1493 -0.3142
 6519SOL    HW231191   0.861   0.199  14.616 -0.9460  1.2291  1.3741
 6520SOL     OW31192   0.756   2.059   6.399  0.1629  0.1303  0.9679
 6520SOL    HW131193   0.787   2.059   6.489 -2.4535  1.5710  1.8597
 6520SOL    HW231194   0.667   2.026   6.407 -0.1557 -0.0773 -3.2425
 6521SOL     OW31195   0.336   4.473   1.266 -0.0932 -0.2696  0.0519
 6521SOL    HW131196   0.427   4.448   1.255 -0.2467 -1.8020  2.3983
 6521SOL    HW231197   0.347   4.510   1.353  0.0316  1.0708 -0.5342
 6522SOL     OW31198   3.498   3.103   7.451  0.2123  0.1820 -0.6350
 6522SOL    HW131199   3.454   3.170   7.399 -0.3689  0.6910  0.5024
 6522SOL    HW231200   3.441   3.089   7.527  0.5537 -1.9985 -0.7861
 6523SOL     OW31201   2.146   0.123   8.497 -0.2001 -0.0083  0.3681
 6523SOL    HW131202   2.064   0.115   8.545 -0.8976 -0.8740 -0.9493
 6523SOL    HW231203   2.113   0.121   8.407  1.7281  2.5540 -0.3886
 6524SOL     OW31204   2.208   3.142   8.677  0.4725 -0.2445  0.5425
 6524SOL    HW131205   2.246   3.153   8.765 -0.5038 -0.1468  0.9466
 6524SOL    HW231206   2.115   3.150   8.696  0.0663 -0.3445 -1.4364
 6525SOL     OW31207   3.423   0.870  12.055  0.5516  0.1878  0.4669
 6525SOL    HW131208   3.338   0.860  12.097  1.6023 -2.0164  2.0726
 6525SOL    HW231209   3.439   0.790  12.004 -3.2983 -0.5959  0.4985
 6526SOL     OW31210   1.886   4.719   5.163  0.2873  0.1212  0.2460
 6526SOL    HW131211   1.827   4.663   5.214  1.0959 -1.7004 -0.8430
 6526SOL    HW231212   1.870   0.067   5.207  0.8550  0.0013  0.6800
 6527SOL     OW31213   1.127   1.125   0.883 -0.1236 -0.2496 -0.3408
 6527SOL    HW131214   1.045   1.151   0.926 -0.5331 -3.0014  0.5508
 6527SOL    HW231215   1.179   1.205   0.892  0.9168 -0.9717  0.0995
 6528SOL     OW31216   1.398   0.292  17.166  0.3231 -0.3219  0.0905
 6528SOL    HW131217   1.365   0.372  17.125 -0.4800 -1.4402 -1.4000
 6528SOL    HW231218   1.482   0.309  17.210 -0.0938  2.6628 -0.2734
 6529SOL     OW31219   3.878   4.130   7.178  0.3387 -0.4256  0.0289
 6529SOL    HW131220   3.856   4.191   7.249 -3.2020  0.2419 -1.6623
 6529SOL    HW231221   3.892   4.048   7.225  0.4770 -0.8602 -0.7719
 6530SOL     OW31222   3.039   1.325   0.371 -0.0546 -0.0778 -0.1961
 6530SOL    HW131223   3.069   1.361   0.454 -0.6983  0.4970 -0.2192
 6530SOL    HW231224   3.081   1.239   0.371  0.9849  0.4331  1.5049
 6531SOL     OW31225   0.796   0.493   7.425  0.1028  0.6934  0.0233
 6531SOL    HW131226   0.703   0.503   7.406 -0.0961 -4.0130 -1.4045
 6531SOL    HW231227   0.833   0.575   7.392  2.6478 -1.1614 -1.6931
 6532SOL     OW31228   2.175   1.429   7.259  0.1888 -0.6393 -0.0481
 6532SOL    HW131229   2.131   1.360   7.308 -1.4990  1.0051  0.7258
 6532SOL    HW231230   2.157   1.514   7.298 -3.7060 -2.1602  1.4422
 6533SOL     OW31231   3.404   3.693   2.320  0.5556 -0.2440 -0.4311
 6533SOL    HW131232   3.467   3.765   2.312  1.3149 -0.9634 -0.9242
 6533SOL    HW231233   3.434   3.657   2.404  1.1924  0.8649 -0.1787
 6534SOL     OW31234   1.112   4.336  17.416 -0.0327  0.1749  0.9655
 6534SOL    HW131235   1.092   4.377  17.332  1.0600  1.5998  1.4081
 6534SOL    HW231236   1.028   4.339  17.462 -0.1614 -2.0771  0.8801
 6535SOL     OW31237   3.795   2.388   8.850 -0.2758 -0.0138 -0.2271
 6535SOL    HW131238   3.760   2.448   8.917 -3.0874 -0.7772 -1.0463
 6535SOL    HW231239   3.823   2.313   8.903  0.1053 -0.2893 -0.8230
 6536SOL     OW31240   1.344   1.382  17.442 -0.4894  0.0107 -0.4388
 6536SOL    HW131241   1.294   1.404  17.520 -0.9219 -1.7961 -0.1960
 6536SOL    HW231242   1.354   1.287  17.445 -1.0200 -0.0684 -1.3183
 6537SOL     OW31243   0.014   1.726   6.068  0.1699 -0.1038 -0.4128
 6537SOL    HW131244   0.020   1.781   5.990 -0.4553  0.7642  0.1474
 6537SOL    HW231245   0.067   1.650   6.045 -0.1631 -0.3706 -0.3034
 6538SOL     OW31246   4.231   1.571  15.131  0.6085  0.0986  0.1843
 6538SOL    HW131247   4.148   1.536  15.099  1.7611 -1.4632 -1.1587
 6538SOL    HW231248   4.199   1.640  15.189 -0.9522 -0.6965  0.2610
 6539SOL     OW31249   2.468   3.984   1.917 -0.4655 -0.1070 -0.1430
 6539SOL    HW131250   2.404   3.922   1.881  0.4341 -1.3203  0.3619
 6539SOL    HW231251   2.509   3.945   1.994  0.0140 -2.2989 -1.4912
 6540SOL     OW31252   0.108   0.056   2.196  0.3488  0.3828  0.4335
 6540SOL    HW131253   0.024   0.013   2.180 -0.4184  1.5698  1.2251
 6540SOL    HW231254   0.168   0.008   2.140  1.7679  1.9420  0.6278
 6541SOL     OW31255   4.119   0.290   2.381 -0.0239  0.1311 -0.4133
 6541SOL    HW131256   4.205   0.328   2.367  1.3153 -1.6125  2.8464
 6541SOL    HW231257   4.148   0.209   2.425 -3.0932 -0.8014 -0.0251
 6542SOL     OW31258   1.808   3.030   1.744 -0.3694  0.4082  0.7372
 6542SOL    HW131259   1.858   2.959   1.706 -0.9232  0.5958 -0.3607
 6542SOL    HW231260   1.738   2.979   1.785  0.5022 -0.1328  1.5195
 6543SOL     OW31261   0.810   0.597   4.839 -0.0988 -0.1980  0.5406
 6543SOL    HW131262   0.843   0.521   4.791  0.7473  0.1640  0.5420
 6543SOL    HW231263   0.728   0.600   4.789  0.2905 -2.2453 -0.1987
 6544SOL     OW31264   1.145   0.467   3.471 -0.5457 -0.3586  0.3440
 6544SOL    HW131265   1.197   0.534   3.427 -0.6341 -0.5359 -0.0299
 6544SOL    HW231266   1.200   0.389   3.474 -1.1746 -0.7652  1.5369
 6545SOL     OW31267   0.829   2.960   5.419 -0.0299  0.1277  0.1052
 6545SOL    HW131268   0.874   3.044   5.422  1.3035 -0.4750 -3.1454
 6545SOL    HW231269   0.896   2.918   5.473 -0.2451 -2.3923 -1.5926
 6546SOL     OW31270   1.725   1.810   3.743  0.5005  0.8902  1.0590
 6546SOL    HW131271   1.743   1.750   3.671 -0.9571  1.5004  0.1793
 6546SOL    HW231272   1.632   1.813   3.723  1.0109  0.6637 -1.3821
 6547SOL     OW31273   4.230   0.342   5.326  0.2969  0.7517 -0.4480
 6547SOL    HW131274   4.168   0.303   5.264 -1.2505 -2.2534  2.9934
 6547SOL    HW231275   4.246   0.429   5.289  2.9347 -0.1649 -1.5004
 6548SOL     OW31276   1.989   4.393  16.564 -0.1869 -0.2505 -0.2582
 6548SOL    HW131277   1.980   4.448  16.642  0.6752  0.8307 -0.9163
 6548SOL    HW231278   1.897   4.384  16.539 -0.1066 -1.5804 -0.1065
 6549SOL     OW31279   2.985   3.113   7.589  0.4610 -0.1925  0.3930
 6549SOL    HW131280   3.074   3.144   7.574 -0.8410  2.8230 -0.9851
 6549SOL    HW231281   2.995   3.018   7.603  0.2407 -0.2184  0.3727
 6550SOL     OW31282   3.229   1.595   8.641 -0.4428  0.5050 -0.3199
 6550SOL    HW131283   3.149   1.547   8.622 -0.2934 -0.2724  1.0000
 6550SOL    HW231284   3.231   1.590   8.736 -0.5713  0.0693 -0.3388
 6551SOL     OW31285   0.041   4.426   1.846  0.2586  0.7695  0.7786
 6551SOL    HW131286   4.715   4.423   1.773  0.2737 -0.0301  0.7961
 6551SOL    HW231287   4.736   4.363   1.905  0.3191 -0.2421 -0.2752
 6552SOL     OW31288   4.598   3.920  12.336  0.7141 -0.1106 -0.4991
 6552SOL    HW131289   4.596   3.830  12.369 -1.3064  0.7781  1.7469
 6552SOL    HW231290   4.682   3.911  12.291  0.3438  1.8798 -1.6232
 6553SOL     OW31291   1.864   2.146   0.730 -0.1961 -0.2173 -0.6692
 6553SOL    HW131292   1.933   2.087   0.701 -1.4134 -1.7625 -0.4272
 6553SOL    HW231293   1.898   2.193   0.806  0.7632 -0.3508 -1.0278
 6554SOL     OW31294   1.704   0.697  12.957  0.5973  0.0163  0.3339
 6554SOL    HW131295   1.706   0.611  12.916 -1.1358 -0.3457  1.0124
 6554SOL    HW231296   1.623   0.742  12.932  1.1239  0.9166  0.2707
 6555SOL     OW31297   0.700   0.291   5.059 -0.1739 -0.1631  0.3027
 6555SOL    HW131298   0.734   0.248   4.980 -1.4302 -0.7791  0.1087
 6555SOL    HW231299   0.653   0.219   5.100 -0.3237  1.5192  3.0882
 6556SOL     OW31300   4.058   3.799   5.006 -0.2742 -0.6238 -0.3087
 6556SOL    HW131301   4.038   3.705   5.005 -1.5878 -0.3824  2.7006
 6556SOL    HW231302   3.979   3.835   4.966  0.5764  0.9887 -0.5276
 6557SOL     OW31303   4.663   0.949   2.094 -0.1997  0.4832 -0.6060
 6557SOL    HW131304   4.633   1.036   2.119  1.2552  0.2167  2.0069
 6557SOL    HW231305   4.590   0.887   2.102 -1.0208  1.7166  1.4057
 6558SOL     OW31306   1.949   0.830   3.200  0.5672  0.4770 -0.4081
 6558SOL    HW131307   1.960   0.737   3.220  0.0356  0.2897 -0.9881
 6558SOL    HW231308   1.870   0.836   3.146 -1.1277  0.4988  2.0561
 6559SOL     OW31309   0.813   3.594   5.191  0.0658  0.3715  0.3561
 6559SOL    HW131310   0.838   3.594   5.099 -1.8755 -3.2789 -0.2025
 6559SOL    HW231311   0.763   3.512   5.194 -1.2201  1.1736  0.8298
 6560SOL     OW31312   0.859   2.344  10.553 -0.1322  0.6239 -0.0168
 6560SOL    HW131313   0.786   2.304  10.506  0.5979 -0.2689 -0.3761
 6560SOL    HW231314   0.818   2.414  10.605  1.0029  1.8042 -0.6978
 6561SOL     OW31315   3.279   1.514  13.973  0.1474 -0.6517  0.1663
 6561SOL    HW131316   3.191   1.499  13.940  0.7100  0.2959 -1.7235
 6561SOL    HW231317   3.299   1.606  13.956  2.9755 -1.0017  1.5708
 6562SOL     OW31318   3.213   1.580   8.899 -0.2624  0.6278 -0.3325
 6562SOL    HW131319   3.179   1.667   8.920 -0.3673  0.5709 -0.2688
 6562SOL    HW231320   3.197   1.533   8.981  4.3442  0.7791  0.6622
 6563SOL     OW31321   3.268   3.306  11.896  0.2853  0.4713 -0.0179
 6563SOL    HW131322   3.261   3.394  11.933  0.3001  1.3479 -2.1453
 6563SOL    HW231323   3.194   3.265  11.940 -0.7311  2.8475  0.4720
 6564SOL     OW31324   0.099   4.199   9.982 -0.3020  0.1932 -0.5469
 6564SOL    HW131325   0.064   4.114  10.007  2.5780 -0.9114 -0.2414
 6564SOL    HW231326   0.168   4.206  10.047 -1.6127  0.3527  0.8260
 6565SOL     OW31327   3.232   3.146   6.219 -0.1105  0.1059 -0.6415
 6565SOL    HW131328   3.162   3.194   6.175 -0.1350 -0.4819 -1.2444
 6565SOL    HW231329   3.271   3.219   6.267 -0.4316 -1.2342  1.6577
 6566SOL     OW31330   0.896   1.348   2.458 -0.4539 -0.5322 -0.7225
 6566SOL    HW131331   0.848   1.409   2.514  0.2592  0.2199 -0.9296
 6566SOL    HW231332   0.891   1.272   2.516  1.5081 -0.2172 -0.1359
 6567SOL     OW31333   4.003   3.837   6.516  0.0690 -0.1038  0.7466
 6567SOL    HW131334   3.946   3.810   6.445  0.0450 -1.0241  1.1245
 6567SOL    HW231335   4.085   3.807   6.477  1.1221  1.6951  1.5531
 6568SOL     OW31336   4.523   4.533   1.914  0.1321  0.0225 -0.4127
 6568SOL    HW131337   4.581   4.544   1.990  1.8179 -1.7050 -1.4601
 6568SOL    HW231338   4.455   4.479   1.952 -0.9833  1.3380 -0.5336
 6569SOL     OW31339   4.530   3.479   6.244 -0.0331 -0.8757  0.4585
 6569SOL    HW131340   4.467   3.427   6.193 -0.6999  2.3022 -2.0002
 6569SOL    HW231341   4.618   3.461   6.211 -0.2968 -1.8265  0.2699
 6570SOL     OW31342   1.450   4.356   5.687  0.2320 -0.2540 -0.6349
 6570SOL    HW131343   1.514   4.341   5.618  2.3638 -0.4192  1.3816
 6570SOL    HW231344   1.382   4.290   5.677 -0.1688  0.0989 -0.2501
 6571SOL     OW31345   4.709   3.631   1.726 -0.0021 -0.4154  0.2827
 6571SOL    HW131346   4.727   3.677   1.808  0.1829  1.5809 -0.8843
 6571SOL    HW231347   0.043   3.647   1.663 -0.1959  0.6848  0.3464
 6572SOL     OW31348   0.561   4.561  11.452 -0.3399  1.0897  0.1415
 6572SOL    HW131349   0.599   4.521  11.375 -3.0601 -0.3599 -0.4512
 6572SOL    HW231350   0.486   4.609  11.416  0.3207  2.0074 -0.0262
 6573SOL     OW31351   1.327   2.920   1.976  0.3408  0.4515 -0.4037
 6573SOL    HW131352   1.269   2.856   1.935 -3.3189  1.4878  3.1409
 6573SOL    HW231353   1.267   2.950   2.044 -0.1761  1.9172 -1.5015
 6574SOL     OW31354   2.023   2.726   5.556  0.5508 -1.1913 -0.3413
 6574SOL    HW131355   1.939   2.736   5.601  0.5854 -0.6278 -0.4040
 6574SOL    HW231356   2.063   2.813   5.555 -2.0734 -0.0150 -2.2912
 6575SOL     OW31357   3.223   0.734   7.321  0.0987  0.1534 -0.8000
 6575SOL    HW131358   3.140   0.767   7.286 -1.1342 -0.0677  1.8748
 6575SOL    HW231359   3.186   0.661   7.370  0.2690 -0.3387 -1.4182
 6576SOL     OW31360   2.153   4.637   2.267  0.1874 -0.0630 -0.0835
 6576SOL    HW131361   2.217   4.567   2.279 -0.2708 -0.8344 -2.1560
 6576SOL    HW231362   2.154   4.687   2.349 -0.6052 -0.6912  0.3124
 6577SOL     OW31363   4.616   0.267   9.969  0.3532 -0.2012  0.2341
 6577SOL    HW131364   4.598   0.218   9.889  0.3249  1.0890 -0.5631
 6577SOL    HW231365   4.711   0.259   9.979  0.5090  3.6911  1.8639
 6578SOL     OW31366   3.314   4.050   7.013  0.1651 -0.0144  0.2856
 6578SOL    HW131367   3.328   4.023   6.922  1.3376  0.6668  0.2716
 6578SOL    HW231368   3.332   4.143   7.001 -0.5606  0.2150  0.9691
 6579SOL     OW31369   2.826   3.488  14.025 -0.5833  0.2164  0.3148
 6579SOL    HW131370   2.803   3.395  14.018  0.8005  0.0570 -2.1622
 6579SOL    HW231371   2.841   3.513  13.934  0.5269 -2.8419 -0.3647
 6580SOL     OW31372   2.108   0.018  17.260  0.1150  0.0973 -0.4924
 6580SOL    HW131373   2.096   0.066  17.178 -0.1493  1.4836  0.3725
 6580SOL    HW231374   2.046   0.067  17.313  1.8369 -0.7026  2.2607
 6581SOL     OW31375   4.476   1.875  16.752 -0.4936  0.4455  0.1198
 6581SOL    HW131376   4.568   1.867  16.727 -0.1910  0.5210  1.2495
 6581SOL    HW231377   4.427   1.882  16.670  1.4661 -0.0245 -1.0939
 6582SOL     OW31378   1.167   1.041  13.518  0.5613 -0.1302 -0.1021
 6582SOL    HW131379   1.161   1.112  13.454  4.0986 -1.9226 -2.3659
 6582SOL    HW231380   1.260   1.048  13.538  0.2372  0.0282  1.3443
 6583SOL     OW31381   2.116   1.527   7.971 -0.2763 -0.0903 -0.1806
 6583SOL    HW131382   2.025   1.553   7.978 -0.7341 -1.4705 -1.0109
 6583SOL    HW231383   2.142   1.501   8.060  1.9508 -1.4107 -1.2132
 6584SOL     OW31384   0.934   4.642   3.415  0.0385  0.5316 -0.2650
 6584SOL    HW131385   0.841   4.661   3.426 -0.6659 -3.3598  0.5186
 6584SOL    HW231386   0.946   4.697   3.337  2.0175  0.0562 -0.2944
 6585SOL     OW31387   4.156   3.043   2.482  0.0871  0.5954  0.0435
 6585SOL    HW131388   4.144   2.949   2.471 -0.0029  0.5511  0.5160
 6585SOL    HW231389   4.143   3.070   2.391  2.1728 -0.3107 -0.5191
 6586SOL     OW31390   2.065   3.037   2.809  1.0217  0.1693  0.1175
 6586SOL    HW131391   2.086   2.947   2.786 -2.3436 -0.5497 -0.2680
 6586SOL    HW231392   2.113   3.086   2.741  0.5871  0.9491  0.3713
 6587SOL     OW31393   4.725   3.665  14.896 -0.2452  0.4362 -0.2605
 6587SOL    HW131394   4.708   3.676  14.989  2.2723 -1.0229  0.3567
 6587SOL    HW231395   4.661   3.725  14.856 -1.7259  0.8923  2.8236
 6588SOL     OW31396   1.815   2.234   5.087 -0.5790  0.0582 -0.2789
 6588SOL    HW131397   1.842   2.289   5.014  0.2007 -0.0492 -0.0704
 6588SOL    HW231398   1.788   2.305   5.146 -0.0554  0.0628 -0.0447
 6589SOL     OW31399   3.535   4.717  16.084 -0.1771  0.4900 -0.0417
 6589SOL    HW131400   3.451   0.024  16.101  0.2843  1.1381  0.5892
 6589SOL    HW231401   3.519   4.673  16.001  3.5994  0.0033 -0.4768
 6590SOL     OW31402   2.866   3.781   2.213  0.7777 -0.2825  0.2795
 6590SOL    HW131403   2.947   3.734   2.238 -0.5520 -2.9349 -0.3501
 6590SOL    HW231404   2.858   3.775   2.118 -1.6672  0.7264  0.4250
 6591SOL     OW31405   1.209   2.885   8.098  0.0232 -0.8654 -0.4494
 6591SOL    HW131406   1.254   2.970   8.100  0.5292 -1.1029 -1.5577
 6591SOL    HW231407   1.121   2.918   8.080  0.6652  1.0464 -0.0370
 6592SOL     OW31408   2.894   1.927  11.791 -0.0510 -0.0106 -0.3163
 6592SOL    HW131409   2.864   1.944  11.880  0.1523  1.5380 -0.5450
 6592SOL    HW231410   2.859   1.841  11.769  3.2753 -1.2432 -0.8331
 6593SOL     OW31411   1.460   4.494   5.979  0.7155 -0.0093  0.3044
 6593SOL    HW131412   1.432   4.580   5.948  2.8531  1.1803  1.6196
 6593SOL    HW231413   1.479   4.454   5.895 -0.1005 -1.3562  0.7663
 6594SOL     OW31414   3.775   2.113  16.934  0.7196 -0.2330 -0.4390
 6594SOL    HW131415   3.837   2.173  16.976  0.5843  0.1244 -0.7474
 6594SOL    HW231416   3.804   2.027  16.964  1.5843  0.3019  0.2677
 6595SOL     OW31417   0.674   4.557   7.690 -0.0190 -0.2220 -0.1914
 6595SOL    HW131418   0.755   4.530   7.648 -0.6994 -1.6677 -0.5739
 6595SOL    HW231419   0.616   4.481   7.696 -0.9370  0.3875 -1.2126
 6596SOL     OW31420   3.168   2.269  13.160  0.2131  0.2022  0.0993
 6596SOL    HW131421   3.077   2.243  13.144 -0.2333  1.3609  0.8067
 6596SOL    HW231422   3.181   2.316  13.078 -1.2805  1.4730  0.5963
 6597SOL     OW31423   1.196   2.926   3.560 -0.0499  0.2931  0.5175
 6597SOL    HW131424   1.277   2.874   3.559 -0.2723 -0.0655  1.4312
 6597SOL    HW231425   1.164   2.918   3.470 -0.1718  0.7964  0.5166
 6598SOL     OW31426   2.940   2.964   5.364 -1.0730  1.0423 -0.0159
 6598SOL    HW131427   2.933   3.058   5.350  1.1143  1.1389 -0.5858
 6598SOL    HW231428   2.849   2.938   5.355  0.1096 -1.5367 -4.5194
 6599SOL     OW31429   3.247   2.222  11.704  0.5198 -0.0999 -0.1104
 6599SOL    HW131430   3.214   2.143  11.660  2.7298 -0.3686 -1.2841
 6599SOL    HW231431   3.181   2.232  11.773  1.1702 -1.9708  0.7554
 6600SOL     OW31432   0.431   1.271   3.756  0.5149  0.6359  0.6018
 6600SOL    HW131433   0.457   1.356   3.722 -0.8645  1.3215  1.2731
 6600SOL    HW231434   0.512   1.251   3.802  1.4339  0.2929 -1.1513
 6601SOL     OW31435   2.868   3.439   6.604 -0.5312 -0.4883 -0.0199
 6601SOL    HW131436   2.956   3.448   6.569 -0.1019  1.3277  1.5363
 6601SOL    HW231437   2.896   3.456   6.693 -2.4725  0.6447  0.3796
 6602SOL     OW31438   1.870   2.238   7.036 -0.6438 -0.1992 -0.6581
 6602SOL    HW131439   1.923   2.185   6.977 -1.2478 -2.8895  1.2052
 6602SOL    HW231440   1.894   2.330   7.025 -1.3767  0.4486  2.9949
 6603SOL     OW31441   1.860   3.195   5.516  0.2262  0.0340  1.1998
 6603SOL    HW131442   1.912   3.224   5.591  0.3597 -0.2840  1.2282
 6603SOL    HW231443   1.831   3.285   5.500  0.1193 -0.5116 -1.5796
 6604SOL     OW31444   2.912   1.505   4.691  0.3400 -0.1742  0.2444
 6604SOL    HW131445   2.977   1.436   4.677  0.8855  0.3057  0.3853
 6604SOL    HW231446   2.892   1.484   4.782 -0.8823 -1.2321 -0.2756
 6605SOL     OW31447   3.474   2.500  12.530 -0.0672 -0.0908 -0.9864
 6605SOL    HW131448   3.446   2.545  12.451 -1.7902 -1.7869 -1.3379
 6605SOL    HW231449   3.562   2.537  12.539 -1.2598  2.9163 -1.9624
 6606SOL     OW31450   2.149   4.522   1.358  0.2788 -0.1043 -0.0393
 6606SOL    HW131451   2.189   4.544   1.443 -1.4455  0.9211  0.5088
 6606SOL    HW231452   2.233   4.500   1.317 -0.2052 -1.9020 -0.0547
 6607SOL     OW31453   2.383   1.001  13.482  0.2231 -0.5633 -0.0426
 6607SOL    HW131454   2.428   1.027  13.562 -0.0688 -0.5118  0.1035
 6607SOL    HW231455   2.295   1.034  13.502  2.0410  2.5779  2.7194
 6608SOL     OW31456   3.352   2.158   9.760  0.5244 -0.9630  0.0832
 6608SOL    HW131457   3.412   2.105   9.709  0.2434 -0.4121 -0.8124
 6608SOL    HW231458   3.272   2.163   9.708  0.3627 -0.6080  0.3608
 6609SOL     OW31459   3.352   2.765   8.006 -0.0641  0.4782  0.2265
 6609SOL    HW131460   3.393   2.802   8.084  1.3457 -0.9879  0.1798
 6609SOL    HW231461   3.318   2.684   8.043  1.3916 -0.7344 -1.1179
 6610SOL     OW31462   2.445   2.984   3.926  0.5627 -0.2755 -0.3152
 6610SOL    HW131463   2.518   3.040   3.900  1.6649 -1.1218  0.9179
 6610SOL    HW231464   2.438   3.003   4.020 -0.2525  0.6288 -0.5662
 6611SOL     OW31465   3.704   4.459   6.175 -0.1710 -0.0573 -0.1623
 6611SOL    HW131466   3.681   4.478   6.266  1.0595  1.5108 -0.1714
 6611SOL    HW231467   3.786   4.412   6.192  0.0938  0.1802 -0.7966
 6612SOL     OW31468   3.853   2.061   2.413 -0.3872 -0.0209  0.0243
 6612SOL    HW131469   3.897   2.141   2.385  0.0761 -0.3109 -0.0826
 6612SOL    HW231470   3.871   2.003   2.339 -0.5506  0.7728 -0.6285
 6613SOL     OW31471   2.920   2.601   3.293  0.5384  0.0810 -0.9632
 6613SOL    HW131472   2.937   2.620   3.200  3.3288  2.9876  0.1263
 6613SOL    HW231473   2.827   2.620   3.305  0.6817  0.8564 -1.0604
 6614SOL     OW31474   1.297   3.178   4.086 -0.1992 -0.4439  0.2429
 6614SOL    HW131475   1.238   3.253   4.083 -0.1950 -0.4299  0.5509
 6614SOL    HW231476   1.351   3.186   4.007  0.3014  2.2243  0.8447
 6615SOL     OW31477   4.555   1.604  12.125  0.6794  0.2773  0.0556
 6615SOL    HW131478   4.638   1.626  12.166 -0.2490  1.2473  1.3975
 6615SOL    HW231479   4.557   1.508  12.120  3.2900  0.3149  0.3457
 6616SOL     OW31480   0.195   3.218  11.762  0.3730 -0.4876  0.0385
 6616SOL    HW131481   0.132   3.190  11.696  0.5283  0.2157 -0.4036
 6616SOL    HW231482   0.279   3.187  11.729  0.7102 -1.8514  2.1782
 6617SOL     OW31483   0.628   3.015  16.003 -0.3965 -0.5546  1.1211
 6617SOL    HW131484   0.675   3.074  16.062 -0.6518  0.0065  0.7621
 6617SOL    HW231485   0.621   3.063  15.920  3.2720 -1.5089  0.2600
 6618SOL     OW31486   1.923   0.201   1.830 -0.3846  0.0404 -0.4660
 6618SOL    HW131487   1.862   0.231   1.898  1.0654  0.9838  0.4128
 6618SOL    HW231488   2.004   0.241   1.862  0.0376 -1.3393  0.2147
 6619SOL     OW31489   4.066   1.761   3.132  0.4708 -0.0370 -0.4168
 6619SOL    HW131490   4.013   1.841   3.135  1.0002  0.3273 -0.8730
 6619SOL    HW231491   4.146   1.784   3.179  0.0635  1.6737 -0.5472
 6620SOL     OW31492   0.064   1.468  10.684  0.0985  0.2294 -0.1247
 6620SOL    HW131493   0.086   1.549  10.729  0.1818  1.1051 -1.7534
 6620SOL    HW231494   4.718   1.506  10.651 -1.2089 -0.7715  1.9305
 6621SOL     OW31495   1.391   1.357   7.930  0.2746 -0.0764 -0.2575
 6621SOL    HW131496   1.466   1.351   7.870  1.1858 -0.6170  0.9492
 6621SOL    HW231497   1.328   1.388   7.865  0.6904  0.7212 -0.2852
 6622SOL     OW31498   3.928   0.044   4.875 -0.3366 -0.2817  0.0856
 6622SOL    HW131499   3.852   0.003   4.833 -0.3965 -0.1086  0.0231
 6622SOL    HW231500   3.955   0.107   4.807 -0.7825 -0.1785 -0.0002
 6623SOL     OW31501   2.929   3.503   6.864 -0.0529 -0.4435 -0.4065
 6623SOL    HW131502   3.010   3.471   6.904  0.6204  0.1686 -1.2894
 6623SOL    HW231503   2.877   3.518   6.943  0.7502 -2.3887  0.4977
 6624SOL     OW31504   1.350   2.542   3.333  0.3855  0.4482  0.0321
 6624SOL    HW131505   1.405   2.549   3.255  0.8667  1.0606  0.4226
 6624SOL    HW231506   1.266   2.502   3.314 -0.7246  2.2880  1.0486
 6625SOL     OW31507   0.884   3.553  10.045  0.5573  0.4169  0.3181
 6625SOL    HW131508   0.952   3.489  10.023  0.0256 -0.4914  1.3156
 6625SOL    HW231509   0.927   3.578  10.127 -1.5368 -0.6879  1.7494
 6626SOL     OW31510   3.456   4.144   1.979  0.4258 -0.1673 -0.1043
 6626SOL    HW131511   3.375   4.102   2.009  1.2807 -0.8671  1.2267
 6626SOL    HW231512   3.430   4.202   1.908 -2.2038 -0.6459  0.4295
 6627SOL     OW31513   1.935   3.221   7.216 -0.2216  0.0620 -0.2798
 6627SOL    HW131514   2.010   3.194   7.270 -0.6565 -0.5758  0.0078
 6627SOL    HW231515   1.946   3.315   7.230  3.7108 -0.6360  1.4804
 6628SOL     OW31516   1.140   3.605   2.712  0.4314 -0.2471  0.5008
 6628SOL    HW131517   1.184   3.547   2.650 -1.8969 -2.1772  0.6596
 6628SOL    HW231518   1.066   3.634   2.658  1.0131 -2.6692 -1.6198
 6629SOL     OW31519   0.085   1.979   2.650  0.0844 -0.2181 -0.3623
 6629SOL    HW131520   0.138   2.020   2.719 -0.0378 -0.4299 -0.1427
 6629SOL    HW231521   0.134   1.897   2.647 -1.3026 -1.1222  2.0901
 6630SOL     OW31522   1.716   2.120   6.022  0.6312  0.5889 -0.1574
 6630SOL    HW131523   1.799   2.144   5.979 -0.2750 -0.8230 -2.7144
 6630SOL    HW231524   1.703   2.040   5.970  1.1798 -1.4288  2.7800
 6631SOL     OW31525   0.263   1.431   0.633  0.1516  0.1115 -0.4840
 6631SOL    HW131526   0.353   1.438   0.601 -0.7136  1.1722 -2.7213
 6631SOL    HW231527   0.238   1.350   0.587 -0.7685 -0.0336  0.2538
 6632SOL     OW31528   0.754   2.667  11.729  0.4935 -0.2479 -0.5468
 6632SOL    HW131529   0.699   2.600  11.689  0.7775 -1.0400  0.3994
 6632SOL    HW231530   0.839   2.623  11.739  0.2212 -0.7770 -0.5562
 6633SOL     OW31531   1.851   0.153  14.470  0.3873 -0.3998 -0.8837
 6633SOL    HW131532   1.870   0.122  14.381  2.3599 -1.2687 -0.1554
 6633SOL    HW231533   1.763   0.120  14.485  0.5295 -1.0109 -1.4034
 6634SOL     OW31534   0.868   2.753   9.403 -0.6842  0.5288  0.1524
 6634SOL    HW131535   0.854   2.792   9.489  0.9776  2.2517 -0.3454
 6634SOL    HW231536   0.856   2.825   9.340  0.1665  0.2396 -0.3466
 6635SOL     OW31537   3.500   3.055  16.039 -0.5021  0.5887 -0.0367
 6635SOL    HW131538   3.579   3.006  16.061 -0.4030  1.3598  1.3350
 6635SOL    HW231539   3.523   3.121  15.974  1.2397  0.5411  0.5485
 6636SOL     OW31540   2.862   0.218   3.536 -0.2885  0.1493 -0.5254
 6636SOL    HW131541   2.895   0.156   3.471  0.3880  0.8365 -0.8262
 6636SOL    HW231542   2.855   0.151   3.604 -1.2705  1.0042  0.2248
 6637SOL     OW31543   0.881   4.045  14.295 -0.1552 -0.0732 -0.1739
 6637SOL    HW131544   0.896   4.033  14.389 -0.9640 -0.3990 -0.0819
 6637SOL    HW231545   0.970   4.065  14.268 -0.1141 -1.2112 -0.8821
 6638SOL     OW31546   2.289   2.234   1.854  0.8640  0.9551  0.0198
 6638SOL    HW131547   2.223   2.261   1.918  0.3972 -0.4638  0.1220
 6638SOL    HW231548   2.319   2.155   1.898 -0.9077 -0.1331 -0.7520
 6639SOL     OW31549   0.201   4.675   0.760  0.0433 -0.3351  0.0073
 6639SOL    HW131550   0.135   4.620   0.719  0.8167 -0.9071 -0.4685
 6639SOL    HW231551   0.260   4.609   0.794 -0.1560  0.2893  1.5577
 6640SOL     OW31552   4.018   2.534   1.491 -0.3949  0.7109 -0.7253
 6640SOL    HW131553   4.073   2.570   1.560 -2.0900 -0.8779  1.4945
 6640SOL    HW231554   3.936   2.510   1.535  0.1873  1.6754  0.8704
 6641SOL     OW31555   4.013   0.132   4.189  0.1360 -0.4023  0.1718
 6641SOL    HW131556   3.948   0.203   4.191 -0.5225 -1.0621  1.9238
 6641SOL    HW231557   4.084   0.169   4.241  0.3648 -1.6830  0.7616
 6642SOL     OW31558   1.197   3.636   0.212  0.1080 -0.3742 -0.2181
 6642SOL    HW131559   1.161   3.663   0.296  2.2103  0.5203  0.4109
 6642SOL    HW231560   1.130   3.572   0.188  0.2224 -0.2647 -0.8440
 6643SOL     OW31561   4.165   3.307   1.018 -0.1292 -0.1580 -0.4469
 6643SOL    HW131562   4.157   3.295   1.113 -2.3189  0.7962 -0.5155
 6643SOL    HW231563   4.160   3.214   0.995  0.8216 -0.2558 -0.2507
 6644SOL     OW31564   1.617   2.109   4.953  0.2781  0.1725  0.2101
 6644SOL    HW131565   1.676   2.139   5.023 -1.0728 -0.0692  1.4536
 6644SOL    HW231566   1.547   2.172   4.969 -0.7029 -0.5808 -1.1420
 6645SOL     OW31567   3.723   1.136   8.607 -0.1142  0.4841  0.6688
 6645SOL    HW131568   3.721   1.192   8.684 -1.0454 -1.2915  1.9294
 6645SOL    HW231569   3.631   1.112   8.595 -0.8169  3.2268  0.6308
 6646SOL     OW31570   2.870   3.782   9.279 -0.4894 -0.0285  0.0107
 6646SOL    HW131571   2.925   3.740   9.345  0.1991 -1.5635 -1.5294
 6646SOL    HW231572   2.893   3.875   9.285  1.9050 -0.5607 -0.7087
 6647SOL     OW31573   1.325   1.328   6.838 -0.0186  0.2367 -0.1823
 6647SOL    HW131574   1.372   1.373   6.767 -0.4351  1.7077  0.4746
 6647SOL    HW231575   1.238   1.317   6.801 -0.0318  0.1891 -0.1361
 6648SOL     OW31576   2.173   0.381   2.525 -0.5562 -0.6032  0.3428
 6648SOL    HW131577   2.106   0.350   2.464  0.1139  1.5083 -1.4618
 6648SOL    HW231578   2.119   0.410   2.598  1.2277 -0.6285  1.6813
 6649SOL     OW31579   0.537   0.369  17.326 -0.2206 -0.0059  0.2362
 6649SOL    HW131580   0.525   0.293  17.384  4.8455  1.1203  2.7657
 6649SOL    HW231581   0.538   0.324  17.242 -1.4713 -0.4654  0.4549
 6650SOL     OW31582   0.218   4.410  17.135 -0.5243  0.7343  0.1858
 6650SOL    HW131583   0.147   4.454  17.087 -0.7083  0.2890  0.0531
 6650SOL    HW231584   0.167   4.354  17.193 -2.8854  0.2247 -2.3997
 6651SOL     OW31585   3.537   2.851   9.500  0.7165  0.0209 -0.1600
 6651SOL    HW131586   3.561   2.942   9.479  1.3651 -0.1714 -0.2427
 6651SOL    HW231587   3.493   2.816   9.423 -0.5014  1.4322 -0.1128
 6652SOL     OW31588   0.475   2.703  17.362  0.3372  0.0457 -0.8421
 6652SOL    HW131589   0.533   2.756  17.417 -1.6320 -0.2456  1.4624
 6652SOL    HW231590   0.506   2.744  17.281 -1.7272 -0.7490 -2.0278
 6653SOL     OW31591   3.502   1.521   7.080  0.0051  0.3368 -0.1766
 6653SOL    HW131592   3.453   1.529   6.998 -0.3265  0.5768  0.0460
 6653SOL    HW231593   3.483   1.430   7.103  1.1381  0.0655 -0.2766
 6654SOL     OW31594   0.442   2.872  11.719 -0.0042  0.1462  0.4438
 6654SOL    HW131595   0.521   2.843  11.674 -0.6916 -1.9589  0.6140
 6654SOL    HW231596   0.468   2.961  11.742  2.1611 -0.1068 -1.0132
 6655SOL     OW31597   0.172   3.244   4.698  0.2135  0.2362 -0.4791
 6655SOL    HW131598   0.125   3.160   4.694 -0.6985  0.8168 -1.8372
 6655SOL    HW231599   0.263   3.218   4.683  0.2882 -0.3344  0.9593
 6656SOL     OW31600   2.628   3.056   9.410 -0.2728 -0.4388 -0.1855
 6656SOL    HW131601   2.682   3.108   9.470  0.8768  0.2928 -1.8375
 6656SOL    HW231602   2.552   3.030   9.462 -1.6491  1.7447 -1.1119
 6657SOL     OW31603   3.037   3.259   9.737 -0.5032 -0.0321  0.1371
 6657SOL    HW131604   3.117   3.254   9.789 -0.5195  0.3958  0.2033
 6657SOL    HW231605   2.978   3.290   9.805 -0.3449  1.5660 -0.4424
 6658SOL     OW31606   1.116   0.531   5.088  0.0388  0.1932 -0.3458
 6658SOL    HW131607   1.139   0.616   5.049 -1.5046  0.6711 -0.2526
 6658SOL    HW231608   1.065   0.550   5.166  1.8332  2.2139  0.3291
 6659SOL     OW31609   2.371   0.769   0.452  0.0026 -0.6512 -0.2610
 6659SOL    HW131610   2.294   0.819   0.430  1.1130  1.2446  0.1976
 6659SOL    HW231611   2.437   0.824   0.411 -1.7498  0.8775 -1.0006
 6660SOL     OW31612   4.631   0.903  14.730  0.6156 -0.2813  0.0115
 6660SOL    HW131613   4.698   0.907  14.798  0.4994  0.0108  0.1072
 6660SOL    HW231614   4.561   0.870  14.787  0.9320  0.6755  0.9452
 6661SOL     OW31615   0.931   2.055   8.802 -0.1997 -0.1208  0.3509
 6661SOL    HW131616   1.016   2.099   8.792 -0.5778  0.4844 -0.2130
 6661SOL    HW231617   0.943   1.992   8.731  0.8678  0.7213 -0.2136
 6662SOL     OW31618   3.092   4.033   6.314 -0.6292  0.2085 -0.3848
 6662SOL    HW131619   3.092   4.126   6.294 -0.1392  0.0717 -1.0407
 6662SOL    HW231620   3.133   4.034   6.401 -0.9470 -2.0889 -0.2008
 6663SOL     OW31621   3.859   4.236   1.377 -0.3247  0.4423 -0.9802
 6663SOL    HW131622   3.886   4.145   1.365  0.2282  0.1088  2.7682
 6663SOL    HW231623   3.831   4.255   1.287  0.1912 -3.1939 -1.9337
 6664SOL     OW31624   0.884   3.239   4.705 -0.0173 -0.6328  0.4183
 6664SOL    HW131625   0.963   3.187   4.693  0.2605 -0.4936  1.7238
 6664SOL    HW231626   0.913   3.330   4.690  1.6873 -1.1573  0.5847
 6665SOL     OW31627   2.223   2.239   8.587 -0.5376  0.5650  0.3800
 6665SOL    HW131628   2.177   2.296   8.526  0.2045  0.4243 -0.3011
 6665SOL    HW231629   2.312   2.270   8.571 -0.7628  0.1823 -1.5334
 6666SOL     OW31630   1.295   2.651   5.516 -0.2894 -0.4346 -0.4250
 6666SOL    HW131631   1.381   2.695   5.517 -1.0505  1.0061  1.2347
 6666SOL    HW231632   1.288   2.612   5.429  0.2653 -0.3789 -0.4948
 6667SOL     OW31633   4.262   0.903   4.411 -0.0083  0.3826  0.0719
 6667SOL    HW131634   4.255   0.968   4.341 -2.7167 -0.9800 -0.9161
 6667SOL    HW231635   4.309   0.829   4.372 -0.5184  0.6254 -0.9903
 6668SOL     OW31636   4.233   1.925  13.304 -0.0140 -0.1267 -0.2894
 6668SOL    HW131637   4.150   1.887  13.274  0.1261 -0.5646 -0.1284
 6668SOL    HW231638   4.302   1.894  13.245 -0.3497  1.6111 -1.5674
 6669SOL     OW31639   1.443   1.844   3.650 -0.5407 -0.1220 -0.8321
 6669SOL    HW131640   1.399   1.925   3.625  1.7527  1.8711  1.6733
 6669SOL    HW231641   1.435   1.852   3.745 -0.2194 -0.7806 -0.7502
 6670SOL     OW31642   2.142   3.145   9.555  0.0608  0.0604 -0.4742
 6670SOL    HW131643   2.186   3.202   9.619  0.0059  0.6717 -0.9716
 6670SOL    HW231644   2.215   3.087   9.532 -1.5261 -1.2580 -2.1599
 6671SOL     OW31645   4.603   2.742   7.294  0.0979 -0.2385 -0.2246
 6671SOL    HW131646   4.677   2.796   7.266  0.1722  0.0209  0.4754
 6671SOL    HW231647   4.529   2.770   7.239  1.1825  2.0396 -0.5355
 6672SOL     OW31648   0.735   1.325   3.789  0.0656 -0.4791  0.4785
 6672SOL    HW131649   0.806   1.270   3.823  1.3260 -1.4615 -3.7156
 6672SOL    HW231650   0.773   1.410   3.767 -0.6101 -0.4659 -0.6592
 6673SOL     OW31651   2.199   3.770   0.926 -0.0942 -0.5260  0.1105
 6673SOL    HW131652   2.277   3.782   0.872 -0.1498 -0.4396  0.0511
 6673SOL    HW231653   2.147   3.709   0.873 -2.4021 -0.0897  1.8737
 6674SOL     OW31654   0.043   2.802   8.159  0.2777  0.3252 -0.0417
 6674SOL    HW131655   0.048   2.735   8.090  0.4699  1.8708 -1.5406
 6674SOL    HW231656   0.120   2.779   8.211 -0.9587  1.5339  2.2818
 6675SOL     OW31657   1.004   4.524  16.477 -0.0882 -0.4251  0.5099
 6675SOL    HW131658   1.065   4.479  16.535 -2.2955 -0.3818  2.8950
 6675SOL    HW231659   1.040   4.612  16.485  0.3332 -0.4681 -1.0548
 6676SOL     OW31660   1.621   3.758   2.162 -0.0966 -0.3182  0.7199
 6676SOL    HW131661   1.711   3.726   2.159 -0.0313 -0.2105  1.6188
 6676SOL    HW231662   1.635   3.844   2.122 -0.3528 -0.5697  0.0840
 6677SOL     OW31663   4.176   1.627   1.574  0.3745 -0.3283  0.6701
 6677SOL    HW131664   4.210   1.685   1.505  0.2218  0.6222  1.3950
 6677SOL    HW231665   4.229   1.663   1.645  1.6315 -1.8634  0.5187
 6678SOL     OW31666   3.667   2.564   1.893  0.1269  0.4501  0.3764
 6678SOL    HW131667   3.595   2.604   1.942  0.4970  0.1810  1.1379
 6678SOL    HW231668   3.685   2.479   1.934 -2.7903 -0.5132 -0.3009
 6679SOL     OW31669   2.640   1.763   5.829  0.5495  0.3916 -0.6107
 6679SOL    HW131670   2.698   1.774   5.753  1.3705 -1.3801 -0.2445
 6679SOL    HW231671   2.677   1.677   5.846 -0.7970  0.0426  0.5273
 6680SOL     OW31672   4.283   3.968   8.937  0.0555 -0.3317 -0.5652
 6680SOL    HW131673   4.321   4.044   8.892 -0.6347  0.0690 -0.4610
 6680SOL    HW231674   4.365   3.918   8.941  0.2356 -0.2269 -2.8979
 6681SOL     OW31675   1.999   0.700   6.932  0.1385  0.2101 -0.1327
 6681SOL    HW131676   1.935   0.765   6.904  0.2400 -0.0465 -0.9486
 6681SOL    HW231677   2.079   0.744   6.903  0.2456  0.2271  0.1872
 6682SOL     OW31678   4.305   0.527   5.763  0.3297  0.2142 -0.2844
 6682SOL    HW131679   4.283   0.613   5.727 -0.0134  0.2289 -0.0407
 6682SOL    HW231680   4.308   0.470   5.686 -1.2090  0.0984 -0.2453
 6683SOL     OW31681   0.567   4.104   1.238 -0.1532  0.0812 -0.5688
 6683SOL    HW131682   0.658   4.080   1.221 -0.9678 -0.8033 -3.7879
 6683SOL    HW231683   0.552   4.058   1.321  1.2783 -1.3138 -1.0867
 6684SOL     OW31684   1.536   3.413   1.342  0.0149  0.0672  0.3251
 6684SOL    HW131685   1.605   3.429   1.278 -0.0521  0.4843  0.3545
 6684SOL    HW231686   1.566   3.327   1.371  0.3334 -0.5146 -1.7290
 6685SOL     OW31687   3.902   3.518   7.508  0.2042  0.1257 -0.0834
 6685SOL    HW131688   3.983   3.569   7.502 -0.7795  1.6482 -0.4341
 6685SOL    HW231689   3.848   3.565   7.572  1.4455 -1.4960  2.1650
 6686SOL     OW31690   3.482   3.630   4.685  0.2871  0.0958 -0.0857
 6686SOL    HW131691   3.467   3.715   4.645 -1.3611 -1.3871 -2.6188
 6686SOL    HW231692   3.519   3.647   4.772 -0.2596 -1.5440  0.4610
 6687SOL     OW31693   0.309   2.549   4.224  0.2899 -0.3736  0.0952
 6687SOL    HW131694   0.352   2.530   4.141 -1.2826  0.8048 -0.9960
 6687SOL    HW231695   0.355   2.496   4.289 -1.9104 -1.2310  0.9829
 6688SOL     OW31696   2.319   3.289   8.472  0.1741  0.3359  0.1953
 6688SOL    HW131697   2.257   3.309   8.542  0.4843 -2.7415  1.3503
 6688SOL    HW231698   2.362   3.204   8.485 -0.1238  0.3343  1.1891
 6689SOL     OW31699   1.709   1.078   3.839  0.4793 -0.5096 -0.6315
 6689SOL    HW131700   1.804   1.083   3.852  0.1566 -0.4812  1.7263
 6689SOL    HW231701   1.692   1.121   3.755  0.6851 -2.1194 -1.4973
 6690SOL     OW31702   0.646   0.498   3.622 -0.2258  0.0652  0.0596
 6690SOL    HW131703   0.731   0.516   3.661  0.2123  1.4265 -1.4978
 6690SOL    HW231704   0.658   0.407   3.596 -4.0512 -0.9764  1.9365
 6691SOL     OW31705   4.343   4.511   8.853 -0.4831 -0.3826 -0.1512
 6691SOL    HW131706   4.383   4.589   8.814 -0.4914 -0.4704 -0.3351
 6691SOL    HW231707   4.419   4.483   8.904 -1.8583  0.3681  2.2816
 6692SOL     OW31708   4.425   4.659   3.421  0.3851  0.1437 -0.3391
 6692SOL    HW131709   4.358   4.636   3.485  0.9063 -1.1586 -0.2604
 6692SOL    HW231710   4.388   4.643   3.334  0.2754 -1.8625  0.0954
 6693SOL     OW31711   4.039   1.541   8.853 -0.1516 -0.5102  0.3193
 6693SOL    HW131712   4.053   1.584   8.937  0.6231  0.8727 -0.5142
 6693SOL    HW231713   4.127   1.545   8.816 -0.9041  1.9354 -1.1796
 6694SOL     OW31714   2.833   3.427  13.503 -0.4257 -0.0411 -0.5484
 6694SOL    HW131715   2.894   3.468  13.443  0.3067  0.0732  0.2757
 6694SOL    HW231716   2.829   3.336  13.475  0.1117  0.6342 -2.7576
 6695SOL     OW31717   0.803   4.100  15.453 -0.1338 -0.1785 -0.4853
 6695SOL    HW131718   0.898   4.092  15.456 -0.3147 -2.4697 -0.1351
 6695SOL    HW231719   0.793   4.195  15.446 -0.0155  0.0526  2.4559
 6696SOL     OW31720   2.707   2.806   1.752  0.3423 -0.2457 -0.3044
 6696SOL    HW131721   2.789   2.759   1.740  0.1745 -0.9681  1.3808
 6696SOL    HW231722   2.730   2.893   1.783 -0.1838 -0.0742 -0.3930
 6697SOL     OW31723   0.123   2.445   0.265  0.1968 -0.5762  0.2051
 6697SOL    HW131724   0.040   2.488   0.284 -0.0218 -1.5990  1.5608
 6697SOL    HW231725   0.098   2.355   0.244 -1.1440 -0.0520 -0.3866
 6698SOL     OW31726   0.916   3.918   2.160 -0.9108  0.0036  0.0541
 6698SOL    HW131727   0.826   3.885   2.156 -0.6241 -0.7589  0.0149
 6698SOL    HW231728   0.915   3.986   2.093  0.4399 -0.0667 -0.0294
 6699SOL     OW31729   0.193   3.391   9.662 -0.2132  0.1991  0.0360
 6699SOL    HW131730   0.107   3.431   9.647 -0.2723  0.2429  0.4944
 6699SOL    HW231731   0.205   3.433   9.747 -1.0460 -0.0451  0.2718
 6700SOL     OW31732   4.440   1.172   1.253 -0.3210  0.3368  0.3147
 6700SOL    HW131733   4.536   1.174   1.251 -0.4049  3.1826 -0.3531
 6700SOL    HW231734   4.432   1.153   1.346  2.1778  1.4256  0.7495
 6701SOL     OW31735   4.644   0.286   8.143 -0.1537  0.2524  0.5116
 6701SOL    HW131736   4.630   0.271   8.050 -0.1895  1.6416  0.2920
 6701SOL    HW231737   0.002   0.303   8.146 -0.2624  0.8769  0.4114
 6702SOL     OW31738   3.674   4.365   2.566  0.4711 -0.8825  0.0958
 6702SOL    HW131739   3.592   4.349   2.613  0.0941  0.7878 -0.0086
 6702SOL    HW231740   3.644   4.385   2.477 -1.4910 -1.5799  0.5848
 6703SOL     OW31741   4.213   3.211   4.596  0.2078  0.1350  0.0549
 6703SOL    HW131742   4.242   3.286   4.648 -0.5323  0.3716  0.1162
 6703SOL    HW231743   4.132   3.189   4.641  0.4872  0.7725  0.8811
 6704SOL     OW31744   1.210   1.712   9.940  0.2639 -0.1266 -0.5126
 6704SOL    HW131745   1.128   1.698   9.892  0.0057  0.3495 -0.2126
 6704SOL    HW231746   1.247   1.779   9.882 -1.1627  1.4190  0.3448
 6705SOL     OW31747   1.412   1.862  10.212 -0.0204 -0.4603  0.7722
 6705SOL    HW131748   1.445   1.811  10.138 -2.1737  0.8030 -1.0858
 6705SOL    HW231749   1.352   1.924  10.169  0.0246  0.7086  2.4049
 6706SOL     OW31750   1.795   3.110  15.469  0.8880 -0.0585 -0.4685
 6706SOL    HW131751   1.763   3.027  15.434  0.0409 -0.0790  0.3566
 6706SOL    HW231752   1.717   3.165  15.467  1.1032  0.2077 -1.4914
 6707SOL     OW31753   3.761   4.063   3.223  0.8486  0.6150 -0.1275
 6707SOL    HW131754   3.800   4.131   3.168  0.9251 -1.3844 -2.5385
 6707SOL    HW231755   3.684   4.105   3.263  1.1442 -1.6125  2.7543
 6708SOL     OW31756   1.944   2.940   8.864  0.0937  0.0521 -0.4415
 6708SOL    HW131757   1.874   2.970   8.806 -0.8870  0.9803  1.2313
 6708SOL    HW231758   1.919   2.977   8.949  1.7366  1.2972 -0.4867
 6709SOL     OW31759   4.560   3.324   2.740  0.3240  0.2480  0.6175
 6709SOL    HW131760   4.559   3.234   2.708 -1.7991  1.2935 -2.2419
 6709SOL    HW231761   4.511   3.378   2.678 -2.1045 -2.1797  0.4317
 6710SOL     OW31762   0.093   4.322   2.650  0.0099  0.3701 -0.1624
 6710SOL    HW131763   0.166   4.375   2.684  0.0262 -0.3270  0.8838
 6710SOL    HW231764   0.109   4.240   2.696  0.8580 -0.4269 -1.8653
 6711SOL     OW31765   3.953   2.977   7.374 -0.4324 -0.5152 -0.1538
 6711SOL    HW131766   4.028   2.987   7.316 -1.6344  1.1806 -1.3880
 6711SOL    HW231767   3.876   3.002   7.325  2.1881  0.9989 -3.4686
 6712SOL     OW31768   3.287   0.648  10.427  0.9669  0.0240  0.4898
 6712SOL    HW131769   3.331   0.715  10.480 -0.7084  1.9841 -0.6186
 6712SOL    HW231770   3.197   0.678  10.437  0.7595 -0.1042 -1.0562
 6713SOL     OW31771   1.923   3.428   2.601  0.4090  0.2337 -0.4905
 6713SOL    HW131772   1.928   3.333   2.614  0.2755  0.1790 -0.8423
 6713SOL    HW231773   1.923   3.472   2.687 -1.2306 -0.0792 -0.3291
 6714SOL     OW31774   3.661   0.071   3.276  0.2501  0.4519 -0.4482
 6714SOL    HW131775   3.684   4.720   3.244 -1.8252  0.2979 -1.5331
 6714SOL    HW231776   3.688   0.118   3.197 -0.9942 -0.2379 -1.2839
 6715SOL     OW31777   2.260   2.705   8.628 -0.6689 -0.5463 -0.5967
 6715SOL    HW131778   2.323   2.636   8.649  1.4138  2.5248  3.1205
 6715SOL    HW231779   2.317   2.778   8.602  1.1386 -1.1601  1.6297
 6716SOL     OW31780   1.632   0.150   1.382 -0.1118 -0.2901 -0.2949
 6716SOL    HW131781   1.594   0.173   1.467 -1.4088 -0.0893 -0.9494
 6716SOL    HW231782   1.697   0.219   1.369  0.9440 -0.7197  2.5633
 6717SOL     OW31783   3.227   3.235   9.962  0.5124  0.1530  0.2057
 6717SOL    HW131784   3.169   3.187  10.020  1.1757 -1.7725 -0.7207
 6717SOL    HW231785   3.307   3.185   9.979 -1.3410 -2.7454  0.3264
 6718SOL     OW31786   0.301   2.721   3.074 -0.4166 -0.2495 -0.0001
 6718SOL    HW131787   0.254   2.785   3.128 -1.4899 -0.8145 -0.2615
 6718SOL    HW231788   0.266   2.722   2.985  1.0529 -0.1319 -0.5754
 6719SOL     OW31789   2.416   1.665   8.321 -0.1490  0.5311 -0.1465
 6719SOL    HW131790   2.464   1.739   8.357 -0.4791  0.3100  0.7563
 6719SOL    HW231791   2.406   1.623   8.407  1.1998 -1.4733 -0.9845
 6720SOL     OW31792   1.342   0.019   3.701  0.6867  0.7673 -0.4050
 6720SOL    HW131793   1.390   4.705   3.767 -2.5374 -1.0974  0.5720
 6720SOL    HW231794   1.267   4.695   3.694  0.4836  0.9507  0.1454
 6721SOL     OW31795   4.099   1.175   6.972 -0.5612 -0.0933 -0.1868
 6721SOL    HW131796   4.022   1.218   7.009  0.0945  0.0868  0.9579
 6721SOL    HW231797   4.155   1.251   6.954  0.4402 -0.4868  1.2518
 6722SOL     OW31798   1.473   2.747   6.508 -0.1904  0.1679 -0.1814
 6722SOL    HW131799   1.401   2.808   6.527  0.9328  1.9846 -1.7099
 6722SOL    HW231800   1.428   2.678   6.458 -0.5892  0.7533 -0.6332
 6723SOL     OW31801   0.062   1.030   2.377  0.3478 -0.0587  0.1604
 6723SOL    HW131802   0.020   1.014   2.461  1.1363 -0.5963  0.4558
 6723SOL    HW231803   0.040   1.123   2.366 -2.6015 -1.2260 -3.5481
 6724SOL     OW31804   4.331   2.825   6.217 -0.5908  0.1729  0.7892
 6724SOL    HW131805   4.244   2.843   6.182 -0.8823 -0.5117  1.1508
 6724SOL    HW231806   4.316   2.815   6.311 -2.1513 -0.4676  0.4755
 6725SOL     OW31807   0.240   1.250   1.236 -0.0963  0.8626 -0.4201
 6725SOL    HW131808   0.260   1.289   1.321 -0.4278 -0.5935  0.3368
 6725SOL    HW231809   0.277   1.317   1.178  0.2853  0.9304 -0.1021
 6726SOL     OW31810   3.094   0.384   4.373 -0.1210  0.2150 -0.3696
 6726SOL    HW131811   3.159   0.415   4.309  1.8946  0.0512  1.6059
 6726SOL    HW231812   3.146   0.333   4.434 -0.5308  1.9064  1.3703
 6727SOL     OW31813   1.922   1.286   8.798  0.5322  0.5785 -0.0213
 6727SOL    HW131814   1.840   1.266   8.843  1.3129 -1.5458  0.4653
 6727SOL    HW231815   1.940   1.198   8.764 -0.2213 -0.3795  2.0253
 6728SOL     OW31816   3.862   0.145   6.450 -0.3222  0.5139  0.2822
 6728SOL    HW131817   3.864   0.075   6.385  2.6830  0.8254  0.0653
 6728SOL    HW231818   3.931   0.119   6.511 -0.1089 -2.5400 -1.2102
 6729SOL     OW31819   1.576   4.307   5.419 -0.0002 -0.6606 -0.3245
 6729SOL    HW131820   1.561   4.267   5.333  0.2341 -0.1616 -0.6018
 6729SOL    HW231821   1.639   4.245   5.454  1.1936 -0.9853 -2.9930
 6730SOL     OW31822   2.153   3.601  14.096  0.0696  0.0548 -0.2741
 6730SOL    HW131823   2.162   3.651  14.015  0.9819  0.5705  0.1428
 6730SOL    HW231824   2.080   3.650  14.135  1.2549  1.4794  0.1721
 6731SOL     OW31825   3.467   0.336   5.177  1.2016  0.3337 -0.1213
 6731SOL    HW131826   3.394   0.398   5.169 -1.1726 -2.1549  2.1797
 6731SOL    HW231827   3.428   0.257   5.138  0.9027 -0.3109  1.4899
 6732SOL     OW31828   3.715   0.027  11.926  0.0546  0.2340 -0.2494
 6732SOL    HW131829   3.725   0.054  12.017 -1.0797 -1.7140  0.4524
 6732SOL    HW231830   3.791   0.074  11.893  0.3536 -1.1594 -1.5684
 6733SOL     OW31831   0.976   1.005  13.721 -0.3515 -0.3301  0.2289
 6733SOL    HW131832   1.028   1.001  13.640  0.7438  1.1954  0.8456
 6733SOL    HW231833   0.961   1.099  13.735 -2.2090 -0.7052  0.7123
 6734SOL     OW31834   4.168   0.033   8.141 -0.4987 -0.4296 -0.4770
 6734SOL    HW131835   4.206   0.053   8.226 -0.3318 -0.8056 -0.4618
 6734SOL    HW231836   4.115   0.112   8.137  0.2130  0.0715  0.1284
 6735SOL     OW31837   3.797   4.120   9.518  0.1917 -0.4304  0.6956
 6735SOL    HW131838   3.875   4.067   9.532  1.7943  0.8641 -3.4268
 6735SOL    HW231839   3.784   4.168   9.600 -0.7961  0.4664  0.0101
 6736SOL     OW31840   2.604   3.707  10.544  0.3785 -0.2155  0.5568
 6736SOL    HW131841   2.509   3.698  10.539  0.3503 -0.5265  1.7490
 6736SOL    HW231842   2.636   3.642  10.481  2.6720  0.9957  0.4746
 6737SOL     OW31843   2.282   0.861  15.833  0.7386  0.4916  0.0039
 6737SOL    HW131844   2.261   0.844  15.925 -2.8344 -0.8402 -1.0790
 6737SOL    HW231845   2.209   0.912  15.798 -0.5517  0.0633  2.0381
 6738SOL     OW31846   2.386   1.093   5.923 -0.3469  0.4883 -0.6724
 6738SOL    HW131847   2.300   1.120   5.955 -0.1117  1.8193 -1.1587
 6738SOL    HW231848   2.408   1.165   5.863 -1.0265  0.0819 -1.4001
 6739SOL     OW31849   3.792   1.785   6.771  0.3224 -0.0473 -0.0128
 6739SOL    HW131850   3.735   1.828   6.835  1.8554  1.7077  0.1831
 6739SOL    HW231851   3.725   1.770   6.705  0.4244  0.7674 -0.2992
 6740SOL     OW31852   2.722   3.132   7.645  0.0759  0.0097 -0.6405
 6740SOL    HW131853   2.737   3.092   7.731 -0.7513  2.8627  0.8275
 6740SOL    HW231854   2.810   3.126   7.607  0.8335 -2.3799  1.4787
 6741SOL     OW31855   1.082   1.546   6.613  0.1856 -0.5971 -0.0187
 6741SOL    HW131856   1.062   1.481   6.680  0.3693 -0.1402  0.4848
 6741SOL    HW231857   1.094   1.487   6.539 -2.0050 -1.4123  0.2805
 6742SOL     OW31858   4.689   2.650   7.771 -0.6084  0.6441 -0.5464
 6742SOL    HW131859   4.599   2.681   7.783 -0.1383  2.1675 -1.0156
 6742SOL    HW231860   4.734   2.725   7.732  0.6604 -0.5641 -1.4264
 6743SOL     OW31861   0.418   2.888  11.436 -0.0916  0.3604 -0.3404
 6743SOL    HW131862   0.505   2.876  11.473  0.1342 -1.0974 -1.3472
 6743SOL    HW231863   0.371   2.814  11.474  1.5929  0.5410  2.1185
 6744SOL     OW31864   0.569   0.442   2.774  0.0312 -0.0625 -0.2000
 6744SOL    HW131865   0.556   0.536   2.763 -1.0076 -0.4465 -2.2245
 6744SOL    HW231866   0.630   0.427   2.702  0.7426  2.7337 -0.1418
 6745SOL     OW31867   3.277   0.966   2.864  0.0460  0.2351 -0.0458
 6745SOL    HW131868   3.270   0.880   2.822 -2.5487  0.6856 -0.5256
 6745SOL    HW231869   3.299   1.022   2.790 -0.1368  0.9892  0.4752
 6746SOL     OW31870   1.933   4.241   6.652 -0.0905  0.0119 -0.0429
 6746SOL    HW131871   1.926   4.323   6.603  0.4767 -0.5631 -1.1052
 6746SOL    HW231872   1.908   4.275   6.738 -1.1122 -0.0233 -0.3208
 6747SOL     OW31873   0.851   3.521  11.094  0.2265  0.2718  0.0560
 6747SOL    HW131874   0.858   3.437  11.140  0.1181  0.6389  0.7456
 6747SOL    HW231875   0.872   3.584  11.163  0.5968  1.7705 -1.4329
 6748SOL     OW31876   2.688   1.403   8.482  0.1798  0.1841  0.1850
 6748SOL    HW131877   2.602   1.432   8.451 -0.5939  0.5356  2.6430
 6748SOL    HW231878   2.696   1.328   8.423 -0.2907 -0.0320  0.4009
 6749SOL     OW31879   2.711   0.310   7.547  0.2275 -0.3064 -0.2850
 6749SOL    HW131880   2.762   0.248   7.495  0.5929 -1.1369  1.0783
 6749SOL    HW231881   2.750   0.395   7.525  2.1136 -0.6134  1.8788
 6750SOL     OW31882   3.367   1.713   9.297  0.2364  0.2496  0.3428
 6750SOL    HW131883   3.299   1.758   9.247  0.0829  0.4081  0.6905
 6750SOL    HW231884   3.407   1.669   9.223 -1.3006 -2.7716  1.3136
 6751SOL     OW31885   2.795   3.729   4.916 -0.2489  0.5086  0.4134
 6751SOL    HW131886   2.753   3.784   4.982 -0.1407  1.6183 -0.4406
 6751SOL    HW231887   2.887   3.745   4.937  0.4492 -1.6727 -0.9680
 6752SOL     OW31888   0.939   4.691  11.325 -0.0748 -0.1980 -0.4523
 6752SOL    HW131889   1.030   4.683  11.294 -0.2036  1.5794 -1.2974
 6752SOL    HW231890   0.878   4.696  11.251  0.9462 -0.1409 -1.3046
 6753SOL     OW31891   2.580   3.574   3.048 -0.2708  0.0638  0.5317
 6753SOL    HW131892   2.532   3.518   2.987 -0.8964  2.7960 -1.4486
 6753SOL    HW231893   2.517   3.587   3.118 -1.7658  1.3503 -1.0770
 6754SOL     OW31894   3.671   2.230   7.080 -0.4428 -0.0486 -0.0487
 6754SOL    HW131895   3.739   2.163   7.088 -1.7169 -1.2642  0.4899
 6754SOL    HW231896   3.593   2.180   7.055 -1.1905  0.2225  1.7357
 6755SOL     OW31897   2.298   1.561  14.081  0.1553  0.1851 -0.5942
 6755SOL    HW131898   2.291   1.619  14.158  0.6806  1.2744 -1.3650
 6755SOL    HW231899   2.376   1.596  14.039 -0.7888  1.8386 -1.0136
 6756SOL     OW31900   1.893   0.758   5.564 -0.0369 -0.1136  0.6717
 6756SOL    HW131901   1.846   0.679   5.538  1.2879 -1.1646  1.4183
 6756SOL    HW231902   1.928   0.782   5.479 -0.5690 -1.3687  0.0980
 6757SOL     OW31903   2.406   3.204   0.857  0.4603  0.5264  0.3280
 6757SOL    HW131904   2.398   3.279   0.797  2.9051  0.8762  0.4070
 6757SOL    HW231905   2.392   3.241   0.944  1.4952  2.4909 -0.3313
 6758SOL     OW31906   2.749   1.850   4.675  1.1635 -0.1602  0.1834
 6758SOL    HW131907   2.767   1.830   4.767 -0.9206 -1.0035  0.3993
 6758SOL    HW231908   2.779   1.941   4.678  0.7442  0.0264 -1.3814
 6759SOL     OW31909   0.046   4.709   2.758 -0.5634 -0.8067 -0.0480
 6759SOL    HW131910   4.709   4.652   2.735 -0.7030 -0.9756  0.7993
 6759SOL    HW231911   0.077   4.678   2.844  0.3430 -0.6998 -0.3372
 6760SOL     OW31912   0.855   3.413  13.126 -0.1961  0.5272  0.9161
 6760SOL    HW131913   0.858   3.410  13.221 -2.3889  0.4277  0.9677
 6760SOL    HW231914   0.854   3.508  13.120 -0.3812  0.3761 -1.8808
 6761SOL     OW31915   1.233   4.647  15.823 -0.0692 -0.3132  0.5781
 6761SOL    HW131916   1.151   4.682  15.787 -0.2440  0.1172  1.4051
 6761SOL    HW231917   1.301   4.696  15.777  0.3480  0.1725  1.7361
 6762SOL     OW31918   0.856   3.952   6.881 -0.4586  0.1594 -0.2980
 6762SOL    HW131919   0.944   3.981   6.906 -0.3936 -0.4836  0.2285
 6762SOL    HW231920   0.840   3.906   6.964 -0.3936  0.6861  0.0052
 6763SOL     OW31921   3.808   0.972   6.761  0.0521 -0.0658  0.1294
 6763SOL    HW131922   3.815   1.017   6.677 -0.4457 -0.7926 -0.2992
 6763SOL    HW231923   3.898   0.970   6.794  0.4580  0.4616 -0.9139
 6764SOL     OW31924   4.096   3.023  16.047  0.3451 -0.5767 -0.1932
 6764SOL    HW131925   4.168   3.084  16.062  0.6030 -0.2678 -2.6639
 6764SOL    HW231926   4.086   3.033  15.953 -0.4284 -0.2713 -0.0730
 6765SOL     OW31927   4.584   3.054  16.326 -0.0061  0.2371  0.4482
 6765SOL    HW131928   4.624   2.969  16.310 -1.9291 -1.1085  2.7348
 6765SOL    HW231929   4.490   3.037  16.320 -0.1156  1.6079 -1.8625
 6766SOL     OW31930   1.786   1.851   7.513 -0.0156  0.5279 -0.1972
 6766SOL    HW131931   1.831   1.787   7.457  1.7391  1.6093 -0.0279
 6766SOL    HW231932   1.858   1.899   7.553  1.5360 -1.9223 -0.0428
 6767SOL     OW31933   0.998   3.439   0.150 -0.2015  0.5547 -0.6881
 6767SOL    HW131934   1.014   3.346   0.165  0.5713  0.7533 -0.2770
 6767SOL    HW231935   0.981   3.430   0.056 -1.8806  1.5210 -0.4828
 6768SOL     OW31936   1.243   0.350  15.617 -0.4448 -0.0951 -0.0016
 6768SOL    HW131937   1.212   0.362  15.527  1.5570 -2.7651 -1.0536
 6768SOL    HW231938   1.249   0.439  15.652 -1.2727  1.0447 -2.6881
 6769SOL     OW31939   4.610   3.072   6.798  0.6643 -0.0009  0.2838
 6769SOL    HW131940   4.527   3.116   6.813 -0.6014 -2.4317  0.3559
 6769SOL    HW231941   4.670   3.110   6.863  2.8078 -3.2224  0.1812
 6770SOL     OW31942   3.399   0.640  11.921 -0.6650 -0.5274 -0.0114
 6770SOL    HW131943   3.457   0.600  11.856 -1.1773  0.7060 -1.2277
 6770SOL    HW231944   3.419   0.588  11.999 -1.3158  0.0719  0.5464
 6771SOL     OW31945   2.485   4.425   0.097  0.4597  0.0710 -0.5463
 6771SOL    HW131946   2.404   4.375   0.102  1.8342 -2.2160 -1.3322
 6771SOL    HW231947   2.466   4.490   0.029  0.9534 -0.7174 -1.4203
 6772SOL     OW31948   2.299   1.008  12.766 -0.0968  0.4340 -0.6138
 6772SOL    HW131949   2.310   1.074  12.834  2.0568  0.2809 -0.8235
 6772SOL    HW231950   2.316   1.063  12.690 -1.0261 -2.5077 -2.9768
 6773SOL     OW31951   2.430   4.128  16.926  0.7496 -0.3486 -0.4105
 6773SOL    HW131952   2.352   4.097  16.974  0.4907 -0.6312 -1.0202
 6773SOL    HW231953   2.407   4.099  16.838 -0.2351 -0.6944 -0.0450
 6774SOL     OW31954   1.157   2.167  10.295  0.7466 -0.4645 -0.0640
 6774SOL    HW131955   1.229   2.177  10.357 -0.5209 -0.9826  1.4750
 6774SOL    HW231956   1.194   2.131  10.214  0.2341  2.2277 -1.4958
 6775SOL     OW31957   0.679   1.898  15.016  0.4719  0.9060  0.1086
 6775SOL    HW131958   0.771   1.921  15.029  0.6785 -0.8091  1.5921
 6775SOL    HW231959   0.675   1.810  15.052 -1.4209  0.5368 -1.0163
 6776SOL     OW31960   2.948   1.644   5.132 -0.0522 -0.6937 -0.3413
 6776SOL    HW131961   3.036   1.638   5.169 -1.0898 -0.9278  2.1045
 6776SOL    HW231962   2.900   1.581   5.186 -0.0202 -0.7198 -0.3429
 6777SOL     OW31963   0.366   0.476   3.885  0.1309 -0.7276 -0.7390
 6777SOL    HW131964   0.443   0.449   3.835  1.9478 -0.7697  2.0464
 6777SOL    HW231965   0.332   0.543   3.826 -1.7559 -0.0745  1.0811
 6778SOL     OW31966   3.432   0.885   4.265 -0.2078 -0.1182 -0.6637
 6778SOL    HW131967   3.378   0.931   4.200  2.1971  4.0660  0.2502
 6778SOL    HW231968   3.384   0.896   4.347  1.4169 -0.4177  0.3201
 6779SOL     OW31969   0.692   3.149   7.729  0.5067 -0.3459 -0.3658
 6779SOL    HW131970   0.718   3.065   7.767  0.9968 -1.4896 -3.2395
 6779SOL    HW231971   0.637   3.113   7.660 -0.6001  0.6958 -0.0348
 6780SOL     OW31972   1.439   1.806   5.676 -0.5041 -0.0748 -0.1848
 6780SOL    HW131973   1.398   1.720   5.681 -1.2449  0.2594 -0.4693
 6780SOL    HW231974   1.529   1.779   5.658 -0.1447  1.5477 -0.8277
 6781SOL     OW31975   4.538   1.458   4.290 -0.0373 -0.2508  0.7011
 6781SOL    HW131976   4.598   1.530   4.308 -0.6962  0.2276  1.0208
 6781SOL    HW231977   4.466   1.481   4.349 -2.3479  0.2351 -2.3109
 6782SOL     OW31978   0.935   0.075   0.429 -0.1912  0.1548 -0.4445
 6782SOL    HW131979   1.008   0.134   0.444 -0.8217  0.9064 -0.3224
 6782SOL    HW231980   0.878   0.094   0.504 -1.1314 -1.4438 -0.7279
 6783SOL     OW31981   0.303   0.830  12.583 -0.5510  0.1246 -0.2067
 6783SOL    HW131982   0.377   0.829  12.521 -2.5005  3.0299 -2.5523
 6783SOL    HW231983   0.296   0.738  12.611  0.8291  0.5056  1.3630
 6784SOL     OW31984   3.039   4.363  15.495 -0.1944 -0.2822 -0.5023
 6784SOL    HW131985   3.123   4.358  15.540 -0.2979  1.6503 -0.1066
 6784SOL    HW231986   2.975   4.379  15.564  2.6407 -0.3899  2.1546
 6785SOL     OW31987   0.028   0.206   5.870 -0.0248  0.3144  0.5061
 6785SOL    HW131988   4.708   0.184   5.796 -0.2454  2.6402 -0.0144
 6785SOL    HW231989   0.012   0.134   5.932  1.1846  1.7307  2.4635
 6786SOL     OW31990   0.692   2.224   2.391  0.4059 -0.1888  0.1899
 6786SOL    HW131991   0.697   2.318   2.372  1.4697 -0.0975  0.9550
 6786SOL    HW231992   0.610   2.227   2.440  0.2119  2.3486 -0.2552
 6787SOL     OW31993   2.955   2.074   4.615  0.1692  0.9523 -0.4974
 6787SOL    HW131994   3.004   2.101   4.693 -0.9723 -1.8144  1.1983
 6787SOL    HW231995   2.977   1.981   4.609  3.1184  1.7563 -2.2181
 6788SOL     OW31996   3.042   1.054   3.448  0.5298  0.3124 -0.0688
 6788SOL    HW131997   2.963   1.092   3.410  0.4111  0.5377  0.4022
 6788SOL    HW231998   3.100   1.071   3.374 -0.1728 -0.0896 -0.7102
 6789SOL     OW31999   3.550   0.466   8.371 -0.1529  0.2363  0.1508
 6789SOL    HW132000   3.605   0.535   8.409  1.0917  0.0414 -1.3345
 6789SOL    HW232001   3.483   0.480   8.438 -1.0545  0.6879 -0.8640
 6790SOL     OW32002   1.775   2.929   2.583 -0.1721 -0.3333 -0.2215
 6790SOL    HW132003   1.833   3.004   2.595  0.7624 -1.1375  0.3591
 6790SOL    HW232004   1.828   2.852   2.562  0.5800  0.2941 -0.6205
 6791SOL     OW32005   1.379   1.112   6.999 -0.1519 -0.4445 -0.3349
 6791SOL    HW132006   1.412   1.161   7.074 -0.5980 -0.7348  0.0443
 6791SOL    HW232007   1.340   1.185   6.950 -0.2673 -1.9486 -2.4940
 6792SOL     OW32008   2.647   4.594   5.453 -0.3966  0.2653 -0.6562
 6792SOL    HW132009   2.577   4.530   5.441  0.5664 -1.2919  2.0242
 6792SOL    HW232010   2.684   4.564   5.536 -1.1401 -0.9641 -0.7807
 6793SOL     OW32011   4.368   3.980  11.564  0.0109 -0.7421  0.3470
 6793SOL    HW132012   4.448   4.027  11.540 -0.7190 -0.3906 -1.3944
 6793SOL    HW232013   4.383   3.899  11.515  0.4250 -0.1871 -0.4307
 6794SOL     OW32014   3.819   2.700   3.999 -0.2704  0.0353 -0.0579
 6794SOL    HW132015   3.726   2.688   3.979 -0.2108  0.3736 -0.5447
 6794SOL    HW232016   3.816   2.690   4.094  0.4588 -2.3838 -0.2895
 6795SOL     OW32017   1.321   3.033  13.327 -0.2907  0.5577 -0.4908
 6795SOL    HW132018   1.253   3.011  13.391  1.2581  0.5968  1.1427
 6795SOL    HW232019   1.266   3.052  13.251 -1.0627  0.7812  0.1252
 6796SOL     OW32020   1.455   3.691   0.133 -0.1238  0.0940  0.1237
 6796SOL    HW132021   1.370   3.661   0.165  0.9678 -0.4558  2.4610
 6796SOL    HW232022   1.449   3.701   0.038  2.6961  0.1187 -0.0660
 6797SOL     OW32023   1.971   1.802   5.398  0.6770 -0.0454 -0.1893
 6797SOL    HW132024   1.894   1.815   5.342  0.0771  0.4920  0.7613
 6797SOL    HW232025   2.020   1.744   5.340 -1.0374 -0.1434 -1.5374
 6798SOL     OW32026   2.441   3.335  11.354  0.1148 -0.1167  0.2513
 6798SOL    HW132027   2.413   3.269  11.417 -1.6421  1.1807  0.8453
 6798SOL    HW232028   2.492   3.392  11.412  0.8133 -0.1257 -0.3536
 6799SOL     OW32029   0.758   1.274   5.105  0.1668  0.1648  0.0764
 6799SOL    HW132030   0.827   1.216   5.075 -0.8224 -0.6158 -0.6698
 6799SOL    HW232031   0.753   1.245   5.196 -1.0498 -1.3706 -0.4852
 6800SOL     OW32032   0.391   3.694   9.619 -0.2798 -0.5206  0.5165
 6800SOL    HW132033   0.348   3.667   9.700 -1.6708  0.1825 -0.0029
 6800SOL    HW232034   0.468   3.736   9.659  0.7492 -1.9405  0.0125
 6801SOL     OW32035   3.070   2.400   3.828  0.0011 -0.6830 -0.0016
 6801SOL    HW132036   3.062   2.313   3.867 -1.2156 -0.5763 -0.0222
 6801SOL    HW232037   2.994   2.444   3.866  0.9547  0.1002  0.9692
 6802SOL     OW32038   4.548   2.903   1.934 -0.1200  0.1958 -0.6031
 6802SOL    HW132039   4.633   2.898   1.977 -0.2475 -0.4199 -0.4272
 6802SOL    HW232040   4.562   2.864   1.848 -2.3136 -2.8331  0.4086
 6803SOL     OW32041   1.325   4.098   6.492 -0.0011  0.6624  0.3372
 6803SOL    HW132042   1.347   4.108   6.585  0.6520 -0.4682  0.3028
 6803SOL    HW232043   1.296   4.007   6.498  2.0352 -0.0425 -0.6631
 6804SOL     OW32044   0.698   3.997   0.113  0.4629  0.6735 -0.0105
 6804SOL    HW132045   0.704   4.039   0.027 -1.6067 -3.8662 -2.3854
 6804SOL    HW232046   0.612   4.027   0.141 -0.8143 -2.6002 -0.3620
 6805SOL     OW32047   3.763   1.219  14.073  0.3237  0.3141 -0.0333
 6805SOL    HW132048   3.807   1.215  14.158 -0.8510  1.1347  0.6055
 6805SOL    HW232049   3.828   1.161  14.033  0.4160 -0.6998  1.6017
 6806SOL     OW32050   4.429   2.839  16.173 -0.2230 -0.3506 -0.4948
 6806SOL    HW132051   4.348   2.847  16.222  0.4691  0.7161  0.4621
 6806SOL    HW232052   4.417   2.923  16.129  0.8322  0.1143  0.1265
 6807SOL     OW32053   4.269   0.142   8.365 -0.1716  0.2089  0.1554
 6807SOL    HW132054   4.252   0.223   8.414  2.9620  0.1917  1.2237
 6807SOL    HW232055   4.362   0.122   8.365 -0.7116 -2.3338  0.1685
 6808SOL     OW32056   1.744   0.637   1.778 -0.2026  0.2450  0.3260
 6808SOL    HW132057   1.798   0.621   1.701 -0.7352  2.3911 -0.4730
 6808SOL    HW232058   1.749   0.550   1.820  0.7173  0.2323  0.1871
 6809SOL     OW32059   0.908   4.422   8.336  0.5535  0.1390 -0.1823
 6809SOL    HW132060   0.861   4.496   8.297 -0.3162  0.3356  1.2452
 6809SOL    HW232061   0.991   4.433   8.289  0.4640  0.7764 -0.2017
 6810SOL     OW32062   4.461   1.758   2.669  0.0183  0.5490  0.3570
 6810SOL    HW132063   4.456   1.821   2.740 -2.1147  1.5995 -0.7311
 6810SOL    HW232064   4.507   1.805   2.598  0.5234  0.7899  0.8423
 6811SOL     OW32065   3.246   0.367  15.449 -0.6162  0.1884  0.2573
 6811SOL    HW132066   3.251   0.453  15.489 -0.8875  1.0193 -1.4813
 6811SOL    HW232067   3.158   0.366  15.412  0.0984 -0.2184 -1.4397
 6812SOL     OW32068   3.306   3.549   7.958 -0.2830 -0.2994 -0.1133
 6812SOL    HW132069   3.246   3.620   7.934  2.5757  2.8612  1.8931
 6812SOL    HW232070   3.388   3.598   7.970 -1.0526  1.2007 -1.0465
 6813SOL     OW32071   3.054   0.834   0.762  0.2291  0.1666 -0.6258
 6813SOL    HW132072   3.073   0.891   0.836 -1.4421 -0.0805 -0.0007
 6813SOL    HW232073   2.974   0.791   0.793 -0.1658  2.3611  1.3912
 6814SOL     OW32074   1.578   4.361  10.479  0.2367  0.3496 -0.4863
 6814SOL    HW132075   1.519   4.348  10.405 -0.9231 -2.0697  0.8626
 6814SOL    HW232076   1.617   4.447  10.464 -1.0355  1.1331  0.7414
 6815SOL     OW32077   3.227   0.522   8.056 -0.0425  0.2654  0.1229
 6815SOL    HW132078   3.161   0.582   8.091  1.1127 -0.5421  3.6838
 6815SOL    HW232079   3.206   0.458   8.124 -0.8685 -0.9892 -1.3108
 6816SOL     OW32080   0.467   3.072  14.072  0.4141 -0.1475  0.1787
 6816SOL    HW132081   0.509   3.144  14.025 -0.1859  0.6631  0.9051
 6816SOL    HW232082   0.546   3.019  14.085 -1.8844 -2.5593  4.3248
 6817SOL     OW32083   2.351   1.416   4.091 -0.1918  0.0796  0.2032
 6817SOL    HW132084   2.335   1.393   4.000 -1.3642 -0.9930  0.6806
 6817SOL    HW232085   2.323   1.508   4.085 -1.6514 -0.3368  0.6470
 6818SOL     OW32086   3.285   3.498   9.906  0.8229 -0.3625 -0.0364
 6818SOL    HW132087   3.230   3.533   9.976  0.5724 -0.5493 -0.1400
 6818SOL    HW232088   3.264   3.405   9.911 -0.9248  0.1030  0.9833
 6819SOL     OW32089   0.065   4.462   1.129 -0.5257 -0.3245  0.0982
 6819SOL    HW132090   0.149   4.490   1.164 -0.3859 -1.1519  0.4272
 6819SOL    HW232091   0.055   4.391   1.193 -2.1881 -0.4164 -0.2633
 6820SOL     OW32092   0.705   3.454   3.891  0.3520 -0.2106  0.1388
 6820SOL    HW132093   0.659   3.498   3.962 -1.1967 -2.3461  0.4629
 6820SOL    HW232094   0.729   3.532   3.841  0.9955 -0.7275 -0.3760
 6821SOL     OW32095   3.627   0.305   7.026  0.0276 -0.1965  0.3595
 6821SOL    HW132096   3.631   0.279   6.934 -1.2436 -0.6658  0.4328
 6821SOL    HW232097   3.558   0.372   7.035  0.7409  0.3892  1.5315
 6822SOL     OW32098   2.367   3.532   8.825  0.7349  0.1122  0.1480
 6822SOL    HW132099   2.323   3.519   8.742  1.6011 -1.6130 -0.0451
 6822SOL    HW232100   2.307   3.495   8.890  1.0701 -1.5640 -0.4923
 6823SOL     OW32101   4.016   1.786   6.202 -0.0901  0.1697  0.7323
 6823SOL    HW132102   4.018   1.699   6.162 -0.2542 -0.0958  1.2877
 6823SOL    HW232103   3.921   1.788   6.209 -0.4336 -1.6243 -3.5034
 6824SOL     OW32104   4.651   0.769   7.253 -0.0003 -0.2058 -0.1158
 6824SOL    HW132105   4.566   0.755   7.294 -0.2130 -0.9258 -0.8103
 6824SOL    HW232106   4.670   0.683   7.216 -0.1761  0.0503 -0.8032
 6825SOL     OW32107   1.083   0.953  14.067  0.4225  0.3812  0.6342
 6825SOL    HW132108   1.125   0.874  14.032 -0.2488  0.0547  0.5744
 6825SOL    HW232109   0.994   0.932  14.041  0.8910 -1.2650  0.3116
 6826SOL     OW32110   0.509   2.201   4.465  0.2948 -0.6395 -0.6081
 6826SOL    HW132111   0.427   2.177   4.422 -0.8523  0.2405  1.0870
 6826SOL    HW232112   0.498   2.156   4.549  0.9457  0.0484 -0.1469
 6827SOL     OW32113   3.327   1.174   7.433 -0.0644 -0.6567 -0.2848
 6827SOL    HW132114   3.314   1.111   7.363 -0.9762 -0.4113 -0.3315
 6827SOL    HW232115   3.302   1.260   7.399 -0.4920 -0.6088  0.1524
 6828SOL     OW32116   1.379   4.633  15.072  0.2318 -0.0874  0.0413
 6828SOL    HW132117   1.439   4.590  15.132 -0.2682 -0.2964  0.3894
 6828SOL    HW232118   1.364   4.709  15.129  0.2205 -0.8740  1.0785
 6829SOL     OW32119   4.078   1.179  11.451  0.3699  0.3970 -0.1277
 6829SOL    HW132120   4.053   1.239  11.521  2.7898  2.7429 -1.2831
 6829SOL    HW232121   4.141   1.225  11.396 -1.0057  1.4447 -0.8357
 6830SOL     OW32122   2.694   1.054   7.090  0.0514 -0.3644 -0.7419
 6830SOL    HW132123   2.691   0.962   7.117 -1.6016 -0.4597 -1.2609
 6830SOL    HW232124   2.773   1.061   7.037 -0.0027 -0.2904 -0.8130
 6831SOL     OW32125   0.362   4.513   0.869 -0.8239 -0.5407 -0.1788
 6831SOL    HW132126   0.446   4.506   0.823 -0.5132  0.3293  0.2495
 6831SOL    HW232127   0.390   4.514   0.960 -1.3837 -1.2723 -0.0044
 6832SOL     OW32128   2.633   3.371   7.514  0.3557 -0.4777  0.5200
 6832SOL    HW132129   2.667   3.304   7.573  3.3572  1.8153  1.3962
 6832SOL    HW232130   2.703   3.436   7.510 -0.7145  0.5420 -1.7077
 6833SOL     OW32131   0.269   2.587  16.501 -0.6687  0.5559  0.4161
 6833SOL    HW132132   0.217   2.580  16.421  0.5270 -0.8123 -0.2535
 6833SOL    HW232133   0.292   2.679  16.496 -1.7579  0.6613 -2.6539
 6834SOL     OW32134   2.022   1.973   7.361  0.6193  0.3389 -0.0836
 6834SOL    HW132135   1.952   1.988   7.298  0.7243  3.6704  0.5862
 6834SOL    HW232136   2.075   1.903   7.322 -0.1943 -0.7011  0.6976
 6835SOL     OW32137   2.526   3.019   2.716  0.2026 -0.7440 -0.5300
 6835SOL    HW132138   2.590   3.076   2.759 -0.1017 -1.7391  1.2105
 6835SOL    HW232139   2.442   3.065   2.722  0.8678  0.6619 -1.8286
 6836SOL     OW32140   1.142   4.438   5.979  0.0031  0.1339 -0.0942
 6836SOL    HW132141   1.180   4.350   5.983 -0.9049 -0.2212  0.6647
 6836SOL    HW232142   1.202   4.493   6.029 -1.8224  2.6217 -0.6274
 6837SOL     OW32143   3.408   1.648  14.736 -0.0062  0.8087 -0.2684
 6837SOL    HW132144   3.393   1.556  14.756  0.6704  0.4119 -1.6232
 6837SOL    HW232145   3.426   1.650  14.642  1.6283 -4.0028 -0.0641
 6838SOL     OW32146   0.815   1.834   8.680 -0.1063  0.7414 -0.1366
 6838SOL    HW132147   0.749   1.776   8.644  0.0858 -0.1556  0.9590
 6838SOL    HW232148   0.800   1.828   8.775 -3.0392  1.5962 -0.5456
 6839SOL     OW32149   0.566   2.423   3.529 -1.0017 -0.2302 -0.0662
 6839SOL    HW132150   0.568   2.519   3.537  0.8048 -0.1795 -1.0538
 6839SOL    HW232151   0.474   2.407   3.549 -1.5554  0.6859 -1.9216
 6840SOL     OW32152   2.740   4.149  13.487  0.1143 -0.1014  0.0807
 6840SOL    HW132153   2.659   4.110  13.518 -1.1014  0.5417 -2.2421
 6840SOL    HW232154   2.720   4.242  13.484  2.0123  0.2617 -1.3617
 6841SOL     OW32155   1.847   2.492  10.133  0.1246 -0.2477 -0.4853
 6841SOL    HW132156   1.769   2.439  10.141  1.9322 -2.9800 -0.9431
 6841SOL    HW232157   1.837   2.536  10.049 -0.4131  0.8922  0.1738
 6842SOL     OW32158   0.435   3.055   2.993 -0.1381  0.2158  0.0915
 6842SOL    HW132159   0.364   3.041   3.055 -1.4685 -1.6243 -1.8882
 6842SOL    HW232160   0.387   3.045   2.911 -2.1864 -1.6320  1.5590
 6843SOL     OW32161   3.693   0.044  10.432 -0.0737  0.2295  1.1400
 6843SOL    HW132162   3.718   4.709  10.492  0.2475 -2.1618 -1.8049
 6843SOL    HW232163   3.782   0.061  10.399  0.0602  1.7105  2.2717
 6844SOL     OW32164   4.530   3.739   3.137 -0.0326 -0.7014  0.2859
 6844SOL    HW132165   4.445   3.709   3.167  0.2967 -2.9961 -1.0933
 6844SOL    HW232166   4.508   3.783   3.055  1.6773 -4.3829 -2.1680
 6845SOL     OW32167   1.892   2.497   7.581  0.5554  0.3893 -0.0002
 6845SOL    HW132168   1.810   2.528   7.544 -0.8275 -3.1452  0.0878
 6845SOL    HW232169   1.867   2.471   7.670  0.0357  0.2724 -0.1806
 6846SOL     OW32170   0.347   4.488   3.968 -0.3748  0.3664  0.2446
 6846SOL    HW132171   0.316   4.577   3.981 -1.7417 -0.4154  2.3461
 6846SOL    HW232172   0.433   4.506   3.931  0.1042  2.7007  2.5236
 6847SOL     OW32173   2.551   3.219   2.491  0.6347  0.0289 -0.2448
 6847SOL    HW132174   2.622   3.274   2.458  0.0254  2.4500  2.5610
 6847SOL    HW232175   2.586   3.130   2.488 -0.6843 -0.4296 -2.0202
 6848SOL     OW32176   0.583   3.259   3.734 -0.0902 -0.1011 -0.0172
 6848SOL    HW132177   0.606   3.179   3.781  0.5850  0.2125  0.1834
 6848SOL    HW232178   0.627   3.328   3.784  1.5516 -0.9589 -0.2896
 6849SOL     OW32179   1.446   0.505   7.342  0.0706  0.0903  0.1943
 6849SOL    HW132180   1.367   0.502   7.288  1.1438  2.1358 -1.4825
 6849SOL    HW232181   1.405   0.555   7.412 -1.5265  1.4043 -1.7113
 6850SOL     OW32182   2.213   0.952   4.079 -0.0046  0.3071  0.7788
 6850SOL    HW132183   2.260   0.986   4.156 -0.3287  2.6246 -0.0362
 6850SOL    HW232184   2.124   0.958   4.114 -0.7606 -0.9054 -0.9654
 6851SOL     OW32185   4.015   2.591   1.983 -0.4983  0.0435 -0.0504
 6851SOL    HW132186   3.951   2.570   2.051  0.5993 -1.1609  0.6095
 6851SOL    HW232187   4.012   2.685   2.001  2.8925  0.0387  0.4966
 6852SOL     OW32188   0.879   2.475   7.038 -0.3445  0.2139 -0.2034
 6852SOL    HW132189   0.863   2.564   7.068 -2.4048 -0.3943  0.4633
 6852SOL    HW232190   0.965   2.486   6.997 -0.7256  1.8099 -0.5546
 6853SOL     OW32191   1.665   4.504   1.951 -0.0687  0.0137  0.0208
 6853SOL    HW132192   1.570   4.518   1.956 -0.2236 -0.5004 -1.2615
 6853SOL    HW232193   1.703   4.590   1.965  0.8492 -1.0248  3.7957
 6854SOL     OW32194   3.116   3.888  10.291 -0.1084  0.0400  0.7195
 6854SOL    HW132195   3.125   3.806  10.340  0.6274 -0.4194 -0.1753
 6854SOL    HW232196   3.078   3.864  10.207  1.1975 -1.2359  0.4912
 6855SOL     OW32197   3.000   4.004   8.659 -0.2901 -0.4031  0.5890
 6855SOL    HW132198   2.985   3.955   8.578  0.1515 -1.0654  0.9106
 6855SOL    HW232199   2.931   4.070   8.654  1.2033  1.0966 -0.2418
 6856SOL     OW32200   0.494   0.009  14.242  0.5365  0.0719  0.0388
 6856SOL    HW132201   0.516   0.034  14.152  1.6183  1.1421  0.5904
 6856SOL    HW232202   0.569   4.693  14.271  0.6152  1.0863  1.6594
 6857SOL     OW32203   2.975   2.647   2.998 -0.0045 -0.1829  0.5264
 6857SOL    HW132204   2.967   2.566   2.947 -1.9988  1.1959 -1.3503
 6857SOL    HW232205   3.017   2.705   2.935  1.1664 -1.6614 -0.0709
 6858SOL     OW32206   0.746   1.166   5.845  0.1064 -0.8232 -0.4239
 6858SOL    HW132207   0.711   1.228   5.908  2.7128 -0.2391  0.4416
 6858SOL    HW232208   0.691   1.159   5.767  0.8493 -1.6251 -0.8798
 6859SOL     OW32209   0.665   2.727   2.209 -0.6261  0.4512  0.1171
 6859SOL    HW132210   0.613   2.736   2.129 -0.3331 -1.4776 -0.2950
 6859SOL    HW232211   0.745   2.761   2.170 -0.8393  0.1092 -0.6158
 6860SOL     OW32212   1.380   2.328   7.795  0.1409  0.1217  0.3194
 6860SOL    HW132213   1.355   2.240   7.767 -0.9356  0.6399 -0.3673
 6860SOL    HW232214   1.372   2.327   7.890  0.5718  0.0944  0.3585
 6861SOL     OW32215   0.561   0.550  10.126 -0.0298 -0.0105  0.3954
 6861SOL    HW132216   0.628   0.497  10.084  1.1031  0.7868  1.2127
 6861SOL    HW232217   0.623   0.620  10.149 -2.1162  1.1181  2.6286
 6862SOL     OW32218   0.772   1.787   8.970  0.1231  0.0267  1.0625
 6862SOL    HW132219   0.837   1.838   9.018  1.7203 -1.7321  0.7950
 6862SOL    HW232220   0.709   1.765   9.039 -0.7558  0.0822  0.2691
 6863SOL     OW32221   1.710   3.433   4.713  0.5120  0.0309  0.0274
 6863SOL    HW132222   1.739   3.352   4.671 -1.8363 -0.8300  0.0911
 6863SOL    HW232223   1.691   3.486   4.635 -0.3043 -1.2213 -0.6105
 6864SOL     OW32224   0.624   3.910   2.731 -0.4590 -0.0727 -0.3440
 6864SOL    HW132225   0.646   3.819   2.751  2.2189  0.1287 -2.3369
 6864SOL    HW232226   0.543   3.897   2.682 -1.0711  0.9208  0.3989
 6865SOL     OW32227   0.678   3.056   9.006 -0.7298 -0.4784 -0.1459
 6865SOL    HW132228   0.582   3.058   9.011 -0.7150 -1.7005  0.6368
 6865SOL    HW232229   0.697   3.142   8.968  1.7318 -1.0623 -0.2063
 6866SOL     OW32230   0.040   3.707   5.463  0.4141 -0.5932 -0.1306
 6866SOL    HW132231   0.130   3.708   5.496  0.7073 -1.8253 -0.8913
 6866SOL    HW232232   0.012   3.798   5.459  2.8589  0.1178 -0.9997
 6867SOL     OW32233   3.058   0.468  15.795 -0.7118  1.3291 -0.1238
 6867SOL    HW132234   3.079   0.472  15.889 -2.4986 -0.2619  0.3344
 6867SOL    HW232235   3.141   0.422  15.782  0.6021  3.2946  1.2238
 6868SOL     OW32236   2.203   1.096  12.055  0.0303  1.3097  0.0696
 6868SOL    HW132237   2.150   1.164  12.096  0.4657  1.3078  0.6442
 6868SOL    HW232238   2.278   1.089  12.114 -0.9767 -0.3965  1.1536
 6869SOL     OW32239   4.722   4.528  17.045 -0.0160 -0.2508  0.2867
 6869SOL    HW132240   4.632   4.551  17.069 -0.4616 -2.1721  0.4471
 6869SOL    HW232241   4.700   4.495  16.958  1.0955  1.5377 -0.6807
 6870SOL     OW32242   2.740   3.562   7.085  0.1247 -0.0263 -0.1089
 6870SOL    HW132243   2.809   3.582   7.148  1.5630 -0.1279 -1.6472
 6870SOL    HW232244   2.701   3.648   7.071 -0.2998 -0.2611 -0.4029
 6871SOL     OW32245   2.066   4.625  14.212  0.6615 -0.4895 -0.4345
 6871SOL    HW132246   2.031   4.714  14.218 -0.6532 -0.9004 -2.0127
 6871SOL    HW232247   2.018   4.571  14.275  0.1731 -0.2862 -0.6332
 6872SOL     OW32248   2.343   1.248  12.591 -0.0607  0.0806  0.5401
 6872SOL    HW132249   2.437   1.239  12.575 -0.3301 -0.3696 -0.8061
 6872SOL    HW232250   2.313   1.307  12.522  0.4808  1.6139  1.6264
 6873SOL     OW32251   4.013   4.663  11.315  0.0875 -0.3972  0.5699
 6873SOL    HW132252   3.978   4.574  11.312 -0.5944 -0.1803  2.7734
 6873SOL    HW232253   3.996   4.697  11.227  1.4248 -0.7947  0.1590
 6874SOL     OW32254   1.823   3.575   5.907  0.4450  0.2944  0.0359
 6874SOL    HW132255   1.893   3.575   5.842  2.4663 -1.1241  2.2316
 6874SOL    HW232256   1.762   3.641   5.872 -0.8151 -0.2444  1.2157
 6875SOL     OW32257   3.476   2.286   4.446 -0.6616 -0.4431  0.3450
 6875SOL    HW132258   3.427   2.367   4.430 -0.1346  0.6684  4.2483
 6875SOL    HW232259   3.411   2.217   4.430 -1.3203  0.4548 -0.8701
 6876SOL     OW32260   4.276   2.027   8.544 -0.0311  0.0318  0.3032
 6876SOL    HW132261   4.276   2.094   8.475  0.7916 -0.4941 -0.2090
 6876SOL    HW232262   4.371   2.031   8.554  0.0388 -0.3944 -0.1785
 6877SOL     OW32263   1.041   1.716   5.487  0.2370  0.0486 -0.0838
 6877SOL    HW132264   1.045   1.731   5.581  2.3074 -0.0962 -0.1485
 6877SOL    HW232265   1.014   1.806   5.467  2.1971  0.6511  0.0418
 6878SOL     OW32266   4.480   0.150   1.286  0.6803  0.0352  0.2661
 6878SOL    HW132267   4.565   0.129   1.324  1.4360  0.6474 -1.1046
 6878SOL    HW232268   4.480   0.232   1.335 -2.1703 -0.6997  1.5009
 6879SOL     OW32269   2.502   2.189  15.338 -0.3835  0.5742  0.0768
 6879SOL    HW132270   2.449   2.231  15.406 -2.1204 -3.5851  1.2779
 6879SOL    HW232271   2.552   2.264  15.305  0.2082  0.2646  0.2774
 6880SOL     OW32272   4.408   0.567   8.006  0.4927 -0.4737 -0.1018
 6880SOL    HW132273   4.332   0.613   8.041  0.7757  1.0504 -1.4863
 6880SOL    HW232274   4.393   0.474   8.026  3.0677 -0.9400 -0.2924
 6881SOL     OW32275   0.822   3.698   6.445  0.2719 -0.1925  0.3296
 6881SOL    HW132276   0.917   3.688   6.453  0.5724  1.8521 -0.5466
 6881SOL    HW232277   0.802   3.711   6.537 -1.8454  0.2145 -0.1835
 6882SOL     OW32278   2.535   0.860  15.751 -0.0018 -0.0002  0.1762
 6882SOL    HW132279   2.586   0.937  15.776  0.6574  0.2012 -1.7480
 6882SOL    HW232280   2.444   0.880  15.771 -0.0721 -0.5275  0.3801
 6883SOL     OW32281   0.172   2.632  12.515  0.1003  0.3895 -0.1462
 6883SOL    HW132282   0.188   2.629  12.609  1.8463 -0.6658 -0.4803
 6883SOL    HW232283   0.257   2.658  12.480  0.3945  1.6711  1.5445
 6884SOL     OW32284   4.507   0.469   3.500 -0.1381  0.2818 -0.7109
 6884SOL    HW132285   4.552   0.461   3.584 -1.4537 -0.5587 -0.0992
 6884SOL    HW232286   4.523   0.385   3.458 -0.4604 -0.2625  0.2617
 6885SOL     OW32287   0.734   3.363   7.463 -0.1397  0.2717 -0.2225
 6885SOL    HW132288   0.708   3.350   7.554 -1.6415 -0.0838 -0.7034
 6885SOL    HW232289   0.763   3.455   7.468 -0.2719  0.3002 -0.0044
 6886SOL     OW32290   4.229   3.900  16.618  0.1597  0.3575  0.6030
 6886SOL    HW132291   4.313   3.908  16.574  0.9021 -1.8388  1.6056
 6886SOL    HW232292   4.175   3.890  16.540  2.1257 -3.9884 -0.2440
 6887SOL     OW32293   0.293   2.194   9.871 -0.2700 -0.1305 -0.1137
 6887SOL    HW132294   0.275   2.125   9.935  3.2836  1.3121  2.4457
 6887SOL    HW232295   0.246   2.167   9.792 -1.9005  0.3569  0.6980
 6888SOL     OW32296   1.658   2.036   0.233  0.0632 -0.1465 -0.0206
 6888SOL    HW132297   1.646   2.063   0.324  0.5101  0.0169 -0.0112
 6888SOL    HW232298   1.642   1.943   0.248  0.4205 -0.4724 -1.6952
 6889SOL     OW32299   1.168   3.479   5.851  0.0607  0.0707  0.6510
 6889SOL    HW132300   1.141   3.461   5.941 -4.5481 -1.4691 -1.0827
 6889SOL    HW232301   1.260   3.451   5.858  1.1400  3.0783 -1.5844
 6890SOL     OW32302   0.308   0.057   6.448  0.6150 -0.2725  0.2672
 6890SOL    HW132303   0.256   4.724   6.408 -0.5232  0.7305 -0.0160
 6890SOL    HW232304   0.259   0.124   6.400  0.8512 -0.2643  0.0394
 6891SOL     OW32305   3.095   3.852   9.725 -0.1665 -0.0248  0.2243
 6891SOL    HW132306   3.146   3.918   9.678  0.6852  0.4012  1.7297
 6891SOL    HW232307   3.034   3.910   9.770 -0.1636 -1.7878  2.4982
 6892SOL     OW32308   1.648   3.636   4.496  0.6684  0.0421  0.3904
 6892SOL    HW132309   1.566   3.615   4.540 -0.3014  1.1178 -0.9253
 6892SOL    HW232310   1.612   3.621   4.409  1.2000  1.1124 -0.0188
 6893SOL     OW32311   3.022   1.839   7.103  0.2004 -0.4020 -0.4772
 6893SOL    HW132312   2.949   1.860   7.160 -0.2666 -1.2007 -0.7779
 6893SOL    HW232313   2.980   1.771   7.051  0.1025  0.2660 -1.2729
 6894SOL     OW32314   0.190   0.794   5.884 -0.2538  0.4885  0.0197
 6894SOL    HW132315   0.230   0.832   5.962  1.0936  0.7588 -0.8134
 6894SOL    HW232316   0.115   0.852   5.868 -0.8152  0.5068  2.6923
 6895SOL     OW32317   1.148   3.036   9.424 -0.0369  0.4913 -0.0923
 6895SOL    HW132318   1.140   3.012   9.331 -0.1622  1.0145 -0.2169
 6895SOL    HW232319   1.187   2.958   9.462 -1.7030  0.3813  1.4236
 6896SOL     OW32320   1.471   4.547   7.437 -0.3002  1.1666 -0.6905
 6896SOL    HW132321   1.392   4.571   7.390 -0.5595 -0.4355 -1.0801
 6896SOL    HW232322   1.434   4.486   7.501  0.5546 -0.1229 -1.4133
 6897SOL     OW32323   4.362   1.357  12.262  0.6300  0.1728  0.3348
 6897SOL    HW132324   4.406   1.319  12.186  0.5026  0.0164  0.3376
 6897SOL    HW232325   4.433   1.415  12.290 -1.2683  1.8025  1.7457
 6898SOL     OW32326   0.640   1.587  17.169 -0.2003 -0.2477 -0.5687
 6898SOL    HW132327   0.574   1.650  17.197  0.3971 -0.1798  0.6721
 6898SOL    HW232328   0.706   1.605  17.235 -0.5935  0.2768 -0.3223
 6899SOL     OW32329   0.503   2.675   4.618  0.2665 -0.0242  0.3672
 6899SOL    HW132330   0.557   2.750   4.643 -1.3480  1.4208 -0.3709
 6899SOL    HW232331   0.567   2.607   4.599  0.4127  0.4596 -0.9142
 6900SOL     OW32332   0.943   1.784   9.917 -0.2089  0.0901  0.2427
 6900SOL    HW132333   0.943   1.811  10.009 -1.1630 -0.5324  0.4158
 6900SOL    HW232334   0.854   1.759   9.893 -0.7108  0.3127  1.8770
 6901SOL     OW32335   4.517   2.427   2.876  0.0739  0.7765 -0.2674
 6901SOL    HW132336   4.476   2.356   2.926 -1.1753  1.7719  0.1193
 6901SOL    HW232337   4.548   2.383   2.797 -1.6653  0.3736 -0.7230
 6902SOL     OW32338   1.611   0.547   6.674  0.2029  0.5429 -0.0660
 6902SOL    HW132339   1.588   0.636   6.702  0.5300  0.4101  0.6268
 6902SOL    HW232340   1.528   0.505   6.699 -0.4447  2.2230  0.6800
 6903SOL     OW32341   1.241   1.050   8.757 -0.1047  0.2354  0.2070
 6903SOL    HW132342   1.236   1.003   8.673 -1.0745  2.5852 -1.0661
 6903SOL    HW232343   1.211   1.139   8.739 -3.0516 -0.5507  1.2294
 6904SOL     OW32344   4.085   3.954   9.796 -0.6730  0.2645  0.1629
 6904SOL    HW132345   4.014   3.915   9.845 -0.5337 -0.9934 -0.6363
 6904SOL    HW232346   4.158   3.914   9.843  0.4176  1.7568 -0.2482
 6905SOL     OW32347   3.578   0.529   7.534 -0.2547 -0.1703 -0.5756
 6905SOL    HW132348   3.539   0.550   7.449  0.3093 -1.2102 -1.0880
 6905SOL    HW232349   3.668   0.560   7.522 -0.0642 -1.0388 -1.3801
 6906SOL     OW32350   1.270   3.158   8.024  0.3989 -0.7612 -0.7275
 6906SOL    HW132351   1.254   3.136   7.932  0.2316 -0.6224 -0.7322
 6906SOL    HW232352   1.184   3.183   8.056  0.2329 -0.0800 -1.6803
 6907SOL     OW32353   3.089   4.553   7.501 -0.2570 -0.1724  0.0530
 6907SOL    HW132354   3.017   4.593   7.549  0.1784  0.0971  0.4841
 6907SOL    HW232355   3.111   4.481   7.561 -2.7365 -1.0213 -0.0575
 6908SOL     OW32356   3.081   2.040   2.517  0.1836 -0.0850 -0.0882
 6908SOL    HW132357   3.167   2.050   2.475  0.2052 -3.1576 -0.8206
 6908SOL    HW232358   3.021   2.074   2.451 -0.7964 -0.0728  0.8095
 6909SOL     OW32359   1.678   1.054   7.159  0.2217  0.1588 -0.0033
 6909SOL    HW132360   1.668   1.135   7.109 -2.8989 -0.3343 -0.1786
 6909SOL    HW232361   1.765   1.018   7.140 -1.7236 -3.1775 -2.7271
 6910SOL     OW32362   3.018   2.677   6.754  0.0543 -0.5189  0.0415
 6910SOL    HW132363   2.964   2.656   6.677 -0.7906  0.0067  0.4920
 6910SOL    HW232364   2.980   2.755   6.795 -0.9559 -1.0815  0.1526
 6911SOL     OW32365   2.871   3.539  14.620 -0.2253 -0.3582 -0.3090
 6911SOL    HW132366   2.855   3.589  14.701  1.4095  0.8230 -0.7238
 6911SOL    HW232367   2.963   3.558  14.601 -0.5463 -2.1301 -3.5658
 6912SOL     OW32368   0.361   0.808  10.849  0.3919  0.2111  0.6177
 6912SOL    HW132369   0.442   0.859  10.849  0.6824 -0.2287  2.4354
 6912SOL    HW232370   0.294   0.875  10.859 -0.5179 -0.8788  1.8085
 6913SOL     OW32371   1.677   2.306  17.043  0.4077 -0.0414 -0.2307
 6913SOL    HW132372   1.664   2.294  17.137  0.9747  0.0567 -0.1418
 6913SOL    HW232373   1.650   2.398  17.036  1.3167  0.1078 -1.7367
 6914SOL     OW32374   2.056   3.983  10.323 -0.4752  0.0311 -0.1545
 6914SOL    HW132375   2.090   4.070  10.302 -2.1331  0.5630 -0.6724
 6914SOL    HW232376   1.969   3.981  10.284 -0.2613  1.2121 -0.7073
 6915SOL     OW32377   1.961   3.308   9.196 -0.1208  0.0425 -0.1401
 6915SOL    HW132378   2.052   3.308   9.224  0.0377  0.7112 -0.6414
 6915SOL    HW232379   1.944   3.402   9.206  1.3502  0.5743 -2.5799
 6916SOL     OW32380   0.462   0.797   5.770 -0.2812  1.0718  0.0848
 6916SOL    HW132381   0.546   0.814   5.813 -0.1242  1.0153 -0.2017
 6916SOL    HW232382   0.425   0.734   5.832  2.7689 -0.3941  0.3765
 6917SOL     OW32383   3.413   0.934   5.057 -0.3505  0.2641 -0.6408
 6917SOL    HW132384   3.479   0.877   5.096  0.5579  1.1094 -0.9220
 6917SOL    HW232385   3.435   0.932   4.964 -0.2840  0.1941 -0.6235
 6918SOL     OW32386   2.780   2.542   1.127  0.3364 -0.5987  0.0719
 6918SOL    HW132387   2.815   2.630   1.112 -1.3350  0.1428  0.5799
 6918SOL    HW232388   2.700   2.563   1.174  1.5902  2.3987  0.8761
 6919SOL     OW32389   1.140   2.301   2.620  0.1831  0.2671  0.0091
 6919SOL    HW132390   1.182   2.217   2.605  1.7803  1.0902 -0.1435
 6919SOL    HW232391   1.047   2.280   2.618  0.5761 -1.5693  0.9850
 6920SOL     OW32392   2.788   1.199   0.321  0.3066 -0.0835 -0.2673
 6920SOL    HW132393   2.882   1.204   0.338  0.0043 -0.7661  1.5786
 6920SOL    HW232394   2.791   1.108   0.291 -0.7517 -0.6745  1.4042
 6921SOL     OW32395   2.835   1.116  12.311  0.2945 -0.3293 -0.2141
 6921SOL    HW132396   2.864   1.205  12.293  0.9397 -0.5200 -0.1455
 6921SOL    HW232397   2.865   1.080  12.227 -1.4610 -0.7280 -0.6665
 6922SOL     OW32398   1.079   0.792   5.755 -0.0977 -0.3638  0.4642
 6922SOL    HW132399   1.122   0.780   5.839 -0.5888  2.4670  1.1469
 6922SOL    HW232400   1.055   0.885   5.762  0.5338 -0.1385 -0.3905
 6923SOL     OW32401   3.145   4.143   2.370  0.3395  0.1081  0.6628
 6923SOL    HW132402   3.229   4.118   2.408 -0.3650 -2.6547  0.3557
 6923SOL    HW232403   3.157   4.125   2.277 -0.5776 -0.6656  0.6974
 6924SOL     OW32404   1.806   0.208   8.825 -0.3466  0.3741 -0.5054
 6924SOL    HW132405   1.823   0.264   8.901  1.7015 -1.7756  0.6109
 6924SOL    HW232406   1.711   0.222   8.824 -0.3661  0.3431  1.2286
 6925SOL     OW32407   0.379   4.140   2.553  0.4073  0.1672  0.1060
 6925SOL    HW132408   0.381   4.181   2.640  0.5436 -1.3117  0.8119
 6925SOL    HW232409   0.414   4.053   2.572  0.0072  0.3974  1.9434
 6926SOL     OW32410   3.442   2.837   5.565  1.0007  0.0765  0.0376
 6926SOL    HW132411   3.354   2.864   5.537  0.8399 -0.5221 -0.0244
 6926SOL    HW232412   3.490   2.867   5.488  1.9638 -3.1767 -0.5921
 6927SOL     OW32413   4.486   3.141   2.048  0.0248  0.0206 -0.0436
 6927SOL    HW132414   4.523   3.068   1.998 -0.0323 -0.6578  0.8986
 6927SOL    HW232415   4.402   3.155   2.005 -1.0050  1.2943  2.3758
 6928SOL     OW32416   1.695   2.951   8.678 -0.2231  0.5245 -0.0237
 6928SOL    HW132417   1.716   3.022   8.618  0.0722 -1.8337 -2.7240
 6928SOL    HW232418   1.602   2.968   8.686 -0.8683 -3.1947  0.3964
 6929SOL     OW32419   4.350   2.389   5.973 -0.1536  0.5321 -0.1670
 6929SOL    HW132420   4.264   2.386   6.015 -0.0064 -0.9186  0.0095
 6929SOL    HW232421   4.379   2.478   5.997 -0.5707  0.5145  0.4205
 6930SOL     OW32422   4.463   3.752   6.370  0.5116  0.8064 -0.8844
 6930SOL    HW132423   4.539   3.781   6.423  0.6553  0.4380 -0.8911
 6930SOL    HW232424   4.499   3.738   6.283 -0.8161 -0.7548 -1.1747
 6931SOL     OW32425   0.700   0.626  16.062  0.2356 -0.2002 -0.4108
 6931SOL    HW132426   0.604   0.624  16.066  0.2637 -0.6745  0.0487
 6931SOL    HW232427   0.725   0.587  16.146  1.4518 -3.5179 -2.3276
 6932SOL     OW32428   3.047   3.727   8.139 -0.7039 -0.5192  0.4829
 6932SOL    HW132429   3.058   3.649   8.193  0.1538 -1.1633 -0.6143
 6932SOL    HW232430   2.952   3.727   8.152 -0.3220 -0.0965  3.2566
 6933SOL     OW32431   0.111   2.889   5.882  0.0400 -0.7956 -0.2667
 6933SOL    HW132432   0.204   2.868   5.895 -0.6717 -3.9245 -0.1568
 6933SOL    HW232433   0.111   2.981   5.857  0.2321 -0.7117  0.0423
 6934SOL     OW32434   3.961   4.236   8.210  0.0035  0.1270  0.2848
 6934SOL    HW132435   3.980   4.322   8.173  1.4924 -0.2368  0.2137
 6934SOL    HW232436   3.880   4.250   8.258 -0.2014  1.3198 -0.4047
 6935SOL     OW32437   3.632   2.952   6.914  0.2458  0.2922  0.5702
 6935SOL    HW132438   3.597   2.866   6.888 -0.0252  0.4964  0.2588
 6935SOL    HW232439   3.551   3.002   6.911 -0.3107 -0.4923  2.4703
 6936SOL     OW32440   3.750   1.529   2.134  0.1424 -0.0095  0.0839
 6936SOL    HW132441   3.680   1.504   2.194  0.5122 -2.4419 -0.4850
 6936SOL    HW232442   3.737   1.623   2.127 -0.4069 -0.2488 -2.1419
 6937SOL     OW32443   2.255   4.049   2.211  0.5691  0.7506  0.2606
 6937SOL    HW132444   2.255   4.024   2.303  0.0056  0.6982  0.2426
 6937SOL    HW232445   2.174   4.097   2.192 -1.5256 -1.9245  2.4570
 6938SOL     OW32446   3.367   4.683   7.652 -0.5960  0.1382 -0.3264
 6938SOL    HW132447   3.311   4.721   7.584  0.0527  0.4667 -0.6744
 6938SOL    HW232448   3.371   4.591   7.627  0.9356 -0.0644  0.7009
 6939SOL     OW32449   0.212   1.781   1.747 -0.2969 -0.2509  0.0634
 6939SOL    HW132450   0.122   1.813   1.754  0.2312  1.5096 -1.1889
 6939SOL    HW232451   0.243   1.870   1.729  1.2604 -1.0752 -1.3491
 6940SOL     OW32452   1.552   4.603   5.696  0.1919  0.1466  0.0411
 6940SOL    HW132453   1.509   4.519   5.684 -0.9643  0.7322  0.1454
 6940SOL    HW232454   1.493   4.649   5.755  0.7172  1.0939 -0.1625
 6941SOL     OW32455   1.174   1.025   2.790 -0.5083  0.0302 -0.2555
 6941SOL    HW132456   1.211   1.070   2.714 -1.3682  0.6221 -0.3218
 6941SOL    HW232457   1.102   1.084   2.812  0.2030  1.5527 -2.0110
 6942SOL     OW32458   2.533   3.684  12.132 -0.5604  0.3123 -0.4729
 6942SOL    HW132459   2.525   3.602  12.083 -0.6980 -0.2398  0.4778
 6942SOL    HW232460   2.450   3.683  12.179 -0.3313 -1.8183 -0.1060
 6943SOL     OW32461   3.232   4.365  14.230  0.1325 -0.1721  0.2553
 6943SOL    HW132462   3.155   4.390  14.282  1.4560  0.8106  1.7346
 6943SOL    HW232463   3.286   4.320  14.295 -1.3488 -0.8466  1.0262
 6944SOL     OW32464   0.607   1.039   3.156 -0.5107  0.0648  0.3203
 6944SOL    HW132465   0.620   0.993   3.073 -1.6291  0.3296  0.0021
 6944SOL    HW232466   0.577   0.969   3.215 -1.1069  0.2915  0.2883
 6945SOL     OW32467   4.257   0.173   3.506  0.5390 -0.3838  0.2361
 6945SOL    HW132468   4.169   0.190   3.472  1.3384  0.5993 -1.3117
 6945SOL    HW232469   4.252   0.170   3.601  0.6741  2.3924  0.3295
 6946SOL     OW32470   3.884   2.145   6.405 -0.2169 -0.1090 -0.9987
 6946SOL    HW132471   3.858   2.139   6.497 -1.2052  1.7336 -1.1584
 6946SOL    HW232472   3.893   2.239   6.388  0.5012 -0.2775 -1.5587
 6947SOL     OW32473   3.052   3.781  12.942 -0.6594  0.2935 -0.0886
 6947SOL    HW132474   3.060   3.863  12.991 -0.5262  1.8014 -2.6467
 6947SOL    HW232475   3.130   3.780  12.885 -0.2387  0.3251  0.4842
 6948SOL     OW32476   3.033   2.072   8.407  0.5473  0.1123  0.3164
 6948SOL    HW132477   3.117   2.118   8.408  0.2270  0.6796  1.9002
 6948SOL    HW232478   3.058   1.988   8.445 -0.3203 -1.2570 -2.1379
 6949SOL     OW32479   4.378   4.217   1.055 -0.1457 -0.5685 -0.3466
 6949SOL    HW132480   4.391   4.243   0.964  0.7003  3.1385  0.8677
 6949SOL    HW232481   4.418   4.297   1.089  0.4348 -1.1457  0.3437
 6950SOL     OW32482   4.373   3.355   0.445 -0.1316 -0.1180  0.2935
 6950SOL    HW132483   4.432   3.430   0.444  0.5221 -0.6514 -0.4470
 6950SOL    HW232484   4.441   3.288   0.440  1.2340  1.4173 -1.3271
 6951SOL     OW32485   0.458   3.598   5.389 -0.3919  0.0169 -0.1444
 6951SOL    HW132486   0.386   3.625   5.447  0.8767  1.4508  0.7806
 6951SOL    HW232487   0.425   3.629   5.305 -0.1003 -0.3022 -0.3766
 6952SOL     OW32488   2.385   4.537   7.482 -0.0455 -0.2126  0.7730
 6952SOL    HW132489   2.467   4.581   7.505 -0.3677  0.4265  0.7174
 6952SOL    HW232490   2.343   4.521   7.567 -2.5146 -1.5228 -0.6954
 6953SOL     OW32491   1.075   0.957   0.140 -0.0225 -0.2005 -0.5155
 6953SOL    HW132492   1.156   0.962   0.191 -0.6272  0.5618  0.3626
 6953SOL    HW232493   1.074   0.865   0.110 -2.1680 -0.9004  1.7283
 6954SOL     OW32494   1.770   2.513   3.196  0.2540  0.4209 -0.0552
 6954SOL    HW132495   1.785   2.426   3.234 -1.0289  0.3223  0.2152
 6954SOL    HW232496   1.714   2.487   3.123  2.8712 -1.3836 -1.4453
 6955SOL     OW32497   2.621   0.729  11.845 -0.2512  0.0121 -0.1137
 6955SOL    HW132498   2.633   0.769  11.931  2.0041  0.1175 -0.4886
 6955SOL    HW232499   2.571   0.798  11.802 -0.0242 -0.4018 -1.0387
 6956SOL     OW32500   0.265   4.484  15.151 -0.2672 -0.1547 -0.0419
 6956SOL    HW132501   0.190   4.543  15.163 -0.4266 -0.2674 -0.4802
 6956SOL    HW232502   0.296   4.464  15.239 -1.4949  1.3076  0.7184
 6957SOL     OW32503   0.238   4.424  15.434  0.0368 -0.1303 -0.0459
 6957SOL    HW132504   0.211   4.506  15.475  1.8565  0.7814 -0.7206
 6957SOL    HW232505   0.315   4.401  15.486  0.0121 -1.5044 -0.6168
 6958SOL     OW32506   3.969   1.760  16.772  0.4692  0.4891 -0.2956
 6958SOL    HW132507   3.942   1.674  16.805  0.2986  0.3601 -0.7715
 6958SOL    HW232508   3.910   1.786  16.701 -0.9038 -0.8516  0.3388
 6959SOL     OW32509   3.016   4.538  15.850  0.9204  0.4136 -0.6299
 6959SOL    HW132510   2.954   4.509  15.783 -2.8480  1.5963  2.3348
 6959SOL    HW232511   3.040   4.624  15.815 -0.5144 -0.0230 -2.6821
 6960SOL     OW32512   0.763   3.786   8.728 -0.3117  0.1627 -0.3092
 6960SOL    HW132513   0.856   3.779   8.749 -0.3642 -1.4525 -0.6514
 6960SOL    HW232514   0.763   3.880   8.709  1.1062  0.3345  0.5549
 6961SOL     OW32515   4.353   3.368   5.761 -0.1116  0.2477  0.4202
 6961SOL    HW132516   4.303   3.435   5.714  1.7655  0.7153 -0.9167
 6961SOL    HW232517   4.432   3.418   5.781  0.2565 -0.3008  0.3103
 6962SOL     OW32518   2.690   2.351   8.285  0.0626 -0.4345 -0.4569
 6962SOL    HW132519   2.614   2.381   8.235 -0.6597 -2.2747 -0.4417
 6962SOL    HW232520   2.739   2.303   8.219  0.5557 -1.2733  0.5198
 6963SOL     OW32521   1.176   2.662   8.259  0.4021  0.5762  0.3335
 6963SOL    HW132522   1.171   2.740   8.204  0.2365  0.6782  0.4895
 6963SOL    HW232523   1.100   2.616   8.222  1.0333 -0.0525 -0.1802
 6964SOL     OW32524   3.527   2.244   6.377 -0.1573  0.4861 -0.1840
 6964SOL    HW132525   3.617   2.277   6.382  0.2180 -0.5932  0.1493
 6964SOL    HW232526   3.483   2.274   6.457 -0.4289 -0.3969  0.0007
 6965SOL     OW32527   3.240   0.530   5.822  0.0894 -1.0270 -0.1085
 6965SOL    HW132528   3.299   0.540   5.747  1.0855  1.2030  0.9721
 6965SOL    HW232529   3.166   0.588   5.803  1.2371  0.7846  1.0286
 6966SOL     OW32530   1.849   3.511   1.514 -0.5675 -0.2125  0.3991
 6966SOL    HW132531   1.806   3.437   1.556 -3.3758  0.0701 -2.0121
 6966SOL    HW232532   1.905   3.466   1.451  0.4433 -0.5421  1.5185
 6967SOL     OW32533   2.806   3.168  13.335  0.1774  0.7021  0.3424
 6967SOL    HW132534   2.847   3.082  13.339 -1.1057  0.0858  0.2632
 6967SOL    HW232535   2.830   3.195  13.246 -0.8648  2.2386  0.5124
 6968SOL     OW32536   2.596   0.796   8.075 -0.0409 -0.0577  0.0807
 6968SOL    HW132537   2.679   0.811   8.029 -0.5114  1.8691 -0.1150
 6968SOL    HW232538   2.541   0.801   7.997  0.7352  1.3065 -0.3726
 6969SOL     OW32539   0.078   3.741   5.134  0.0208 -0.7345  0.1869
 6969SOL    HW132540   0.144   3.776   5.074 -0.4546  1.6969  1.0451
 6969SOL    HW232541   0.025   3.682   5.080 -1.9094  1.3290 -0.2072
 6970SOL     OW32542   1.173   3.621   4.307  0.6834 -0.3773  0.2068
 6970SOL    HW132543   1.100   3.677   4.279  1.3842  0.9094  0.9053
 6970SOL    HW232544   1.237   3.689   4.327 -0.4830  0.8855 -0.3271
 6971SOL     OW32545   3.649   0.164   3.859 -0.1525  0.2500  0.2665
 6971SOL    HW132546   3.651   0.222   3.935 -1.8797 -1.8637  1.9152
 6971SOL    HW232547   3.719   0.206   3.810 -1.0092  0.0017 -1.1651
 6972SOL     OW32548   3.609   0.251   2.813  0.3335 -0.9303 -0.1857
 6972SOL    HW132549   3.659   0.233   2.892  0.8855  1.7387  0.0753
 6972SOL    HW232550   3.617   0.174   2.757 -0.9294 -0.7452 -0.6174
 6973SOL     OW32551   1.633   1.400  11.538  0.3527  0.0571 -0.2575
 6973SOL    HW132552   1.603   1.406  11.629 -0.2733 -0.9279 -0.3951
 6973SOL    HW232553   1.561   1.356  11.492 -0.1817 -0.8750  1.4542
 6974SOL     OW32554   2.127   1.295   3.511 -0.8380 -0.1579  0.2118
 6974SOL    HW132555   2.206   1.252   3.543  0.2171  2.3735  1.0712
 6974SOL    HW232556   2.106   1.249   3.430 -2.9734 -0.9384  1.2271
 6975SOL     OW32557   2.970   3.167   6.461  0.4106 -0.4223 -0.2367
 6975SOL    HW132558   3.058   3.149   6.495  0.3271 -1.1406 -0.4075
 6975SOL    HW232559   2.974   3.262   6.458 -1.8597 -0.3054  0.4282
 6976SOL     OW32560   4.532   3.283   1.818  0.4093 -0.0005 -0.5587
 6976SOL    HW132561   4.500   3.369   1.791 -1.3364 -0.6526 -0.6091
 6976SOL    HW232562   4.452   3.239   1.849 -0.3087  1.8769  0.2255
 6977SOL     OW32563   2.853   4.006   5.962 -0.7717  0.1422 -0.1317
 6977SOL    HW132564   2.804   4.079   5.998 -1.3828  0.7466 -2.1936
 6977SOL    HW232565   2.943   4.038   5.970 -2.0774  3.2206  2.1941
 6978SOL     OW32566   4.221   3.785  13.542 -0.3484 -0.3618  0.3453
 6978SOL    HW132567   4.201   3.732  13.618 -1.6016  1.6117  1.3932
 6978SOL    HW232568   4.138   3.812  13.503 -1.0220 -2.2689  0.4717
 6979SOL     OW32569   0.670   2.443  12.968  0.3885  0.2409 -0.5020
 6979SOL    HW132570   0.686   2.536  12.979 -1.6616  0.4353  0.8939
 6979SOL    HW232571   0.576   2.433  12.983 -0.0462  0.6348 -2.9765
 6980SOL     OW32572   2.911   2.606  17.233  0.2857  0.0353  0.0960
 6980SOL    HW132573   2.945   2.517  17.225 -1.0726 -0.2025 -2.6939
 6980SOL    HW232574   2.863   2.622  17.153 -0.7514  1.9541  1.1083
 6981SOL     OW32575   2.956   2.843   7.679  0.2907  0.0549  0.1586
 6981SOL    HW132576   3.023   2.794   7.728 -0.6270 -0.7976  0.5450
 6981SOL    HW232577   2.899   2.866   7.751  1.1304  3.6715 -0.3333
 6982SOL     OW32578   0.249   3.983   2.039 -0.0339 -0.3814  0.0734
 6982SOL    HW132579   0.343   4.004   2.040 -0.2527  0.5792  0.5602
 6982SOL    HW232580   0.220   4.058   2.091  1.7152  0.1865  0.2481
 6983SOL     OW32581   3.270   3.661   9.667  0.6320 -0.1160  0.3818
 6983SOL    HW132582   3.197   3.701   9.713  0.8185 -0.4579  0.9710
 6983SOL    HW232583   3.341   3.661   9.732  0.6182 -1.2097  0.4093
 6984SOL     OW32584   4.052   3.673   2.004  0.2495 -0.2994 -0.0307
 6984SOL    HW132585   3.959   3.694   1.998  0.2188 -0.7331 -1.0388
 6984SOL    HW232586   4.093   3.751   2.041 -1.4942  1.0241 -0.8446
 6985SOL     OW32587   3.482   3.122   9.982  0.0759 -0.1551  0.0367
 6985SOL    HW132588   3.526   3.098   9.900  1.2107  0.6713  0.3971
 6985SOL    HW232589   3.554   3.115  10.045  0.8569 -0.9701 -0.9481
 6986SOL     OW32590   1.075   0.493  17.706  0.4796 -1.1744 -0.0134
 6986SOL    HW132591   1.004   0.535  17.656  1.9420  3.1434  1.5846
 6986SOL    HW232592   1.121   0.569  17.740 -0.4117 -0.0267 -1.3637
 6987SOL     OW32593   1.809   0.830  15.350  0.8128  0.4822 -0.6577
 6987SOL    HW132594   1.869   0.899  15.321 -1.5557  3.1450  0.7853
 6987SOL    HW232595   1.803   0.767  15.278  1.1156  0.3592 -0.5748
 6988SOL     OW32596   2.418   2.097   5.888  0.6514  0.0416 -0.7565
 6988SOL    HW132597   2.467   2.081   5.969 -1.3023 -4.1334 -0.3955
 6988SOL    HW232598   2.438   2.190   5.878  1.1738  0.0373  0.2499
 6989SOL     OW32599   3.260   2.040  12.609 -0.4368  0.3816 -0.4550
 6989SOL    HW132600   3.247   1.949  12.582  0.6492  0.1917 -0.3075
 6989SOL    HW232601   3.351   2.036  12.639 -0.3013  0.1262 -0.9056
 6990SOL     OW32602   3.599   3.710   2.938  0.2754  0.0222  0.3436
 6990SOL    HW132603   3.564   3.643   2.996  1.0107 -0.9397 -0.3092
 6990SOL    HW232604   3.686   3.675   2.922 -0.5753 -2.0247  0.1850
 6991SOL     OW32605   0.454   2.216   4.133  0.0392  0.6131  0.5249
 6991SOL    HW132606   0.504   2.138   4.110  1.2610  1.1913  1.2133
 6991SOL    HW232607   0.396   2.180   4.201 -1.0050 -0.6431 -1.0221
 6992SOL     OW32608   2.957   1.732  11.565  0.4639  0.1503 -0.3935
 6992SOL    HW132609   2.871   1.736  11.607  0.4342 -0.3017 -0.4108
 6992SOL    HW232610   2.989   1.645  11.589  0.8333  0.4665  0.2486
 6993SOL     OW32611   1.413   0.201   6.301  0.0152 -0.3362 -0.6585
 6993SOL    HW132612   1.507   0.196   6.318 -0.0715 -0.1457 -0.1153
 6993SOL    HW232613   1.371   0.195   6.387 -1.1671  0.3803 -1.1720
 6994SOL     OW32614   0.982   0.225  12.256 -0.8751 -0.0773  0.3581
 6994SOL    HW132615   1.002   0.162  12.187  0.0589  0.6803 -0.0680
 6994SOL    HW232616   1.065   0.243  12.300 -0.7851  1.3290 -0.3808
 6995SOL     OW32617   1.442   0.962   6.188 -0.0393  0.5565  0.0260
 6995SOL    HW132618   1.481   0.953   6.275  1.8288  3.2204 -0.5403
 6995SOL    HW232619   1.372   1.026   6.202 -1.3926 -0.9105 -0.0430
 6996SOL     OW32620   0.070   1.118   4.117  0.6968  0.3175 -0.3696
 6996SOL    HW132621   0.083   1.052   4.049  2.9827 -1.7594  2.0925
 6996SOL    HW232622   0.111   1.201   4.092  0.5294  0.6902  0.5697
 6997SOL     OW32623   2.286   4.544   4.422 -0.2479 -0.4899 -0.3889
 6997SOL    HW132624   2.346   4.508   4.356  1.8684  1.1830  0.6374
 6997SOL    HW232625   2.203   4.554   4.377 -0.9386 -1.7173  0.6215
 6998SOL     OW32626   3.179   1.116   6.168  0.4596  0.2345  0.5383
 6998SOL    HW132627   3.238   1.053   6.209 -1.0390 -0.7687  1.1529
 6998SOL    HW232628   3.105   1.080   6.217 -0.6979  1.4382 -0.3495
 6999SOL     OW32629   1.285   2.132   4.781  0.0049  0.2222 -0.1062
 6999SOL    HW132630   1.235   2.205   4.817 -1.9977 -0.7362 -0.9535
 6999SOL    HW232631   1.313   2.088   4.861 -0.7832 -1.9634 -1.0321
 7000SOL     OW32632   3.131   0.161   5.701  0.2552  0.1489  0.3202
 7000SOL    HW132633   3.143   0.067   5.687  1.2130  0.2463  0.4975
 7000SOL    HW232634   3.225   0.176   5.708  0.5516 -1.1624 -0.6816
 7001SOL     OW32635   4.251   3.867   3.166 -0.2815  0.2809 -0.0421
 7001SOL    HW132636   4.190   3.898   3.233 -0.4294  1.0930 -0.5496
 7001SOL    HW232637   4.305   3.946   3.155 -1.5168  1.1512  0.1540
 7002SOL     OW32638   2.714   3.903   1.814 -0.5873 -0.1546 -0.0859
 7002SOL    HW132639   2.695   3.810   1.804  1.6273 -0.6637  0.4637
 7002SOL    HW232640   2.623   3.931   1.826 -0.0484  1.1179  1.0460
 7003SOL     OW32641   0.298   3.424   2.530  0.3958  0.3991  0.2112
 7003SOL    HW132642   0.254   3.351   2.574  0.6566  0.3027  0.3092
 7003SOL    HW232643   0.242   3.430   2.453 -1.7418  0.4847  1.7738
 7004SOL     OW32644   3.434   3.590   1.820  0.4081 -0.4902  0.1380
 7004SOL    HW132645   3.372   3.648   1.774 -1.8469 -2.4804  0.7063
 7004SOL    HW232646   3.388   3.565   1.900  1.2298 -2.5623 -0.0464
 7005SOL     OW32647   2.791   0.609   4.631  0.0601 -0.0044 -0.3475
 7005SOL    HW132648   2.807   0.697   4.598  3.0913 -0.5827 -0.4392
 7005SOL    HW232649   2.775   0.552   4.555 -0.3441 -0.8223  0.3456
 7006SOL     OW32650   4.061   3.394   6.663  0.2829 -0.2330 -0.2256
 7006SOL    HW132651   4.038   3.399   6.755  1.3125 -0.3591  0.0335
 7006SOL    HW232652   4.153   3.367   6.661  1.1716  2.7781  0.4355
 7007SOL     OW32653   0.401   4.243  15.091  0.0517 -0.1181 -0.0468
 7007SOL    HW132654   0.377   4.205  15.175  0.5937 -0.5633 -0.0958
 7007SOL    HW232655   0.343   4.319  15.101  0.6694  0.0384  2.2911
 7008SOL     OW32656   4.221   0.406  11.706  0.7623 -0.1261  0.2303
 7008SOL    HW132657   4.292   0.456  11.746  0.4796 -0.7560  1.5201
 7008SOL    HW232658   4.257   0.318  11.712 -0.8861 -0.7445  1.0084
 7009SOL     OW32659   2.382   1.557  13.625  0.0128  0.3782 -0.1141
 7009SOL    HW132660   2.376   1.593  13.537 -1.7374 -0.0634 -0.1866
 7009SOL    HW232661   2.295   1.518  13.629 -0.5826  1.6307 -0.8475
 7010SOL     OW32662   2.291   0.363   4.862  0.4072  0.2342  1.1389
 7010SOL    HW132663   2.204   0.339   4.832  0.7569 -0.8890  1.0179
 7010SOL    HW232664   2.272   0.318   4.944  2.4194  1.6758  2.4212
 7011SOL     OW32665   4.159   3.669  10.081  0.5004  0.3388  0.5837
 7011SOL    HW132666   4.188   3.586  10.043 -2.5718 -0.1916 -0.5898
 7011SOL    HW232667   4.069   3.645  10.102  0.3862 -0.5830 -0.9093
 7012SOL     OW32668   3.258   1.980   5.951  0.2111  0.0623 -0.7863
 7012SOL    HW132669   3.206   1.984   5.871 -0.0778  0.7639 -0.5585
 7012SOL    HW232670   3.347   1.999   5.921  1.2582  0.3293  2.4813
 7013SOL     OW32671   0.977   3.295  11.226  0.6080 -0.2050 -0.1710
 7013SOL    HW132672   1.049   3.299  11.162  0.2235 -0.7110 -0.6451
 7013SOL    HW232673   0.958   3.201  11.215  1.0663 -0.1786 -1.2099
 7014SOL     OW32674   2.448   4.681  10.825 -0.3913  0.5072 -0.6324
 7014SOL    HW132675   2.426   4.596  10.787 -0.6597 -0.5028  1.8378
 7014SOL    HW232676   2.377   4.692  10.887  1.6626  2.1420  1.4238
 7015SOL     OW32677   3.578   1.274  13.847 -0.1568  0.0388  0.0697
 7015SOL    HW132678   3.611   1.363  13.838  0.0511 -0.2265 -1.7793
 7015SOL    HW232679   3.612   1.252  13.934 -0.4617  1.0857  0.4470
 7016SOL     OW32680   0.725   4.225   5.440  0.7817 -0.1547 -0.2925
 7016SOL    HW132681   0.747   4.233   5.347 -1.5960 -1.8198 -1.0268
 7016SOL    HW232682   0.691   4.313   5.454  1.2356 -0.0148 -0.0762
 7017SOL     OW32683   2.304   0.697   4.275  0.4717  0.7719 -0.3085
 7017SOL    HW132684   2.317   0.694   4.370 -0.5665  0.1098 -0.1783
 7017SOL    HW232685   2.362   0.627   4.245  0.6994 -0.2381  2.4781
 7018SOL     OW32686   2.616   4.659  16.305  0.1555 -0.1721 -0.0206
 7018SOL    HW132687   2.687   4.607  16.268 -1.0375 -2.3324  0.6844
 7018SOL    HW232688   2.571   4.589  16.352  0.2107 -0.4723 -0.4148
 7019SOL     OW32689   3.188   3.830   7.295 -0.3352  0.0824  0.1629
 7019SOL    HW132690   3.182   3.814   7.201  3.3401 -0.2898 -0.0401
 7019SOL    HW232691   3.240   3.910   7.304 -0.7751  0.2965  0.8373
 7020SOL     OW32692   3.810   3.646   5.138  0.6332 -0.0449  0.7366
 7020SOL    HW132693   3.754   3.607   5.205  0.9825 -1.0164  0.4573
 7020SOL    HW232694   3.861   3.692   5.205 -0.9928 -0.3082  2.1584
 7021SOL     OW32695   1.001   2.405   9.121 -0.2302 -0.6607 -0.4993
 7021SOL    HW132696   1.042   2.491   9.129 -2.0027  0.0618  0.7879
 7021SOL    HW232697   0.933   2.413   9.187 -0.2269  0.4943 -0.6382
 7022SOL     OW32698   0.014   1.420   6.885  0.5628  0.3735 -0.1355
 7022SOL    HW132699   4.731   1.470   6.964 -2.2992 -1.1220  0.1268
 7022SOL    HW232700   0.057   1.351   6.935  0.1168 -0.2149 -0.5589
 7023SOL     OW32701   2.653   0.545   5.322  0.2503  0.1743  0.0258
 7023SOL    HW132702   2.625   0.634   5.343  1.6736  0.3233  1.2974
 7023SOL    HW232703   2.597   0.500   5.386  0.8236  0.3521  0.6519
 7024SOL     OW32704   2.531   3.368   9.259  0.0654  0.7637 -0.0042
 7024SOL    HW132705   2.524   3.375   9.164  1.4773 -0.4050 -0.1782
 7024SOL    HW232706   2.449   3.416   9.273 -0.0988  0.7193 -0.8099
 7025SOL     OW32707   2.040   3.886   9.618  0.1192 -0.5911 -0.0195
 7025SOL    HW132708   2.109   3.952   9.618 -0.7777  0.3109 -1.0793
 7025SOL    HW232709   2.046   3.859   9.710 -1.5471 -1.9908 -0.3229
 7026SOL     OW32710   2.235   1.477  13.349  0.2168  0.0506  0.1245
 7026SOL    HW132711   2.301   1.545  13.361  0.4134 -0.0283 -0.4796
 7026SOL    HW232712   2.280   1.394  13.332  0.0635  0.2284 -1.1736
 7027SOL     OW32713   0.945   1.728  10.343  0.5625 -0.8390 -0.0934
 7027SOL    HW132714   0.948   1.665  10.415  1.9815 -0.6695 -0.0056
 7027SOL    HW232715   1.035   1.760  10.353  0.5812 -1.2725  1.1065
 7028SOL     OW32716   3.248   4.651   5.787 -0.1090  0.2152  0.3625
 7028SOL    HW132717   3.237   4.576   5.729  1.2786  0.9771 -0.8947
 7028SOL    HW232718   3.330   4.620   5.824 -1.0163 -0.0110  2.1696
 7029SOL     OW32719   1.218   3.962   7.703 -0.4072 -0.4131 -0.0647
 7029SOL    HW132720   1.172   3.878   7.703  0.6231 -0.9695 -2.5679
 7029SOL    HW232721   1.191   3.996   7.788  1.1921  1.2211 -0.2124
 7030SOL     OW32722   1.028   2.603   3.429 -0.1465  0.1217 -0.1468
 7030SOL    HW132723   0.985   2.548   3.494  0.3522  0.8316  0.7909
 7030SOL    HW232724   0.985   2.688   3.444 -0.7092 -0.4958  1.6210
 7031SOL     OW32725   1.231   1.434  15.742 -0.1798  0.0292 -0.6361
 7031SOL    HW132726   1.303   1.394  15.693 -0.3014 -0.3002 -0.5467
 7031SOL    HW232727   1.249   1.527  15.754 -0.6667 -0.3446  3.0700
 7032SOL     OW32728   4.161   3.948   2.804 -0.7221  0.8368  0.1809
 7032SOL    HW132729   4.160   3.958   2.708 -1.0644 -0.0313  0.0893
 7032SOL    HW232730   4.151   3.855   2.824  1.4357 -0.1055 -2.9837
 7033SOL     OW32731   4.085   3.832   1.484  0.1998 -0.1284  0.5644
 7033SOL    HW132732   4.097   3.772   1.411  0.5795  1.3862 -0.6265
 7033SOL    HW232733   4.155   3.811   1.546 -0.2053 -2.6931  0.1502
 7034SOL     OW32734   4.234   1.678   7.515  0.3488 -0.3405 -0.4085
 7034SOL    HW132735   4.324   1.649   7.533  0.6860  1.3671  0.7024
 7034SOL    HW232736   4.248   1.757   7.461 -0.4072 -0.3640 -0.6389
 7035SOL     OW32737   1.466   2.192   4.103 -0.2447 -0.3783  0.0767
 7035SOL    HW132738   1.520   2.197   4.182  0.7704 -1.0257 -0.5828
 7035SOL    HW232739   1.428   2.279   4.094 -0.6233 -0.6831 -1.3413
 7036SOL     OW32740   4.001   2.672   6.423 -0.1219  0.3566  0.0760
 7036SOL    HW132741   4.016   2.736   6.354  0.1935  0.4388  0.2182
 7036SOL    HW232742   4.022   2.725   6.499  0.8625 -0.3863  0.3301
 7037SOL     OW32743   4.312   0.894   3.514  0.1353 -0.1888 -0.0082
 7037SOL    HW132744   4.367   0.943   3.453 -2.5766  1.4003 -1.2128
 7037SOL    HW232745   4.313   0.814   3.462 -0.4692  0.0778 -0.4379
 7038SOL     OW32746   4.564   4.587   9.339 -0.0267  0.3807  0.6195
 7038SOL    HW132747   4.579   4.567   9.431  0.2832  0.9825  0.6969
 7038SOL    HW232748   4.496   4.654   9.336 -0.3788 -0.0277 -0.7596
 7039SOL     OW32749   1.857   3.565   6.203 -0.0176 -0.1453  0.4723
 7039SOL    HW132750   1.776   3.605   6.233  0.0678  1.4404 -1.4171
 7039SOL    HW232751   1.838   3.557   6.110 -3.0500 -0.3269  1.1228
 7040SOL     OW32752   3.418   4.028   8.235  0.4225 -0.0214  0.0275
 7040SOL    HW132753   3.333   4.036   8.192 -0.9958  0.7919  2.9485
 7040SOL    HW232754   3.407   3.944   8.279  0.5707  0.1097  0.3173
 7041SOL     OW32755   3.974   4.609   3.020 -0.5121 -0.1324 -0.0939
 7041SOL    HW132756   3.931   4.597   2.935  0.1772 -2.8861 -0.0441
 7041SOL    HW232757   4.013   4.697   3.010 -0.8696  0.1078  0.6366
 7042SOL     OW32758   0.396   1.184   0.326  0.7061  0.3700 -0.2944
 7042SOL    HW132759   0.421   1.179   0.234  1.1788  2.1222 -0.2595
 7042SOL    HW232760   0.442   1.110   0.366 -1.1741 -0.8756 -0.4302
 7043SOL     OW32761   1.034   1.423   3.500 -0.0176 -0.2627  0.4173
 7043SOL    HW132762   1.041   1.453   3.409  2.2460  1.5796  1.2040
 7043SOL    HW232763   1.081   1.340   3.497 -0.0668 -0.2971  0.5900
 7044SOL     OW32764   3.332   2.619   5.728 -0.5428  0.4729 -0.1314
 7044SOL    HW132765   3.252   2.668   5.749 -2.1756 -2.3424  0.1649
 7044SOL    HW232766   3.369   2.674   5.659  1.9350  1.4195  1.9551
 7045SOL     OW32767   4.160   1.960  12.054  0.7471 -0.0014  0.1179
 7045SOL    HW132768   4.246   1.971  12.093  1.0428 -1.3400 -0.1640
 7045SOL    HW232769   4.162   2.033  11.994  2.7290  0.2352  0.4955
 7046SOL     OW32770   1.039   0.480   7.051  0.4268  0.0361 -0.1571
 7046SOL    HW132771   1.009   0.511   6.965 -0.1409 -1.0016 -0.3403
 7046SOL    HW232772   0.952   0.456   7.082  0.8301 -1.4620 -0.1645
 7047SOL     OW32773   4.429   0.093   2.293  0.4612 -0.2444  0.2422
 7047SOL    HW132774   4.498   0.097   2.360  1.7109 -1.7265 -0.9652
 7047SOL    HW232775   4.356   0.107   2.354 -0.9102  1.7797 -1.8787
 7048SOL     OW32776   2.076   1.546  12.925 -0.0336 -0.3178 -0.5426
 7048SOL    HW132777   2.165   1.578  12.936 -0.7808  1.5412  0.1141
 7048SOL    HW232778   2.091   1.475  12.862  0.7124 -0.7403  0.1048
 7049SOL     OW32779   4.198   1.004  14.216  0.1518 -0.8335  0.3439
 7049SOL    HW132780   4.190   0.947  14.140 -0.0200 -1.2809  0.6926
 7049SOL    HW232781   4.251   0.951  14.276 -0.5370 -1.5966  0.2931
 7050SOL     OW32782   1.586   4.274  17.096 -0.0385 -0.2955  0.1684
 7050SOL    HW132783   1.593   4.332  17.172 -1.3780  0.0393  0.0309
 7050SOL    HW232784   1.646   4.205  17.125  0.8588  0.7540  0.8034
 7051SOL     OW32785   4.086   0.336   9.387  0.1615  0.5646  0.3952
 7051SOL    HW132786   4.090   0.253   9.339 -0.2836  1.3077 -0.9036
 7051SOL    HW232787   4.178   0.348   9.412  0.1897 -1.1951  1.1456
 7052SOL     OW32788   0.161   4.013   2.479 -0.3531  0.0523  0.2131
 7052SOL    HW132789   0.241   4.060   2.500  0.4449 -0.1273 -2.4414
 7052SOL    HW232790   0.169   3.954   2.553 -0.2548  0.0977  0.2380
 7053SOL     OW32791   0.671   0.437   5.839  0.3347 -0.4915 -0.2497
 7053SOL    HW132792   0.685   0.489   5.918  0.3225 -0.8059 -0.0392
 7053SOL    HW232793   0.747   0.485   5.807 -1.5031  2.3063 -0.3828
 7054SOL     OW32794   4.005   2.358   5.466  0.2693  0.1735 -0.0370
 7054SOL    HW132795   3.938   2.375   5.532  0.9160  0.0843  0.6420
 7054SOL    HW232796   4.051   2.297   5.524  0.7428  1.1380  0.6062
 7055SOL     OW32797   2.789   2.379  14.555  0.2849  0.3569  0.1336
 7055SOL    HW132798   2.846   2.362  14.630  0.1343  1.4808  0.5017
 7055SOL    HW232799   2.717   2.332  14.597 -0.1164  0.2888 -0.6254
 7056SOL     OW32800   2.729   2.110   8.431  0.0518 -0.9067 -0.3791
 7056SOL    HW132801   2.807   2.141   8.384  1.5511 -2.6295  1.0088
 7056SOL    HW232802   2.673   2.186   8.415  1.6251  0.2078 -0.6345
 7057SOL     OW32803   0.630   3.349   6.289 -0.3300  0.1791  0.0597
 7057SOL    HW132804   0.611   3.286   6.358 -1.8973  1.4539  0.7658
 7057SOL    HW232805   0.586   3.430   6.315  0.3246  1.2911 -2.3102
 7058SOL     OW32806   1.867   0.564   4.590  0.0729 -0.2452  0.0388
 7058SOL    HW132807   1.814   0.487   4.572  0.0727 -0.2764  0.1681
 7058SOL    HW232808   1.799   0.631   4.587 -1.7011 -2.0957 -0.7109
 7059SOL     OW32809   4.190   3.595   9.686 -0.7096  0.0822  0.5117
 7059SOL    HW132810   4.218   3.645   9.762  0.5604 -0.9236  0.7062
 7059SOL    HW232811   4.268   3.581   9.633 -0.7491  2.9280 -0.2404
 7060SOL     OW32812   1.442   2.702   2.214 -0.0310 -0.6166 -0.0044
 7060SOL    HW132813   1.391   2.768   2.167 -1.4731 -0.9040  1.1445
 7060SOL    HW232814   1.424   2.617   2.174  0.4728 -0.0328 -1.4657
 7061SOL     OW32815   1.067   0.896  12.079 -0.3228 -0.1340 -1.0117
 7061SOL    HW132816   1.090   0.879  12.170  1.2423  2.0810 -0.9920
 7061SOL    HW232817   1.123   0.971  12.056 -0.9278  1.2599  2.0688
 7062SOL     OW32818   2.502   1.993   3.968  0.1630 -0.2667  0.1076
 7062SOL    HW132819   2.570   2.054   3.940 -0.8331  0.1043 -1.4789
 7062SOL    HW232820   2.446   1.994   3.890 -0.8618 -0.9065  0.8277
 7063SOL     OW32821   2.893   1.946  14.679  0.3038  0.1692 -0.3932
 7063SOL    HW132822   2.969   1.888  14.691 -0.5811 -0.7346  0.8875
 7063SOL    HW232823   2.931   2.033  14.672 -1.7149  1.2677  2.3710
 7064SOL     OW32824   2.189   2.451  16.506  0.2224 -0.0115 -0.4611
 7064SOL    HW132825   2.175   2.360  16.533 -1.7570  0.2715 -0.5232
 7064SOL    HW232826   2.114   2.487  16.554  0.0297  0.3839 -1.0609
 7065SOL     OW32827   3.715   0.028   6.833 -0.0306 -0.3489  0.4381
 7065SOL    HW132828   3.624   0.026   6.803  0.3312 -1.1339 -0.6114
 7065SOL    HW232829   3.745   0.104   6.784 -0.8847  1.5257  2.8547
 7066SOL     OW32830   3.368   0.595   2.416 -0.2043 -0.5978  0.4789
 7066SOL    HW132831   3.452   0.592   2.371 -0.4647  1.5448 -0.1501
 7066SOL    HW232832   3.365   0.514   2.467 -0.1476  0.5593  2.3122
 7067SOL     OW32833   3.440   0.158   7.246  0.3046  0.0285 -0.6274
 7067SOL    HW132834   3.503   0.106   7.295 -1.0102  0.9057  1.9866
 7067SOL    HW232835   3.406   0.096   7.181  1.2625  0.7705 -1.8232
 7068SOL     OW32836   0.154   3.616   4.147  0.3487 -0.0113  0.4247
 7068SOL    HW132837   0.233   3.576   4.183  0.5095  1.4042  1.6384
 7068SOL    HW232838   0.122   3.547   4.089 -1.5343  0.4524  0.9215
 7069SOL     OW32839   0.818   2.462   4.297 -0.4083  0.0836  0.1885
 7069SOL    HW132840   0.883   2.399   4.327  0.1472  0.5405 -0.0519
 7069SOL    HW232841   0.850   2.550   4.314  0.7376 -0.2988 -0.0033
 7070SOL     OW32842   1.260   2.313   5.645  0.2969 -0.3155  0.1400
 7070SOL    HW132843   1.268   2.292   5.738  0.1714 -1.6062 -0.1424
 7070SOL    HW232844   1.289   2.229   5.610  0.5592  0.0507 -0.5188
 7071SOL     OW32845   2.141   3.382  12.098 -0.3627  0.0013  0.1287
 7071SOL    HW132846   2.176   3.471  12.096 -1.8514  0.6088  0.7344
 7071SOL    HW232847   2.218   3.326  12.101  0.3870  0.8159 -3.5371
 7072SOL     OW32848   1.418   0.054   2.670 -0.3577  0.4013 -0.2676
 7072SOL    HW132849   1.427   0.035   2.764 -1.9708  1.3069  0.0826
 7072SOL    HW232850   1.333   0.010   2.665  0.7028 -1.6609 -0.2198
 7073SOL     OW32851   0.245   0.404  17.459 -0.1111  0.0527  0.2066
 7073SOL    HW132852   0.245   0.312  17.431 -0.5282 -0.0732  0.6263
 7073SOL    HW232853   0.330   0.410  17.502 -1.3109 -0.3130  2.6029
 7074SOL     OW32854   3.514   2.607   6.331  0.3132  0.4113 -0.1782
 7074SOL    HW132855   3.538   2.696   6.307 -0.2957  0.8827  0.9655
 7074SOL    HW232856   3.534   2.596   6.424  0.1488 -0.9695 -0.3001
 7075SOL     OW32857   1.802   1.761   4.328 -0.5670  0.2417 -0.0917
 7075SOL    HW132858   1.775   1.828   4.391  0.8144  0.7616 -0.0604
 7075SOL    HW232859   1.746   1.783   4.253 -1.1067  0.8053  0.4772
 7076SOL     OW32860   3.311   3.055   3.419  0.2487 -0.3633  0.2080
 7076SOL    HW132861   3.290   3.009   3.500  1.5321  0.0007  0.7545
 7076SOL    HW232862   3.383   3.112   3.448  0.2421 -1.0840  1.6301
 7077SOL     OW32863   1.745   0.749   2.725 -0.0767 -0.1242  0.0079
 7077SOL    HW132864   1.764   0.687   2.796  2.9639  2.1559  1.2320
 7077SOL    HW232865   1.657   0.778   2.747 -0.3339 -0.1203 -1.0358
 7078SOL     OW32866   0.805   3.912  10.002 -0.7286 -0.2212  0.9006
 7078SOL    HW132867   0.837   3.953  10.082 -0.8589  1.1633  0.2466
 7078SOL    HW232868   0.710   3.925  10.012 -0.6003  1.7853 -0.3814
 7079SOL     OW32869   2.826   2.240   1.057  0.0726  0.3784  0.4766
 7079SOL    HW132870   2.792   2.328   1.042  1.5812  0.8528 -0.1545
 7079SOL    HW232871   2.778   2.220   1.137  0.9605  0.3541  1.0048
 7080SOL     OW32872   0.754   3.181  14.777  0.2068  0.6081  0.1611
 7080SOL    HW132873   0.801   3.249  14.727  1.8308  1.1313  2.4151
 7080SOL    HW232874   0.775   3.205  14.867  0.3535  0.1091  0.2559
 7081SOL     OW32875   2.992   1.350   3.195  0.3348  0.7339 -0.3814
 7081SOL    HW132876   2.914   1.385   3.238  0.5096  0.2720  0.3041
 7081SOL    HW232877   2.961   1.298   3.121  0.2027  0.1099  0.1219
 7082SOL     OW32878   2.839   0.945   0.261  0.3273  0.1889 -0.1541
 7082SOL    HW132879   2.906   0.880   0.280  0.9794  0.4568 -1.5989
 7082SOL    HW232880   2.772   0.920   0.324 -0.2487  0.0246 -0.8316
 7083SOL     OW32881   2.566   0.608  13.333  0.0137  0.2971  0.3627
 7083SOL    HW132882   2.638   0.552  13.362  0.1523 -0.7821 -1.9718
 7083SOL    HW232883   2.615   0.655  13.266 -1.1101  1.2658  0.2149
 7084SOL     OW32884   0.057   0.174   0.842 -0.1504 -0.0282  0.6274
 7084SOL    HW132885   0.146   0.141   0.838 -1.0825 -2.3909 -0.4439
 7084SOL    HW232886   0.013   0.107   0.789  1.0682 -1.7123  1.7874
 7085SOL     OW32887   1.418   1.293  11.082 -0.0569 -0.1988 -0.6804
 7085SOL    HW132888   1.334   1.336  11.067 -0.3783 -0.2456  1.0001
 7085SOL    HW232889   1.419   1.287  11.177  1.3160 -1.7131 -0.7953
 7086SOL     OW32890   3.439   2.586   7.396  0.2837 -0.0121  0.0824
 7086SOL    HW132891   3.356   2.540   7.385  1.5343 -2.3023  0.1263
 7086SOL    HW232892   3.443   2.581   7.491  0.1423  1.1061  0.1438
 7087SOL     OW32893   4.038   3.468   9.251 -0.3713  0.1350  0.3775
 7087SOL    HW132894   4.023   3.469   9.157  3.3308 -1.6057 -0.2078
 7087SOL    HW232895   4.121   3.515   9.258 -0.6599  0.6693  0.2182
 7088SOL     OW32896   4.480   1.094   7.271  0.0144  0.1821 -1.3779
 7088SOL    HW132897   4.410   1.154   7.296 -0.0275 -0.2974 -0.3293
 7088SOL    HW232898   4.478   1.028   7.341  2.3201  2.7690  1.0709
 7089SOL     OW32899   2.411   0.588   3.245  0.1101  0.2286  0.1224
 7089SOL    HW132900   2.506   0.604   3.239  0.4124 -1.8870 -0.7500
 7089SOL    HW232901   2.369   0.587   3.159  1.2310 -3.7261 -0.3582
 7090SOL     OW32902   0.603   2.294   2.742  0.1657  0.7589  0.8878
 7090SOL    HW132903   0.563   2.212   2.770  1.8509 -0.5814 -0.7242
 7090SOL    HW232904   0.550   2.360   2.788  1.3140  1.7725  0.7397
 7091SOL     OW32905   4.461   0.900   8.602 -0.4811 -0.5232  0.2162
 7091SOL    HW132906   4.520   0.829   8.577 -0.0872  0.2462 -1.0355
 7091SOL    HW232907   4.489   0.915   8.692  0.2322  1.9172 -0.4243
 7092SOL     OW32908   4.399   0.893   5.350  0.1875 -0.0544 -0.1966
 7092SOL    HW132909   4.436   0.969   5.305  0.5810 -0.4403 -0.5272
 7092SOL    HW232910   4.476   0.838   5.358 -0.8004 -1.5101 -0.7292
 7093SOL     OW32911   4.317   1.385   6.305  0.0133 -0.1193  0.0613
 7093SOL    HW132912   4.403   1.361   6.270  0.0463  1.9654 -1.2450
 7093SOL    HW232913   4.309   1.480   6.309  1.3902  0.0863 -2.1822
 7094SOL     OW32914   3.787   4.204   5.727 -0.6390 -0.3728  0.2590
 7094SOL    HW132915   3.758   4.193   5.818 -1.6410  1.5129  0.1620
 7094SOL    HW232916   3.757   4.294   5.714  0.2971 -0.0599  0.3169
 7095SOL     OW32917   0.612   2.830  17.143  0.1278  0.9223  0.0872
 7095SOL    HW132918   0.642   2.818  17.053 -0.5453 -0.4578  0.0430
 7095SOL    HW232919   0.623   2.925  17.153  3.7155  0.6088 -0.9332
 7096SOL     OW32920   0.445   0.029  16.891 -0.1912 -0.9102 -0.5750
 7096SOL    HW132921   0.461   4.724  16.806 -1.5611 -0.1131 -1.2192
 7096SOL    HW232922   0.351   0.044  16.881 -0.5180 -2.2313  0.4683
 7097SOL     OW32923   0.346   0.418   6.335  0.2947  0.2350  0.0245
 7097SOL    HW132924   0.316   0.454   6.252  1.5413 -1.3715 -1.1179
 7097SOL    HW232925   0.279   0.351   6.347 -1.9230  2.3145 -0.6083
 7098SOL     OW32926   2.087   2.622   7.251 -0.6949  0.2507  0.2179
 7098SOL    HW132927   2.046   2.644   7.335 -0.2858  0.5004  0.3535
 7098SOL    HW232928   2.144   2.554   7.287  1.2382  1.7871  0.0724
 7099SOL     OW32929   1.437   1.614  11.245  0.4915  0.6402 -0.2571
 7099SOL    HW132930   1.457   1.639  11.335  0.8641  0.1244 -0.1936
 7099SOL    HW232931   1.519   1.573  11.219 -0.3268 -1.6735  0.7954
 7100SOL     OW32932   4.454   1.880  17.026 -0.2222  0.2908 -0.2119
 7100SOL    HW132933   4.403   1.960  17.038 -2.6586 -1.1438 -0.9806
 7100SOL    HW232934   4.457   1.877  16.930  1.2689 -0.6509 -0.1378
 7101SOL     OW32935   2.760   1.784  15.165 -0.2595 -0.2728  0.6650
 7101SOL    HW132936   2.673   1.759  15.196 -0.1047 -2.0761 -0.3754
 7101SOL    HW232937   2.775   1.866  15.214 -0.7628 -0.1760  0.6544
 7102SOL     OW32938   0.365   0.769   7.268 -0.4244  0.2614 -0.0078
 7102SOL    HW132939   0.297   0.760   7.336  0.7232 -2.8579  0.7158
 7102SOL    HW232940   0.339   0.838   7.206  0.6210  0.7615  0.1197
 7103SOL     OW32941   4.522   3.624   4.376  0.1215  0.0340 -0.2667
 7103SOL    HW132942   4.598   3.681   4.391 -0.5300  1.3737 -2.0191
 7103SOL    HW232943   4.564   3.538   4.384 -0.7976 -0.3716  0.2042
 7104SOL     OW32944   3.714   0.677   4.359  0.3738  0.6128 -0.4410
 7104SOL    HW132945   3.757   0.596   4.386 -1.5595  0.1042  1.0495
 7104SOL    HW232946   3.782   0.744   4.362  0.0734  0.8544  0.8274
 7105SOL     OW32947   1.660   1.938   5.808 -0.0431  0.6453  0.1901
 7105SOL    HW132948   1.607   1.858   5.805  0.1788  0.6164 -2.3622
 7105SOL    HW232949   1.705   1.929   5.725  0.6716 -0.2043  0.6678
 7106SOL     OW32950   0.398   2.453  13.062 -0.4663 -0.2614  0.3885
 7106SOL    HW132951   0.320   2.403  13.036 -0.9267  2.3066 -3.2253
 7106SOL    HW232952   0.423   2.402  13.139 -2.6102 -1.0928  0.5318
 7107SOL     OW32953   3.927   3.406   2.682 -0.3707  0.6235  0.0250
 7107SOL    HW132954   3.911   3.312   2.675 -1.0708  0.8712 -1.6938
 7107SOL    HW232955   3.939   3.444   2.595  0.6935 -0.0422 -0.1220
 7108SOL     OW32956   3.009   0.770  16.623  0.4152 -0.8182  0.1610
 7108SOL    HW132957   2.919   0.758  16.656  0.8170 -0.7661  1.2919
 7108SOL    HW232958   2.998   0.722  16.541 -4.9944 -1.0655  0.9669
 7109SOL     OW32959   0.796   0.678   0.197 -0.2172 -0.4638  0.1176
 7109SOL    HW132960   0.768   0.758   0.152 -0.9364  0.0020  1.3883
 7109SOL    HW232961   0.730   0.665   0.266 -2.3472  1.6753 -1.5089
 7110SOL     OW32962   0.040   1.573   9.502 -0.5379  0.8437  0.3049
 7110SOL    HW132963   4.708   1.505   9.507 -1.2366  1.4260 -1.1686
 7110SOL    HW232964   0.001   1.634   9.438  0.6797 -1.2438 -2.4057
 7111SOL     OW32965   4.040   3.984   8.247  0.2147  0.5874  0.5865
 7111SOL    HW132966   4.031   4.078   8.230 -0.8106  0.4859  0.5332
 7111SOL    HW232967   4.029   3.993   8.341 -0.0092  1.1032  0.5105
 7112SOL     OW32968   2.841   2.915  14.112 -0.0126 -0.7219 -0.4323
 7112SOL    HW132969   2.751   2.901  14.083 -1.1069  1.9338  1.6056
 7112SOL    HW232970   2.876   2.994  14.069  0.9720 -1.6246 -1.2799
 7113SOL     OW32971   0.525   2.994   0.872  0.2455  0.2564 -0.3124
 7113SOL    HW132972   0.451   3.054   0.880 -0.7127 -0.8111 -1.1093
 7113SOL    HW232973   0.544   3.004   0.778  1.7915 -0.1983 -0.0452
 7114SOL     OW32974   0.581   2.793   8.408  0.0289 -0.3919 -0.4251
 7114SOL    HW132975   0.619   2.719   8.360 -0.5293 -0.6877 -0.4120
 7114SOL    HW232976   0.662   2.813   8.454 -1.4313  3.9195  0.2986
 7115SOL     OW32977   2.309   4.332   9.732  0.1395  0.0028  0.0314
 7115SOL    HW132978   2.274   4.306   9.818 -0.2293 -3.2123 -1.0925
 7115SOL    HW232979   2.389   4.379   9.756  0.4894 -0.0682 -1.0188
 7116SOL     OW32980   0.272   2.364   6.403  0.6967 -0.2033  0.4233
 7116SOL    HW132981   0.324   2.430   6.449  2.3629 -0.7038 -0.7624
 7116SOL    HW232982   0.184   2.402   6.403  0.8252  0.1174  2.3454
 7117SOL     OW32983   0.746   3.619   7.076  0.5043  0.0642  0.2045
 7117SOL    HW132984   0.777   3.709   7.087  0.5580  0.4167 -2.8502
 7117SOL    HW232985   0.683   3.624   7.147  0.6849 -2.3409  0.5106
 7118SOL     OW32986   1.284   0.065   7.597 -0.4775  0.6045 -0.6960
 7118SOL    HW132987   1.207   0.119   7.613  0.5265  1.4633  1.2206
 7118SOL    HW232988   1.356   0.128   7.599 -0.6642  0.7199  2.4016
 7119SOL     OW32989   0.865   0.422  11.148  0.3440  0.3400  0.0284
 7119SOL    HW132990   0.843   0.453  11.059  1.0053  0.2095 -0.1753
 7119SOL    HW232991   0.774   0.411  11.176  0.0079 -0.1422 -1.2626
 7120SOL     OW32992   1.523   4.727   2.938 -0.6467 -0.0713 -0.0932
 7120SOL    HW132993   1.521   4.653   2.999 -0.9437 -0.9196 -1.1363
 7120SOL    HW232994   1.607   4.708   2.895 -0.5193 -0.7437  0.4461
 7121SOL     OW32995   2.985   1.994  10.101 -0.0241  0.2306 -0.4974
 7121SOL    HW132996   2.917   2.036  10.153  0.2715 -1.7822  1.4841
 7121SOL    HW232997   3.007   1.913  10.147 -0.0462  0.1384 -0.6482
 7122SOL     OW32998   3.763   1.290  10.424  0.0255  0.5650 -0.0404
 7122SOL    HW132999   3.790   1.369  10.469 -0.1949  0.4453  0.3005
 7122SOL    HW233000   3.819   1.226  10.468 -2.2700 -1.2166  0.3265
 7123SOL     OW33001   0.483   0.225   2.886  0.4450 -0.2676  0.6740
 7123SOL    HW133002   0.509   0.313   2.860 -1.5767 -0.0485 -0.5389
 7123SOL    HW233003   0.410   0.205   2.828 -0.6416 -0.2824  2.0584
 7124SOL     OW33004   1.693   1.287   6.978  0.8461  0.7063 -0.1806
 7124SOL    HW133005   1.770   1.342   6.991  1.1943 -0.9570  4.6048
 7124SOL    HW233006   1.701   1.245   6.892 -0.4049 -0.4065  0.2434
 7125SOL     OW33007   3.607   2.007   7.538 -0.1495 -0.6242  0.0873
 7125SOL    HW133008   3.655   2.086   7.565 -0.9942  0.1214 -0.5779
 7125SOL    HW233009   3.539   1.997   7.605  1.0571  3.6109  1.9772
 7126SOL     OW33010   1.697   2.620   6.233 -0.1014  0.1358  0.2346
 7126SOL    HW133011   1.727   2.686   6.296 -3.0249  0.1953  1.5666
 7126SOL    HW233012   1.723   2.668   6.155  1.9563 -1.2768  0.0451
 7127SOL     OW33013   2.397   4.049  16.640 -0.3270 -0.1983 -0.1514
 7127SOL    HW133014   2.328   4.073  16.579 -0.7220 -0.7058  0.0972
 7127SOL    HW233015   2.476   4.071  16.590  0.2327 -0.2981  0.6724
 7128SOL     OW33016   2.146   0.861  13.674  0.2772  0.2369 -0.0608
 7128SOL    HW133017   2.077   0.897  13.619  0.6611  0.9078 -0.1010
 7128SOL    HW233018   2.222   0.843  13.618 -1.5379 -0.5872 -2.2315
 7129SOL     OW33019   2.279   4.110   4.935 -0.1042  0.4421  0.7675
 7129SOL    HW133020   2.341   4.132   4.866  1.9321 -0.7774  2.2159
 7129SOL    HW233021   2.320   4.030   4.967  2.7262  0.7565 -2.0881
 7130SOL     OW33022   4.148   4.119   1.671 -0.2276 -0.0251 -0.5375
 7130SOL    HW133023   4.112   4.039   1.709  1.6859  0.1491  1.6624
 7130SOL    HW233024   4.069   4.150   1.627 -1.3530 -1.3005  0.5961
 7131SOL     OW33025   3.450   0.612   7.925 -0.6919  0.4930  0.1421
 7131SOL    HW133026   3.388   0.566   7.982 -0.7846 -1.8546 -1.7874
 7131SOL    HW233027   3.414   0.700   7.932  1.5429  1.3951  0.3227
 7132SOL     OW33028   2.479   3.198   5.958 -0.1340 -0.2888 -0.6523
 7132SOL    HW133029   2.453   3.160   6.042  0.4115  2.2170  0.6691
 7132SOL    HW233030   2.492   3.127   5.895  2.1263 -1.1892  0.7984
 7133SOL     OW33031   4.193   3.871   5.730  0.2241 -0.6139  0.6711
 7133SOL    HW133032   4.211   3.947   5.675 -1.9560  1.1497  2.4008
 7133SOL    HW233033   4.108   3.888   5.772  0.9468  2.0613  1.0466
 7134SOL     OW33034   2.009   2.559   9.635 -0.4721  0.3300  0.0520
 7134SOL    HW133035   2.102   2.539   9.623 -0.3282  0.3269  1.2041
 7134SOL    HW233036   1.966   2.480   9.601 -0.2007  0.3719 -0.3938
 7135SOL     OW33037   0.425   3.207  15.127 -0.0827 -0.0066 -0.4016
 7135SOL    HW133038   0.471   3.128  15.100  3.4484  0.6979  3.4830
 7135SOL    HW233039   0.449   3.217  15.220  2.2773 -0.9177 -0.9237
 7136SOL     OW33040   0.175   0.189   7.413  0.1282 -0.1905  0.0158
 7136SOL    HW133041   0.132   0.273   7.396 -1.9458 -1.2677 -0.1410
 7136SOL    HW233042   0.093   0.141   7.404 -0.2380  0.0954  1.6846
 7137SOL     OW33043   1.526   2.494   5.573  0.4877  0.5808  0.6124
 7137SOL    HW133044   1.598   2.509   5.635  1.1529  1.1895 -0.3184
 7137SOL    HW233045   1.459   2.471   5.637 -0.4373  1.4249 -0.0598
 7138SOL     OW33046   1.356   0.261   4.793  0.6035  0.1095  0.2520
 7138SOL    HW133047   1.403   0.196   4.741  0.4375  0.7246 -0.6753
 7138SOL    HW233048   1.329   0.324   4.725  0.3152 -1.5955 -1.2292
 7139SOL     OW33049   3.421   1.544   6.799 -0.2969  0.2738 -0.2552
 7139SOL    HW133050   3.349   1.606   6.812 -0.2628  0.7221 -2.2069
 7139SOL    HW233051   3.490   1.591   6.752 -0.5573  0.2014 -0.7017
 7140SOL     OW33052   0.280   4.533   3.400  0.1787  0.8653  0.1741
 7140SOL    HW133053   0.297   4.615   3.447 -1.3537  1.0053  0.4790
 7140SOL    HW233054   0.203   4.507   3.451  0.3831  1.8362  0.9833
 7141SOL     OW33055   3.972   4.001   1.283  0.0514 -0.1584 -0.1996
 7141SOL    HW133056   4.023   3.947   1.344  0.9975 -0.1839 -1.0116
 7141SOL    HW233057   4.046   4.031   1.230  0.4409  0.3847  0.6370
 7142SOL     OW33058   0.935   0.339   4.756  0.2657 -0.3663 -0.2780
 7142SOL    HW133059   0.964   0.314   4.844  1.0799 -1.1764 -0.7741
 7142SOL    HW233060   0.880   0.264   4.732  0.2365 -0.2188 -0.6698
 7143SOL     OW33061   2.755   3.556  10.351  0.2740 -0.0040 -0.1812
 7143SOL    HW133062   2.670   3.526  10.319  1.8774 -2.6190 -1.8991
 7143SOL    HW233063   2.803   3.478  10.377  1.8879  1.1566  0.3448
 7144SOL     OW33064   4.646   1.260   4.463  0.1708 -0.0305  0.2677
 7144SOL    HW133065   4.614   1.319   4.395 -1.3471  1.1919  2.0427
 7144SOL    HW233066   4.566   1.206   4.466 -0.1603  0.3043 -2.3784
 7145SOL     OW33067   1.900   4.242   6.138 -0.3956  0.1807  0.1588
 7145SOL    HW133068   1.891   4.336   6.152  1.3714  0.4415 -0.4022
 7145SOL    HW233069   1.815   4.223   6.098 -0.2107  0.6205 -0.4514
 7146SOL     OW33070   0.920   0.036  14.750 -0.0305 -0.3619 -0.5993
 7146SOL    HW133071   0.880   0.015  14.834  0.8269  0.6768  0.0778
 7146SOL    HW233072   1.007   0.063  14.780  0.1531 -0.3567 -1.1352
 7147SOL     OW33073   0.749   0.840   4.235  0.0787 -0.2291  0.3733
 7147SOL    HW133074   0.826   0.886   4.201 -0.5332 -1.1332 -2.2659
 7147SOL    HW233075   0.676   0.898   4.214  1.1740  0.4571 -1.5387
 7148SOL     OW33076   0.479   4.381   7.740 -0.0928  0.1196  0.5552
 7148SOL    HW133077   0.424   4.416   7.810 -0.4891 -1.8782  1.2460
 7148SOL    HW233078   0.418   4.390   7.667  1.5286  0.9504 -0.7081
 7149SOL     OW33079   2.318   2.645   6.118 -0.7748  0.2746  0.3166
 7149SOL    HW133080   2.224   2.657   6.103 -1.1026  0.3103  2.4776
 7149SOL    HW233081   2.338   2.736   6.139 -0.7585 -0.2806  2.6479
 7150SOL     OW33082   3.156   0.580   6.318  0.2484  0.4850  0.0936
 7150SOL    HW133083   3.195   0.633   6.248 -1.2831 -0.2076 -1.2801
 7150SOL    HW233084   3.089   0.522   6.282  0.9490  1.3453 -2.5770
 7151SOL     OW33085   4.692   0.194  12.355  0.0509  0.5770  0.3358
 7151SOL    HW133086   0.029   0.183  12.416  0.8337 -0.9299 -0.8520
 7151SOL    HW233087   4.624   0.174  12.418  0.4517  1.1837  0.9629
 7152SOL     OW33088   3.233   3.006   2.359 -0.2002 -0.2771  0.5039
 7152SOL    HW133089   3.305   2.969   2.409  1.2042  3.8269  1.5408
 7152SOL    HW233090   3.206   3.073   2.422  1.0551 -1.0303  1.8502
 7153SOL     OW33091   3.789   4.290   6.750 -0.2161 -0.0752  0.3549
 7153SOL    HW133092   3.862   4.257   6.802  0.4940  0.6271 -0.2129
 7153SOL    HW233093   3.768   4.359   6.813  1.2098 -0.1551  0.9021
 7154SOL     OW33094   0.310   0.500  10.833  0.4059 -0.0868 -0.9686
 7154SOL    HW133095   0.327   0.594  10.841 -2.9705  0.4387 -0.1077
 7154SOL    HW233096   0.283   0.510  10.742  1.0068 -0.0019 -1.1345
 7155SOL     OW33097   4.257   2.590   4.121 -0.7021 -0.4659 -0.0753
 7155SOL    HW133098   4.330   2.561   4.176  0.5079 -0.5232 -1.7057
 7155SOL    HW233099   4.179   2.598   4.175 -0.3022 -0.1175  0.4616
 7156SOL     OW33100   4.192   2.917   6.969 -0.0941  0.1850 -0.4410
 7156SOL    HW133101   4.205   3.010   6.948  0.8069  0.3464  0.8133
 7156SOL    HW233102   4.097   2.912   6.984 -0.0660 -1.4928 -0.8087
 7157SOL     OW33103   3.637   3.494   3.740 -0.2493  0.1656 -0.5897
 7157SOL    HW133104   3.622   3.563   3.676 -3.1944  1.6721  1.6711
 7157SOL    HW233105   3.725   3.526   3.758  0.4925 -0.8857 -2.3985
 7158SOL     OW33106   4.622   3.103   1.015 -0.4651  0.5822 -0.2904
 7158SOL    HW133107   4.666   3.140   1.092  0.9985 -0.5519 -0.5939
 7158SOL    HW233108   4.538   3.148   1.026 -1.4098 -1.3447  0.4382
 7159SOL     OW33109   1.433   2.904  15.298 -0.6384 -0.8772  0.2770
 7159SOL    HW133110   1.413   2.946  15.382 -0.2634  0.0961 -0.1209
 7159SOL    HW233111   1.431   2.811  15.321  0.9839 -0.9076  0.2677
 7160SOL     OW33112   2.439   3.851   3.764 -0.5728 -0.5095  0.2469
 7160SOL    HW133113   2.411   3.761   3.775 -1.4099 -0.6958 -3.6074
 7160SOL    HW233114   2.453   3.859   3.670  1.8412 -0.5198  0.6063
 7161SOL     OW33115   4.157   3.271   4.332 -0.4127  0.4461 -0.3891
 7161SOL    HW133116   4.189   3.252   4.420  2.9089 -0.6027 -1.7985
 7161SOL    HW233117   4.213   3.347   4.316  1.2139 -0.7645 -0.4560
 7162SOL     OW33118   2.740   0.268   9.338  0.2260  0.1899 -0.1449
 7162SOL    HW133119   2.825   0.224   9.333  0.7580  1.2987 -0.8427
 7162SOL    HW233120   2.687   0.200   9.378  1.3671 -1.5254 -1.5428
 7163SOL     OW33121   1.332   1.417   2.331 -0.1664  0.1561 -0.1620
 7163SOL    HW133122   1.252   1.421   2.279  1.1018 -0.2572 -2.1307
 7163SOL    HW233123   1.321   1.339   2.385  0.4333  0.5250  0.4945
 7164SOL     OW33124   1.223   3.883   1.712 -0.4559  0.4118  0.1427
 7164SOL    HW133125   1.262   3.923   1.635 -0.8739  0.9690  0.2246
 7164SOL    HW233126   1.225   3.963   1.764  1.0681  1.5401 -1.6564
 7165SOL     OW33127   0.119   2.673   3.759 -0.7389 -0.2431  0.2165
 7165SOL    HW133128   0.157   2.613   3.695  1.4406  0.3266  0.9776
 7165SOL    HW233129   0.199   2.702   3.802  0.0233 -3.0027  0.6761
 7166SOL     OW33130   0.835   2.177  14.960  0.2977 -0.9953 -0.5109
 7166SOL    HW133131   0.843   2.158  14.866 -0.5460  1.7809 -1.1545
 7166SOL    HW233132   0.890   2.107  14.994  0.0977 -0.4683  0.8822
 7167SOL     OW33133   0.375   4.501   1.618 -0.4321  0.5580 -0.0521
 7167SOL    HW133134   0.290   4.464   1.592 -1.0653  1.2098  1.0875
 7167SOL    HW233135   0.369   4.583   1.569 -0.3513  1.1657  0.9537
 7168SOL     OW33136   3.199   2.299   7.752 -0.3129 -0.2551 -0.2315
 7168SOL    HW133137   3.199   2.235   7.681 -1.3360 -0.9028  0.3533
 7168SOL    HW233138   3.119   2.347   7.734 -0.0282  0.9899  1.7588
 7169SOL     OW33139   0.972   1.226  12.332  0.0112 -0.2535  0.2584
 7169SOL    HW133140   0.946   1.315  12.357  0.9572  0.0098  0.3176
 7169SOL    HW233141   0.904   1.205  12.268  0.9663  4.1041 -2.1836
 7170SOL     OW33142   4.585   2.687   1.053 -0.3018 -0.2980  0.2484
 7170SOL    HW133143   4.591   2.612   1.112  0.9968 -1.3328 -1.1961
 7170SOL    HW233144   4.679   2.706   1.055 -0.5233  0.7602  0.5379
 7171SOL     OW33145   3.838   1.253   6.092  0.4695 -0.2866  0.0289
 7171SOL    HW133146   3.907   1.303   6.137  1.4902  0.2292 -2.0935
 7171SOL    HW233147   3.831   1.301   6.009  1.2202  1.7701  1.1421
 7172SOL     OW33148   4.032   1.870   6.605 -0.0457 -0.1710 -0.0727
 7172SOL    HW133149   4.028   1.784   6.648  0.5134  0.2052  0.7243
 7172SOL    HW233150   3.968   1.874   6.533  0.5518 -1.3154 -0.6668
 7173SOL     OW33151   4.529   4.454   1.166 -0.1695 -0.4677 -0.1921
 7173SOL    HW133152   4.625   4.460   1.169 -0.2242  0.0945  0.4632
 7173SOL    HW233153   4.502   4.458   1.258  0.1813 -1.1039 -0.0672
 7174SOL     OW33154   1.636   4.419   7.736 -0.5347  0.0519  0.2245
 7174SOL    HW133155   1.637   4.491   7.799  2.1483  1.2463 -1.1792
 7174SOL    HW233156   1.640   4.461   7.649  1.6390 -1.2515 -0.3018
 7175SOL     OW33157   2.129   0.943   8.091  0.2879  0.3993 -0.9393
 7175SOL    HW133158   2.181   1.015   8.124  0.9852 -0.2745 -0.5729
 7175SOL    HW233159   2.166   0.880   8.153 -0.1473  0.3199 -0.7586
 7176SOL     OW33160   4.621   2.321   8.412 -0.3452 -0.0391  0.8184
 7176SOL    HW133161   4.683   2.392   8.427  1.5199 -1.2716 -0.9414
 7176SOL    HW233162   4.667   2.266   8.348  0.5107  0.0382  1.3681
 7177SOL     OW33163   4.537   0.696  14.596  0.2037  0.6906 -0.4052
 7177SOL    HW133164   4.568   0.721  14.509 -0.0616  0.3927 -0.5854
 7177SOL    HW233165   4.548   0.775  14.648 -2.8296 -0.6630  2.3289
 7178SOL     OW33166   0.851   4.379  14.757  0.0943 -0.2409  0.6318
 7178SOL    HW133167   0.793   4.311  14.723 -1.1030  0.5521  1.0970
 7178SOL    HW233168   0.882   4.330  14.833 -1.4807 -0.8325  0.8946
 7179SOL     OW33169   1.482   1.244   8.166 -0.3915 -0.0749 -0.3606
 7179SOL    HW133170   1.436   1.294   8.099  0.7801 -1.2915 -2.0804
 7179SOL    HW233171   1.567   1.285   8.177 -1.1852  0.6003  3.2461
 7180SOL     OW33172   1.898   1.001  12.286  0.0980 -0.0030  0.2120
 7180SOL    HW133173   1.853   1.017  12.369 -0.2245  1.4103 -0.2363
 7180SOL    HW233174   1.944   0.920  12.308 -0.4699 -0.8925 -1.8809
 7181SOL     OW33175   3.286   4.175   4.994  0.0612 -0.3677 -0.5068
 7181SOL    HW133176   3.285   4.195   5.087  3.1721  0.3183 -0.6032
 7181SOL    HW233177   3.204   4.217   4.967 -0.6417 -1.7270 -0.4612
 7182SOL     OW33178   2.710   0.612   7.773 -0.3288 -0.6473 -0.0465
 7182SOL    HW133179   2.766   0.634   7.847 -0.9771  1.5493 -0.2058
 7182SOL    HW233180   2.636   0.672   7.783  1.3674  1.3034  0.6091
 7183SOL     OW33181   0.646   1.450   4.926  0.3376  0.1499 -0.6729
 7183SOL    HW133182   0.671   1.542   4.919  1.2320 -0.0793 -0.5714
 7183SOL    HW233183   0.667   1.437   5.019 -1.7047  3.9319  0.3016
 7184SOL     OW33184   2.731   4.179   4.540  0.3921  0.2658  0.3465
 7184SOL    HW133185   2.783   4.260   4.531  0.2576  0.1839 -1.1894
 7184SOL    HW233186   2.643   4.216   4.545  0.6887  0.9242  0.7823
 7185SOL     OW33187   3.940   3.284   0.816 -0.5707  0.6386 -0.1354
 7185SOL    HW133188   4.015   3.342   0.831 -0.6027  0.6123  0.1337
 7185SOL    HW233189   3.869   3.346   0.801 -1.1498 -0.2542 -1.0704
 7186SOL     OW33190   4.194   1.684   3.397 -0.2050 -0.0869 -0.3977
 7186SOL    HW133191   4.158   1.770   3.417  1.9857  0.8795 -0.5301
 7186SOL    HW233192   4.290   1.693   3.396  0.0016 -1.4659  3.2801
 7187SOL     OW33193   4.414   3.937   1.066  0.2886 -0.1564 -0.9032
 7187SOL    HW133194   4.484   3.925   1.001  1.1488 -0.0015 -0.0017
 7187SOL    HW233195   4.421   4.029   1.093 -0.1921 -0.4568  0.2451
 7188SOL     OW33196   1.185   1.416  11.951 -0.9108 -0.2651  0.3707
 7188SOL    HW133197   1.106   1.448  11.994  0.4316  0.8701  2.0082
 7188SOL    HW233198   1.221   1.494  11.908  0.4278  0.6610  3.1713
 7189SOL     OW33199   3.665   3.360   6.337  0.1482  0.6103  0.0170
 7189SOL    HW133200   3.642   3.318   6.420  2.8748 -1.4808 -0.2938
 7189SOL    HW233201   3.746   3.402   6.367 -0.8123  2.5351 -0.0780
 7190SOL     OW33202   0.161   3.535   3.650  0.5597 -0.6856  0.5142
 7190SOL    HW133203   0.183   3.482   3.726 -2.2459 -0.7787  1.2520
 7190SOL    HW233204   0.161   3.619   3.696 -0.9077 -0.9783  1.0404
 7191SOL     OW33205   2.190   4.087  12.020  0.0346  0.7396  0.5810
 7191SOL    HW133206   2.108   4.085  11.970 -0.1690 -0.9421  0.9674
 7191SOL    HW233207   2.165   4.163  12.073 -0.6644  1.0806 -0.2311
 7192SOL     OW33208   4.586   3.046   5.012  0.2011  0.1566  0.0915
 7192SOL    HW133209   4.658   3.040   4.948  0.5024  0.0471  0.4445
 7192SOL    HW233210   4.518   2.986   4.982 -1.8754  3.2029 -1.3710
 7193SOL     OW33211   2.836   3.127   9.578  0.3438 -0.4723  0.5609
 7193SOL    HW133212   2.817   3.204   9.525  0.6163  1.1851  2.8573
 7193SOL    HW233213   2.907   3.163   9.631  0.8919 -2.3376  1.0872
 7194SOL     OW33214   4.345   2.378   9.148 -0.2237  0.0007 -0.5737
 7194SOL    HW133215   4.347   2.288   9.116 -2.3819  0.2488 -1.4510
 7194SOL    HW233216   4.312   2.428   9.074 -2.1559 -1.2016 -0.5315
 7195SOL     OW33217   4.689   4.070   3.833 -0.7907 -0.1654 -0.3428
 7195SOL    HW133218   0.009   4.139   3.798 -1.0487  0.3231  0.2110
 7195SOL    HW233219   4.722   4.071   3.922 -1.2810  0.7048 -0.1705
 7196SOL     OW33220   1.965   1.202   5.156 -0.0194  0.0189  0.2918
 7196SOL    HW133221   2.058   1.223   5.154  0.5229 -2.3903  1.3779
 7196SOL    HW233222   1.946   1.156   5.074  0.3251  0.8305 -0.2471
 7197SOL     OW33223   1.209   0.246   5.397 -0.2550 -0.8853  0.4489
 7197SOL    HW133224   1.235   0.325   5.444 -1.9130 -0.2468  0.2962
 7197SOL    HW233225   1.115   0.228   5.400 -0.4004 -0.0430  0.9190
 7198SOL     OW33226   0.815   3.097   2.304 -0.0481 -0.4651 -0.1743
 7198SOL    HW133227   0.889   3.158   2.297 -2.7832  2.7012 -1.8029
 7198SOL    HW233228   0.803   3.059   2.217 -0.8627  1.6279 -0.9824
 7199SOL     OW33229   0.447   3.782   6.725  0.2162  0.0964  0.5319
 7199SOL    HW133230   0.505   3.716   6.763 -0.3860  0.1755  1.5913
 7199SOL    HW233231   0.418   3.825   6.806  2.1394  1.7510  0.3392
 7200SOL     OW33232   1.670   2.101   6.691 -0.4913 -0.1500  0.1081
 7200SOL    HW133233   1.612   2.116   6.766  0.4170  3.0232  0.1551
 7200SOL    HW233234   1.711   2.018   6.714  0.2400  1.2393  3.8303
 7201SOL     OW33235   3.379   2.376  11.934 -0.0501 -0.3261 -0.2286
 7201SOL    HW133236   3.357   2.330  12.015 -2.2608  1.5977  0.2573
 7201SOL    HW233237   3.296   2.374  11.886 -1.0323  2.5454  1.3244
 7202SOL     OW33238   3.001   1.803   3.611  0.4323  0.2333  0.5141
 7202SOL    HW133239   3.083   1.818   3.658 -0.0273 -0.4737  1.5307
 7202SOL    HW233240   2.948   1.752   3.672 -0.5488 -0.3492 -0.8436
 7203SOL     OW33241   4.369   0.609   8.812 -0.5125 -0.1347  0.2458
 7203SOL    HW133242   4.420   0.690   8.806  3.2994 -2.4985  1.0208
 7203SOL    HW233243   4.386   0.582   8.902  0.3648  0.6817  0.3291
 7204SOL     OW33244   1.938   1.895   7.830  0.0256  0.2156 -0.4406
 7204SOL    HW133245   2.013   1.899   7.770  1.1023  0.2447  0.9170
 7204SOL    HW233246   1.940   1.801   7.848  0.5877  0.1243 -0.9685
 7205SOL     OW33247   0.811   4.157   0.342  0.7563  0.4605  0.0979
 7205SOL    HW133248   0.771   4.235   0.303  2.3350  2.3413  2.1864
 7205SOL    HW233249   0.811   4.087   0.277 -1.0163  1.7648 -1.3051
 7206SOL     OW33250   2.467   2.547   8.656  0.0563  0.2055 -0.0574
 7206SOL    HW133251   2.474   2.463   8.611  0.5789 -0.7088  1.7440
 7206SOL    HW233252   2.526   2.601   8.604  0.9850 -0.5547  0.2160
 7207SOL     OW33253   2.278   1.680   7.366 -0.4558 -0.4451  0.1656
 7207SOL    HW133254   2.370   1.666   7.386 -0.8675 -0.5600  1.9789
 7207SOL    HW233255   2.279   1.739   7.290  0.0628  0.2085  0.6833
 7208SOL     OW33256   3.705   1.134   0.537 -0.1657 -0.0810  0.8507
 7208SOL    HW133257   3.682   1.042   0.523  0.6139 -0.4392  1.9198
 7208SOL    HW233258   3.624   1.167   0.576 -0.5269 -1.4278  1.2448
 7209SOL     OW33259   3.190   0.432   3.462  0.1054  0.0057  0.3765
 7209SOL    HW133260   3.275   0.458   3.497  2.1588 -1.0599 -3.8343
 7209SOL    HW233261   3.206   0.338   3.477  2.2445  0.6183  1.9246
 7210SOL     OW33262   1.748   0.996   5.631  0.4161 -0.7796  0.6735
 7210SOL    HW133263   1.726   0.988   5.724 -0.6593 -3.4667  0.2010
 7210SOL    HW233264   1.770   0.907   5.602 -0.7959 -0.5187 -1.0380
 7211SOL     OW33265   4.093   3.672   1.258 -0.0183 -0.0382 -0.2249
 7211SOL    HW133266   4.173   3.663   1.206  0.0554  1.9172 -0.4745
 7211SOL    HW233267   4.039   3.659   1.179 -3.3604  3.0304  1.5505
 7212SOL     OW33268   1.207   0.781   8.020  0.5044  0.1019  0.4808
 7212SOL    HW133269   1.282   0.762   8.076  0.2440 -1.3008  0.3442
 7212SOL    HW233270   1.224   0.871   7.990 -0.7590 -0.2764 -1.3531
 7213SOL     OW33271   1.230   1.831  13.466  0.3017 -0.1481  0.2858
 7213SOL    HW133272   1.218   1.828  13.561 -0.5809 -0.9420  0.1617
 7213SOL    HW233273   1.174   1.757  13.442  0.7435 -1.2470  2.6121
 7214SOL     OW33274   3.457   2.050  17.412 -0.1197  0.4081 -0.7741
 7214SOL    HW133275   3.437   1.992  17.486 -0.1866 -0.7528 -1.7152
 7214SOL    HW233276   3.382   2.110  17.407 -0.9712 -0.5995 -0.0305
 7215SOL     OW33277   3.877   3.788   1.715 -0.2529 -0.3798  0.9113
 7215SOL    HW133278   3.907   3.771   1.626 -1.2079  0.7928  0.3731
 7215SOL    HW233279   3.951   3.831   1.758  0.0105 -0.5936  0.6726
 7216SOL     OW33280   0.938   4.409   2.658 -0.4898  0.2419  0.7142
 7216SOL    HW133281   1.005   4.347   2.686  0.6057  1.0554 -0.0837
 7216SOL    HW233282   0.951   4.427   2.564 -1.2428 -1.0797  0.3602
 7217SOL     OW33283   0.320   1.884   7.981  0.2180 -0.4432  0.3727
 7217SOL    HW133284   0.270   1.824   7.926 -0.0527 -0.3584  0.5243
 7217SOL    HW233285   0.287   1.966   7.944  0.4378 -0.2213  0.6686
 7218SOL     OW33286   0.128   3.078   9.395 -0.1815  0.1818  0.2967
 7218SOL    HW133287   0.195   3.146   9.406 -1.9065  1.9357 -0.0108
 7218SOL    HW233288   0.048   3.130   9.403 -1.3140 -1.5924  0.4848
 7219SOL     OW33289   3.608   3.140  16.311 -0.2816  0.0626  0.1753
 7219SOL    HW133290   3.668   3.086  16.259 -0.7718 -2.0157  1.7601
 7219SOL    HW233291   3.584   3.075  16.377  1.1766  0.7108  1.3364
 7220SOL     OW33292   0.695   0.568   1.693 -1.2631 -0.0928 -0.2676
 7220SOL    HW133293   0.763   0.526   1.745 -0.0199  1.2517 -0.8195
 7220SOL    HW233294   0.682   0.640   1.755  1.6156  0.4911 -0.3392
 7221SOL     OW33295   0.593   1.430   0.873  0.1003 -0.3437  0.0363
 7221SOL    HW133296   0.611   1.352   0.822 -1.4777  0.3664 -1.6302
 7221SOL    HW233297   0.555   1.488   0.806 -0.6145 -1.8930 -0.8933
 7222SOL     OW33298   2.147   4.361   3.645 -0.0056 -0.2639 -0.0354
 7222SOL    HW133299   2.086   4.379   3.573 -0.6450 -1.8560  0.1194
 7222SOL    HW233300   2.222   4.331   3.594 -0.5177 -3.3806  1.0686
 7223SOL     OW33301   0.813   1.938   5.494  0.6508 -0.2142  0.5142
 7223SOL    HW133302   0.812   1.892   5.577  1.4609 -2.1481 -0.5365
 7223SOL    HW233303   0.892   1.993   5.492 -0.3083  1.1339 -0.2046
 7224SOL     OW33304   1.810   3.241  15.133 -0.5447 -0.1790  0.4029
 7224SOL    HW133305   1.758   3.162  15.134  1.1996 -1.3276  0.7380
 7224SOL    HW233306   1.892   3.199  15.161 -0.5257  0.8107  1.8439
 7225SOL     OW33307   0.576   0.952  10.930  0.1099 -0.4566 -0.6799
 7225SOL    HW133308   0.637   0.891  10.973  0.0877  1.1761  1.6504
 7225SOL    HW233309   0.550   1.015  10.997 -0.1551 -1.2027 -0.0892
 7226SOL     OW33310   2.366   2.387   6.113  0.0522  0.0434 -0.2501
 7226SOL    HW133311   2.452   2.395   6.073  0.2026  1.5669  0.3611
 7226SOL    HW233312   2.335   2.476   6.095 -0.0127  0.2387  0.8195
 7227SOL     OW33313   0.690   0.178  10.160 -0.1458 -0.6471 -0.2951
 7227SOL    HW133314   0.747   0.155  10.232  1.1335 -1.7574 -1.6779
 7227SOL    HW233315   0.608   0.184  10.211  0.8736  1.4868  1.1161
 7228SOL     OW33316   3.259   0.936   2.118 -0.3565 -0.0579 -0.1095
 7228SOL    HW133317   3.249   0.962   2.027 -2.3989 -0.0101  0.1351
 7228SOL    HW233318   3.249   0.841   2.119  4.3902 -0.5771 -2.0937
 7229SOL     OW33319   4.591   3.522   4.715 -0.3726  0.1476 -0.0365
 7229SOL    HW133320   4.524   3.546   4.779 -1.5912 -1.0480 -0.8585
 7229SOL    HW233321   4.538   3.461   4.664 -1.7947 -1.3943  3.2548
 7230SOL     OW33322   3.645   2.545  11.262  0.1719 -0.0690  0.2781
 7230SOL    HW133323   3.649   2.465  11.314  0.7385  0.6761  1.3820
 7230SOL    HW233324   3.619   2.613  11.324  0.2937  1.3430 -1.1938
 7231SOL     OW33325   2.200   2.532  16.023  0.3130  0.4784 -0.0089
 7231SOL    HW133326   2.260   2.542  16.097  0.9406 -0.6921 -0.3617
 7231SOL    HW233327   2.152   2.453  16.049  3.2754 -0.6598  2.0697
 7232SOL     OW33328   4.020   4.126   6.619 -0.1293  0.0579  0.0139
 7232SOL    HW133329   3.937   4.119   6.665 -0.0585  0.5896  0.2231
 7232SOL    HW233330   4.013   4.048   6.564 -0.8715 -0.2862  0.5948
 7233SOL     OW33331   1.931   1.804   2.523  0.0970 -0.3416 -0.0116
 7233SOL    HW133332   1.906   1.892   2.552  1.5975  0.3734 -0.8607
 7233SOL    HW233333   2.019   1.804   2.561  0.7037  0.4558 -1.4329
 7234SOL     OW33334   0.708   2.938   7.941  0.5951  0.6377  0.0163
 7234SOL    HW133335   0.717   3.021   7.987 -2.5637  0.7845  0.3767
 7234SOL    HW233336   0.636   2.890   7.982  0.1323  0.6039 -0.8430
 7235SOL     OW33337   3.020   3.832   1.280 -0.1229 -0.3890 -0.0027
 7235SOL    HW133338   3.087   3.764   1.277 -1.0038 -1.2299 -0.6575
 7235SOL    HW233339   3.068   3.915   1.278 -0.6362 -0.0423  1.7444
 7236SOL     OW33340   1.493   2.940   8.229 -0.3536 -0.5697  0.0266
 7236SOL    HW133341   1.420   2.888   8.262 -1.9537  0.2472 -2.2701
 7236SOL    HW233342   1.550   2.864   8.216 -0.6312 -0.8999  0.7290
 7237SOL     OW33343   0.438   4.395   2.404  0.5193 -0.1292  0.2811
 7237SOL    HW133344   0.416   4.312   2.445  1.5783  1.3668  3.9327
 7237SOL    HW233345   0.440   4.361   2.315  2.7923  1.5402 -0.2909
 7238SOL     OW33346   1.115   1.645   7.083  0.1870  0.2093 -0.3565
 7238SOL    HW133347   1.141   1.554   7.099  1.9412  1.1988  2.3483
 7238SOL    HW233348   1.032   1.656   7.130  0.2491 -5.2852  1.0791
 7239SOL     OW33349   0.252   1.482   3.170  0.2952  0.2372  0.1866
 7239SOL    HW133350   0.269   1.392   3.198 -0.6431  0.0950  0.2954
 7239SOL    HW233351   0.338   1.505   3.133 -0.3015  2.4465  0.1778
 7240SOL     OW33352   3.344   4.293   6.907 -0.7376 -0.5057  0.1652
 7240SOL    HW133353   3.430   4.300   6.949 -1.0843  0.7556  0.6400
 7240SOL    HW233354   3.319   4.383   6.888  1.6919 -0.0672 -0.9180
 7241SOL     OW33355   0.103   2.932   4.387 -0.3085  0.0117 -0.2354
 7241SOL    HW133356   0.033   2.944   4.324 -0.7306  0.5792  0.3525
 7241SOL    HW233357   0.066   2.886   4.463  0.5533 -1.0639 -0.4601
 7242SOL     OW33358   1.124   3.085   8.411  0.2797  0.2345  0.1041
 7242SOL    HW133359   1.095   3.066   8.500  1.8180 -2.2184  0.0745
 7242SOL    HW233360   1.047   3.086   8.353  2.2511  0.9565 -2.5135
 7243SOL     OW33361   3.277   4.457   2.818  0.6388 -0.2683  0.0786
 7243SOL    HW133362   3.322   4.381   2.781  0.8450 -0.1515  0.0819
 7243SOL    HW233363   3.186   4.431   2.807  0.2823  1.4498 -1.1635
 7244SOL     OW33364   2.484   4.643  17.536  0.4705  0.0216  0.4052
 7244SOL    HW133365   2.504   4.630  17.443 -0.8380 -1.5477  0.3469
 7244SOL    HW233366   2.392   4.665  17.530  0.9716  1.2791 -3.0357
 7245SOL     OW33367   3.469   0.852  15.192  0.8066  0.0102  0.3680
 7245SOL    HW133368   3.474   0.924  15.255  1.1394 -0.0986  0.4677
 7245SOL    HW233369   3.510   0.881  15.111  0.6328  0.5427  0.4700
 7246SOL     OW33370   0.140   2.014  12.664  0.3966  0.4269  0.7088
 7246SOL    HW133371   0.147   1.973  12.578 -0.0149  1.4974  0.1679
 7246SOL    HW233372   0.205   2.084  12.663 -0.9721  1.6702 -0.5161
 7247SOL     OW33373   3.624   3.217   2.211  0.3709  0.0034  0.2445
 7247SOL    HW133374   3.586   3.153   2.270 -0.7854 -0.6449 -1.1970
 7247SOL    HW233375   3.629   3.289   2.274  2.6252 -0.1352  0.2237
 7248SOL     OW33376   2.175   1.163  11.672  0.9576 -0.0958 -0.2555
 7248SOL    HW133377   2.111   1.097  11.699  1.5812 -0.3605  0.5576
 7248SOL    HW233378   2.126   1.241  11.699 -0.6680 -1.2666  0.2292
 7249SOL     OW33379   1.930   4.343  11.215 -0.3920  0.2963 -0.3341
 7249SOL    HW133380   1.952   4.432  11.241  0.5921 -1.3911  4.4876
 7249SOL    HW233381   1.835   4.351  11.223 -0.4498 -0.4018 -0.3181
 7250SOL     OW33382   4.515   2.475   4.218 -0.0903  0.0950  0.4264
 7250SOL    HW133383   4.611   2.472   4.216 -0.0440  0.0182  3.4513
 7250SOL    HW233384   4.503   2.400   4.276 -1.2558  0.0598  0.1364
 7251SOL     OW33385   4.251   1.889   9.168  0.5885 -0.6221  0.3756
 7251SOL    HW133386   4.331   1.845   9.139  0.0189 -2.2612  1.2858
 7251SOL    HW233387   4.275   1.930   9.250 -0.3174  0.1696  0.2342
 7252SOL     OW33388   1.039   3.415   7.300  0.0674  0.1640 -0.2869
 7252SOL    HW133389   1.059   3.405   7.393 -0.1108 -1.0023 -0.3764
 7252SOL    HW233390   1.064   3.506   7.282  0.8770 -0.0767 -0.3741
 7253SOL     OW33391   2.414   1.550   8.064 -0.0776  0.2835  0.4430
 7253SOL    HW133392   2.332   1.582   8.026 -0.7571 -0.1570  1.5536
 7253SOL    HW233393   2.420   1.604   8.143  3.3258  0.4083  0.1010
 7254SOL     OW33394   1.251   4.613  17.595 -0.1011  0.2816  0.0864
 7254SOL    HW133395   1.346   4.627  17.592  0.0874 -1.1701 -0.3079
 7254SOL    HW233396   1.259   4.525  17.631  1.0285 -0.4765 -1.9961
 7255SOL     OW33397   2.057   3.050   3.567 -0.2135 -0.7910  0.3011
 7255SOL    HW133398   2.127   3.062   3.630 -0.0843  1.0876 -0.1958
 7255SOL    HW233399   2.103   3.037   3.484 -1.6380  0.8042 -0.7395
 7256SOL     OW33400   1.441   3.122   4.450 -0.1798  0.4955  0.1302
 7256SOL    HW133401   1.436   3.052   4.385  3.1652  0.8371 -0.4743
 7256SOL    HW233402   1.489   3.197   4.415 -0.2340  0.5274  0.1246
 7257SOL     OW33403   3.901   2.337   5.213 -0.4568  0.8210 -0.3286
 7257SOL    HW133404   3.990   2.324   5.179 -0.6089 -3.6017  0.8555
 7257SOL    HW233405   3.931   2.357   5.301  0.2424 -2.8380  0.2850
 7258SOL     OW33406   1.818   0.386   6.617 -0.2180 -0.0984  0.1520
 7258SOL    HW133407   1.749   0.437   6.659 -0.1255  0.7033 -0.6790
 7258SOL    HW233408   1.775   0.300   6.623 -1.0322  0.2395 -1.0170
 7259SOL     OW33409   2.892   3.069   9.126 -0.7578 -0.1230 -0.0028
 7259SOL    HW133410   2.984   3.079   9.099 -1.3562  0.7279 -1.7342
 7259SOL    HW233411   2.885   3.142   9.188 -1.0153 -1.1139  1.1145
 7260SOL     OW33412   3.198   4.323   1.975  0.4765 -0.0130 -0.1520
 7260SOL    HW133413   3.277   4.376   1.987  0.6989 -0.6430  1.1474
 7260SOL    HW233414   3.137   4.387   1.939  0.6373  2.0836  3.3796
 7261SOL     OW33415   0.397   2.565   6.556  0.0393 -0.0554 -0.4072
 7261SOL    HW133416   0.397   2.555   6.651  0.9999  1.8959 -0.2034
 7261SOL    HW233417   0.407   2.660   6.557 -1.2608  0.0837 -0.6651
 7262SOL     OW33418   3.621   0.001   7.808  0.1328  0.1992 -0.2908
 7262SOL    HW133419   3.531   0.028   7.820 -0.6146 -2.8646  1.1007
 7262SOL    HW233420   3.612   4.696   7.722 -0.4555  0.8111 -0.5163
 7263SOL     OW33421   3.528   0.088   6.521  0.1414  0.0983  0.0214
 7263SOL    HW133422   3.617   0.113   6.497  0.3356 -0.4639  0.1545
 7263SOL    HW233423   3.486   0.135   6.449 -1.1768  0.2432  0.8861
 7264SOL     OW33424   1.206   0.531   3.817  0.4480  0.3044  0.3654
 7264SOL    HW133425   1.273   0.594   3.791  0.7371  0.6870  2.0028
 7264SOL    HW233426   1.241   0.453   3.775  0.3662 -1.2241  3.1536
 7265SOL     OW33427   4.607   2.239  13.127  0.5895 -0.1217 -0.2843
 7265SOL    HW133428   4.613   2.235  13.032 -0.7012 -0.9111 -0.3313
 7265SOL    HW233429   4.529   2.293  13.136  0.4527 -0.6196  1.5267
 7266SOL     OW33430   4.077   3.313   9.811 -0.4631 -0.2631  0.8617
 7266SOL    HW133431   4.019   3.269   9.872 -1.1107 -2.5428 -1.3870
 7266SOL    HW233432   4.164   3.310   9.850  0.5324  0.9573 -1.2422
 7267SOL     OW33433   3.774   3.897   8.847 -0.0164  0.0615  0.0338
 7267SOL    HW133434   3.771   3.989   8.872  0.8530 -0.3044  1.4799
 7267SOL    HW233435   3.870   3.891   8.842 -0.1116 -1.0645 -0.4127
 7268SOL     OW33436   2.902   4.476   8.981  0.2083  0.3578  0.6376
 7268SOL    HW133437   2.824   4.527   8.957 -1.0035 -2.2822 -0.9827
 7268SOL    HW233438   2.974   4.523   8.940  0.4731  0.4377  1.1973
 7269SOL     OW33439   3.390   1.624   6.184  0.0269  0.0739 -0.0275
 7269SOL    HW133440   3.379   1.683   6.258 -0.6525  0.5565 -0.5145
 7269SOL    HW233441   3.407   1.689   6.115  1.2796  0.6875  0.8481
 7270SOL     OW33442   0.391   3.011   1.417  0.7839 -0.9635 -0.3573
 7270SOL    HW133443   0.425   2.923   1.433 -0.4828 -1.3576  0.1748
 7270SOL    HW233444   0.324   3.028   1.483  2.0914 -0.6386  0.8813
 7271SOL     OW33445   4.713   1.642   7.047  0.0038 -0.5100  0.1691
 7271SOL    HW133446   0.057   1.678   7.007  0.1260  0.6927  1.4944
 7271SOL    HW233447   4.654   1.716   7.035  1.9246  0.6525 -2.2325
 7272SOL     OW33448   2.316   3.210   8.903 -0.0449  0.0790 -0.1690
 7272SOL    HW133449   2.374   3.142   8.938 -1.3356 -1.4317 -0.9693
 7272SOL    HW233450   2.346   3.290   8.946  0.0551  0.1650 -0.3963
 7273SOL     OW33451   3.853   0.466   0.950 -0.2084  0.4075  0.1796
 7273SOL    HW133452   3.809   0.448   0.867  2.1573  1.0547 -1.2175
 7273SOL    HW233453   3.926   0.407   0.936 -1.7934 -1.3340 -0.7555
 7274SOL     OW33454   3.862   3.436   0.530  0.2670 -0.1838 -0.5251
 7274SOL    HW133455   3.925   3.431   0.459  1.6400 -0.1504  0.7029
 7274SOL    HW233456   3.922   3.456   0.601 -0.2824  0.0154 -0.1122
 7275SOL     OW33457   3.964   3.142   2.627  0.4034  0.1359 -0.1062
 7275SOL    HW133458   4.038   3.106   2.579  0.1801  1.9557 -1.7973
 7275SOL    HW233459   3.894   3.094   2.583  0.6366  0.6374 -1.0098
 7276SOL     OW33460   4.068   3.547   1.671 -0.5837  0.4948 -0.0184
 7276SOL    HW133461   4.014   3.620   1.701 -1.6111  0.3322 -1.4370
 7276SOL    HW233462   4.156   3.583   1.681 -0.7208  1.2111 -1.3886
 7277SOL     OW33463   4.487   0.372  16.803 -0.6000  0.2097 -0.2555
 7277SOL    HW133464   4.483   0.365  16.898 -0.4104 -0.2249 -0.2773
 7277SOL    HW233465   4.444   0.289  16.778 -1.5225  0.7675 -0.5291
 7278SOL     OW33466   2.811   0.867   7.533  0.3864 -0.2170  0.6196
 7278SOL    HW133467   2.783   0.947   7.488 -1.4389 -0.5264  1.2016
 7278SOL    HW233468   2.732   0.813   7.525 -0.4223  0.8198  1.6662
 7279SOL     OW33469   2.249   4.709   9.119 -0.1553 -0.0438 -0.1755
 7279SOL    HW133470   2.219   0.043   9.061  0.5073 -0.6033 -1.1859
 7279SOL    HW233471   2.172   4.653   9.123  0.5902 -0.9362  1.9414
 7280SOL     OW33472   2.616   2.181   4.646 -0.3651  0.5304  0.3216
 7280SOL    HW133473   2.564   2.142   4.575  0.8927 -1.6792  0.5981
 7280SOL    HW233474   2.649   2.262   4.609 -1.0129  0.2863 -0.7948
 7281SOL     OW33475   1.065   3.781  14.404 -0.6648 -0.5176  0.2759
 7281SOL    HW133476   1.112   3.810  14.482 -2.8949  1.3883  0.9135
 7281SOL    HW233477   0.998   3.724  14.442 -0.1542 -2.3760 -1.6282
 7282SOL     OW33478   3.808   4.129   8.967 -0.1098  0.1709 -0.4243
 7282SOL    HW133479   3.758   4.144   9.047 -2.6319 -0.2772 -1.9112
 7282SOL    HW233480   3.840   4.218   8.953  0.5973  0.0017  0.1451
 7283SOL     OW33481   0.945   4.405   2.400  0.3978  0.1587  0.5054
 7283SOL    HW133482   0.872   4.356   2.361  0.5406  0.0215  0.4085
 7283SOL    HW233483   1.015   4.359   2.354  1.0714  1.7582 -0.0716
 7284SOL     OW33484   4.562   1.812  13.502 -0.8635  0.1427  0.6216
 7284SOL    HW133485   4.518   1.749  13.444  1.7125 -2.2430  1.2604
 7284SOL    HW233486   4.488   1.871  13.518 -0.2186  1.8872 -2.9558
 7285SOL     OW33487   4.331   1.989  15.793 -0.6282  0.5539  0.5968
 7285SOL    HW133488   4.271   1.998  15.866 -0.7105  2.7322  0.2755
 7285SOL    HW233489   4.317   1.897  15.771 -0.3050  0.1725  2.0435
 7286SOL     OW33490   0.688   2.171   8.215  0.3553  0.5146 -0.4081
 7286SOL    HW133491   0.670   2.206   8.127 -1.2183 -0.4416 -0.4593
 7286SOL    HW233492   0.766   2.221   8.240  1.1485 -0.8340 -0.1806
 7287SOL     OW33493   3.540   0.461  17.705  0.0502  0.7500  0.0454
 7287SOL    HW133494   3.619   0.407  17.707 -0.2007  0.3339 -1.1232
 7287SOL    HW233495   3.577   0.543  17.738 -1.0215 -0.2472  3.7554
 7288SOL     OW33496   1.001   1.533   7.654  0.4894  0.2140 -0.6414
 7288SOL    HW133497   1.014   1.589   7.731  1.9717 -1.1529  0.0995
 7288SOL    HW233498   0.907   1.542   7.642  0.4007  0.9838  0.6209
 7289SOL     OW33499   3.383   2.717   4.652 -0.0259 -0.3823 -0.0100
 7289SOL    HW133500   3.425   2.747   4.732 -3.4194  4.1964  0.0038
 7289SOL    HW233501   3.440   2.766   4.592  0.9987 -1.1820  0.3204
 7290SOL     OW33502   3.884   4.701  16.568  0.0597  0.0631  0.1932
 7290SOL    HW133503   3.829   4.713  16.645 -1.4822 -0.8974 -0.7520
 7290SOL    HW233504   3.830   0.014  16.507  0.2517 -1.4057 -1.1666
 7291SOL     OW33505   0.889   4.360  11.388  0.7244  0.0460  0.4631
 7291SOL    HW133506   0.840   4.291  11.433  1.5441 -1.1705 -0.5178
 7291SOL    HW233507   0.817   4.399  11.338  1.0565  0.1765  0.0861
 7292SOL     OW33508   0.432   4.005  11.390  0.2277 -0.0903 -0.3504
 7292SOL    HW133509   0.406   3.939  11.454 -2.4861  0.3902 -0.9580
 7292SOL    HW233510   0.480   3.949  11.329  2.6307  1.2796  0.2765
 7293SOL     OW33511   3.276   1.613  11.131  0.8316 -0.2745  0.0500
 7293SOL    HW133512   3.295   1.571  11.047 -4.0669 -0.3338 -1.0505
 7293SOL    HW233513   3.181   1.627  11.125  0.8880 -0.2834 -0.8759
 7294SOL     OW33514   0.437   1.688   4.586 -0.7601  1.1219  0.2441
 7294SOL    HW133515   0.531   1.701   4.570 -0.9335  1.5316 -0.4300
 7294SOL    HW233516   0.431   1.630   4.662  0.0105 -0.2767 -0.7642
 7295SOL     OW33517   4.678   0.843   1.077  0.2629  0.0479 -0.0373
 7295SOL    HW133518   4.584   0.860   1.077  0.6498  2.2210  0.6524
 7295SOL    HW233519   4.700   0.859   0.986  1.3285  0.3059  0.2660
 7296SOL     OW33520   2.479   3.643   8.038  0.3698 -0.1717  0.0779
 7296SOL    HW133521   2.492   3.548   8.045 -2.5348 -0.5355  0.6718
 7296SOL    HW233522   2.490   3.670   8.129  0.1494 -0.9767  0.3460
 7297SOL     OW33523   0.603   3.935   6.225  0.0874  0.1232 -0.0255
 7297SOL    HW133524   0.553   3.943   6.306  4.7836  1.3096  2.7460
 7297SOL    HW233525   0.691   3.953   6.257 -0.1558  1.3339 -0.0247
 7298SOL     OW33526   3.381   2.063  15.854  0.4930  0.6207  0.1972
 7298SOL    HW133527   3.312   2.127  15.835 -0.9117 -0.5031  1.3948
 7298SOL    HW233528   3.441   2.102  15.917  0.8834  1.6984 -0.8528
 7299SOL     OW33529   2.787   4.344  12.863  0.2778  0.2685  0.0002
 7299SOL    HW133530   2.825   4.319  12.947  1.1683  3.0123  0.4216
 7299SOL    HW233531   2.845   4.414  12.833  3.9066 -3.1767 -0.9163
 7300SOL     OW33532   0.260   3.359   1.735 -0.1036  0.3580  0.3112
 7300SOL    HW133533   0.193   3.388   1.673 -0.2347  0.3735  0.4601
 7300SOL    HW233534   0.338   3.364   1.680 -2.4023 -0.8992 -3.0780
 7301SOL     OW33535   0.571   1.897   2.313  0.1699  0.4335 -0.1002
 7301SOL    HW133536   0.595   1.821   2.260  0.6131  0.1969  0.4389
 7301SOL    HW233537   0.656   1.938   2.303  0.4945 -0.7878 -2.2071
 7302SOL     OW33538   3.991   1.424   5.126  0.1718 -0.5222 -0.1526
 7302SOL    HW133539   3.994   1.407   5.032  3.1469 -0.6165 -0.0201
 7302SOL    HW233540   4.036   1.505   5.149  0.9786 -0.8880 -0.4789
 7303SOL     OW33541   1.200   1.374   8.426  0.2018  0.0597  0.3436
 7303SOL    HW133542   1.149   1.303   8.388 -1.5627  1.2647  0.4468
 7303SOL    HW233543   1.223   1.426   8.350 -0.6376 -0.4613 -0.2622
 7304SOL     OW33544   0.257   3.881  12.767 -0.5461 -0.4690 -0.2663
 7304SOL    HW133545   0.226   3.877  12.677 -2.2170  0.3639  0.2862
 7304SOL    HW233546   0.235   3.970  12.796 -2.7263 -0.7531 -1.1302
 7305SOL     OW33547   1.005   0.878  14.417 -0.0774 -0.3722 -0.1148
 7305SOL    HW133548   1.012   0.796  14.368 -0.8748  0.3839 -1.5046
 7305SOL    HW233549   0.922   0.913  14.384  0.6569 -0.1640 -1.7394
 7306SOL     OW33550   4.731   3.757  12.735 -0.9079 -0.5426  0.2128
 7306SOL    HW133551   0.020   3.816  12.664 -1.0804  0.8659  1.3055
 7306SOL    HW233552   0.060   3.772  12.803 -1.5966 -1.2410  1.0269
 7307SOL     OW33553   0.614   4.401   1.522 -0.3656 -0.1971 -0.2795
 7307SOL    HW133554   0.533   4.424   1.568 -0.6173 -2.3941  0.3783
 7307SOL    HW233555   0.624   4.306   1.521  0.5244 -0.1006 -0.4914
 7308SOL     OW33556   1.957   1.656  12.077  0.1483  0.1086 -0.0576
 7308SOL    HW133557   1.901   1.604  12.135 -0.0585  0.0783 -0.2853
 7308SOL    HW233558   2.017   1.698  12.138 -2.0318  1.5085  1.1066
 7309SOL     OW33559   2.856   1.671   2.262 -0.4924 -0.9706 -0.0674
 7309SOL    HW133560   2.897   1.600   2.214 -0.2431 -0.6459 -0.3377
 7309SOL    HW233561   2.813   1.725   2.196  3.3051  1.7222 -0.3778
 7310SOL     OW33562   1.491   1.474   2.142  0.1598  0.2489  0.5089
 7310SOL    HW133563   1.500   1.566   2.167 -4.0517  0.3490  1.5716
 7310SOL    HW233564   1.437   1.445   2.216 -0.6625  0.6656  0.0664
 7311SOL     OW33565   0.713   4.540   4.274  0.0087 -0.0248  0.1341
 7311SOL    HW133566   0.805   4.535   4.302  0.0642 -1.9474 -0.4450
 7311SOL    HW233567   0.721   4.627   4.235  1.7958 -0.6548 -0.9030
 7312SOL     OW33568   0.388   4.731  13.507  0.2816 -0.8893  0.1871
 7312SOL    HW133569   0.322   0.044  13.458  0.2671 -0.4985  0.5995
 7312SOL    HW233570   0.378   4.651  13.456 -0.8836 -1.0202  0.6167
 7313SOL     OW33571   0.102   3.329   0.930  0.0449  0.4056 -0.0203
 7313SOL    HW133572   0.022   3.292   0.892  1.5041 -2.0378 -0.6970
 7313SOL    HW233573   0.081   3.420   0.911 -1.1323  0.0602 -0.3962
 7314SOL     OW33574   2.594   3.213   3.867 -0.4642 -0.0487  0.4554
 7314SOL    HW133575   2.558   3.197   3.779 -0.1810  0.0695  0.3174
 7314SOL    HW233576   2.662   3.280   3.858  1.6136 -2.0056  1.7356
 7315SOL     OW33577   3.889   0.232   7.111  0.2504 -0.3378 -0.1296
 7315SOL    HW133578   3.795   0.231   7.097 -0.0869  1.0793  2.0098
 7315SOL    HW233579   3.919   0.154   7.064  1.5995 -0.1475  0.4026
 7316SOL     OW33580   4.434   0.124   1.016 -0.2351 -0.1903  1.2004
 7316SOL    HW133581   4.506   0.063   0.999 -0.4430  0.0183 -0.3759
 7316SOL    HW233582   4.456   0.146   1.107  2.0782  0.6973  0.4213
 7317SOL     OW33583   3.753   2.954   4.990 -1.0425 -0.3641 -0.6458
 7317SOL    HW133584   3.828   3.012   4.979 -1.5408  0.5561  0.8551
 7317SOL    HW233585   3.761   2.928   5.082  0.9363  0.8394 -0.4763
 7318SOL     OW33586   0.998   1.197   7.850 -0.3174  0.8240  0.4890
 7318SOL    HW133587   0.918   1.146   7.841  1.1081 -1.1646 -0.7813
 7318SOL    HW233588   0.995   1.244   7.766  1.7737  2.0440  1.0847
 7319SOL     OW33589   2.601   0.660   7.392 -0.0611  0.0513 -0.2994
 7319SOL    HW133590   2.547   0.581   7.393  3.6378 -2.4905  0.4949
 7319SOL    HW233591   2.533   0.722   7.367 -1.6623 -2.1235 -1.3285
 7320SOL     OW33592   1.772   0.601   7.586 -0.6626 -0.1561  0.4172
 7320SOL    HW133593   1.739   0.528   7.535  1.9704  0.2165 -1.8115
 7320SOL    HW233594   1.778   0.656   7.508 -1.9086  0.1684  0.5401
 7321SOL     OW33595   0.292   0.570   2.043 -0.1048 -0.4874  0.1331
 7321SOL    HW133596   0.382   0.556   2.075 -0.5103 -0.7112  1.1779
 7321SOL    HW233597   0.282   0.658   2.077  1.9408  0.5995 -2.0630
 7322SOL     OW33598   0.138   1.648  12.556  0.2446  0.1698  0.6193
 7322SOL    HW133599   0.131   1.628  12.649 -0.9871 -0.4422  0.3836
 7322SOL    HW233600   0.226   1.626  12.526  0.7497 -3.4472  4.8500
 7323SOL     OW33601   2.511   0.822   7.828 -0.0162  0.0598  0.7440
 7323SOL    HW133602   2.426   0.800   7.790 -0.2536  2.2709 -0.0238
 7323SOL    HW233603   2.502   0.916   7.811 -0.1841  0.1464  1.3019
 7324SOL     OW33604   1.179   2.131   6.180  0.1959 -0.0370 -0.1538
 7324SOL    HW133605   1.217   2.140   6.092 -1.3346  1.0705 -0.7059
 7324SOL    HW233606   1.250   2.080   6.219  0.8008  1.4715  0.7102
 7325SOL     OW33607   0.258   1.236   2.263 -0.0672  0.2904 -0.3078
 7325SOL    HW133608   0.288   1.190   2.341  0.6620 -1.4218 -1.5963
 7325SOL    HW233609   0.162   1.232   2.267  0.1222 -2.3125  1.8484
 7326SOL     OW33610   3.348   4.472   2.399  0.1527  0.3889 -0.0599
 7326SOL    HW133611   3.349   4.378   2.418 -0.3103  0.3470 -0.2331
 7326SOL    HW233612   3.429   4.511   2.434  1.4924 -0.9904 -1.6126
 7327SOL     OW33613   0.646   2.094   7.751 -0.0694  0.1100  0.2388
 7327SOL    HW133614   0.615   2.130   7.835 -0.5948  1.1227 -0.3886
 7327SOL    HW233615   0.733   2.134   7.749 -0.2628  0.4726 -0.6998
 7328SOL     OW33616   3.895   4.353   2.348 -0.0509 -0.3119 -0.1506
 7328SOL    HW133617   3.855   4.350   2.434 -2.0797 -1.2597 -1.1311
 7328SOL    HW233618   3.826   4.390   2.293  0.4118  1.8888  0.7548
 7329SOL     OW33619   1.372   1.529   5.614  0.1381 -0.7024 -0.6818
 7329SOL    HW133620   1.424   1.458   5.653  2.3643 -0.0390 -2.4043
 7329SOL    HW233621   1.299   1.487   5.570 -1.8549  1.6720  0.3630
 7330SOL     OW33622   3.681   0.335   2.500 -0.2108 -0.9972  0.1622
 7330SOL    HW133623   3.770   0.309   2.525  0.1967 -0.0954 -0.3216
 7330SOL    HW233624   3.669   0.403   2.567 -1.1035 -2.1165  1.1263
 7331SOL     OW33625   1.233   1.754   4.371 -0.0586  0.0324  0.1173
 7331SOL    HW133626   1.252   1.680   4.314 -0.8027  1.6287 -2.1936
 7331SOL    HW233627   1.307   1.815   4.364  0.2364 -0.1131  2.0537
 7332SOL     OW33628   4.034   3.926  10.599 -0.5586 -0.2700 -0.2807
 7332SOL    HW133629   4.087   3.887  10.530 -1.5485 -1.7062 -0.2293
 7332SOL    HW233630   4.105   3.964  10.650 -0.1276  0.1875 -1.2258
 7333SOL     OW33631   2.949   4.512   5.575 -0.2786 -0.5330  0.2730
 7333SOL    HW133632   3.004   4.463   5.636 -1.1397  1.0011  2.3139
 7333SOL    HW233633   2.865   4.511   5.621 -0.5344  1.7056 -0.1576
 7334SOL     OW33634   1.105   0.083  17.722  0.3193  0.5090 -0.1138
 7334SOL    HW133635   1.162   0.030  17.667 -1.5566 -3.0166  1.3148
 7334SOL    HW233636   1.044   0.016   0.010  0.4127 -0.2623 -1.6034
 7335SOL     OW33637   4.228   1.836  15.278 -0.3970  0.1767 -0.0728
 7335SOL    HW133638   4.276   1.848  15.359 -1.6480 -0.7390  0.8075
 7335SOL    HW233639   4.247   1.918  15.233  0.0506 -1.6154 -3.2172
 7336SOL     OW33640   1.456   3.249   3.866  0.0514 -0.3320  0.0467
 7336SOL    HW133641   1.488   3.327   3.912  2.4594 -1.9347  1.0562
 7336SOL    HW233642   1.423   3.289   3.785 -1.2085  0.0120  0.7205
 7337SOL     OW33643   1.088   3.075   1.038 -0.3193 -0.4040  0.6001
 7337SOL    HW133644   1.071   2.994   1.085  0.5078 -1.8081 -1.5404
 7337SOL    HW233645   1.137   3.131   1.099 -1.5790 -0.0361  1.2677
 7338SOL     OW33646   2.326   3.684   9.797  0.2252  0.1832 -0.1939
 7338SOL    HW133647   2.391   3.673   9.867 -0.9586  1.3362  1.0715
 7338SOL    HW233648   2.271   3.755   9.829  0.9474  0.7262 -0.1536
 7339SOL     OW33649   0.579   4.233   3.474 -0.0295  0.5892 -0.1630
 7339SOL    HW133650   0.650   4.245   3.410 -0.0904 -0.9113 -0.5080
 7339SOL    HW233651   0.575   4.322   3.509  0.0696  0.8022 -0.6785
 7340SOL     OW33652   3.263   4.552   6.791  0.4385 -1.1116  0.3430
 7340SOL    HW133653   3.227   4.594   6.868  1.0783 -0.6613  0.3996
 7340SOL    HW233654   3.192   4.552   6.727  0.9500  0.3887 -0.2393
 7341SOL     OW33655   2.299   0.733   4.530 -0.2054 -0.4816 -0.0906
 7341SOL    HW133656   2.350   0.773   4.600 -1.1874 -2.6164  1.8496
 7341SOL    HW233657   2.240   0.668   4.568  0.0294  0.4882  1.9802
 7342SOL     OW33658   2.000   3.343   1.372 -0.3805  0.0268 -0.2551
 7342SOL    HW133659   2.064   3.287   1.328 -0.7435 -0.3197 -0.3351
 7342SOL    HW233660   1.968   3.280   1.437 -0.6089  0.9177  0.4942
 7343SOL     OW33661   3.861   0.040  17.592 -0.0991  0.4234 -0.0399
 7343SOL    HW133662   3.776   0.051  17.634 -0.7921 -0.8404 -1.0997
 7343SOL    HW233663   3.926   0.037  17.662  1.1878  1.9633 -1.1572
 7344SOL     OW33664   4.041   2.455   3.686 -0.2032  0.1109 -0.2849
 7344SOL    HW133665   4.132   2.428   3.673 -0.0103 -0.1920  1.6692
 7344SOL    HW233666   4.002   2.368   3.699 -1.0570  0.0664 -3.0573
 7345SOL     OW33667   3.217   3.869   0.519 -0.3477  0.0294 -0.0889
 7345SOL    HW133668   3.169   3.787   0.503  0.4605 -0.4986  0.1913
 7345SOL    HW233669   3.273   3.873   0.441 -0.4674 -0.5207 -0.2078
 7346SOL     OW33670   2.249   2.463  13.973 -0.2393 -0.7300 -0.1938
 7346SOL    HW133671   2.242   2.416  13.890 -3.8948 -1.3577  0.4674
 7346SOL    HW233672   2.203   2.408  14.036 -0.2688  2.4682  2.5755
 7347SOL     OW33673   4.204   0.134   6.868 -0.5924  0.1509 -0.0707
 7347SOL    HW133674   4.203   0.226   6.893  2.1324  0.1541  0.0726
 7347SOL    HW233675   4.299   0.121   6.858 -0.9156 -2.0990 -0.1020
 7348SOL     OW33676   1.291   0.839   4.799 -0.2997 -0.1334  0.2377
 7348SOL    HW133677   1.208   0.795   4.814 -1.3186  0.5571 -3.3710
 7348SOL    HW233678   1.312   0.819   4.708  1.6916  0.2764  0.6030
 7349SOL     OW33679   4.120   3.413   2.197 -0.1186  0.0943 -0.1118
 7349SOL    HW133680   4.055   3.396   2.129 -0.7064 -2.7913  1.1799
 7349SOL    HW233681   4.190   3.453   2.146 -0.5153  1.2573  0.2528
 7350SOL     OW33682   0.612   1.277   4.041 -0.3069 -0.2099 -0.1778
 7350SOL    HW133683   0.580   1.364   4.064 -0.4317 -0.5221  0.8726
 7350SOL    HW233684   0.648   1.303   3.957 -0.5311  0.1510 -0.1626
 7351SOL     OW33685   3.973   3.649  11.478 -0.3737  0.3007 -0.1970
 7351SOL    HW133686   3.995   3.666  11.386 -0.0987 -1.0354 -0.3784
 7351SOL    HW233687   4.005   3.732  11.514  0.3398 -0.6934  1.4591
 7352SOL     OW33688   2.317   2.751   4.209  0.3737 -0.1259 -0.4936
 7352SOL    HW133689   2.325   2.737   4.114 -1.7167 -0.3622 -0.6390
 7352SOL    HW233690   2.272   2.668   4.225  0.9075 -0.2757  0.2023
 7353SOL     OW33691   4.663   0.806   7.625 -0.2255  0.3206 -0.1105
 7353SOL    HW133692   4.592   0.775   7.681 -0.3711  0.9915  0.0705
 7353SOL    HW233693   4.672   0.727   7.572 -1.0817  0.7548 -0.9058
 7354SOL     OW33694   0.721   0.291  12.255  0.3712 -0.0679 -0.0837
 7354SOL    HW133695   0.711   0.274  12.161 -2.5256 -0.2094  0.2555
 7354SOL    HW233696   0.815   0.273  12.265  0.9823  2.0310 -1.9704
 7355SOL     OW33697   2.873   2.264   9.533  0.4974 -0.1121 -0.1374
 7355SOL    HW133698   2.822   2.282   9.612 -0.7876  1.5038 -1.3260
 7355SOL    HW233699   2.832   2.187   9.494 -1.1918  1.0667 -0.6964
 7356SOL     OW33700   2.167   3.882  10.571  0.4740 -0.4281  0.6622
 7356SOL    HW133701   2.084   3.887  10.620 -0.6206  1.6283 -1.3938
 7356SOL    HW233702   2.139   3.940  10.501  1.3527  0.6409  1.1968
 7357SOL     OW33703   0.912   1.349   4.406 -0.2760 -0.5582  0.3032
 7357SOL    HW133704   0.923   1.394   4.322  0.7241 -0.3599  0.5374
 7357SOL    HW233705   0.944   1.415   4.467 -0.8341 -0.1146  0.1226
 7358SOL     OW33706   3.578   2.633  10.166 -0.4478  0.2063 -0.5368
 7358SOL    HW133707   3.672   2.632  10.183 -0.3159  1.3511 -1.1960
 7358SOL    HW233708   3.552   2.541  10.157 -1.1424  0.4463 -0.9672
 7359SOL     OW33709   3.976   1.709   1.734 -0.5801  0.1180 -0.2849
 7359SOL    HW133710   4.046   1.678   1.676 -0.6716  0.7557 -0.7367
 7359SOL    HW233711   3.906   1.695   1.669 -0.1786 -2.4718 -0.1519
 7360SOL     OW33712   3.752   4.174   6.011 -0.2639 -0.8134 -0.0389
 7360SOL    HW133713   3.809   4.135   6.077 -2.8507 -3.2316  0.7522
 7360SOL    HW233714   3.746   4.262   6.048 -1.0579 -0.8126 -0.1701
 7361SOL     OW33715   3.476   1.510   8.595 -0.3944  0.1051  0.1428
 7361SOL    HW133716   3.385   1.540   8.594  0.2022  1.7961 -1.1181
 7361SOL    HW233717   3.462   1.462   8.513 -0.6082 -0.8276  0.7169
 7362SOL     OW33718   2.904   2.438   5.721  0.0425 -0.0554 -0.3073
 7362SOL    HW133719   2.917   2.513   5.780 -3.5893  1.0261 -0.8807
 7362SOL    HW233720   2.995   2.424   5.695 -0.1206 -1.7499  0.0524
 7363SOL     OW33721   4.447   0.295   0.815 -0.6003 -0.5210 -0.6950
 7363SOL    HW133722   4.449   0.261   0.905 -1.5840  1.2016 -0.0201
 7363SOL    HW233723   4.360   0.262   0.794 -0.8508 -0.2332 -0.1267
 7364SOL     OW33724   4.602   4.342  16.135  0.5886 -0.5601  0.4127
 7364SOL    HW133725   4.629   4.434  16.128  1.6067 -1.0181 -1.6779
 7364SOL    HW233726   4.689   4.307  16.155  1.1227  0.9947  0.7757
 7365SOL     OW33727   1.006   0.878  11.412 -0.2130  0.5927  0.4015
 7365SOL    HW133728   1.026   0.898  11.503  0.2063  1.7563  0.0533
 7365SOL    HW233729   1.045   0.790  11.417  0.5674  0.8646 -0.7094
 7366SOL     OW33730   4.442   2.458  17.206  0.3155  0.0066  0.2801
 7366SOL    HW133731   4.400   2.501  17.280  1.0365  0.2775  0.5373
 7366SOL    HW233732   4.367   2.414  17.167 -0.6030  1.2773  0.6183
 7367SOL     OW33733   3.186   2.407   5.704 -0.0282 -0.4002 -0.2317
 7367SOL    HW133734   3.184   2.366   5.791  0.2995 -0.5339 -0.2879
 7367SOL    HW233735   3.252   2.475   5.719  0.4941 -1.0856  0.5634
 7368SOL     OW33736   4.233   3.664   0.497 -0.4057  0.2709  0.1737
 7368SOL    HW133737   4.207   3.573   0.481  1.9813 -0.2750 -0.5012
 7368SOL    HW233738   4.274   3.656   0.583 -0.7384  1.5819  0.4495
 7369SOL     OW33739   3.524   2.930   4.229 -0.3259 -0.1491  0.3495
 7369SOL    HW133740   3.445   2.981   4.247 -1.3105 -2.1481  1.6643
 7369SOL    HW233741   3.476   2.848   4.218 -0.6379  0.1195 -0.2777
 7370SOL     OW33742   4.573   4.697  17.739 -0.1627  0.5671 -0.1410
 7370SOL    HW133743   4.613   0.047   0.004  1.2732 -0.0231 -1.0323
 7370SOL    HW233744   4.572   4.684  17.644 -2.1832  1.7664 -0.2774
 7371SOL     OW33745   2.522   4.475   4.300  0.1426 -0.0577 -0.3945
 7371SOL    HW133746   2.494   4.420   4.228 -0.0320 -0.5987  0.0902
 7371SOL    HW233747   2.616   4.461   4.291  0.0532 -1.6202  1.0478
 7372SOL     OW33748   4.705   0.107   8.665  0.0948  0.2849 -0.0597
 7372SOL    HW133749   4.664   0.022   8.681  0.0736 -0.0252 -1.7828
 7372SOL    HW233750   4.720   0.103   8.570  1.3560 -0.3039  0.1629
 7373SOL     OW33751   3.391   4.557   9.072 -0.7611 -0.4526 -0.2855
 7373SOL    HW133752   3.302   4.568   9.039 -0.5976 -0.8378 -0.8383
 7373SOL    HW233753   3.376   4.465   9.096 -0.3722 -0.7877 -1.3666
 7374SOL     OW33754   3.793   3.907   9.953 -0.6213 -0.2755 -0.4071
 7374SOL    HW133755   3.755   3.974   9.895 -0.3152 -0.7962 -1.1953
 7374SOL    HW233756   3.754   3.825   9.924 -0.0501 -1.7315  2.9408
 7375SOL     OW33757   2.076   3.914   0.536  0.1457 -0.1725  0.1501
 7375SOL    HW133758   2.061   3.979   0.604  1.3248  2.1034 -1.8012
 7375SOL    HW233759   1.992   3.933   0.493 -0.5491  2.9793  2.9356
 7376SOL     OW33760   4.511   3.230   4.365  0.1242  0.1845 -0.7994
 7376SOL    HW133761   4.598   3.250   4.399 -1.8796  2.6625  2.8867
 7376SOL    HW233762   4.516   3.279   4.283  1.2880  0.1647 -0.7321
 7377SOL     OW33763   1.636   4.183  11.536 -0.4502  0.0246 -0.4537
 7377SOL    HW133764   1.709   4.144  11.488  1.9665  0.8743  2.5255
 7377SOL    HW233765   1.590   4.221  11.461 -0.2988  1.1582  0.0297
 7378SOL     OW33766   2.556   0.961   0.397 -0.8058 -0.1917  0.8782
 7378SOL    HW133767   2.532   1.009   0.476  0.1784 -0.1344  1.1448
 7378SOL    HW233768   2.550   1.029   0.329 -1.2005 -0.9170  0.1959
 7379SOL     OW33769   2.721   4.489   2.931 -0.2754  0.2892 -0.4073
 7379SOL    HW133770   2.726   4.478   3.026 -3.9941 -1.5668 -0.4126
 7379SOL    HW233771   2.643   4.437   2.910  0.9972 -1.9796  0.4718
 7380SOL     OW33772   4.145   1.478   4.098  0.3896  0.5352 -0.1339
 7380SOL    HW133773   4.203   1.554   4.102  0.1318  0.6273  1.8013
 7380SOL    HW233774   4.100   1.487   4.182 -0.8312 -1.6335 -0.5502
 7381SOL     OW33775   0.900   4.535   7.510  0.0387 -0.1513 -0.8549
 7381SOL    HW133776   0.930   4.626   7.501 -0.5473  0.1226  0.0050
 7381SOL    HW233777   0.962   4.484   7.458  0.2275 -2.1143  1.3284
 7382SOL     OW33778   2.713   0.114   3.210  0.2942 -0.2875 -0.2727
 7382SOL    HW133779   2.771   0.112   3.133  0.7615  2.0054  0.0288
 7382SOL    HW233780   2.771   0.092   3.283  1.5494  0.4554 -1.0456
 7383SOL     OW33781   4.662   2.387   2.148 -0.9998 -0.4288 -0.0783
 7383SOL    HW133782   4.665   2.477   2.182 -1.5155 -0.6713  0.6027
 7383SOL    HW233783   4.586   2.394   2.090  0.2177  2.5689 -1.3346
 7384SOL     OW33784   3.097   2.800   4.159  0.4470  0.6181  0.1302
 7384SOL    HW133785   3.003   2.807   4.140  1.0352  0.6254 -2.6340
 7384SOL    HW233786   3.109   2.871   4.222  1.6199 -0.3090  0.9409
 7385SOL     OW33787   1.584   1.618   7.098  0.4271  0.0754 -0.1123
 7385SOL    HW133788   1.526   1.679   7.144 -0.5546  0.6644 -2.1196
 7385SOL    HW233789   1.556   1.633   7.007  1.3306 -0.3085 -0.4628
 7386SOL     OW33790   3.229   2.712   6.456  0.7537 -0.1766 -0.6313
 7386SOL    HW133791   3.165   2.642   6.447 -0.2256  0.6759 -0.2828
 7386SOL    HW233792   3.251   2.736   6.366  3.1927 -1.0759 -0.2703
 7387SOL     OW33793   0.298   1.476   6.408 -0.1044  0.3217  0.2835
 7387SOL    HW133794   0.232   1.470   6.476 -1.8682  0.9848 -1.3623
 7387SOL    HW233795   0.353   1.398   6.417 -0.0696  0.1990 -0.9574
 7388SOL     OW33796   4.291   2.596   5.358  0.3663 -0.8316 -0.2108
 7388SOL    HW133797   4.293   2.536   5.432  0.5578 -1.5194 -0.7732
 7388SOL    HW233798   4.196   2.601   5.348  0.1623 -3.4252  0.5030
 7389SOL     OW33799   2.111   1.402  16.092  0.0085  0.0132  0.7700
 7389SOL    HW133800   2.165   1.441  16.024 -0.7679  0.6198  0.4916
 7389SOL    HW233801   2.081   1.485  16.129  1.5832  1.4460 -1.1495
 7390SOL     OW33802   2.355   0.557  12.491  0.6202  0.0477  0.0572
 7390SOL    HW133803   2.438   0.598  12.465 -0.7137  1.5808 -1.8211
 7390SOL    HW233804   2.392   0.481  12.536  1.7316  2.1638  2.7481
 7391SOL     OW33805   2.606   4.390   3.978 -0.1487 -0.2010  0.7393
 7391SOL    HW133806   2.625   4.299   4.003  2.5866  0.3677  0.7268
 7391SOL    HW233807   2.527   4.401   4.032  0.4870  0.7345  1.4732
 7392SOL     OW33808   0.038   3.406   6.135 -0.0675 -0.1668  0.2819
 7392SOL    HW133809   0.113   3.462   6.118 -0.3068 -0.5385 -1.9699
 7392SOL    HW233810   0.017   3.370   6.049  0.9902  3.2790 -1.4110
 7393SOL     OW33811   3.304   2.159   7.958 -0.1154  0.0825  0.3129
 7393SOL    HW133812   3.262   2.206   7.887  1.6056 -0.5360 -1.1019
 7393SOL    HW233813   3.329   2.080   7.911  2.4516 -0.1022  1.9549
 7394SOL     OW33814   1.205   2.718   7.615 -0.1407  0.3181  0.1539
 7394SOL    HW133815   1.281   2.660   7.622 -2.0202 -2.1484  0.0608
 7394SOL    HW233816   1.222   2.745   7.524  1.3478  2.2608  1.0074
 7395SOL     OW33817   1.983   3.377   8.458  0.0270 -0.8013 -0.4820
 7395SOL    HW133818   2.006   3.429   8.381  1.0761  2.0705  1.7692
 7395SOL    HW233819   1.889   3.390   8.464  0.0884 -0.8094  0.4772
 7396SOL     OW33820   0.199   3.025   7.559 -0.0384 -0.5582  0.0166
 7396SOL    HW133821   0.126   3.005   7.618 -1.7410  1.4828 -1.3876
 7396SOL    HW233822   0.260   2.952   7.559  1.5110  0.7463  0.0838
 7397SOL     OW33823   2.917   1.685   6.891  0.0386 -0.1656 -0.0638
 7397SOL    HW133824   2.827   1.656   6.902 -0.4201  1.4300  0.4883
 7397SOL    HW233825   2.953   1.618   6.834 -1.4383 -0.9001 -0.1242
 7398SOL     OW33826   4.381   1.082   8.427  0.4545  0.5854  0.1555
 7398SOL    HW133827   4.417   1.039   8.505  2.2046  0.9210 -0.4554
 7398SOL    HW233828   4.456   1.133   8.396 -0.8286  2.1232 -0.3572
 7399SOL     OW33829   0.834   3.377   6.960  0.1979  0.1801  0.1910
 7399SOL    HW133830   0.818   3.456   7.011 -0.1103 -0.5839  1.2641
 7399SOL    HW233831   0.923   3.390   6.928  0.8169  0.2394  1.9590
 7400SOL     OW33832   0.329   1.101   5.886 -0.2496 -0.2952  0.0182
 7400SOL    HW133833   0.345   1.007   5.891  0.2825 -0.1303  1.3931
 7400SOL    HW233834   0.403   1.136   5.836  0.3338 -1.4410  0.0793
 7401SOL     OW33835   0.548   2.758   1.722 -0.1767 -0.1808 -0.1889
 7401SOL    HW133836   0.566   2.832   1.664  0.2676  0.6138  0.9672
 7401SOL    HW233837   0.502   2.703   1.658  1.5764 -0.7838 -0.9227
 7402SOL     OW33838   1.920   3.408  17.535  0.3908 -0.1533 -0.8374
 7402SOL    HW133839   1.938   3.490  17.488  0.6977 -0.1771 -0.7598
 7402SOL    HW233840   1.847   3.441  17.587  0.1597 -0.2040 -1.1292
 7403SOL     OW33841   0.044   2.560   4.440  0.3473 -0.3583  0.3067
 7403SOL    HW133842   4.712   2.531   4.500 -0.2371  1.6257  0.6170
 7403SOL    HW233843   0.119   2.539   4.495  0.1386  0.4590  0.9037
 7404SOL     OW33844   0.679   3.208   1.889 -0.1573 -0.3210 -0.0270
 7404SOL    HW133845   0.736   3.285   1.896 -1.5255  0.7235 -0.4407
 7404SOL    HW233846   0.741   3.141   1.860 -0.3723  0.1145 -1.4878
 7405SOL     OW33847   0.753   1.735   2.185 -0.0197 -0.2359  0.7598
 7405SOL    HW133848   0.720   1.651   2.216 -0.0593  0.2171  1.9332
 7405SOL    HW233849   0.833   1.745   2.236  0.2695 -1.7433  0.6072
 7406SOL     OW33850   1.682   4.317   4.339 -0.0570 -0.4540  0.0418
 7406SOL    HW133851   1.617   4.356   4.281 -1.5574  0.1981  2.1413
 7406SOL    HW233852   1.756   4.336   4.282 -1.4524  1.9479 -0.9613
 7407SOL     OW33853   0.034   4.542   8.084  0.0757 -0.1072  0.3595
 7407SOL    HW133854   0.085   4.461   8.074 -0.5268 -0.2801 -1.3729
 7407SOL    HW233855   0.001   4.533   8.173 -1.4407  0.4637 -0.1411
 7408SOL     OW33856   0.902   1.205   0.384  0.7130 -0.5654  0.4780
 7408SOL    HW133857   0.936   1.246   0.305  1.1400  0.3251  1.1195
 7408SOL    HW233858   0.964   1.240   0.448  0.9850 -0.6959  0.2848
 7409SOL     OW33859   0.354   4.566  12.831 -0.0804 -0.1101  0.0186
 7409SOL    HW133860   0.294   4.612  12.890  0.0795  0.6095 -0.3865
 7409SOL    HW233861   0.365   4.486  12.883  2.2038 -0.4923 -1.0757
 7410SOL     OW33862   0.485   2.472   8.711 -0.1537  0.4272  0.8895
 7410SOL    HW133863   0.467   2.559   8.676  1.8200  1.4466  2.4551
 7410SOL    HW233864   0.481   2.496   8.803  1.9634  1.3663  0.7235
 7411SOL     OW33865   0.014   0.351   2.079  0.1195 -0.1285 -0.1467
 7411SOL    HW133866   0.097   0.306   2.097 -1.4256 -3.2802 -0.9358
 7411SOL    HW233867   0.035   0.424   2.021 -0.7069  0.0679 -0.2011
 7412SOL     OW33868   2.135   0.033   0.594  0.4922 -0.1696  0.0228
 7412SOL    HW133869   2.219   0.062   0.629 -0.2219 -0.5309  1.9935
 7412SOL    HW233870   2.129   4.680   0.627  1.9391 -0.8853 -1.6161
 7413SOL     OW33871   4.339   3.089   2.941  0.2843 -0.0287  0.2993
 7413SOL    HW133872   4.283   3.117   3.014  3.5958  2.5395  1.8494
 7413SOL    HW233873   4.295   3.014   2.902 -0.3853  0.5466 -0.0465
 7414SOL     OW33874   2.550   0.819   6.284  0.2762  1.0115  0.1670
 7414SOL    HW133875   2.565   0.892   6.224  0.1535 -0.0209 -1.1173
 7414SOL    HW233876   2.557   0.747   6.221 -0.6659  0.8076  0.2903
 7415SOL     OW33877   4.465   3.354   7.647  0.2834  0.3607 -0.4912
 7415SOL    HW133878   4.512   3.330   7.727 -1.4088  2.4167  1.1190
 7415SOL    HW233879   4.402   3.419   7.678 -1.4971 -1.0986 -1.0862
 7416SOL     OW33880   2.824   1.145   3.326 -0.3165  0.2620 -0.6507
 7416SOL    HW133881   2.772   1.107   3.255 -0.2789  0.2219 -0.6568
 7416SOL    HW233882   2.767   1.222   3.324  1.7759  1.8108 -1.5965
 7417SOL     OW33883   2.504   2.917   9.926 -0.1351  0.0675  0.4258
 7417SOL    HW133884   2.551   2.960   9.855 -2.4812  0.6773 -0.7622
 7417SOL    HW233885   2.426   2.973   9.927 -0.6132 -0.5869 -0.6192
 7418SOL     OW33886   0.560   2.937  10.361 -0.3030 -0.6603  0.0855
 7418SOL    HW133887   0.569   2.930  10.456  0.8476 -0.7873 -0.0263
 7418SOL    HW233888   0.467   2.960  10.356 -0.0060  0.4661 -0.3990
 7419SOL     OW33889   2.426   3.294   5.081  0.1275  0.3715  0.1770
 7419SOL    HW133890   2.350   3.344   5.111  0.0843 -0.3944  1.3726
 7419SOL    HW233891   2.489   3.346   5.131  1.7652  1.3950 -3.0238
 7420SOL     OW33892   0.131   0.233   6.330  0.2859 -0.0413 -0.3824
 7420SOL    HW133893   0.080   0.183   6.393  1.4205 -1.5886 -0.6876
 7420SOL    HW233894   0.069   0.291   6.285 -0.9158 -1.1297 -0.1219
 7421SOL     OW33895   0.364   4.724   5.865 -0.0999  0.3008  0.1664
 7421SOL    HW133896   0.324   0.043   5.932 -0.3490 -1.0836  1.1488
 7421SOL    HW233897   0.315   4.644   5.885 -0.0311  0.4521  0.9406
 7422SOL     OW33898   4.195   3.463  17.327  0.7923 -0.0814 -0.1019
 7422SOL    HW133899   4.202   3.518  17.248 -0.6727 -0.6083 -0.5990
 7422SOL    HW233900   4.174   3.375  17.296 -0.5099 -0.0023  0.5318
 7423SOL     OW33901   4.513   4.451  12.063 -0.1796  0.1265 -0.4469
 7423SOL    HW133902   4.490   4.543  12.078 -0.7160 -0.2087  0.8515
 7423SOL    HW233903   4.535   4.447  11.970 -1.0016 -1.8462 -0.5616
 7424SOL     OW33904   3.549   2.560   4.018  0.2296 -0.3263 -0.2361
 7424SOL    HW133905   3.547   2.541   4.112  1.9531 -0.2069 -0.1618
 7424SOL    HW233906   3.485   2.504   3.974 -0.9933  0.7161  0.2466
 7425SOL     OW33907   0.945   0.931   3.111 -0.1593 -0.0428 -0.0086
 7425SOL    HW133908   0.989   0.948   3.194  1.2940  3.7311 -1.5588
 7425SOL    HW233909   0.864   0.980   3.128 -0.9673 -0.0957 -3.8373
 7426SOL     OW33910   2.648   4.422   1.638  0.4303 -0.8092  0.8897
 7426SOL    HW133911   2.567   4.371   1.637  0.3767 -0.7609  2.3114
 7426SOL    HW233912   2.696   4.389   1.562  0.2504  0.1286  0.3753
 7427SOL     OW33913   1.283   0.271   4.004 -0.0039  0.4605 -0.2624
 7427SOL    HW133914   1.292   0.297   3.913  2.0022  2.2544  0.4778
 7427SOL    HW233915   1.313   0.344   4.057  1.4173 -1.2137  1.2411
 7428SOL     OW33916   0.762   4.659  10.690 -0.0348  0.3132 -0.2913
 7428SOL    HW133917   0.819   4.614  10.627 -0.4216  0.3342 -0.6516
 7428SOL    HW233918   0.806   0.008  10.686 -0.7495  0.7524  1.3734
 7429SOL     OW33919   3.509   0.856   4.795  0.0028  0.3447 -0.4578
 7429SOL    HW133920   3.523   0.828   4.705 -2.2525 -1.3881 -0.2475
 7429SOL    HW233921   3.594   0.831   4.831 -0.2153 -1.2349 -1.0647
 7430SOL     OW33922   2.197   0.486  15.058  0.0225  0.1959  0.1395
 7430SOL    HW133923   2.106   0.459  15.052  1.4107 -3.7714 -3.0998
 7430SOL    HW233924   2.239   0.420  15.113  0.7969 -0.4009 -1.1760
 7431SOL     OW33925   4.354   4.407   6.736  0.9662 -0.2666 -0.2130
 7431SOL    HW133926   4.371   4.392   6.643 -1.6561 -0.1696 -0.6872
 7431SOL    HW233927   4.261   4.387   6.742  0.3623  2.4033 -0.8453
 7432SOL     OW33928   2.800   3.752   6.512 -0.2081 -0.0709 -0.1725
 7432SOL    HW133929   2.880   3.719   6.554 -1.1876  1.5254  2.8783
 7432SOL    HW233930   2.838   3.820   6.457 -0.1674 -0.0973 -0.1776
 7433SOL     OW33931   2.685   3.460   5.010  0.3346 -0.0916 -0.4144
 7433SOL    HW133932   2.756   3.523   4.999  0.1637  0.7791  3.3438
 7433SOL    HW233933   2.615   3.500   4.958  0.2049  1.4396  0.9214
 7434SOL     OW33934   3.021   3.052   7.203 -0.1223  0.6729  0.2972
 7434SOL    HW133935   2.988   3.125   7.255  2.8763  0.9586  1.8053
 7434SOL    HW233936   2.992   3.073   7.114 -3.4402  1.5077  1.5688
 7435SOL     OW33937   0.186   1.970  10.019 -0.4237  0.3435  0.2287
 7435SOL    HW133938   0.265   1.924  10.046  0.7737  1.9302 -0.5218
 7435SOL    HW233939   0.131   1.895  10.001 -1.3623  0.9755  0.4540
 7436SOL     OW33940   2.755   0.537   9.398  0.1001 -0.3822 -0.2621
 7436SOL    HW133941   2.771   0.447   9.428 -0.9872 -0.3671  0.3752
 7436SOL    HW233942   2.660   0.540   9.387 -0.1290 -0.8739  1.5982
 7437SOL     OW33943   2.534   1.928   7.069  0.3822 -0.0390  0.0414
 7437SOL    HW133944   2.592   1.974   7.129  1.2935 -1.0904 -0.0506
 7437SOL    HW233945   2.598   1.903   7.002  1.1802  0.8572  0.4725
 7438SOL     OW33946   2.506   2.178  13.320  0.2588  0.5026  0.1422
 7438SOL    HW133947   2.481   2.234  13.247 -0.4863 -0.9138 -0.6714
 7438SOL    HW233948   2.602   2.172  13.315  0.3685  1.3042  1.0865
 7439SOL     OW33949   0.293   0.111   0.550  0.2844  0.2347  0.2784
 7439SOL    HW133950   0.352   0.037   0.533  2.8896  2.6824 -1.2715
 7439SOL    HW233951   0.253   0.067   0.625 -1.3930  0.5408 -0.4206
 7440SOL     OW33952   1.916   3.790   4.981 -0.1305 -0.5210  0.3108
 7440SOL    HW133953   1.926   3.885   4.992  0.9591 -0.9935  3.3324
 7440SOL    HW233954   1.825   3.783   5.010 -0.4930 -2.8243 -1.4506
 7441SOL     OW33955   3.225   4.682   7.306  0.0856  0.4566  0.2644
 7441SOL    HW133956   3.224   0.023   7.363 -1.3037  3.0981 -3.3930
 7441SOL    HW233957   3.187   4.626   7.374  0.1879 -1.4268 -1.2170
 7442SOL     OW33958   2.905   4.408   5.138 -1.1057 -0.3478 -0.1109
 7442SOL    HW133959   2.911   4.456   5.221 -2.0766  1.0097 -0.8270
 7442SOL    HW233960   2.887   4.318   5.165  0.2794 -0.4342  0.5252
 7443SOL     OW33961   0.821   1.757   8.307  0.4526  0.0753 -0.4404
 7443SOL    HW133962   0.750   1.731   8.366  0.6663  0.4771 -0.0130
 7443SOL    HW233963   0.898   1.715   8.346  2.1436  1.8048 -1.9482
 7444SOL     OW33964   3.300   0.672   2.117 -0.0935 -0.5778 -0.1816
 7444SOL    HW133965   3.220   0.632   2.082 -0.4063 -0.5839  0.5575
 7444SOL    HW233966   3.339   0.607   2.175 -0.5610 -1.3923 -0.7702
 7445SOL     OW33967   3.014   2.813   2.097 -0.1944  0.0849  0.0840
 7445SOL    HW133968   3.094   2.860   2.075 -0.3698 -0.8536 -2.5310
 7445SOL    HW233969   2.951   2.883   2.112  0.8095  1.0972 -0.4430
 7446SOL     OW33970   2.340   0.994   9.996 -1.2694 -0.3744  0.7855
 7446SOL    HW133971   2.346   0.952   9.910  0.7445  0.3291  0.5881
 7446SOL    HW233972   2.432   0.983  10.018 -1.1745  0.8560  1.0064
 7447SOL     OW33973   0.461   4.174  15.368  0.8297  0.2462 -0.3968
 7447SOL    HW133974   0.497   4.102  15.420 -1.3469 -0.1838  0.5097
 7447SOL    HW233975   0.463   4.242  15.434 -2.3147 -1.7477  1.7338
 7448SOL     OW33976   2.433   0.047   5.642 -0.4166  0.2319 -0.1292
 7448SOL    HW133977   2.507   0.001   5.682 -0.6667 -0.5238 -0.5374
 7448SOL    HW233978   2.385   4.714   5.597 -2.4184  3.0305 -2.2445
 7449SOL     OW33979   1.305   4.087   9.107  1.3287 -0.1987  0.0061
 7449SOL    HW133980   1.324   4.169   9.063  2.6570 -0.2729  0.4177
 7449SOL    HW233981   1.221   4.115   9.141  0.1920 -2.3111 -1.0833
 7450SOL     OW33982   1.649   3.002   9.036 -0.0052  0.1960 -1.4523
 7450SOL    HW133983   1.664   2.913   9.003 -0.3196  0.3211 -1.9446
 7450SOL    HW233984   1.741   3.024   9.049 -0.1480 -0.2004  0.1477
 7451SOL     OW33985   3.288   2.832   9.312 -0.2320  0.1264 -0.3098
 7451SOL    HW133986   3.268   2.740   9.297  1.0492  0.4459 -3.7958
 7451SOL    HW233987   3.211   2.875   9.348  0.5049  0.0545  1.3721
 7452SOL     OW33988   0.572   1.351   4.423  0.5876  0.5351  0.1000
 7452SOL    HW133989   0.507   1.304   4.475  0.4580  0.8826  0.2481
 7452SOL    HW233990   0.545   1.334   4.332 -1.0516 -0.2604  0.7405
 7453SOL     OW33991   2.056   4.113   3.171  0.7538 -0.5897 -0.4492
 7453SOL    HW133992   2.010   4.067   3.242 -2.3953  1.5334 -1.1343
 7453SOL    HW233993   2.041   4.201   3.204  1.1245 -0.6731 -0.0646
 7454SOL     OW33994   4.713   2.461  10.830  0.1571 -0.0147  0.0924
 7454SOL    HW133995   0.021   2.470  10.745 -2.1199  0.1744 -1.0755
 7454SOL    HW233996   4.625   2.469  10.792 -0.6029  1.4203  2.1411
 7455SOL     OW33997   0.464   4.182  11.906 -0.0881  0.1798  0.2480
 7455SOL    HW133998   0.463   4.222  11.993  3.2426  1.5343 -0.3297
 7455SOL    HW233999   0.558   4.185  11.887  0.0803 -1.8450  0.7237
 7456SOL     OW34000   2.350   3.693   1.530  0.2253  0.6479 -0.9015
 7456SOL    HW134001   2.281   3.745   1.487 -1.1084  1.0707  1.7292
 7456SOL    HW234002   2.305   3.613   1.557  0.8524  0.1871 -1.2157
 7457SOL     OW34003   3.197   4.453   5.174 -0.3282 -0.6237  0.0988
 7457SOL    HW134004   3.108   4.452   5.139 -0.2789  0.7492 -0.0627
 7457SOL    HW234005   3.172   4.485   5.261  1.0840  0.5088  0.1006
 7458SOL     OW34006   1.150   1.809   6.651 -0.4317  0.3649 -0.6447
 7458SOL    HW134007   1.088   1.807   6.578 -1.1149  0.4586 -0.0628
 7458SOL    HW234008   1.159   1.715   6.662 -0.9279  0.4893  0.7548
 7459SOL     OW34009   1.114   3.929   4.485  0.4492  0.3506  0.0813
 7459SOL    HW134010   1.198   3.884   4.487  0.1811 -0.0866  1.6581
 7459SOL    HW234011   1.139   4.019   4.464  0.5993  0.5945  1.3001
 7460SOL     OW34012   1.844   2.246   3.319  0.6680 -0.1542 -0.2512
 7460SOL    HW134013   1.912   2.179   3.330 -0.1434 -1.0962 -0.8711
 7460SOL    HW234014   1.764   2.208   3.356  0.6578  0.9527  0.8155
 7461SOL     OW34015   1.622   1.002   8.467  0.3468  0.3982  0.2794
 7461SOL    HW134016   1.664   0.987   8.552  0.3413  1.3711  0.4551
 7461SOL    HW234017   1.535   1.029   8.496  0.2721 -1.4150  1.7495
 7462SOL     OW34018   2.679   2.738  11.418 -0.1580  0.6595  0.7315
 7462SOL    HW134019   2.700   2.649  11.393  1.8697  0.1841  4.0833
 7462SOL    HW234020   2.654   2.771  11.331 -1.9367 -0.3300  0.8540
 7463SOL     OW34021   3.723   3.090   5.573  0.3634 -0.7132 -0.0889
 7463SOL    HW134022   3.723   3.142   5.654  2.6618 -1.4702  0.4053
 7463SOL    HW234023   3.812   3.053   5.578  0.4968  0.0523  3.0878
 7464SOL     OW34024   3.911   1.845   4.562  0.1566  0.0998 -0.0767
 7464SOL    HW134025   3.996   1.839   4.519  0.9496  1.8916  1.2622
 7464SOL    HW234026   3.865   1.892   4.492  1.8624  0.1383 -1.1636
 7465SOL     OW34027   0.342   4.408   9.338  0.0028 -0.1065  0.2923
 7465SOL    HW134028   0.358   4.346   9.267 -0.0099  1.2612 -0.8994
 7465SOL    HW234029   0.432   4.440   9.340  0.4903 -1.5283  1.4174
 7466SOL     OW34030   3.256   4.698  16.696 -0.0355 -0.2755 -0.1813
 7466SOL    HW134031   3.198   4.676  16.769  1.0675  2.3690  1.5236
 7466SOL    HW234032   3.266   4.621  16.641 -1.6207 -0.7953  0.2621
 7467SOL     OW34033   2.139   3.166   7.398 -0.1626  0.2511  0.2387
 7467SOL    HW134034   2.136   3.072   7.383  0.3212  0.3445 -0.4263
 7467SOL    HW234035   2.234   3.179   7.392 -0.1469  0.3696  0.7451
 7468SOL     OW34036   0.760   0.505   7.095  0.4200 -0.2876 -0.8038
 7468SOL    HW134037   0.783   0.597   7.102 -1.6900  0.1353  0.4955
 7468SOL    HW234038   0.680   0.491   7.146  1.4376  1.6789  1.3324
 7469SOL     OW34039   4.418   1.757   3.079 -0.6747  0.1675  0.3051
 7469SOL    HW134040   4.378   1.838   3.111  0.9048  0.4518  1.5684
 7469SOL    HW234041   4.346   1.703   3.048 -2.0617  0.8343  2.3801
 7470SOL     OW34042   3.692   3.673   7.696 -0.1122 -0.1071  0.0200
 7470SOL    HW134043   3.738   3.643   7.774 -0.2952 -1.6832 -0.4848
 7470SOL    HW234044   3.634   3.735   7.741  0.6092  2.6756 -2.8813
 7471SOL     OW34045   2.822   1.404   5.219  0.4449  0.4087 -0.2287
 7471SOL    HW134046   2.734   1.426   5.189  0.3876  0.7238  0.1773
 7471SOL    HW234047   2.825   1.308   5.215  0.0701  0.2307  3.8766
 7472SOL     OW34048   1.202   1.485  13.593  0.2114 -0.0004 -0.1822
 7472SOL    HW134049   1.211   1.503  13.687 -1.5948 -2.1956  0.4213
 7472SOL    HW234050   1.128   1.540  13.569  0.5248  0.1117 -0.8860
 7473SOL     OW34051   2.812   0.639   5.606 -0.8692  0.4140 -0.0461
 7473SOL    HW134052   2.862   0.610   5.529  2.1461  0.9852  1.6959
 7473SOL    HW234053   2.843   0.730   5.611  0.7823 -0.1811  0.3444
 7474SOL     OW34054   4.573   3.703   8.150  0.6443 -0.0018  0.3671
 7474SOL    HW134055   4.488   3.718   8.110  0.1031 -2.2568  0.6756
 7474SOL    HW234056   4.543   3.632   8.206  1.1849 -0.7809 -0.3176
 7475SOL     OW34057   4.329   2.444   7.384 -0.0053  0.2104 -0.3608
 7475SOL    HW134058   4.308   2.496   7.307 -1.2644  1.5868  0.9086
 7475SOL    HW234059   4.256   2.382   7.389 -1.0882  1.5904  0.8603
 7476SOL     OW34060   1.024   1.608   8.415  0.1709  0.1469 -0.1767
 7476SOL    HW134061   1.074   1.577   8.339 -0.6547  0.2644 -0.7677
 7476SOL    HW234062   1.005   1.528   8.464 -0.3186 -0.3441 -1.1605
 7477SOL     OW34063   3.024   4.135   3.070  0.9239 -0.3938 -0.0882
 7477SOL    HW134064   3.083   4.209   3.082  1.5036 -0.5266 -2.0948
 7477SOL    HW234065   3.052   4.082   3.145  1.7269  1.6472  1.0640
 7478SOL     OW34066   1.104   4.608   3.684 -0.0596  0.1546 -0.2306
 7478SOL    HW134067   1.009   4.617   3.679 -0.3907 -3.2064  0.0566
 7478SOL    HW234068   1.112   4.537   3.620 -3.5299 -2.0469  1.7996
 7479SOL     OW34069   4.316   2.077   6.623 -0.1296  0.3279  0.2538
 7479SOL    HW134070   4.238   2.130   6.635  1.1984  2.1384  0.8323
 7479SOL    HW234071   4.294   2.035   6.539 -0.8931 -0.7461  0.9928
 7480SOL     OW34072   2.045   2.263  17.266  0.8738 -0.4141 -0.0737
 7480SOL    HW134073   2.104   2.194  17.297  1.5202 -0.0976 -0.6031
 7480SOL    HW234074   1.960   2.232  17.296  1.4163 -0.2279  1.6602
 7481SOL     OW34075   1.307   4.562   7.836  0.2581  0.0093  0.6275
 7481SOL    HW134076   1.304   4.500   7.763 -0.5943 -1.6954  2.1042
 7481SOL    HW234077   1.326   4.646   7.795  0.1289 -1.3747 -2.2084
 7482SOL     OW34078   1.016   3.168   3.672  0.5118 -0.4154  0.1206
 7482SOL    HW134079   1.035   3.092   3.727  0.6607 -0.7374 -0.3721
 7482SOL    HW234080   1.102   3.210   3.664 -0.6814  2.1359  0.9573
 7483SOL     OW34081   1.720   1.907   3.380 -0.0717  0.3157 -0.0842
 7483SOL    HW134082   1.802   1.876   3.342  1.0926  2.5011  0.6832
 7483SOL    HW234083   1.687   1.819   3.397 -1.4087  0.8216 -0.0227
 7484SOL     OW34084   0.159   4.405  13.136  0.6274  0.4569  0.6088
 7484SOL    HW134085   0.087   4.385  13.196  1.1448 -1.3569  0.6239
 7484SOL    HW234086   0.173   4.497  13.157 -1.0753  0.7242  0.6354
 7485SOL     OW34087   0.198   4.580   8.902  0.2703  0.3713 -0.6872
 7485SOL    HW134088   0.286   4.610   8.879  0.6653 -1.1154 -1.0914
 7485SOL    HW234089   0.214   4.593   8.996  1.0093 -1.6560 -0.5401
 7486SOL     OW34090   4.021   0.018   9.504  0.1241 -0.1331  0.2319
 7486SOL    HW134091   4.035   0.075   9.427 -0.2967  0.1097  0.3362
 7486SOL    HW234092   4.036   4.675   9.452 -1.4381  0.9004 -1.8255
 7487SOL     OW34093   1.311   3.821   6.452  0.0668 -0.4610 -0.0730
 7487SOL    HW134094   1.402   3.800   6.472 -0.3549  1.2730  3.6545
 7487SOL    HW234095   1.327   3.796   6.361 -0.5957 -1.2280  0.0140
 7488SOL     OW34096   2.837   1.913   5.161  0.0243  0.4495 -0.2781
 7488SOL    HW134097   2.870   1.823   5.153  1.4914  1.1629 -2.1366
 7488SOL    HW234098   2.783   1.915   5.081  0.1718 -2.6395 -0.4669
 7489SOL     OW34099   4.600   3.772  15.116 -0.3720 -0.5650  0.0523
 7489SOL    HW134100   4.504   3.766  15.111 -0.4590  0.6235  0.0847
 7489SOL    HW234101   4.618   3.779  15.210 -2.5641  0.0528  0.4481
 7490SOL     OW34102   3.129   2.633   3.445  0.1810 -0.6158  0.1316
 7490SOL    HW134103   3.047   2.634   3.397  1.1557  2.3811 -1.5073
 7490SOL    HW234104   3.129   2.710   3.503  0.3363 -0.4087 -0.1445
 7491SOL     OW34105   4.139   4.583  14.314  0.1614 -0.9857 -0.2762
 7491SOL    HW134106   4.128   4.615  14.225 -0.0592  0.1041  0.1330
 7491SOL    HW234107   4.235   4.583  14.311  0.1906  0.1691  0.7572
 7492SOL     OW34108   4.632   1.709   6.513  0.7194 -0.4639 -0.0373
 7492SOL    HW134109   4.619   1.633   6.569  0.0392 -0.2897  0.0394
 7492SOL    HW234110   4.676   1.670   6.437  2.2310  0.3439  0.4169
 7493SOL     OW34111   0.631   0.941   7.210  0.1641 -0.5149  0.5652
 7493SOL    HW134112   0.551   0.889   7.217 -0.4311 -0.1713 -3.3395
 7493SOL    HW234113   0.662   0.947   7.300 -1.4426  0.4216  1.0691
 7494SOL     OW34114   3.612   4.548   7.521  0.7380  0.4921 -0.0627
 7494SOL    HW134115   3.632   4.483   7.589 -1.8525 -0.6694 -0.4017
 7494SOL    HW234116   3.546   4.501   7.470  1.6059 -1.9619  1.0551
 7495SOL     OW34117   3.830   3.811   9.622  0.6802 -0.0323  0.1547
 7495SOL    HW134118   3.738   3.818   9.645  0.7470  0.0675  0.3924
 7495SOL    HW234119   3.850   3.723   9.589 -0.5236 -0.5469  0.8071
 7496SOL     OW34120   3.252   1.410  14.716  0.8977 -0.3753  0.0491
 7496SOL    HW134121   3.196   1.333  14.703  0.2982 -0.2261  1.6533
 7496SOL    HW234122   3.216   1.458  14.791 -1.7427 -4.5095  1.4301
 7497SOL     OW34123   2.509   3.773  10.042  0.5037  0.2689 -0.1670
 7497SOL    HW134124   2.592   3.730  10.062  0.2540 -0.6405 -1.1103
 7497SOL    HW234125   2.456   3.747  10.118  0.3419 -0.4093 -0.5104
 7498SOL     OW34126   1.811   0.344  12.498 -0.4511  0.0545  0.4384
 7498SOL    HW134127   1.876   0.285  12.536  0.4071  0.6825 -0.0658
 7498SOL    HW234128   1.728   0.329  12.544 -1.0198 -0.2741 -0.6875
 7499SOL     OW34129   0.441   0.482  16.741 -0.0387 -0.6343 -0.0206
 7499SOL    HW134130   0.378   0.498  16.811 -0.2750 -2.2214  0.1163
 7499SOL    HW234131   0.505   0.553  16.744 -0.2249 -0.6122  2.9255
 7500SOL     OW34132   0.870   2.311   0.370 -0.2772  0.0053 -0.5247
 7500SOL    HW134133   0.831   2.394   0.341 -0.8024  0.6515  1.9620
 7500SOL    HW234134   0.938   2.351   0.424 -0.4288  0.3687 -0.5996
 7501SOL     OW34135   1.152   2.594   4.042  0.1268  0.5599  0.2667
 7501SOL    HW134136   1.083   2.629   3.985  0.0185 -0.2553 -0.1098
 7501SOL    HW234137   1.121   2.503   4.044  1.3888  0.1159 -0.5202
 7502SOL     OW34138   0.811   2.788   3.480 -0.3075 -0.3512  0.2989
 7502SOL    HW134139   0.751   2.750   3.417  0.9686 -1.2361 -0.3679
 7502SOL    HW234140   0.811   2.881   3.456  2.0480 -0.4338  0.0007
 7503SOL     OW34141   2.807   2.821   3.929  0.4263 -0.8256 -0.5489
 7503SOL    HW134142   2.725   2.800   3.886 -0.0221  1.6577 -0.8860
 7503SOL    HW234143   2.802   2.787   4.018 -1.0421 -2.2875 -1.2072
 7504SOL     OW34144   0.698   3.746   9.449 -0.3015  0.0473  0.1162
 7504SOL    HW134145   0.788   3.777   9.437 -0.9897  2.1968  0.4149
 7504SOL    HW234146   0.657   3.808   9.388  0.1558 -0.2899 -0.5400
 7505SOL     OW34147   4.693   2.919   2.723 -0.5596  0.1038  0.0477
 7505SOL    HW134148   4.705   2.846   2.662  1.0321  1.1037 -0.8345
 7505SOL    HW234149   0.009   2.888   2.798 -1.0933  0.0289  0.3864
 7506SOL     OW34150   4.222   1.787   8.658 -0.0030  0.1911 -0.4051
 7506SOL    HW134151   4.239   1.863   8.603 -1.1141  0.9588  0.3294
 7506SOL    HW234152   4.308   1.782   8.700 -0.3340  1.0032  0.3636
 7507SOL     OW34153   3.051   1.185  14.651 -0.0514 -0.1748 -0.1393
 7507SOL    HW134154   2.984   1.151  14.590 -0.7470  2.8480 -1.0371
 7507SOL    HW234155   3.006   1.162  14.732 -0.6071  1.1351 -0.0797
 7508SOL     OW34156   3.845   0.430   4.493 -0.4594 -0.4000 -0.3285
 7508SOL    HW134157   3.802   0.373   4.557 -1.5057 -1.1975 -1.7626
 7508SOL    HW234158   3.885   0.367   4.433 -0.3375  0.2728 -0.9557
 7509SOL     OW34159   0.190   2.540  13.967  0.5159  0.1255  0.4238
 7509SOL    HW134160   0.231   2.542  13.881 -1.3034  0.2421 -0.4566
 7509SOL    HW234161   0.146   2.624  13.979 -0.0397 -0.2385  0.9783
 7510SOL     OW34162   1.860   1.297   3.282  0.1122  0.0522  0.7225
 7510SOL    HW134163   1.863   1.288   3.378  0.2265 -1.9098  0.5353
 7510SOL    HW234164   1.765   1.284   3.274  0.1551 -1.1572  2.1959
 7511SOL     OW34165   0.498   3.853   3.855  0.1079  0.0564  0.2893
 7511SOL    HW134166   0.501   3.917   3.927 -2.5155 -0.7324  1.1203
 7511SOL    HW234167   0.472   3.778   3.909  0.5214 -1.2410 -1.3370
 7512SOL     OW34168   1.450   0.375  11.928  0.1882  0.2472 -0.0639
 7512SOL    HW134169   1.435   0.428  11.850 -1.4256 -0.4246 -0.2034
 7512SOL    HW234170   1.545   0.384  11.937  0.2405 -1.0975  0.7612
 7513SOL     OW34171   1.055   2.368   5.473  0.0277  0.7154 -0.3938
 7513SOL    HW134172   1.109   2.383   5.551 -0.4597 -2.5001  0.5661
 7513SOL    HW234173   0.974   2.322   5.499 -0.0428  2.0378  1.7095
 7514SOL     OW34174   1.632   3.513   1.080 -0.0975  0.2494 -1.0666
 7514SOL    HW134175   1.701   3.454   1.047  0.8714  2.7541 -3.4559
 7514SOL    HW234176   1.555   3.460   1.060 -0.4684 -0.1328  1.3009
 7515SOL     OW34177   0.932   2.665   3.846  0.0080 -0.1511  0.0310
 7515SOL    HW134178   0.863   2.665   3.912 -0.3137 -1.4602 -0.3095
 7515SOL    HW234179   0.954   2.758   3.837  1.6483 -0.2741  2.8231
 7516SOL     OW34180   1.536   3.223   8.885 -0.5645 -0.0804  0.1469
 7516SOL    HW134181   1.597   3.263   8.946  1.1090  0.5115 -1.8930
 7516SOL    HW234182   1.519   3.138   8.924 -1.7518  1.0503  2.0996
 7517SOL     OW34183   2.347   0.296   8.587  0.2643 -0.5458  0.4617
 7517SOL    HW134184   2.310   0.234   8.524 -0.1842 -0.1935  0.3755
 7517SOL    HW234185   2.320   0.381   8.551 -0.6761 -1.7007 -1.5634
 7518SOL     OW34186   2.271   2.488   9.455 -0.3231 -0.0184 -0.1077
 7518SOL    HW134187   2.251   2.409   9.406 -0.9598 -1.6383  2.8046
 7518SOL    HW234188   2.354   2.524   9.424  0.9250 -3.1650 -0.3424
 7519SOL     OW34189   3.453   1.198   7.741 -0.3351  0.3700 -0.7738
 7519SOL    HW134190   3.478   1.178   7.651  0.7359 -2.2337  0.1141
 7519SOL    HW234191   3.526   1.257   7.759 -0.4450  0.4162 -0.4846
 7520SOL     OW34192   2.618   2.349   3.139  0.8351  1.0747 -0.0131
 7520SOL    HW134193   2.629   2.333   3.232  2.2339  0.4882 -0.2735
 7520SOL    HW234194   2.605   2.259   3.108 -0.8514  1.8519 -1.5317
 7521SOL     OW34195   0.198   4.235   7.153 -0.3599 -0.1946 -0.1472
 7521SOL    HW134196   0.113   4.278   7.156  0.1322  0.9274 -2.3958
 7521SOL    HW234197   0.258   4.308   7.162  0.2984 -0.8671  0.8768
 7522SOL     OW34198   2.465   1.325   7.914 -0.7936  0.0238  0.2144
 7522SOL    HW134199   2.473   1.406   7.964 -1.1487  0.0339  0.2547
 7522SOL    HW234200   2.411   1.264   7.965 -0.7581 -0.2724 -0.1074
 7523SOL     OW34201   2.474   2.105   9.025 -0.3842 -0.4121 -0.9384
 7523SOL    HW134202   2.497   2.040   9.091 -1.9456  1.5474  1.5484
 7523SOL    HW234203   2.512   2.076   8.943 -1.4422 -1.4075 -1.0836
 7524SOL     OW34204   2.167   3.279  17.610 -1.0444 -0.2605 -1.0324
 7524SOL    HW134205   2.085   3.315  17.574 -1.5169 -0.6297 -0.3261
 7524SOL    HW234206   2.178   3.338  17.684 -0.9093 -0.9108 -0.5344
 7525SOL     OW34207   0.523   1.096   1.949 -0.9270  0.2847 -0.7479
 7525SOL    HW134208   0.598   1.048   1.914  0.0609  1.8967 -0.8360
 7525SOL    HW234209   0.514   1.172   1.892 -1.1126  1.4279  0.8130
 7526SOL     OW34210   3.937   1.743  16.306  0.1883 -1.0006  0.2212
 7526SOL    HW134211   4.018   1.772  16.348  0.1258 -1.3752  0.6070
 7526SOL    HW234212   3.941   1.784  16.220 -0.6687 -1.6582 -0.1360
 7527SOL     OW34213   0.357   1.198   7.677 -0.2099  0.1000 -0.4033
 7527SOL    HW134214   0.273   1.197   7.632 -0.2208  0.2850 -0.3866
 7527SOL    HW234215   0.332   1.257   7.748 -3.7742 -0.6044 -1.0798
 7528SOL     OW34216   3.902   3.499  10.153  0.4314 -0.1630  0.4303
 7528SOL    HW134217   3.941   3.430  10.100 -2.2789  1.1832 -3.3256
 7528SOL    HW234218   3.807   3.487  10.146  0.3460  0.1523  1.0456
 7529SOL     OW34219   3.769   0.316   3.634 -0.0941  0.3502 -0.1086
 7529SOL    HW134220   3.750   0.409   3.647  0.6690  0.7739 -2.0188
 7529SOL    HW234221   3.693   0.272   3.596 -0.8737  0.2857  1.5140
 7530SOL     OW34222   3.097   3.592  10.103  0.5349 -0.3722  0.5251
 7530SOL    HW134223   3.081   3.606  10.197  0.4073  2.1298  0.1105
 7530SOL    HW234224   3.073   3.674  10.061  1.6452  0.4693  1.5436
 7531SOL     OW34225   3.493   0.080   4.268  0.4730  0.2388 -0.0229
 7531SOL    HW134226   3.556   0.051   4.334 -2.0397 -0.4547  2.0818
 7531SOL    HW234227   3.518   0.039   4.185 -1.8590  0.2894 -0.7791
 7532SOL     OW34228   3.228   0.262   5.407 -0.1160  0.4479 -0.2032
 7532SOL    HW134229   3.247   0.203   5.334  3.0156  1.7798 -0.4638
 7532SOL    HW234230   3.137   0.236   5.426  0.6308 -1.0044  1.4020
 7533SOL     OW34231   3.677   2.007   5.337  0.0836  0.1222 -0.0155
 7533SOL    HW134232   3.598   2.030   5.386 -1.4846 -1.2515 -1.8885
 7533SOL    HW234233   3.733   1.970   5.405  0.0784 -0.2616 -0.2229
 7534SOL     OW34234   0.268   3.780  10.718  0.1555 -0.0488  0.5987
 7534SOL    HW134235   0.339   3.829  10.759  1.8472 -1.7671 -0.2608
 7534SOL    HW234236   0.194   3.834  10.745 -0.2540 -0.5871  0.5465
 7535SOL     OW34237   3.767   4.102   2.237 -0.5943 -0.1379  0.4853
 7535SOL    HW134238   3.795   4.176   2.183 -1.2058  0.9333  1.6498
 7535SOL    HW234239   3.841   4.073   2.290 -1.3686  0.0515  1.6426
 7536SOL     OW34240   2.165   2.807  15.999 -0.0640 -0.9539  0.7019
 7536SOL    HW134241   2.085   2.792  15.948 -0.1007 -1.2860  0.8588
 7536SOL    HW234242   2.178   2.713  16.014 -1.9206 -1.6308 -1.8675
 7537SOL     OW34243   3.015   4.499  16.567 -0.4082 -0.2196 -0.0813
 7537SOL    HW134244   2.933   4.515  16.613 -1.5320 -0.4858 -1.9979
 7537SOL    HW234245   3.050   4.443  16.636 -0.3402  1.0098  0.8834
 7538SOL     OW34246   3.632   2.192   8.453 -0.0913 -0.0237 -0.4459
 7538SOL    HW134247   3.673   2.151   8.529 -0.8428  1.0133  0.5285
 7538SOL    HW234248   3.699   2.260   8.442 -1.7887  1.3902 -1.9103
 7539SOL     OW34249   2.840   1.817   8.271 -0.5334 -0.6914  0.5216
 7539SOL    HW134250   2.821   1.862   8.188  0.5987 -0.2075  0.5297
 7539SOL    HW234251   2.933   1.799   8.258 -0.0630  1.0327  1.5958
 7540SOL     OW34252   2.717   0.457   6.974  0.1068  0.1894 -0.1895
 7540SOL    HW134253   2.786   0.409   6.928  0.8403  0.6878  0.3974
 7540SOL    HW234254   2.655   0.384   6.980  2.4282 -1.8117 -0.9499
 7541SOL     OW34255   0.512   0.674   1.354 -0.3973 -0.3976 -0.1905
 7541SOL    HW134256   0.466   0.603   1.309  0.4123 -2.1220  1.7373
 7541SOL    HW234257   0.459   0.677   1.434 -0.1500  0.4335 -0.0575
 7542SOL     OW34258   3.657   1.626  17.342  0.3134 -0.0171 -0.3774
 7542SOL    HW134259   3.720   1.559  17.367  0.3417  0.1549  0.0144
 7542SOL    HW234260   3.583   1.576  17.308  0.9197 -1.0417 -0.1765
 7543SOL     OW34261   3.452   3.555   6.193 -0.5792  0.0807 -0.1533
 7543SOL    HW134262   3.408   3.640   6.186 -0.4460  0.3375  2.1225
 7543SOL    HW234263   3.542   3.584   6.209 -0.0305 -1.7479 -0.0069
 7544SOL     OW34264   2.051   1.599   3.440  0.2227 -0.2949 -0.5621
 7544SOL    HW134265   2.015   1.519   3.477  0.3831 -0.6015 -1.0716
 7544SOL    HW234266   2.123   1.567   3.386 -0.0145 -2.6267  0.4967
 7545SOL     OW34267   2.725   0.102   0.277  0.0736  0.0766  0.1753
 7545SOL    HW134268   2.719   0.101   0.182  1.9382  1.2047  0.0397
 7545SOL    HW234269   2.706   0.010   0.295 -1.1126  0.4093  0.5730
 7546SOL     OW34270   0.208   1.337   4.002  0.2634 -0.2918  0.0357
 7546SOL    HW134271   0.156   1.402   3.953 -2.1178 -3.2178 -1.2890
 7546SOL    HW234272   0.255   1.298   3.929  0.2464  0.7841 -0.5582
 7547SOL     OW34273   3.985   1.950  15.198 -0.2375 -0.4361 -0.3317
 7547SOL    HW134274   4.013   1.917  15.113 -0.2239  0.1446 -0.5577
 7547SOL    HW234275   4.058   1.919  15.251 -1.5092 -0.2727  1.5241
 7548SOL     OW34276   0.919   2.094   0.185  0.1438  0.5393  0.2759
 7548SOL    HW134277   0.928   2.163   0.250 -1.8510  0.6592  0.4394
 7548SOL    HW234278   0.863   2.144   0.125  2.3922 -2.0196 -3.9409
 7549SOL     OW34279   2.474   2.648   1.282 -0.0789  0.0088  0.2535
 7549SOL    HW134280   2.538   2.668   1.351 -0.4725  0.6997  0.4166
 7549SOL    HW234281   2.455   2.736   1.249 -0.7286 -0.0138  0.5713
 7550SOL     OW34282   1.314   1.051  17.328  0.3383 -0.2435  0.0677
 7550SOL    HW134283   1.335   0.999  17.405 -0.7599 -1.2134 -0.2793
 7550SOL    HW234284   1.225   1.020  17.313  0.3632 -0.7275  0.9316
 7551SOL     OW34285   2.394   0.582   2.649  0.3142  0.3773 -0.4557
 7551SOL    HW134286   2.479   0.576   2.605  0.8062  2.2194  0.2486
 7551SOL    HW234287   2.358   0.505   2.606  1.0703  0.5222 -1.3613
 7552SOL     OW34288   1.339   3.584   1.681 -1.1634 -0.0890 -0.0361
 7552SOL    HW134289   1.363   3.596   1.773 -1.2428 -0.9623  0.1020
 7552SOL    HW234290   1.313   3.674   1.663  2.6227  0.7507 -1.1412
 7553SOL     OW34291   2.737   4.492   9.355 -0.1411  0.6722 -0.6354
 7553SOL    HW134292   2.673   4.528   9.416 -2.2939 -2.4560 -1.0790
 7553SOL    HW234293   2.712   4.524   9.268 -2.6986  0.1360 -0.0892
 7554SOL     OW34294   2.083   0.862   7.581  0.4679  0.0146 -0.0781
 7554SOL    HW134295   1.989   0.852   7.565  0.4728  1.6706 -1.0827
 7554SOL    HW234296   2.108   0.773   7.555 -3.9125 -1.4743  0.8022
 7555SOL     OW34297   4.732   4.282  15.338  0.0940 -0.3502  0.2489
 7555SOL    HW134298   0.046   4.206  15.369 -1.5929 -1.7031 -0.3164
 7555SOL    HW234299   0.065   4.347  15.348 -2.2687  2.3561 -1.0914
 7556SOL     OW34300   3.551   2.002   9.658  0.1244  0.4481 -0.2710
 7556SOL    HW134301   3.620   1.975   9.719  1.0021 -0.0232 -1.4820
 7556SOL    HW234302   3.547   1.929   9.596 -1.0619 -0.9165  1.4133
 7557SOL     OW34303   2.768   2.622   6.273 -1.0466 -0.0422  0.1963
 7557SOL    HW134304   2.726   2.581   6.198  1.0847 -1.2164 -0.3664
 7557SOL    HW234305   2.728   2.708   6.281 -1.3819 -0.2515  0.8041
 7558SOL     OW34306   1.926   1.400   9.241 -0.0573 -0.7608  0.2425
 7558SOL    HW134307   2.022   1.390   9.239  0.2613  2.0496  0.8362
 7558SOL    HW234308   1.905   1.316   9.200 -2.4456 -0.4699  0.8691
 7559SOL     OW34309   0.473   0.993   3.543 -0.5131 -0.0261  0.4275
 7559SOL    HW134310   0.485   1.001   3.638 -1.1933  0.7466  0.4474
 7559SOL    HW234311   0.389   0.946   3.549 -0.5001 -0.1447 -0.3987
 7560SOL     OW34312   3.802   2.973   6.609 -0.0427  0.3448 -0.0480
 7560SOL    HW134313   3.789   2.897   6.665 -2.6290  1.2631  0.5819
 7560SOL    HW234314   3.761   3.039   6.664  0.9623 -0.0737  1.2138
 7561SOL     OW34315   1.953   2.658   4.642  0.1931  0.0636 -0.2029
 7561SOL    HW134316   1.952   2.679   4.735  2.2646  1.1534 -0.4228
 7561SOL    HW234317   1.998   2.574   4.643  0.9693  0.4993  1.5611
 7562SOL     OW34318   3.933   1.948   4.984 -0.0178 -0.3579  0.2506
 7562SOL    HW134319   3.903   1.871   5.032 -0.8805 -1.0992 -1.4680
 7562SOL    HW234320   3.997   1.978   5.049  0.4866 -1.5663  0.3053
 7563SOL     OW34321   0.085   2.389   7.721  0.1105  0.1830 -0.4389
 7563SOL    HW134322   0.029   2.346   7.786  2.3214  0.4226  1.6039
 7563SOL    HW234323   0.051   2.478   7.721 -2.0025 -0.6057  1.0951
 7564SOL     OW34324   3.197   3.221   4.547 -0.6739 -0.2980  1.0230
 7564SOL    HW134325   3.193   3.152   4.613 -0.2443 -0.6904  0.6404
 7564SOL    HW234326   3.238   3.287   4.602 -0.4778  1.1395 -0.8521
 7565SOL     OW34327   0.770   4.658   8.220  0.2361  0.0120 -0.3220
 7565SOL    HW134328   0.690   4.697   8.257  1.3831  1.1231  0.9730
 7565SOL    HW234329   0.729   4.633   8.137 -1.2031 -2.0382  1.0026
 7566SOL     OW34330   0.507   2.889   8.109 -0.1141  0.7928  0.4795
 7566SOL    HW134331   0.548   2.912   8.192 -0.0728  1.9584  0.1491
 7566SOL    HW234332   0.448   2.821   8.141 -0.9903  0.8066 -1.0912
 7567SOL     OW34333   0.063   1.786  17.363 -0.1907  0.5543 -0.3865
 7567SOL    HW134334   0.149   1.757  17.334 -0.9632 -1.7800 -0.3517
 7567SOL    HW234335   0.057   1.874  17.326  1.8805  0.2212 -1.5432
 7568SOL     OW34336   2.406   0.310   3.437 -0.2199 -0.3994  0.0797
 7568SOL    HW134337   2.484   0.354   3.472 -0.5836  1.5326 -1.5510
 7568SOL    HW234338   2.440   0.282   3.352 -1.3219  1.8994 -1.1226
 7569SOL     OW34339   0.237   0.654   0.325 -0.1679 -0.1062  0.1269
 7569SOL    HW134340   0.227   0.727   0.387 -1.8905  0.5314 -0.9178
 7569SOL    HW234341   0.331   0.659   0.308 -0.2338 -0.5505 -0.3605
 7570SOL     OW34342   1.870   1.164   2.987  0.4273 -0.2901  0.5198
 7570SOL    HW134343   1.852   1.230   3.054  0.1301  0.4725 -0.3098
 7570SOL    HW234344   1.956   1.130   3.011  0.3930 -0.5778  0.2381
 7571SOL     OW34345   1.229   4.714   8.533  0.4906 -0.0854 -0.0884
 7571SOL    HW134346   1.222   0.035   8.456 -1.9865 -0.0530  0.1660
 7571SOL    HW234347   1.141   4.732   8.565  1.3857 -1.1459  2.8916
 7572SOL     OW34348   2.523   1.186   4.130 -0.0940 -0.3149 -0.8161
 7572SOL    HW134349   2.573   1.206   4.051  0.2002  0.5401 -0.4105
 7572SOL    HW234350   2.454   1.249   4.110  0.1872  0.5413  0.9093
 7573SOL     OW34351   0.944   1.003   7.336 -0.1254  0.5941  0.3188
 7573SOL    HW134352   0.890   1.036   7.408  0.4472  0.7672  0.6788
 7573SOL    HW234353   0.928   1.060   7.261 -1.9813 -2.6567 -1.7008
 7574SOL     OW34354   1.119   4.329   4.151 -0.0753 -0.3687  0.3105
 7574SOL    HW134355   1.093   4.343   4.060  0.5322  0.5276  0.2708
 7574SOL    HW234356   1.053   4.261   4.165  1.4787 -2.1943 -1.1976
 7575SOL     OW34357   2.048   4.598   6.317 -0.4660  0.5482 -0.8454
 7575SOL    HW134358   2.136   4.562   6.306 -0.6750  0.5457 -2.5531
 7575SOL    HW234359   1.999   4.540   6.259 -2.1215 -1.6930  2.8499
 7576SOL     OW34360   1.666   0.960   7.861 -0.1681 -0.5867  0.3010
 7576SOL    HW134361   1.708   0.911   7.931  2.4513  0.3484 -0.6202
 7576SOL    HW234362   1.733   0.965   7.793  1.8329  0.7440  2.3784
 7577SOL     OW34363   1.856   2.390   6.301 -0.3702 -0.3899  0.2665
 7577SOL    HW134364   1.924   2.364   6.239  2.5650  0.4729  3.1573
 7577SOL    HW234365   1.790   2.420   6.239  1.7424 -0.1724 -1.8842
 7578SOL     OW34366   0.685   3.487   5.526  0.0752 -0.2221  0.2732
 7578SOL    HW134367   0.636   3.552   5.476 -1.5107 -0.6256  1.2853
 7578SOL    HW234368   0.775   3.517   5.533  0.4085 -0.7211 -1.9696
 7579SOL     OW34369   4.717   4.590   1.466 -0.2324 -0.1550 -0.3840
 7579SOL    HW134370   0.030   4.603   1.547 -1.3585  0.3713  0.2014
 7579SOL    HW234371   4.634   4.572   1.510  0.2331  2.0242  1.3566
 7580SOL     OW34372   1.993   2.649  15.297 -0.1651 -0.0805 -0.0989
 7580SOL    HW134373   2.045   2.619  15.222  0.6729 -1.2020  0.9209
 7580SOL    HW234374   2.000   2.577  15.359  1.3267 -0.4645 -0.7275
 7581SOL     OW34375   2.890   1.526  12.038 -0.0134  0.0094  0.6771
 7581SOL    HW134376   2.958   1.565  11.983 -1.5682 -0.0995 -1.3143
 7581SOL    HW234377   2.824   1.494  11.977  1.6200  0.1203 -1.1450
 7582SOL     OW34378   0.655   2.222  10.404 -0.0489  0.0997  0.1409
 7582SOL    HW134379   0.591   2.267  10.349  0.6730  0.3866 -0.4483
 7582SOL    HW234380   0.704   2.170  10.341 -1.9327 -0.2327 -1.0544
 7583SOL     OW34381   3.338   1.057   8.368  0.0156  0.4502 -0.3326
 7583SOL    HW134382   3.252   1.015   8.370  0.1891  0.0946 -0.3360
 7583SOL    HW234383   3.307   1.144   8.393  0.9193  0.9551 -0.9283
 7584SOL     OW34384   0.715   0.577   2.220 -0.3393 -0.0107 -0.7052
 7584SOL    HW134385   0.646   0.532   2.268  0.2551  0.2424  0.3733
 7584SOL    HW234386   0.679   0.550   2.135  1.9636 -0.6723 -1.4768
 7585SOL     OW34387   0.132   4.466   0.061  0.6240 -0.4259  0.1083
 7585SOL    HW134388   0.102   4.490  17.716 -2.2764 -3.2367  0.3364
 7585SOL    HW234389   0.098   4.535   0.117 -2.5522  0.3319 -2.7491
 7586SOL     OW34390   3.316   0.278   3.812  0.3311  0.3393 -0.1631
 7586SOL    HW134391   3.230   0.251   3.847  1.0790 -1.0695  0.6020
 7586SOL    HW234392   3.353   0.321   3.889 -1.4592  1.4641  0.0672
 7587SOL     OW34393   1.324   0.703   7.563  0.2448  0.1212  0.2310
 7587SOL    HW134394   1.348   0.755   7.486  1.9216 -1.5192 -0.3429
 7587SOL    HW234395   1.393   0.729   7.624  0.1802  0.2189  0.2624
 7588SOL     OW34396   1.586   2.133   3.471 -0.2965 -0.4497  0.2268
 7588SOL    HW134397   1.632   2.049   3.465 -0.2552 -0.4499  0.5745
 7588SOL    HW234398   1.504   2.107   3.514 -0.2254 -1.7884 -0.4370
 7589SOL     OW34399   0.783   3.249   5.916 -0.2758 -0.4789  0.3784
 7589SOL    HW134400   0.841   3.243   5.992  0.4957  0.0278 -0.1619
 7589SOL    HW234401   0.702   3.211   5.951 -0.4149 -0.4896  0.0437
 7590SOL     OW34402   1.684   1.852   4.933  0.0595 -0.0403  0.1196
 7590SOL    HW134403   1.645   1.825   4.849  0.6093 -0.0925 -0.1168
 7590SOL    HW234404   1.675   1.947   4.928 -0.5077 -0.0676  0.6121
 7591SOL     OW34405   3.839   2.016   7.143  0.0386 -0.3766  0.1219
 7591SOL    HW134406   3.844   1.929   7.105 -1.3101 -0.8523  1.0468
 7591SOL    HW234407   3.921   2.061   7.126  0.3069 -1.1571 -0.6422
 7592SOL     OW34408   0.222   2.062   2.869  0.6657  0.0155  0.0985
 7592SOL    HW134409   0.185   2.101   2.948 -2.7321 -4.1107  0.5062
 7592SOL    HW234410   0.290   2.005   2.906 -0.3879 -1.2019  0.1383
 7593SOL     OW34411   1.308   4.597  14.192 -0.2749 -0.0559  0.0664
 7593SOL    HW134412   1.332   4.649  14.269 -1.0378 -1.5004  1.2814
 7593SOL    HW234413   1.225   4.638  14.168  0.5943 -0.4775 -3.6055
 7594SOL     OW34414   3.663   2.330   2.480  0.0249  0.3385 -0.3795
 7594SOL    HW134415   3.587   2.388   2.480 -1.5201 -1.6986 -1.7086
 7594SOL    HW234416   3.720   2.361   2.550  2.3375 -0.9185 -1.6907
 7595SOL     OW34417   2.361   1.139  13.034 -0.5894  0.0559  0.2664
 7595SOL    HW134418   2.374   1.182  13.118 -3.2743  0.9106  0.2538
 7595SOL    HW234419   2.404   1.054  13.045  0.3953  0.2191 -2.3735
 7596SOL     OW34420   3.389   1.799   4.694 -0.0846  0.1544 -0.1128
 7596SOL    HW134421   3.339   1.806   4.775 -0.6803  1.4014 -0.5930
 7596SOL    HW234422   3.439   1.718   4.705  0.5742  0.4409 -0.9687
 7597SOL     OW34423   2.215   4.257   9.284 -0.6624 -0.1465  0.5826
 7597SOL    HW134424   2.185   4.234   9.196 -1.9395  1.7284  0.5295
 7597SOL    HW234425   2.229   4.168   9.318  0.5728  0.4228  1.5251
 7598SOL     OW34426   0.758   0.686  14.389  0.0089 -0.2877  0.5654
 7598SOL    HW134427   0.806   0.623  14.442 -0.1169 -0.4898  0.4402
 7598SOL    HW234428   0.669   0.650  14.382  0.2017 -1.0206  1.9198
 7599SOL     OW34429   2.773   2.847   9.315  0.1061  0.1964  0.1847
 7599SOL    HW134430   2.768   2.874   9.223 -0.5375 -0.3700  0.0603
 7599SOL    HW234431   2.703   2.907   9.340 -0.8670  0.0559 -2.1529
 7600SOL     OW34432   1.265   1.373   4.955 -0.0432 -0.9123  0.1441
 7600SOL    HW134433   1.355   1.374   4.986  0.9490  0.2693 -2.7526
 7600SOL    HW234434   1.226   1.346   5.038 -1.7277 -0.5442 -0.5159
 7601SOL     OW34435   0.536   3.862  10.803  0.3066  0.3100  0.5361
 7601SOL    HW134436   0.623   3.902  10.794  0.4518  0.0340  0.6963
 7601SOL    HW234437   0.514   3.865  10.896  1.4921 -1.3419  0.8643
 7602SOL     OW34438   2.002   0.177   3.755  0.2057 -0.0782 -0.4113
 7602SOL    HW134439   2.082   0.221   3.727 -0.1677  0.2698 -0.9156
 7602SOL    HW234440   1.978   0.226   3.834  0.9561 -1.7738  0.8770
 7603SOL     OW34441   2.111   0.347   7.023 -0.1039  0.5549  0.5332
 7603SOL    HW134442   2.187   0.317   6.974 -1.1876 -0.5948 -0.4654
 7603SOL    HW234443   2.134   0.437   7.043 -0.0179  0.2523  1.8208
 7604SOL     OW34444   0.659   4.240   3.149  0.2908 -0.0804 -0.0652
 7604SOL    HW134445   0.579   4.277   3.186  1.3875  1.4895  0.7153
 7604SOL    HW234446   0.633   4.201   3.065  0.5513  0.4067 -0.3717
 7605SOL     OW34447   2.403   3.425   0.424  0.4926  0.6104  0.8641
 7605SOL    HW134448   2.335   3.469   0.373  0.7802 -2.0366 -1.8105
 7605SOL    HW234449   2.464   3.391   0.358 -0.6459 -2.5310  1.4133
 7606SOL     OW34450   2.574   2.704   7.153 -0.0253 -0.0286 -0.2059
 7606SOL    HW134451   2.574   2.797   7.178 -0.6563  0.1870 -1.0478
 7606SOL    HW234452   2.483   2.694   7.128 -0.1821 -2.9993  1.6490
 7607SOL     OW34453   1.288   4.016  13.517 -0.0787  0.4533 -0.2979
 7607SOL    HW134454   1.283   3.958  13.593  2.0191  2.1434  1.0911
 7607SOL    HW234455   1.229   3.971  13.456 -2.7473  2.1978  1.0315
 7608SOL     OW34456   3.713   3.491   0.835 -0.0476 -1.0302 -0.2387
 7608SOL    HW134457   3.727   3.575   0.790 -1.2889 -0.4444  0.5001
 7608SOL    HW234458   3.733   3.512   0.926  0.4138 -2.4921  0.0008
 7609SOL     OW34459   1.971   1.173   0.494  0.4534  0.0969  0.4049
 7609SOL    HW134460   1.894   1.222   0.523  0.3175 -0.0718  0.3394
 7609SOL    HW234461   1.998   1.138   0.579 -1.0433 -1.2002  0.3468
 7610SOL     OW34462   3.725   1.130   6.302  0.4053  0.1865 -0.5070
 7610SOL    HW134463   3.781   1.175   6.238  1.7112  1.2906  1.3960
 7610SOL    HW234464   3.641   1.143   6.259 -0.0394 -2.5333 -0.4246
 7611SOL     OW34465   0.214   0.657   6.175 -0.3108 -0.3911 -0.4527
 7611SOL    HW134466   0.269   0.725   6.215  0.3159  0.1612 -2.2280
 7611SOL    HW234467   0.268   0.642   6.097 -1.8552  0.3648 -1.6585
 7612SOL     OW34468   4.272   3.685   4.860  0.1904  0.0227 -0.2253
 7612SOL    HW134469   4.320   3.656   4.937 -1.8757 -1.0204  0.6544
 7612SOL    HW234470   4.187   3.704   4.899  0.5074  1.4584 -0.2517
 7613SOL     OW34471   1.078   3.802   6.582  0.0442 -0.5426 -0.0768
 7613SOL    HW134472   1.082   3.897   6.573 -1.2104 -0.2880  2.0657
 7613SOL    HW234473   1.151   3.788   6.522 -1.9332 -1.7096 -2.2485
 7614SOL     OW34474   4.566   4.559   0.373 -0.3153  0.3983 -0.0193
 7614SOL    HW134475   4.540   4.600   0.291  2.1797  2.1274  0.0552
 7614SOL    HW234476   4.657   4.559   0.344  0.2735 -0.7555  1.8094
 7615SOL     OW34477   4.696   0.599   8.812 -0.2622 -0.3238 -0.3989
 7615SOL    HW134478   0.024   0.586   8.882  1.5643  1.8408 -1.7064
 7615SOL    HW234479   4.629   0.637   8.869  0.1110 -2.0253  1.1780
 7616SOL     OW34480   0.083   0.642  15.477  0.4043  0.3824 -0.0358
 7616SOL    HW134481   0.048   0.554  15.467  0.4584  0.4554 -0.8912
 7616SOL    HW234482   0.132   0.640  15.559 -0.4307 -0.6448  0.4374
 7617SOL     OW34483   3.017   2.440   9.410  0.0390  0.6733 -0.2550
 7617SOL    HW134484   2.975   2.519   9.446  0.5487  0.4262  0.8690
 7617SOL    HW234485   2.977   2.374   9.466  0.5915 -0.0283 -0.6938
 7618SOL     OW34486   4.638   4.537  14.508  0.2087  0.1805  0.1846
 7618SOL    HW134487   4.622   4.571  14.595  0.0014  0.1747  0.1475
 7618SOL    HW234488   4.662   4.620  14.465  2.8495 -1.4043 -1.4462
 7619SOL     OW34489   3.291   0.856   4.491 -0.1183  0.4409  0.1267
 7619SOL    HW134490   3.214   0.802   4.469  0.5784 -0.2263 -0.7139
 7619SOL    HW234491   3.266   0.904   4.569 -0.0502 -0.9850  1.0245
 7620SOL     OW34492   0.239   4.595   9.162  0.3740  0.4847  0.0216
 7620SOL    HW134493   0.302   4.665   9.181  2.0458 -1.2407  0.8711
 7620SOL    HW234494   0.260   4.526   9.224  2.3361  1.7861  0.8241
 7621SOL     OW34495   0.447   0.911  14.246  0.4459 -0.0627 -0.4695
 7621SOL    HW134496   0.424   0.912  14.339 -0.7281 -0.6810 -0.7507
 7621SOL    HW234497   0.387   0.975  14.208  1.6894  0.7498 -1.0442
 7622SOL     OW34498   3.394   0.872   6.898 -0.8749  0.3946  0.1865
 7622SOL    HW134499   3.384   0.960   6.861 -1.3124  1.0792  1.9282
 7622SOL    HW234500   3.316   0.875   6.953 -0.2157 -0.3971  1.1413
 7623SOL     OW34501   4.463   3.212   8.271  0.0973 -0.4836 -0.2692
 7623SOL    HW134502   4.436   3.230   8.181  1.2285  1.7869 -0.1551
 7623SOL    HW234503   4.385   3.165   8.301  0.5709 -1.6181 -0.8245
 7624SOL     OW34504   2.325   3.556   7.798 -0.3261  0.1410 -0.5039
 7624SOL    HW134505   2.334   3.652   7.794 -0.0674  0.0647 -1.7110
 7624SOL    HW234506   2.351   3.529   7.710 -0.2272  3.4039 -1.4736
 7625SOL     OW34507   2.211   1.841   7.806 -0.7136  0.3483 -0.0215
 7625SOL    HW134508   2.189   1.804   7.721  0.2159  0.2667 -0.2256
 7625SOL    HW234509   2.286   1.784   7.823 -1.9037 -1.9249 -2.4582
 7626SOL     OW34510   2.939   0.741   8.414 -0.0630 -0.9026  0.0126
 7626SOL    HW134511   2.886   0.724   8.492 -0.2295  2.6512  0.6445
 7626SOL    HW234512   3.013   0.788   8.451  0.0393  1.1194 -2.7829
 7627SOL     OW34513   2.842   3.131   4.132  0.4486  0.0001  0.6073
 7627SOL    HW134514   2.773   3.107   4.194  0.0929  2.6754  1.2645
 7627SOL    HW234515   2.877   3.208   4.177  2.6615 -1.7566  1.9092
 7628SOL     OW34516   3.176   0.098   7.534  0.2630 -0.2690 -0.1446
 7628SOL    HW134517   3.102   0.111   7.594 -0.3533 -1.8956 -0.5515
 7628SOL    HW234518   3.225   0.180   7.543 -0.0394  0.0974 -1.8500
 7629SOL     OW34519   1.129   0.621  12.031  0.2357 -0.0580  0.2478
 7629SOL    HW134520   1.128   0.611  11.936 -1.1529 -1.4547  0.4044
 7629SOL    HW234521   1.132   0.716  12.039 -0.1641 -0.1209  1.1724
 7630SOL     OW34522   2.652   3.583   9.662  0.0265  0.0715 -0.5385
 7630SOL    HW134523   2.572   3.634   9.651 -0.2563 -0.3076 -0.1741
 7630SOL    HW234524   2.712   3.650   9.630 -2.2055  2.3333  0.0364
 7631SOL     OW34525   1.819   3.644   3.492  0.2130 -0.4259  0.0251
 7631SOL    HW134526   1.752   3.642   3.424  1.5241 -0.6574 -1.2754
 7631SOL    HW234527   1.807   3.556   3.527 -0.4193 -0.0912  0.6547
 7632SOL     OW34528   3.982   4.379  13.069 -0.4606  0.0064  0.3604
 7632SOL    HW134529   4.067   4.337  13.058 -1.1342 -1.4222  0.6987
 7632SOL    HW234530   4.024   4.455  13.111  1.9012 -0.9512 -0.2965
 7633SOL     OW34531   3.592   3.391   2.427 -0.1044  0.0968 -0.6696
 7633SOL    HW134532   3.562   3.482   2.429 -0.6366 -0.0836 -0.5315
 7633SOL    HW234533   3.626   3.375   2.515  0.8885  0.7368 -0.9289
 7634SOL     OW34534   3.562   1.868  15.763 -0.2350 -0.1796 -0.6618
 7634SOL    HW134535   3.575   1.904  15.675 -2.2201 -1.9786 -1.6852
 7634SOL    HW234536   3.536   1.952  15.802 -0.3087 -0.3014 -0.4478
 7635SOL     OW34537   0.812   1.761  13.293 -0.2356  0.0147 -0.0283
 7635SOL    HW134538   0.807   1.784  13.201  0.4498 -0.5991 -0.2177
 7635SOL    HW234539   0.779   1.835  13.343 -0.6421 -0.2929  0.1607
 7636SOL     OW34540   0.887   0.512   1.905  0.8620 -0.2030  0.0556
 7636SOL    HW134541   0.908   0.602   1.929 -2.4533  0.6826 -0.3675
 7636SOL    HW234542   0.880   0.459   1.985  0.0299 -2.8011 -1.7433
 7637SOL     OW34543   0.452   0.313   9.970 -0.3089  0.4681  0.1712
 7637SOL    HW134544   0.453   0.246  10.038 -0.7962  1.1257  0.8269
 7637SOL    HW234545   0.439   0.395  10.017  0.6738  1.1075 -0.6597
 7638SOL     OW34546   0.224   0.424   2.853  0.1491 -0.1143  0.6577
 7638SOL    HW134547   0.179   0.401   2.935 -2.7591 -0.2106 -0.9699
 7638SOL    HW234548   0.223   0.340   2.808  1.6251  1.4106 -2.2474
 7639SOL     OW34549   2.687   2.335   9.957  0.2878 -0.3047 -0.3367
 7639SOL    HW134550   2.781   2.317   9.958  0.2365 -0.6380 -1.3385
 7639SOL    HW234551   2.651   2.247   9.957 -1.3478  0.3817  0.7321
 7640SOL     OW34552   0.110   1.782   5.349 -0.3709  0.1670  0.1325
 7640SOL    HW134553   0.068   1.749   5.269  0.0553 -1.3923  0.5659
 7640SOL    HW234554   0.064   1.866   5.353 -1.0631 -0.3491  3.0173
 7641SOL     OW34555   4.454   2.014   2.777 -0.4304  0.1790 -0.1149
 7641SOL    HW134556   4.359   2.023   2.776 -0.3065  1.4308 -0.8571
 7641SOL    HW234557   4.472   2.079   2.708 -1.1537  0.7204  0.2065
 7642SOL     OW34558   1.980   3.937   6.824 -0.2262 -0.1677  0.0700
 7642SOL    HW134559   1.942   3.868   6.769 -1.1692 -0.8352  1.5399
 7642SOL    HW234560   2.057   3.957   6.771  0.4658  1.8158  1.8614
 7643SOL     OW34561   1.526   2.414   6.865 -0.2795 -0.1953 -0.3386
 7643SOL    HW134562   1.568   2.475   6.805 -0.3570  0.8976  0.7204
 7643SOL    HW234563   1.444   2.399   6.816 -0.0666  1.5779 -1.2171
 7644SOL     OW34564   0.234   2.244   8.495 -0.4821  0.4740  0.3224
 7644SOL    HW134565   0.188   2.327   8.503  3.2883  2.4750  1.6118
 7644SOL    HW234566   0.240   2.220   8.588 -3.3786 -1.4366 -0.0100
 7645SOL     OW34567   3.029   2.803   0.807  0.6654 -0.2476 -0.4156
 7645SOL    HW134568   3.081   2.871   0.849 -1.7876  1.4354 -0.1227
 7645SOL    HW234569   2.970   2.781   0.879  1.1983 -1.9631 -0.5079
 7646SOL     OW34570   2.312   3.172   4.533 -0.0247 -0.0180  0.2277
 7646SOL    HW134571   2.234   3.221   4.559 -0.3223 -0.2548 -0.2205
 7646SOL    HW234572   2.266   3.090   4.515 -0.0582 -0.4890  2.4718
 7647SOL     OW34573   1.432   0.999   3.185  0.3289  0.0891 -0.1054
 7647SOL    HW134574   1.409   0.910   3.159 -0.3202  0.5517 -1.0868
 7647SOL    HW234575   1.509   1.008   3.128 -1.0270  1.3454 -1.7306
 7648SOL     OW34576   3.376   3.583   9.003  1.0367 -0.3085 -0.3937
 7648SOL    HW134577   3.329   3.591   9.086  0.4928  0.1588 -0.7484
 7648SOL    HW234578   3.306   3.547   8.950 -0.2911  1.8140 -0.0618
 7649SOL     OW34579   3.245   2.325   2.385  0.5789 -0.5312 -0.1969
 7649SOL    HW134580   3.181   2.340   2.315 -1.0644  2.0954  1.8508
 7649SOL    HW234581   3.276   2.237   2.365  0.4564 -0.7633  0.6566
 7650SOL     OW34582   4.071   1.266   5.377 -0.1310  0.0804 -0.3783
 7650SOL    HW134583   4.091   1.280   5.284  1.8635  0.4401  0.1179
 7650SOL    HW234584   4.074   1.171   5.381  0.6685  0.2330  2.3289
 7651SOL     OW34585   2.446   3.162   7.278  0.6300  0.3252  0.2973
 7651SOL    HW134586   2.538   3.159   7.252  0.7301  2.3478  0.4043
 7651SOL    HW234587   2.406   3.096   7.222  0.7781  0.1418  0.4082
 7652SOL     OW34588   2.150   3.456   2.902 -0.1463 -0.4672  0.1024
 7652SOL    HW134589   2.055   3.452   2.890 -0.0771  1.8950 -1.2925
 7652SOL    HW234590   2.154   3.460   2.998 -1.2999 -0.3803  0.1447
 7653SOL     OW34591   3.403   3.104   3.951  0.6173 -0.2860  0.6274
 7653SOL    HW134592   3.470   3.102   4.019 -1.3587  0.3314  2.6157
 7653SOL    HW234593   3.387   3.198   3.943 -1.8751 -0.8514 -1.0470
 7654SOL     OW34594   3.138   3.652   5.427  0.1059  0.2533  0.4938
 7654SOL    HW134595   3.063   3.653   5.487  0.7028 -2.4540  1.2492
 7654SOL    HW234596   3.132   3.571   5.378  1.2661 -1.3301  2.9893
 7655SOL     OW34597   4.595   1.624   5.308 -0.4483 -0.2426  0.0595
 7655SOL    HW134598   4.550   1.542   5.289  0.1740 -0.2270 -1.4391
 7655SOL    HW234599   4.627   1.610   5.397 -1.8838  0.7548  0.7301
 7656SOL     OW34600   0.443   3.330   3.069  0.3651 -0.6803 -0.1004
 7656SOL    HW134601   0.445   3.234   3.067 -2.2558 -0.7229 -1.0881
 7656SOL    HW234602   0.449   3.347   2.975 -1.5276  0.7842  0.0633
 7657SOL     OW34603   4.267   0.469  15.945 -0.1829  0.4390 -0.2494
 7657SOL    HW134604   4.240   0.402  15.882 -0.2934 -1.0020  1.3356
 7657SOL    HW234605   4.218   0.546  15.916  0.7530  1.2828  0.4045
 7658SOL     OW34606   0.073   3.900   6.639 -0.2368 -0.3061  0.4260
 7658SOL    HW134607   0.132   3.954   6.586 -1.2057 -0.6589 -1.0349
 7658SOL    HW234608   0.077   3.944   6.724  1.0972 -0.3184  0.3707
 7659SOL     OW34609   3.206   3.126   6.918  0.3901 -0.3291  0.3555
 7659SOL    HW134610   3.268   3.111   6.989 -0.5726  1.0823  1.4931
 7659SOL    HW234611   3.174   3.038   6.898 -0.5027 -0.1049  0.8354
 7660SOL     OW34612   1.138   0.985   5.431 -0.0021 -0.4838 -0.4106
 7660SOL    HW134613   1.203   1.040   5.386 -0.6435 -0.0607 -0.8202
 7660SOL    HW234614   1.197   0.925   5.476 -1.1011 -1.7383 -0.6532
 7661SOL     OW34615   1.688   2.209  13.907  0.6948 -0.4783  0.4211
 7661SOL    HW134616   1.727   2.265  13.973  0.4329 -0.2344  0.3682
 7661SOL    HW234617   1.595   2.234  13.908  0.3321 -1.8869  2.0362
 7662SOL     OW34618   1.617   1.413   2.735  0.4395  0.7681  0.6028
 7662SOL    HW134619   1.583   1.491   2.689 -2.1764 -0.8524 -0.2096
 7662SOL    HW234620   1.693   1.443   2.786  0.0527 -0.6263  1.9975
 7663SOL     OW34621   4.351   3.884  15.430 -0.3739 -0.1843  0.1272
 7663SOL    HW134622   4.410   3.949  15.468 -0.9123  1.3510 -1.7022
 7663SOL    HW234623   4.368   3.888  15.336  0.4791  1.0520  0.3369
 7664SOL     OW34624   0.033   4.287   8.837 -0.4841 -0.1792 -0.5276
 7664SOL    HW134625   4.709   4.348   8.880 -2.3066 -1.6876 -0.9288
 7664SOL    HW234626   0.017   4.210   8.891  0.5423  0.1617  0.2601
 7665SOL     OW34627   1.263   3.994   2.119 -0.0988  0.4676 -0.2195
 7665SOL    HW134628   1.260   3.935   2.194 -1.1413  2.0716  1.0046
 7665SOL    HW234629   1.194   4.056   2.145  0.6977  0.4867  1.8863
 7666SOL     OW34630   2.009   1.624   9.395 -0.2733  0.4415 -0.0793
 7666SOL    HW134631   1.986   1.671   9.315  1.1152 -1.4501 -1.5923
 7666SOL    HW234632   1.973   1.536   9.385 -0.9423  0.3949  2.6826
 7667SOL     OW34633   3.257   1.375   3.182  0.4001  0.1480  0.1216
 7667SOL    HW134634   3.289   1.347   3.268 -2.0889 -0.6432  0.8077
 7667SOL    HW234635   3.162   1.379   3.193  0.6512  2.5435  1.6563
 7668SOL     OW34636   2.936   4.684   7.704  0.0491  0.0409 -0.7046
 7668SOL    HW134637   2.948   0.009   7.776  0.7273  1.4150 -1.9805
 7668SOL    HW234638   2.864   4.630   7.736  0.6037  0.6283  1.4933
 7669SOL     OW34639   2.045   0.064   1.330 -0.2632  0.2648 -0.0331
 7669SOL    HW134640   1.993   0.112   1.265  0.1184  0.7707  0.0348
 7669SOL    HW234641   2.084   0.000   1.269  0.5311  2.7176 -2.0890
 7670SOL     OW34642   1.957   3.576  16.586 -0.3722 -0.0933  0.3957
 7670SOL    HW134643   1.969   3.504  16.648 -1.2520 -0.4676  0.1339
 7670SOL    HW234644   1.915   3.643  16.640 -0.1223  0.8102 -0.5363
 7671SOL     OW34645   1.173   2.383   0.052 -0.4572  0.1366 -0.3502
 7671SOL    HW134646   1.098   2.336   0.015  0.0842 -1.4696  0.5831
 7671SOL    HW234647   1.218   2.316   0.104  1.2382 -0.3647 -2.4807
 7672SOL     OW34648   2.361   1.513   5.651 -0.3569 -0.3619 -0.2101
 7672SOL    HW134649   2.273   1.544   5.628 -0.1574  0.5553  0.2778
 7672SOL    HW234650   2.388   1.579   5.715 -0.5033 -1.0672  0.5823
 7673SOL     OW34651   1.737   3.155   7.066  0.4534  1.0596 -0.2476
 7673SOL    HW134652   1.774   3.068   7.078 -0.5495  0.5383 -0.8687
 7673SOL    HW234653   1.804   3.194   7.123  2.6289 -1.0125 -1.4040
 7674SOL     OW34654   3.289   1.758  12.590  0.1934 -0.3621 -0.3401
 7674SOL    HW134655   3.377   1.783  12.565 -0.1624  0.5663 -0.6589
 7674SOL    HW234656   3.262   1.697  12.521 -3.6046 -0.9711  1.6688
 7675SOL     OW34657   0.886   2.188   4.876 -0.4302 -0.0960 -0.5863
 7675SOL    HW134658   0.838   2.266   4.847 -1.2659 -0.2817  0.3304
 7675SOL    HW234659   0.835   2.118   4.836 -3.1815  0.4642  1.9443
 7676SOL     OW34660   0.176   0.554  15.726 -0.0299  0.3506 -0.4154
 7676SOL    HW134661   0.213   0.633  15.765  2.4750 -0.9578 -0.2002
 7676SOL    HW234662   0.252   0.504  15.695  0.5583 -0.3671  2.2456
 7677SOL     OW34663   0.802   2.049   8.490 -0.0939  0.4822 -0.4596
 7677SOL    HW134664   0.784   1.991   8.564  0.6236  1.7856  0.7258
 7677SOL    HW234665   0.826   1.994   8.415 -0.5627  0.5861 -0.6896
 7678SOL     OW34666   4.097   1.271   2.491  0.2780 -0.1844 -0.4728
 7678SOL    HW134667   4.062   1.360   2.483  0.9003  0.2771  2.1986
 7678SOL    HW234668   4.125   1.276   2.582  2.2022 -1.1438 -1.0181
 7679SOL     OW34669   4.187   1.148  14.903 -0.3893  0.2234 -0.4552
 7679SOL    HW134670   4.149   1.098  14.975  1.5589 -0.6582 -0.0264
 7679SOL    HW234671   4.255   1.196  14.951  0.6356 -0.4547 -1.2512
 7680SOL     OW34672   4.375   2.766   9.164  0.3133 -0.3406 -0.2755
 7680SOL    HW134673   4.320   2.842   9.144 -1.7764 -1.3770  1.4151
 7680SOL    HW234674   4.342   2.708   9.095 -1.9143  0.8815 -0.2533
 7681SOL     OW34675   4.542   2.066   8.527 -0.2015  0.4182  0.8275
 7681SOL    HW134676   4.567   2.150   8.564  1.5488 -0.3434  1.3679
 7681SOL    HW234677   4.544   2.082   8.433 -1.8574 -1.2266  0.5161
 7682SOL     OW34678   0.686   2.471   4.069 -0.0999 -0.2099 -0.4542
 7682SOL    HW134679   0.731   2.462   4.153 -1.2221 -0.0991  0.1641
 7682SOL    HW234680   0.678   2.565   4.057  0.6320 -0.0243  0.5741
 7683SOL     OW34681   0.450   2.770   7.753 -0.7032  0.2181 -0.1906
 7683SOL    HW134682   0.417   2.753   7.665 -0.4863  0.1826 -0.2667
 7683SOL    HW234683   0.536   2.808   7.734 -0.7804 -0.8005 -2.4566
 7684SOL     OW34684   0.276   0.938   1.636 -0.0384  0.2409  0.0049
 7684SOL    HW134685   0.201   0.887   1.605  0.5251 -0.3230 -0.4420
 7684SOL    HW234686   0.231   1.022   1.646  0.7454  0.6371  0.2130
 7685SOL     OW34687   0.263   2.802   4.682 -0.3699  0.4061  0.2682
 7685SOL    HW134688   0.312   2.884   4.685  0.2285  0.0324  0.7411
 7685SOL    HW234689   0.329   2.735   4.662 -0.3727  0.3902  0.3121
 7686SOL     OW34690   1.209   3.854  12.176  0.1066  0.0355  0.1745
 7686SOL    HW134691   1.113   3.855  12.170 -0.0004  1.1171  2.2371
 7686SOL    HW234692   1.232   3.866  12.084  1.2546 -0.4747  0.4009
 7687SOL     OW34693   2.191   2.256   6.355  0.1810 -0.3742 -0.0294
 7687SOL    HW134694   2.248   2.304   6.295 -2.0087 -0.0070 -1.8628
 7687SOL    HW234695   2.181   2.310   6.434  0.7547 -0.5461  0.1572
 7688SOL     OW34696   4.540   0.542   7.519  0.5182 -0.8102 -0.2498
 7688SOL    HW134697   4.539   0.470   7.455  2.6471 -1.4383  0.4120
 7688SOL    HW234698   4.449   0.561   7.541 -0.2586 -1.5120 -2.7749
 7689SOL     OW34699   3.693   3.242   8.278  0.1015 -0.2940 -0.6171
 7689SOL    HW134700   3.747   3.321   8.276  2.5041 -1.8801  2.0547
 7689SOL    HW234701   3.705   3.214   8.369  1.8867  0.7080 -0.5373
 7690SOL     OW34702   3.319   0.069   5.197 -0.5525  0.3747 -0.1894
 7690SOL    HW134703   3.367   4.723   5.201 -1.3785 -0.0668  0.6869
 7690SOL    HW234704   3.273   0.059   5.113  0.7004  0.9212 -0.9514
 7691SOL     OW34705   0.291   0.610   5.468  0.1794  0.3704 -0.3867
 7691SOL    HW134706   0.370   0.556   5.475 -0.1622 -0.4432 -2.9222
 7691SOL    HW234707   0.219   0.548   5.478  0.2175  0.6431  1.5562
 7692SOL     OW34708   1.003   3.158  13.914 -0.0291  0.2018 -0.2083
 7692SOL    HW134709   0.934   3.140  13.850 -1.1222  1.2333  0.6615
 7692SOL    HW234710   1.043   3.236  13.874 -0.3522 -0.6964 -2.2539
 7693SOL     OW34711   3.960   1.741   2.350 -0.3494  0.6490  0.2268
 7693SOL    HW134712   4.007   1.816   2.387 -0.7483  0.6165  0.8100
 7693SOL    HW234713   4.016   1.667   2.372 -1.9975 -1.5991 -3.1870
 7694SOL     OW34714   2.466   2.366   8.919  0.4021 -0.2031 -0.2727
 7694SOL    HW134715   2.546   2.418   8.923 -0.6913  1.4373  0.2361
 7694SOL    HW234716   2.489   2.279   8.952  5.0940  1.3123  0.4440
 7695SOL     OW34717   3.958   0.853   2.005  0.7174  0.2792 -0.1498
 7695SOL    HW134718   3.921   0.894   1.927  1.8881 -0.5594 -1.1440
 7695SOL    HW234719   3.947   0.761   1.984  0.8428  0.5447 -1.3564
 7696SOL     OW34720   2.771   3.340  12.272  0.3829 -0.0329  0.3489
 7696SOL    HW134721   2.720   3.389  12.336 -0.6390  0.0096 -0.5200
 7696SOL    HW234722   2.780   3.263  12.329  1.4788 -0.0219  0.1915
 7697SOL     OW34723   4.256   3.517   4.305  0.2572  0.1665  0.8338
 7697SOL    HW134724   4.241   3.509   4.210  0.7328 -0.7824  0.8386
 7697SOL    HW234725   4.349   3.540   4.310  0.6702 -1.3343  0.0008
 7698SOL     OW34726   4.322   1.481  15.610  0.6801  0.2587 -0.2107
 7698SOL    HW134727   4.297   1.556  15.663  0.1047 -0.2238  0.2104
 7698SOL    HW234728   4.372   1.430  15.673  0.3554 -0.5314 -0.5884
 7699SOL     OW34729   1.255   3.661   6.999  0.2908 -0.3214 -0.0239
 7699SOL    HW134730   1.267   3.732   6.935 -1.5851 -0.2053 -0.2539
 7699SOL    HW234731   1.336   3.610   6.996 -0.1307 -0.6999 -5.0265
 7700SOL     OW34732   4.718   4.203   4.117  0.3520  0.0680 -0.0054
 7700SOL    HW134733   4.691   4.147   4.190  0.5178 -0.5461 -0.4175
 7700SOL    HW234734   0.071   4.228   4.139  0.4153  2.2251 -2.7510
 7701SOL     OW34735   3.610   4.495   2.117  0.4841  0.3558  0.1657
 7701SOL    HW134736   3.651   4.581   2.109  0.0505  0.8164  2.7129
 7701SOL    HW234737   3.678   4.438   2.081 -0.2698 -0.1191 -0.5228
 7702SOL     OW34738   1.820   2.798   5.199 -0.8789 -1.0023  0.4300
 7702SOL    HW134739   1.726   2.780   5.206 -0.9384 -1.5503 -1.7729
 7702SOL    HW234740   1.833   2.891   5.182  0.7262 -1.5459 -1.3816
 7703SOL     OW34741   2.406   2.213  16.078 -0.0452 -0.2164 -0.1365
 7703SOL    HW134742   2.484   2.268  16.068 -0.0878 -0.1797 -0.2680
 7703SOL    HW234743   2.371   2.259  16.154  2.0819 -3.0132  2.5484
 7704SOL     OW34744   2.150   4.006   8.113 -0.1835 -0.1056  0.1130
 7704SOL    HW134745   2.149   3.912   8.130  0.8460 -0.6660 -2.9486
 7704SOL    HW234746   2.222   4.010   8.049  0.9213 -0.9196  1.2951
 7705SOL     OW34747   2.384   3.156   6.237  0.1321  0.6172  0.7261
 7705SOL    HW134748   2.347   3.194   6.317  0.1583 -0.0207  1.0457
 7705SOL    HW234749   2.475   3.149   6.268 -0.3399 -0.2443  1.9164
 7706SOL     OW34750   0.581   3.592   8.788 -0.0521  0.2050 -0.8823
 7706SOL    HW134751   0.651   3.535   8.821 -1.8541 -0.3107  2.0545
 7706SOL    HW234752   0.630   3.672   8.769  1.8043 -0.3734  1.5011
 7707SOL     OW34753   2.515   4.166   6.459 -0.0650 -0.3288  0.2309
 7707SOL    HW134754   2.510   4.091   6.400 -0.8565  0.5654 -0.8310
 7707SOL    HW234755   2.603   4.202   6.446  0.0201  0.0484  1.9071
 7708SOL     OW34756   1.529   2.514   1.149 -0.1786  0.6011 -0.0972
 7708SOL    HW134757   1.491   2.431   1.121 -0.8184  0.6092  0.7436
 7708SOL    HW234758   1.548   2.488   1.239 -0.6337 -1.0438 -0.4759
 7709SOL     OW34759   0.835   1.314  15.044 -0.4989  0.2461 -0.5701
 7709SOL    HW134760   0.928   1.322  15.064  0.0435  1.3010 -3.5546
 7709SOL    HW234761   0.802   1.350  15.126 -1.0058 -1.1145 -0.1726
 7710SOL     OW34762   3.707   1.808   2.310  0.7260 -0.3959  0.0760
 7710SOL    HW134763   3.802   1.795   2.308  0.6057 -1.4307  1.3028
 7710SOL    HW234764   3.689   1.747   2.382 -0.1747  0.6396  0.7263
 7711SOL     OW34765   2.653   3.326  16.371  0.5543  0.0612 -0.1961
 7711SOL    HW134766   2.635   3.309  16.463  2.2334 -0.7278 -0.0176
 7711SOL    HW234767   2.659   3.421  16.366  0.2811  0.1540  1.1313
 7712SOL     OW34768   3.923   3.116   6.163  0.0954  0.2698  0.2090
 7712SOL    HW134769   3.976   3.154   6.233 -1.0856 -1.3400  1.9950
 7712SOL    HW234770   3.961   3.028   6.159 -1.5786 -0.4888  0.7287
 7713SOL     OW34771   2.624   0.958  12.346  0.2490  0.2569 -0.2907
 7713SOL    HW134772   2.578   0.998  12.421  0.3093 -0.4020  0.0941
 7713SOL    HW234773   2.703   1.011  12.340  0.2193  0.1815 -1.2980
 7714SOL     OW34774   3.562   1.208   2.245 -0.4098  0.0189 -0.8156
 7714SOL    HW134775   3.585   1.131   2.296 -0.5202  1.4568  1.3693
 7714SOL    HW234776   3.501   1.253   2.303  0.7561  1.5535 -0.7713
 7715SOL     OW34777   2.302   0.826   2.720 -0.0334 -0.5600  0.5404
 7715SOL    HW134778   2.351   0.748   2.694  0.1500 -0.5968  0.9980
 7715SOL    HW234779   2.218   0.793   2.689  0.3271 -1.3677  0.4206
 7716SOL     OW34780   4.690   4.192   2.024  0.3125 -0.0788 -0.5415
 7716SOL    HW134781   4.613   4.191   2.080 -0.9742 -4.0128 -2.3625
 7716SOL    HW234782   0.028   4.193   2.085 -1.5666  0.7839  1.7099
 7717SOL     OW34783   4.677   0.964   5.949 -0.9555  0.0213  0.2248
 7717SOL    HW134784   4.702   0.929   6.035 -1.4733  1.0203  0.7857
 7717SOL    HW234785   4.591   0.924   5.934 -1.0423  0.9169 -1.6129
 7718SOL     OW34786   4.478   3.072   3.640  0.0202  0.8178 -0.6942
 7718SOL    HW134787   4.436   3.088   3.556  0.6488 -0.2812 -1.2195
 7718SOL    HW234788   4.445   3.131   3.708  0.3611 -0.0929  0.2699
 7719SOL     OW34789   0.670   0.425   0.381  0.0846  0.0359  0.5064
 7719SOL    HW134790   0.670   0.329   0.389  1.2531  0.0241  0.3548
 7719SOL    HW234791   0.763   0.440   0.364  0.3279 -1.3783  0.5435
 7720SOL     OW34792   0.635   0.476   6.685  0.2503 -0.3886 -0.3563
 7720SOL    HW134793   0.543   0.503   6.679  0.1652 -0.4822  0.4819
 7720SOL    HW234794   0.682   0.551   6.648  0.9055  0.7402  2.7686
 7721SOL     OW34795   0.591   4.274   5.792 -0.4852  0.8371 -0.0898
 7721SOL    HW134796   0.579   4.233   5.878  0.5485  0.1050 -0.2823
 7721SOL    HW234797   0.571   4.207   5.727  2.3233 -0.1839  0.1039
 7722SOL     OW34798   4.028   3.954   9.529  0.7515  0.0991 -0.1978
 7722SOL    HW134799   3.973   3.887   9.569 -1.7954  2.3171  0.0464
 7722SOL    HW234800   4.097   3.958   9.595  0.3096  1.4615  0.1968
 7723SOL     OW34801   4.509   3.862  10.329  0.0304 -0.1681  1.0312
 7723SOL    HW134802   4.473   3.874  10.241  1.3343 -0.9076  0.3930
 7723SOL    HW234803   4.585   3.918  10.316  0.8631 -1.2602  1.1113
 7724SOL     OW34804   0.753   4.078   4.574  0.3391 -0.1803  0.5952
 7724SOL    HW134805   0.838   4.034   4.570 -0.8488 -2.3776 -1.0700
 7724SOL    HW234806   0.703   3.998   4.592 -2.2587  0.6359 -3.0288
 7725SOL     OW34807   2.747   3.807  11.795 -0.2516 -0.2922 -0.5233
 7725SOL    HW134808   2.665   3.760  11.776  0.6107 -1.8080 -0.4263
 7725SOL    HW234809   2.741   3.885  11.739 -2.2201 -0.5454 -0.6716
 7726SOL     OW34810   0.159   0.570   1.500 -0.6463 -0.3108 -0.1961
 7726SOL    HW134811   0.207   0.519   1.435  1.1662  1.1723 -0.0202
 7726SOL    HW234812   0.230   0.609   1.552 -0.8076 -0.2544 -0.0211
 7727SOL     OW34813   0.058   3.732   7.687 -0.7260  0.2621 -0.5598
 7727SOL    HW134814   4.711   3.750   7.731  0.5166  0.5012  1.7132
 7727SOL    HW234815   0.034   3.647   7.653  1.4236  0.6938 -3.1586
 7728SOL     OW34816   3.960   3.566   9.498 -0.1890  0.2785 -0.4368
 7728SOL    HW134817   3.993   3.569   9.408  0.7854 -1.0729 -0.1304
 7728SOL    HW234818   4.037   3.569   9.554 -0.2340  1.1690 -0.4368
 7729SOL     OW34819   0.706   0.574  12.259 -0.4971  0.2168  0.2453
 7729SOL    HW134820   0.715   0.480  12.246 -2.2733  0.1456 -0.5419
 7729SOL    HW234821   0.675   0.600  12.172 -1.3817  0.2134  0.5590
 7730SOL     OW34822   3.113   3.707   4.707 -0.1253 -0.0087  0.2017
 7730SOL    HW134823   3.188   3.677   4.758  0.6264  1.8461  0.1664
 7730SOL    HW234824   3.127   3.640   4.640 -1.0736  2.5632 -2.5565
 7731SOL     OW34825   2.950   3.595   7.796 -0.1048  0.1657 -0.3650
 7731SOL    HW134826   2.985   3.509   7.817  1.5197  0.8246 -0.3654
 7731SOL    HW234827   2.856   3.585   7.810  0.1560  2.6096  3.2670
 7732SOL     OW34828   2.199   3.556   6.342 -0.2847  0.1857 -0.2943
 7732SOL    HW134829   2.200   3.496   6.416  0.3184 -0.7108 -1.0270
 7732SOL    HW234830   2.221   3.634   6.393  0.8944 -0.4845  0.2243
 7733SOL     OW34831   3.504   0.732   2.807  0.4451  0.2401  0.4963
 7733SOL    HW134832   3.536   0.820   2.826 -0.5036  1.1205 -2.0371
 7733SOL    HW234833   3.442   0.757   2.739  0.3728  1.7112  1.1010
 7734SOL     OW34834   1.095   1.132  11.288 -0.0241 -0.3444 -0.3229
 7734SOL    HW134835   1.179   1.086  11.288  0.1732  0.0115  0.1734
 7734SOL    HW234836   1.037   1.059  11.312 -0.5181  0.2470  0.2783
 7735SOL     OW34837   0.664   3.867  12.933 -0.2905  0.3738  0.0355
 7735SOL    HW134838   0.720   3.845  13.007  0.7738  0.0132 -0.8891
 7735SOL    HW234839   0.630   3.783  12.902  1.6487  0.1419 -1.4382
 7736SOL     OW34840   1.389   2.469   4.152 -0.1179 -0.2317  0.1516
 7736SOL    HW134841   1.306   2.475   4.104  1.8796 -0.1276 -3.3093
 7736SOL    HW234842   1.440   2.542   4.116 -0.6019 -0.0037 -0.0624
 7737SOL     OW34843   4.330   3.568   8.635  0.2162  0.5233 -0.4761
 7737SOL    HW134844   4.272   3.584   8.561 -0.9334  1.3863  0.6000
 7737SOL    HW234845   4.402   3.533   8.582  0.0380 -1.5678  0.6395
 7738SOL     OW34846   3.491   0.122   1.143  0.0158 -0.1811  0.0445
 7738SOL    HW134847   3.442   0.200   1.116  0.7081  0.1487 -0.2482
 7738SOL    HW234848   3.454   0.058   1.082 -0.3886 -0.5308  0.6586
 7739SOL     OW34849   1.067   0.922  17.281  0.2876  0.1697  0.1463
 7739SOL    HW134850   0.985   0.958  17.315 -0.0814 -1.3582  0.8553
 7739SOL    HW234851   1.069   0.974  17.201  0.3742 -0.9917 -0.5954
 7740SOL     OW34852   4.189   1.013   8.780  0.2302 -0.0878  0.2807
 7740SOL    HW134853   4.237   0.988   8.701  1.5020  0.9386  0.7326
 7740SOL    HW234854   4.135   1.080   8.737  1.5812 -0.7371 -2.4351
 7741SOL     OW34855   3.686   3.756   6.244 -0.5760 -0.3256  0.4471
 7741SOL    HW134856   3.706   3.726   6.332 -0.9910 -2.6166 -0.2438
 7741SOL    HW234857   3.667   3.850   6.254 -3.9161 -0.6440 -2.8577
 7742SOL     OW34858   3.890   0.976   2.624  0.2613  0.0830  0.0406
 7742SOL    HW134859   3.845   1.041   2.571  1.9102  1.2774  0.1037
 7742SOL    HW234860   3.885   0.901   2.564  0.6956 -0.9222  1.2535
 7743SOL     OW34861   2.254   3.969   8.395  0.0787  0.0439 -0.1409
 7743SOL    HW134862   2.296   3.884   8.381 -1.2162 -0.3189 -1.7308
 7743SOL    HW234863   2.257   4.017   8.312  2.1800 -0.6733 -0.5057
 7744SOL     OW34864   1.348   0.028  16.479  0.7322  0.6344  0.1928
 7744SOL    HW134865   1.257   0.057  16.484  0.8927  1.1568  0.0791
 7744SOL    HW234866   1.391   0.111  16.501 -2.7021  2.5543 -0.2418
 7745SOL     OW34867   1.414   3.324   1.022  0.1060  0.1557 -0.1058
 7745SOL    HW134868   1.352   3.334   1.094 -1.1552 -0.0225 -1.1669
 7745SOL    HW234869   1.457   3.242   1.044 -0.0971 -0.3088 -1.4508
 7746SOL     OW34870   0.438   2.738   8.621  0.0580  0.1303  0.6515
 7746SOL    HW134871   0.469   2.762   8.534  0.3763  0.5407  0.8790
 7746SOL    HW234872   0.472   2.807   8.679  0.5897  0.9412 -0.6231
 7747SOL     OW34873   0.358   4.186  17.566 -0.2898 -0.1969 -0.4320
 7747SOL    HW134874   0.380   4.271  17.529 -2.9089  1.1680  1.1349
 7747SOL    HW234875   0.358   4.136  17.484  0.0397 -1.8552  0.5751
 7748SOL     OW34876   0.160   3.370   8.160 -0.3959 -0.0535 -0.1098
 7748SOL    HW134877   0.096   3.322   8.213  0.0918 -1.2482 -0.5989
 7748SOL    HW234878   0.181   3.315   8.084 -1.1775  0.8448 -0.9728
 7749SOL     OW34879   2.104   1.994  15.183 -0.3175  0.0354  0.0407
 7749SOL    HW134880   2.197   2.003  15.163 -0.0331 -0.3732  1.1532
 7749SOL    HW234881   2.100   1.903  15.212 -0.0738 -0.2906 -0.9589
 7750SOL     OW34882   2.267   3.692   0.606  0.3336 -0.3025 -0.0864
 7750SOL    HW134883   2.213   3.707   0.528 -0.6821  1.3962  0.9402
 7750SOL    HW234884   2.201   3.668   0.671  0.7132 -2.5477 -0.5554
 7751SOL     OW34885   0.038   4.488   4.897 -0.2184  0.4674 -0.2509
 7751SOL    HW134886   0.093   4.562   4.922 -0.1567  1.0282 -2.1040
 7751SOL    HW234887   0.103   4.419   4.886  0.5194  0.9148  1.2441
 7752SOL     OW34888   4.445   1.970   9.371 -0.0757 -0.2367 -0.4250
 7752SOL    HW134889   4.353   1.997   9.373  0.3130  0.9475  1.6680
 7752SOL    HW234890   4.500   2.041   9.404  0.9013 -1.6540  1.0056
 7753SOL     OW34891   3.539   0.627  12.196 -0.1170  0.2502  0.7239
 7753SOL    HW134892   3.611   0.670  12.149 -1.0341  0.6810 -0.2949
 7753SOL    HW234893   3.574   0.624  12.285  0.5363  0.1039  0.4684
 7754SOL     OW34894   0.035   2.686   7.498  0.0143  0.5005 -0.5453
 7754SOL    HW134895   4.717   2.609   7.508  1.0510 -0.1856 -0.1911
 7754SOL    HW234896   4.719   2.731   7.431 -0.2280 -0.7133 -1.1653
 7755SOL     OW34897   2.019   2.038  11.864  0.1990  0.7183  0.2070
 7755SOL    HW134898   1.956   1.973  11.833 -1.2490  3.3748 -2.5002
 7755SOL    HW234899   2.107   2.014  11.835  0.3537 -0.8332  1.9459
 7756SOL     OW34900   0.007   1.736   3.973 -0.2753  0.3072  0.2018
 7756SOL    HW134901   0.024   1.766   4.062 -1.3558  0.2683  0.4169
 7756SOL    HW234902   4.668   1.678   3.982  1.3952 -1.7419  0.9279
 7757SOL     OW34903   3.221   0.003   4.116 -0.4117 -0.5018 -0.5342
 7757SOL    HW134904   3.306   0.018   4.158 -2.4264  3.4798  2.1187
 7757SOL    HW234905   3.170   4.721   4.195  1.0827 -2.5106 -0.0170
 7758SOL     OW34906   1.116   2.277   2.892 -0.3261  0.2620 -0.4820
 7758SOL    HW134907   1.104   2.272   2.797 -0.2566 -0.4107 -0.4510
 7758SOL    HW234908   1.144   2.189   2.916  0.2709  1.0455  1.6344
 7759SOL     OW34909   4.244   3.503   4.040  0.3378  0.2381 -0.8237
 7759SOL    HW134910   4.197   3.522   3.959  1.3445  0.9622 -1.2332
 7759SOL    HW234911   4.323   3.557   4.034 -0.7205  1.7335 -1.2918
 7760SOL     OW34912   3.795   3.582   4.373  0.1241  0.4572 -0.1508
 7760SOL    HW134913   3.866   3.570   4.436  0.0177 -0.4437 -0.1961
 7760SOL    HW234914   3.837   3.580   4.287  0.0911 -0.0222 -0.1554
 7761SOL     OW34915   2.618   0.584   1.153 -0.3691  0.0940  0.4803
 7761SOL    HW134916   2.679   0.549   1.218  1.3688  0.6711 -0.8389
 7761SOL    HW234917   2.588   0.501   1.115 -1.2485  0.7079 -0.1707
 7762SOL     OW34918   4.059   4.414  17.141  0.1659  0.6336  0.8752
 7762SOL    HW134919   4.129   4.418  17.207  1.5547 -0.0159 -0.5450
 7762SOL    HW234920   4.099   4.359  17.073 -1.6349 -0.0433  0.3624
 7763SOL     OW34921   4.499   2.236   0.240  0.0710  0.3716  0.2216
 7763SOL    HW134922   4.582   2.218   0.196  0.7828  0.8727  1.3622
 7763SOL    HW234923   4.462   2.149   0.255 -1.4457  1.1559  0.9962
 7764SOL     OW34924   4.606   2.363   8.849 -0.4192 -0.8596 -0.0760
 7764SOL    HW134925   4.699   2.382   8.859 -0.7317  0.5547  0.1579
 7764SOL    HW234926   4.578   2.326   8.933  0.4007  0.8368  0.9504
 7765SOL     OW34927   2.277   3.828   1.799 -0.1200  1.2316 -0.4080
 7765SOL    HW134928   2.310   3.808   1.712  0.9457 -0.0801  0.2893
 7765SOL    HW234929   2.194   3.781   1.800  0.1563  0.7134 -2.8145
 7766SOL     OW34930   1.319   1.022   8.201  0.2291  0.1527  0.2997
 7766SOL    HW134931   1.387   1.080   8.166 -0.9404  1.8257  0.7725
 7766SOL    HW234932   1.345   0.934   8.174 -0.3959 -0.1977  0.8190
 7767SOL     OW34933   0.084   1.702   8.231  0.0295 -0.5737  0.3840
 7767SOL    HW134934   0.004   1.735   8.272 -0.4224 -1.0766 -0.0971
 7767SOL    HW234935   0.139   1.781   8.233 -0.5761 -0.1906  1.9327
 7768SOL     OW34936   4.692   2.182   1.164  0.5276 -0.0927 -0.0983
 7768SOL    HW134937   4.611   2.185   1.112  0.8727 -0.8787 -0.6989
 7768SOL    HW234938   0.024   2.225   1.112 -2.1615  2.0772 -1.8006
 7769SOL     OW34939   3.696   0.708   5.390 -0.0988 -0.3798 -0.3860
 7769SOL    HW134940   3.663   0.766   5.459  0.0949 -2.5172  1.4920
 7769SOL    HW234941   3.770   0.675   5.440  0.5163  1.6363  0.0336
 7770SOL     OW34942   4.034   0.934   7.916  0.2612 -0.3117 -0.1474
 7770SOL    HW134943   3.962   0.936   7.979 -0.2967  0.1415 -0.7893
 7770SOL    HW234944   4.005   1.008   7.861 -2.6842  0.5121  2.5230
 7771SOL     OW34945   4.373   1.208  14.174  0.3842 -0.0382 -0.0448
 7771SOL    HW134946   4.298   1.153  14.151  0.9974 -1.9380  2.4990
 7771SOL    HW234947   4.447   1.155  14.144 -1.8962 -3.0554 -0.2454
 7772SOL     OW34948   0.231   3.958   5.366 -0.3667  0.4144 -0.6817
 7772SOL    HW134949   0.310   3.922   5.325 -0.5445 -0.3878 -0.3249
 7772SOL    HW234950   0.163   3.934   5.303 -1.5314  0.3902  0.5902
 7773SOL     OW34951   1.561   0.133  13.302 -0.3332 -0.0601 -0.0414
 7773SOL    HW134952   1.567   0.065  13.369 -2.4071 -0.0106  0.1953
 7773SOL    HW234953   1.651   0.144  13.272  1.7094 -2.8415  5.1696
 7774SOL     OW34954   0.413   0.603   6.019 -0.1869  0.1257  0.0528
 7774SOL    HW134955   0.496   0.621   6.063 -0.8245  1.3561  0.7805
 7774SOL    HW234956   0.419   0.510   6.001  0.9098  0.1910  0.0975
 7775SOL     OW34957   1.503   0.158   5.026 -0.2468 -0.2971  0.0812
 7775SOL    HW134958   1.424   0.203   5.056  0.3609  0.0199  1.2261
 7775SOL    HW234959   1.534   0.230   4.972 -0.6916  0.5838  1.0108
 7776SOL     OW34960   1.492   4.367   6.229 -0.1304 -0.5098  0.0783
 7776SOL    HW134961   1.481   4.432   6.160  1.9673 -1.1809 -0.8987
 7776SOL    HW234962   1.537   4.417   6.297  0.7648 -1.9590  0.5592
 7777SOL     OW34963   0.737   4.610   6.269 -0.6780 -0.3794  0.1813
 7777SOL    HW134964   0.653   4.570   6.246 -0.9655  0.5643 -0.4320
 7777SOL    HW234965   0.804   4.552   6.231 -2.4792 -0.8657 -2.2770
 7778SOL     OW34966   1.729   0.716  15.118  0.5474 -0.4345 -0.2065
 7778SOL    HW134967   1.638   0.736  15.096 -0.1390 -1.3329  1.9053
 7778SOL    HW234968   1.767   0.751  15.037 -0.2567  1.2602  0.1521
 7779SOL     OW34969   4.052   3.452   5.215 -0.0578 -0.8194  0.3210
 7779SOL    HW134970   4.026   3.494   5.133  0.3859  0.5950  0.9146
 7779SOL    HW234971   3.974   3.404   5.243  0.3954 -1.7422  0.0173
 7780SOL     OW34972   0.578   1.723   5.600 -0.5445 -0.9200  0.4167
 7780SOL    HW134973   0.518   1.653   5.624 -3.4987  1.3653 -0.1886
 7780SOL    HW234974   0.632   1.717   5.678  2.6483  0.4303 -1.6834
 7781SOL     OW34975   3.591   1.260   3.151  0.4299  0.2134 -0.1888
 7781SOL    HW134976   3.582   1.355   3.153 -3.0004 -0.0943 -2.2650
 7781SOL    HW234977   3.594   1.243   3.245 -2.1912  1.0038  0.0236
 7782SOL     OW34978   3.649   3.294   4.073 -0.0691 -0.1652 -0.0691
 7782SOL    HW134979   3.710   3.254   4.136  0.1127 -1.4960 -1.1035
 7782SOL    HW234980   3.682   3.266   3.987  0.8709  1.2055 -0.1519
 7783SOL     OW34981   2.665   0.649   6.027 -0.1751  0.0231 -0.2385
 7783SOL    HW134982   2.650   0.711   5.956  2.3141  1.7742  0.7316
 7783SOL    HW234983   2.578   0.615   6.048 -0.8416  0.7858 -1.8275
 7784SOL     OW34984   0.887   0.802   6.387  0.4223  0.0140 -0.1638
 7784SOL    HW134985   0.818   0.759   6.438  1.9297 -1.1652  0.8904
 7784SOL    HW234986   0.962   0.826   6.441  0.3074  0.7692 -0.3359
 7785SOL     OW34987   4.275   2.798   4.563 -0.4168  0.1708  0.0269
 7785SOL    HW134988   4.298   2.724   4.507  1.7086  1.6369 -1.0291
 7785SOL    HW234989   4.317   2.877   4.530  0.1624 -0.3890 -0.5650
 7786SOL     OW34990   4.216   0.757   7.927 -0.6133  0.4359  0.1932
 7786SOL    HW134991   4.164   0.836   7.915 -0.2628  0.2813 -2.3555
 7786SOL    HW234992   4.155   0.698   7.883 -1.0478  0.5027  0.7071
 7787SOL     OW34993   1.802   0.759  17.359 -0.1050 -0.3227  0.2623
 7787SOL    HW134994   1.783   0.669  17.333  0.4542 -0.8054  1.5295
 7787SOL    HW234995   1.882   0.742  17.408  0.0195 -0.6163 -0.0451
 7788SOL     OW34996   2.868   2.719   6.986 -0.1487  0.3507  0.0529
 7788SOL    HW134997   2.945   2.680   7.026  0.8640  0.7614 -1.5269
 7788SOL    HW234998   2.808   2.710   7.060  0.4402 -0.8894  0.3772
 7789SOL     OW34999   3.725   3.345   5.037 -0.5086 -0.5678  0.1438
 7789SOL    HW135000   3.781   3.279   4.996  0.5667  1.4562 -1.6237
 7789SOL    HW235001   3.754   3.427   4.996  1.6285 -0.7104  1.3277
 7790SOL     OW35002   3.136   2.778   5.800  0.4454  0.1565 -1.2993
 7790SOL    HW135003   3.130   2.872   5.816  2.3398  0.3731 -1.9054
 7790SOL    HW235004   3.071   2.775   5.729  0.3084  0.0020 -1.1707
 7791SOL     OW35005   3.932   2.411   6.469 -0.2424  0.8931 -0.5498
 7791SOL    HW135006   3.949   2.502   6.446  1.7808  0.3583 -1.1297
 7791SOL    HW235007   3.933   2.400   6.564  1.5519 -0.2979 -0.7119
 7792SOL     OW35008   2.362   2.675   4.844  0.2381  0.1482 -0.0658
 7792SOL    HW135009   2.441   2.730   4.846 -1.5935  2.8628 -2.0846
 7792SOL    HW235010   2.312   2.726   4.780 -1.7123  0.0155  1.3818
 7793SOL     OW35011   2.945   1.615   6.542 -0.0774 -0.0322 -0.3132
 7793SOL    HW135012   2.973   1.562   6.617 -0.0065 -0.4394 -0.6233
 7793SOL    HW235013   3.010   1.590   6.476  0.5154  2.0645 -0.5105
 7794SOL     OW35014   2.095   3.112   8.360  0.0202 -0.2087  0.4853
 7794SOL    HW135015   2.022   3.174   8.353  0.2410  0.3735  3.3873
 7794SOL    HW235016   2.102   3.111   8.455 -0.5898 -0.2947  0.5340
 7795SOL     OW35017   2.954   0.264   2.372  0.1639  0.1532  0.1381
 7795SOL    HW135018   2.863   0.238   2.353 -0.2317  1.0647  0.8115
 7795SOL    HW235019   2.975   0.186   2.424  0.1681 -0.6731 -1.0874
 7796SOL     OW35020   1.263   1.748   7.547  0.0485 -0.3904 -0.1409
 7796SOL    HW135021   1.261   1.835   7.507 -1.8304 -0.3332  0.0921
 7796SOL    HW235022   1.175   1.715   7.529 -0.4499  0.0112  1.5711
 7797SOL     OW35023   3.231   3.535   5.038  0.0499 -0.3197 -0.1509
 7797SOL    HW135024   3.309   3.590   5.030  0.7258 -1.5607 -2.1252
 7797SOL    HW235025   3.266   3.454   5.076  1.8659  0.4282 -0.2445
 7798SOL     OW35026   3.756   0.590   3.610  0.2158  0.0046  0.0389
 7798SOL    HW135027   3.762   0.586   3.515  0.8537 -2.0905  0.1625
 7798SOL    HW235028   3.821   0.659   3.620  4.2396 -3.5837 -1.2929
 7799SOL     OW35029   3.604   0.362   6.421  0.5024  0.6416  0.1791
 7799SOL    HW135030   3.607   0.426   6.493 -0.8992 -0.9652  1.6465
 7799SOL    HW235031   3.688   0.372   6.376  0.6148  2.5940  0.7887
 7800SOL     OW35032   2.994   4.711  16.220 -0.1685  1.0776 -0.4201
 7800SOL    HW135033   3.062   4.699  16.153 -1.3648 -2.1908 -1.0923
 7800SOL    HW235034   3.017   0.061  16.253 -0.9618  1.1006  0.0642
 7801SOL     OW35035   2.724   3.952   2.700  0.4928  0.4433 -1.0089
 7801SOL    HW135036   2.798   3.947   2.640  1.7822  1.5802  0.4821
 7801SOL    HW235037   2.772   3.961   2.783 -2.2322 -0.1138  0.6305
 7802SOL     OW35038   4.098   0.134   9.222  0.0823 -0.4016  0.5650
 7802SOL    HW135039   4.135   0.142   9.134 -2.1866  0.2553 -0.3354
 7802SOL    HW235040   4.038   0.062   9.204 -1.3192  0.4469  1.7213
 7803SOL     OW35041   1.789   3.418  16.437 -0.4709 -0.0810 -0.4159
 7803SOL    HW135042   1.796   3.489  16.373 -2.8653 -1.3147 -2.0328
 7803SOL    HW235043   1.869   3.435  16.487  0.7922 -0.1220 -2.4494
 7804SOL     OW35044   2.221   0.913   4.882  0.4840  0.2709  0.0149
 7804SOL    HW135045   2.302   0.887   4.838  2.1072  2.6803  1.5819
 7804SOL    HW235046   2.248   0.917   4.973  1.0961  0.0717 -0.1555
 7805SOL     OW35047   0.348   4.651  12.588  0.0415  0.2836  0.2186
 7805SOL    HW135048   0.442   4.643  12.570 -0.3740 -0.6129 -1.5379
 7805SOL    HW235049   0.342   4.628  12.680  0.8700  0.7406  0.3900
 7806SOL     OW35050   3.360   2.027   0.973  0.7921 -0.0219 -0.5639
 7806SOL    HW135051   3.336   2.084   0.900  0.6060  1.0916  0.3568
 7806SOL    HW235052   3.370   2.089   1.045  2.1260 -0.2985 -0.5148
 7807SOL     OW35053   2.745   3.502   8.530 -0.1526  0.1322 -0.0461
 7807SOL    HW135054   2.659   3.493   8.490  0.9699 -2.6458 -1.7954
 7807SOL    HW235055   2.740   3.430   8.593  0.5856 -0.5805 -0.8165
 7808SOL     OW35056   1.299   1.323   4.439  0.0233  0.0045  0.0431
 7808SOL    HW135057   1.379   1.282   4.407  0.3938  1.5060 -0.9612
 7808SOL    HW235058   1.296   1.395   4.375  0.9562 -1.3266 -1.4977
 7809SOL     OW35059   1.748   1.952  16.438 -0.1058 -0.1499 -0.2550
 7809SOL    HW135060   1.694   2.022  16.475 -2.0333 -1.9584  0.2710
 7809SOL    HW235061   1.836   1.987  16.457  0.6198 -2.0298 -0.1644
 7810SOL     OW35062   0.971   1.952  15.057 -0.1944  0.0313 -0.0019
 7810SOL    HW135063   1.025   1.950  14.978 -0.9562 -0.4888 -0.5109
 7810SOL    HW235064   0.989   1.864  15.089 -1.2127  1.0433  3.4176
 7811SOL     OW35065   1.610   0.276   5.291 -1.0673 -0.2398  0.0782
 7811SOL    HW135066   1.543   0.289   5.225  0.7902  0.9089 -1.5916
 7811SOL    HW235067   1.606   0.181   5.304 -2.5740 -0.5576 -2.8162
 7812SOL     OW35068   2.212   4.656   6.910 -0.5971 -0.4654 -0.1874
 7812SOL    HW135069   2.242   4.721   6.847  0.3528 -1.3101 -0.6124
 7812SOL    HW235070   2.202   4.712   6.988  0.8206  0.1467 -0.4433
 7813SOL     OW35071   2.452   3.971   2.711 -0.8155 -0.1179 -0.2885
 7813SOL    HW135072   2.547   3.955   2.704 -0.5946  1.1301 -0.0147
 7813SOL    HW235073   2.445   3.967   2.806  0.8662 -1.9581 -0.2406
 7814SOL     OW35074   1.139   2.734  11.903 -0.1570 -0.7010 -0.1449
 7814SOL    HW135075   1.202   2.677  11.948  1.7208  0.1934 -1.6306
 7814SOL    HW235076   1.186   2.735  11.820 -0.8195 -0.8893 -0.5183
 7815SOL     OW35077   0.595   1.583   6.411 -0.5264  0.2299  0.1787
 7815SOL    HW135078   0.670   1.610   6.464 -0.5576  0.8389 -0.0913
 7815SOL    HW235079   0.535   1.552   6.478 -1.5562 -2.4547 -1.9538
 7816SOL     OW35080   2.431   0.618   8.190  0.2729 -0.2319  0.6010
 7816SOL    HW135081   2.463   0.532   8.217  1.0109 -0.3750 -0.7121
 7816SOL    HW235082   2.513   0.667   8.181 -0.7661  1.8011  2.1957
 7817SOL     OW35083   3.773   1.114   3.592 -0.9458 -0.2869 -0.3155
 7817SOL    HW135084   3.811   1.189   3.638 -1.4035  0.1083 -0.5885
 7817SOL    HW235085   3.784   1.043   3.655  0.4089 -0.3283 -0.5853
 7818SOL     OW35086   2.545   2.319   8.520  0.4172  0.0195 -0.0051
 7818SOL    HW135087   2.613   2.348   8.581 -1.6242  1.7594  1.4587
 7818SOL    HW235088   2.580   2.353   8.437  0.0680  1.7134  0.5384
 7819SOL     OW35089   4.570   4.575   4.751  0.0482  0.0202 -0.0545
 7819SOL    HW135090   4.544   4.496   4.703  1.0805 -1.9194  2.6224
 7819SOL    HW235091   4.642   4.536   4.800 -0.9736 -1.9454 -0.0776
 7820SOL     OW35092   2.565   2.993   8.096 -0.3523  0.0898 -0.1992
 7820SOL    HW135093   2.525   3.067   8.050 -1.4682  0.4575  1.3863
 7820SOL    HW235094   2.624   2.960   8.028 -1.9518 -1.5184 -0.8389
 7821SOL     OW35095   1.113   4.664  11.886 -0.1628  0.4492  0.3041
 7821SOL    HW135096   1.179   4.596  11.899  1.6012  2.0799 -0.0991
 7821SOL    HW235097   1.073   4.677  11.972  1.4926  0.3375  1.0977
 7822SOL     OW35098   2.274   4.227   6.286 -0.4288  0.5117  0.4197
 7822SOL    HW135099   2.206   4.163   6.264 -0.1031  0.1143  0.5606
 7822SOL    HW235100   2.322   4.179   6.354 -0.3270 -1.7701 -1.2861
 7823SOL     OW35101   2.160   0.544   8.752 -0.0585  1.0514  0.1472
 7823SOL    HW135102   2.232   0.503   8.703  0.2828  0.3261  1.2655
 7823SOL    HW235103   2.180   0.511   8.839 -1.6804  0.1546  0.1834
 7824SOL     OW35104   0.163   3.852  12.531 -0.0225  0.0628  0.1015
 7824SOL    HW135105   0.206   3.891  12.455 -2.6954 -0.4927 -1.6645
 7824SOL    HW235106   0.110   3.792  12.480  2.4082 -0.6275 -1.6046
 7825SOL     OW35107   2.981   2.504  10.119 -0.1291  0.0698 -0.2593
 7825SOL    HW135108   3.066   2.532  10.084 -0.3435  1.0429 -0.0048
 7825SOL    HW235109   2.923   2.551  10.059 -1.8510  2.7544  3.5290
 7826SOL     OW35110   0.359   0.290  12.154 -0.4728  0.1245 -0.2641
 7826SOL    HW135111   0.373   0.357  12.222 -0.8792  1.8634 -1.8920
 7826SOL    HW235112   0.433   0.231  12.169  0.5397  1.3835 -0.2697
 7827SOL     OW35113   1.326   4.248   5.212 -0.6227 -0.2277 -0.2394
 7827SOL    HW135114   1.234   4.236   5.189 -0.6696 -1.5598  0.6516
 7827SOL    HW235115   1.319   4.308   5.287 -0.6270 -2.9246  1.8960
 7828SOL     OW35116   4.496   0.265   2.838 -0.3257 -0.3437  0.0103
 7828SOL    HW135117   4.463   0.178   2.816 -0.7569  0.0520 -0.8819
 7828SOL    HW235118   4.452   0.312   2.767  0.0035 -0.8167 -0.5007
 7829SOL     OW35119   0.315   0.475   1.786 -0.0827 -0.6327  0.2417
 7829SOL    HW135120   0.300   0.507   1.875 -0.2142 -2.1480  0.7545
 7829SOL    HW235121   0.362   0.553   1.755 -0.3566 -0.7213 -0.3803
 7830SOL     OW35122   1.590   2.273   6.481  0.0771  0.2433 -0.2283
 7830SOL    HW135123   1.651   2.267   6.407  0.8269  2.3345  0.2228
 7830SOL    HW235124   1.629   2.216   6.546 -1.4888 -0.7559 -0.1522
 7831SOL     OW35125   3.386   3.829   4.490 -0.1487  0.3087 -0.4339
 7831SOL    HW135126   3.299   3.816   4.453  1.3187 -0.1674 -3.7728
 7831SOL    HW235127   3.436   3.806   4.412  0.6406 -2.5315  0.9060
 7832SOL     OW35128   2.701   1.233  16.069 -0.4510  0.2219 -0.2726
 7832SOL    HW135129   2.718   1.323  16.096 -1.6297  0.0396  1.0611
 7832SOL    HW235130   2.733   1.187  16.147  2.4477  0.8188 -1.1083
 7833SOL     OW35131   3.029   3.353  10.760  0.3346  0.2109 -0.4988
 7833SOL    HW135132   3.048   3.299  10.684 -2.8129 -0.4151 -0.8498
 7833SOL    HW235133   2.996   3.437  10.729 -1.3495 -0.1783  0.2192
 7834SOL     OW35134   2.662   0.889   5.137 -0.9125  0.1947 -0.1835
 7834SOL    HW135135   2.699   0.812   5.095 -0.0656  0.1259  0.6805
 7834SOL    HW235136   2.594   0.926   5.080 -0.3816  0.2899 -0.7543
 7835SOL     OW35137   1.143   2.227   2.165 -0.5923  0.8176 -0.1002
 7835SOL    HW135138   1.172   2.318   2.161 -0.0861  0.6549 -0.0500
 7835SOL    HW235139   1.080   2.220   2.094  0.1119 -3.6641 -0.2467
 7836SOL     OW35140   2.793   3.153   5.757 -0.0647  0.0314 -0.7552
 7836SOL    HW135141   2.846   3.088   5.803 -1.1476 -0.5171 -0.2831
 7836SOL    HW235142   2.724   3.093   5.731  0.4278 -1.2896  0.9142
 7837SOL     OW35143   3.231   3.373   7.228 -0.2056  0.0505  0.5412
 7837SOL    HW135144   3.272   3.455   7.257  0.3401  0.3701 -1.0889
 7837SOL    HW235145   3.306   3.313   7.237 -0.4187 -0.4500 -1.0361
 7838SOL     OW35146   3.477   2.294   3.485  0.3165  0.1877  0.4190
 7838SOL    HW135147   3.397   2.338   3.512 -1.2745 -1.1469 -2.1299
 7838SOL    HW235148   3.507   2.252   3.566  2.2005 -0.8258 -0.7999
 7839SOL     OW35149   1.524   0.437   2.509  0.5081  0.3866 -0.0374
 7839SOL    HW135150   1.487   0.350   2.524 -0.7511  0.9742  0.2853
 7839SOL    HW235151   1.455   0.495   2.544 -0.2585 -0.6613  0.1869
 7840SOL     OW35152   4.677   0.504  11.980 -0.0716 -0.1968 -0.4059
 7840SOL    HW135153   4.734   0.575  12.011  1.7336 -0.0082 -4.2021
 7840SOL    HW235154   4.728   0.427  12.009 -0.6814 -1.4011 -2.5604
 7841SOL     OW35155   1.405   0.589   4.624 -0.0594 -0.2882 -0.0446
 7841SOL    HW135156   1.310   0.579   4.631 -0.1492  0.5242 -0.2019
 7841SOL    HW235157   1.430   0.508   4.579 -1.9835 -0.7380 -0.3088
 7842SOL     OW35158   2.497   1.899   9.223  0.4666  0.2721 -0.3995
 7842SOL    HW135159   2.532   1.880   9.310 -0.9723  0.6986  0.2744
 7842SOL    HW235160   2.402   1.902   9.236  0.4431 -0.9647 -0.3268
 7843SOL     OW35161   4.534   1.712   9.426  0.0287  0.0567 -0.2660
 7843SOL    HW135162   4.519   1.676   9.339 -1.5399 -1.4845  0.6524
 7843SOL    HW235163   4.503   1.801   9.408 -0.6795 -0.0501  0.4638
 7844SOL     OW35164   3.239   4.444  16.004 -0.3462 -0.1580  0.9201
 7844SOL    HW135165   3.169   4.460  15.941  1.0976  0.2793 -0.5649
 7844SOL    HW235166   3.240   4.531  16.044 -2.0537  0.6701 -0.8402
 7845SOL     OW35167   4.272   2.564   8.975 -0.1181  0.3493 -0.4367
 7845SOL    HW135168   4.192   2.612   8.954  0.0584 -0.2483 -2.3937
 7845SOL    HW235169   4.328   2.570   8.898 -0.7316  1.6133 -0.7680
 7846SOL     OW35170   2.274   2.980   4.847  0.4016 -0.7875  0.5865
 7846SOL    HW135171   2.202   3.042   4.848  0.7129 -0.4183 -0.2249
 7846SOL    HW235172   2.243   2.921   4.916  0.9399  3.1144  4.1378
 7847SOL     OW35173   0.438   3.359   5.147  0.6538 -0.2246 -0.1477
 7847SOL    HW135174   0.382   3.304   5.092  1.0158  0.0891 -0.8438
 7847SOL    HW235175   0.404   3.342   5.234 -0.1681  3.5508  0.2651
 7848SOL     OW35176   0.929   1.781   4.763  0.2247  0.3091  0.0576
 7848SOL    HW135177   1.009   1.792   4.712 -0.1466 -0.4002 -0.6766
 7848SOL    HW235178   0.958   1.728   4.837 -1.0639 -0.5580 -0.0523
 7849SOL     OW35179   4.201   1.120   7.656 -0.0919  0.7401 -0.3010
 7849SOL    HW135180   4.204   1.215   7.668  2.7044  0.1644  3.4881
 7849SOL    HW235181   4.252   1.091   7.732  1.9084  0.1446 -1.8477
 7850SOL     OW35182   4.105   2.641   4.371 -0.5661 -0.1540  0.2113
 7850SOL    HW135183   4.128   2.575   4.437 -3.6873  0.5532  1.9858
 7850SOL    HW235184   4.034   2.692   4.410 -0.1968  0.7691 -0.3322
 7851SOL     OW35185   3.311   0.720   8.874  0.4427 -0.1148  0.6010
 7851SOL    HW135186   3.376   0.768   8.821  1.6037 -1.5512  0.7247
 7851SOL    HW235187   3.303   0.776   8.951 -0.7467 -0.2522  0.5633
 7852SOL     OW35188   1.285   3.141   0.860 -0.3209 -0.9369  0.0255
 7852SOL    HW135189   1.213   3.137   0.924  0.4938 -1.0212  0.9298
 7852SOL    HW235190   1.312   3.224   0.900  0.7567 -0.0098 -2.5931
 7853SOL     OW35191   4.484   2.783   8.469 -0.0197 -0.0994  0.1764
 7853SOL    HW135192   4.448   2.694   8.477  2.1869 -1.0897 -0.8877
 7853SOL    HW235193   4.498   2.799   8.376 -1.1937  0.2349  0.0589
 7854SOL     OW35194   3.968   4.169   3.682  0.0731  0.1727 -0.2513
 7854SOL    HW135195   3.919   4.238   3.726 -0.1461  0.0244 -0.2650
 7854SOL    HW235196   3.956   4.195   3.590 -0.5057  1.5425  0.2096
 7855SOL     OW35197   3.969   1.051   8.474 -0.1872  0.2760  0.1358
 7855SOL    HW135198   3.982   1.113   8.546 -2.8121 -1.2038  1.8691
 7855SOL    HW235199   4.024   1.100   8.412 -0.8376  0.4013 -0.3502
 7856SOL     OW35200   4.351   3.538   2.846  0.1666 -0.0815  0.4713
 7856SOL    HW135201   4.437   3.515   2.879  0.1061 -2.1701 -0.8433
 7856SOL    HW235202   4.302   3.456   2.851 -0.5859  0.3249 -0.2347
 7857SOL     OW35203   4.335   3.778   9.852 -0.1861  0.3719  0.4555
 7857SOL    HW135204   4.399   3.715   9.887 -0.9981 -1.4689 -1.3980
 7857SOL    HW235205   4.385   3.798   9.772 -1.7660  0.5625 -0.4735
 7858SOL     OW35206   2.514   2.713  11.654  0.0909  0.5491  0.3459
 7858SOL    HW135207   2.536   2.802  11.681 -1.6530  1.3832 -0.8978
 7858SOL    HW235208   2.578   2.713  11.583  0.5920  1.4679  0.7954
 7859SOL     OW35209   1.825   3.778   5.665  0.0552 -0.7273 -0.0203
 7859SOL    HW135210   1.737   3.784   5.704 -0.1233 -0.5481 -0.4575
 7859SOL    HW235211   1.797   3.746   5.579 -0.7872 -0.1758  0.0534
 7860SOL     OW35212   1.505   1.355   7.164 -0.0775 -0.5634 -0.8213
 7860SOL    HW135213   1.536   1.446   7.170 -1.7153  0.0622 -1.7614
 7860SOL    HW235214   1.562   1.328   7.093 -1.1474 -0.1018 -1.8617
 7861SOL     OW35215   4.426   0.551   1.269  0.2868  0.0844  0.0877
 7861SOL    HW135216   4.386   0.490   1.331  0.1859  1.6822  1.5752
 7861SOL    HW235217   4.362   0.556   1.198  1.5189  0.1450 -1.0295
 7862SOL     OW35218   4.136   1.115   0.254  0.2083 -0.1241 -0.0788
 7862SOL    HW135219   4.062   1.160   0.213 -0.8127 -1.3416  0.4447
 7862SOL    HW235220   4.111   1.023   0.250  3.6851 -1.0663 -0.1430
 7863SOL     OW35221   0.279   3.992   9.092  0.4014  0.3606  0.1427
 7863SOL    HW135222   0.280   3.922   9.157  0.4290 -1.9496 -2.3372
 7863SOL    HW235223   0.295   3.947   9.009 -2.3681 -2.0955  0.9411
 7864SOL     OW35224   1.128   2.529   2.492  0.0809 -0.3731 -0.0594
 7864SOL    HW135225   1.210   2.568   2.523 -1.1834  1.9852  0.3152
 7864SOL    HW235226   1.137   2.444   2.536  1.0914  0.2707  0.9763
 7865SOL     OW35227   0.148   2.332  12.973 -0.0151  0.3976  0.0092
 7865SOL    HW135228   0.066   2.298  12.937  0.4864  1.1159 -1.8184
 7865SOL    HW235229   0.140   2.311  13.066  0.0416  2.1969  0.4178
 7866SOL     OW35230   1.047   0.147   9.234  0.1529 -0.2345 -0.0581
 7866SOL    HW135231   1.138   0.175   9.235 -0.1666  0.7968  0.6798
 7866SOL    HW235232   1.009   0.164   9.148  3.0320  0.2737 -1.2157
 7867SOL     OW35233   3.669   2.850   9.970 -0.1092 -0.0040 -0.1127
 7867SOL    HW135234   3.633   2.864   9.882 -1.4594 -0.9307  0.2911
 7867SOL    HW235235   3.691   2.757   9.973  0.5797  0.2249  1.5521
 7868SOL     OW35236   1.567   3.690   1.452 -0.8200  0.4492  0.4751
 7868SOL    HW135237   1.650   3.671   1.497 -1.4338  0.5242  1.6420
 7868SOL    HW235238   1.534   3.600   1.449  0.9978 -0.1443 -1.8742
 7869SOL     OW35239   1.410   3.830   3.336  0.1698  0.4872  0.4349
 7869SOL    HW135240   1.334   3.782   3.305  1.1081  0.3891 -1.7160
 7869SOL    HW235241   1.406   3.918   3.299 -0.3030 -0.0982 -0.8789
 7870SOL     OW35242   3.094   4.591   4.744  0.4683 -0.5957 -0.6454
 7870SOL    HW135243   3.033   4.536   4.792 -0.8476 -0.1098 -1.7708
 7870SOL    HW235244   3.040   4.664   4.716 -0.5678 -1.3650 -0.6569
 7871SOL     OW35245   1.665   0.828   4.207 -0.1766 -0.3590  0.1715
 7871SOL    HW135246   1.585   0.832   4.259 -0.6885 -0.4060 -0.6096
 7871SOL    HW235247   1.731   0.860   4.269  1.1195 -0.5165 -1.1256
 7872SOL     OW35248   4.656   2.610   3.060 -0.3254 -0.1647  0.3019
 7872SOL    HW135249   4.604   2.538   3.025  1.0587 -1.5428  1.0188
 7872SOL    HW235250   4.588   2.677   3.055  0.7650  1.0696  1.7171
 7873SOL     OW35251   1.841   3.192   2.812  0.3865 -0.3140  0.1439
 7873SOL    HW135252   1.914   3.132   2.797  0.4445  0.2970 -1.9276
 7873SOL    HW235253   1.834   3.196   2.908 -0.2050 -3.0339  0.2089
 7874SOL     OW35254   4.260   0.649   7.571  0.4202  0.1981  0.1461
 7874SOL    HW135255   4.169   0.680   7.576  0.2447 -0.2339 -0.4244
 7874SOL    HW235256   4.278   0.674   7.480  0.9830 -3.1025 -0.6478
 7875SOL     OW35257   2.453   4.097   4.729 -0.3439  0.5211 -0.2525
 7875SOL    HW135258   2.546   4.076   4.724 -0.6224 -0.6088 -0.6267
 7875SOL    HW235259   2.454   4.159   4.656 -0.6319 -0.0113 -0.7076
 7876SOL     OW35260   3.658   3.069   9.266 -0.1037  0.7802 -0.5325
 7876SOL    HW135261   3.699   3.151   9.237  0.7701  0.4813 -0.1399
 7876SOL    HW235262   3.723   3.009   9.230  1.9435  1.5698  1.8652
 7877SOL     OW35263   0.352   0.268   8.722 -0.3451  0.0016 -0.0332
 7877SOL    HW135264   0.266   0.270   8.764 -0.7348  0.8740 -0.8744
 7877SOL    HW235265   0.398   0.288   8.804  1.0765  0.0914 -0.8492
 7878SOL     OW35266   4.394   4.709   0.194  0.2370  0.0891  0.4411
 7878SOL    HW135267   4.310   4.707   0.148  0.2258  0.5718  0.4374
 7878SOL    HW235268   4.455   4.707   0.120 -0.4777 -2.7193 -0.0796
 7879SOL     OW35269   1.140   2.233   9.357  0.1954  0.0446 -0.0317
 7879SOL    HW135270   1.097   2.220   9.273  0.5780 -0.2940 -0.1775
 7879SOL    HW235271   1.089   2.172   9.410  2.0141 -0.3254  1.2981
 7880SOL     OW35272   3.898   0.159   0.117 -0.0596  0.1318  0.8325
 7880SOL    HW135273   3.877   0.075   0.158 -0.5910  0.2911  0.8839
 7880SOL    HW235274   3.981   0.165   0.164  0.6942 -0.7761 -0.3808
 7881SOL     OW35275   2.028   2.860   0.032  0.3709 -0.2343  0.3611
 7881SOL    HW135276   2.045   2.905  17.692 -0.9767 -0.4757 -0.0472
 7881SOL    HW235277   2.071   2.781  17.743  0.0061 -0.6996  1.0330
 7882SOL     OW35278   2.562   2.613   0.905  0.4252  0.1098 -0.2117
 7882SOL    HW135279   2.611   2.682   0.860  0.2162 -1.4101 -2.7609
 7882SOL    HW235280   2.630   2.590   0.968  0.6824  2.1531  0.2404
 7883SOL     OW35281   1.530   1.138   5.835 -0.1406 -0.1822  0.1746
 7883SOL    HW135282   1.577   1.216   5.807 -0.2061  0.2203  1.1772
 7883SOL    HW235283   1.473   1.126   5.758 -1.9988  0.1757  1.4888
 7884SOL     OW35284   2.616   0.216   6.926 -0.1363 -0.1741 -0.2036
 7884SOL    HW135285   2.623   0.163   6.847  0.0871  1.8889 -1.5601
 7884SOL    HW235286   2.676   0.167   6.983 -2.2878 -1.7738  0.6712
 7885SOL     OW35287   2.832   1.419   2.948  0.2002  0.1318 -0.1881
 7885SOL    HW135288   2.778   1.346   2.919 -0.0930  0.0776  0.4760
 7885SOL    HW235289   2.774   1.493   2.929  0.3020  0.0011 -0.9970
 7886SOL     OW35290   3.252   0.823   8.026 -0.8806 -0.1190 -0.2026
 7886SOL    HW135291   3.246   0.918   8.013 -0.4522 -0.2940 -1.7318
 7886SOL    HW235292   3.219   0.794   7.941 -0.2602 -2.4334  0.3418
 7887SOL     OW35293   0.281   3.689   3.071  0.1325  0.4791 -1.1823
 7887SOL    HW135294   0.261   3.609   3.120  1.2496  1.3862  0.7505
 7887SOL    HW235295   0.350   3.723   3.128 -0.9419  0.4389  0.1448
 7888SOL     OW35296   2.758   0.674   4.998 -0.3046 -0.1786  0.2351
 7888SOL    HW135297   2.830   0.623   4.959  0.4133  0.2808  0.9566
 7888SOL    HW235298   2.697   0.668   4.925 -0.9436 -1.5836  0.8846
 7889SOL     OW35299   3.719   3.240   3.726 -0.1314 -0.0235 -0.4071
 7889SOL    HW135300   3.814   3.251   3.732 -0.5380  3.3360 -0.0614
 7889SOL    HW235301   3.694   3.331   3.740 -1.1946 -0.4353  0.2867
 7890SOL     OW35302   3.922   3.193   1.989  0.0122  0.0749 -0.0928
 7890SOL    HW135303   3.849   3.133   1.975  0.8094 -0.6985 -0.9077
 7890SOL    HW235304   3.911   3.244   1.909 -1.6986  0.6442  0.4891
 7891SOL     OW35305   4.351   3.929   1.333 -0.3804  0.0045  0.4848
 7891SOL    HW135306   4.336   3.916   1.240  1.7984 -1.8502  0.4033
 7891SOL    HW235307   4.290   3.999   1.357  1.1601  2.1435 -1.9570
 7892SOL     OW35308   3.879   0.358   4.177 -0.0460  0.4596 -0.4700
 7892SOL    HW135309   3.943   0.426   4.156 -0.5450  0.6925 -1.2634
 7892SOL    HW235310   3.812   0.373   4.110 -0.0859  1.0831 -0.2821
 7893SOL     OW35311   3.300   2.462   6.230 -0.5799  0.6694  0.3152
 7893SOL    HW135312   3.328   2.378   6.266  2.4371  2.0954  1.3027
 7893SOL    HW235313   3.349   2.524   6.284  0.1628 -0.2184  0.6746
 7894SOL     OW35314   1.554   2.902   5.806 -0.4721 -0.4493  0.9112
 7894SOL    HW135315   1.561   2.839   5.878 -0.9588 -0.3836  1.0161
 7894SOL    HW235316   1.562   2.982   5.857 -1.0366 -0.3447  0.8390
 7895SOL     OW35317   0.727   0.999   1.760 -0.3450  0.3099 -0.0671
 7895SOL    HW135318   0.770   1.080   1.787 -0.2956  0.8435 -1.7683
 7895SOL    HW235319   0.676   1.038   1.689  0.3383 -1.3626 -1.4836
 7896SOL     OW35320   3.957   1.534  15.051  0.0752 -0.0706 -0.3835
 7896SOL    HW135321   3.928   1.472  15.118 -0.5131  1.7049  1.0170
 7896SOL    HW235322   3.911   1.508  14.971 -2.5500  3.3780  0.0006
 7897SOL     OW35323   4.404   0.863  17.097  0.5278  0.1770  0.0274
 7897SOL    HW135324   4.408   0.953  17.128  1.1565  0.6118 -1.2749
 7897SOL    HW235325   4.477   0.858  17.034 -1.2645 -1.7492 -1.9115
 7898SOL     OW35326   4.020   0.307  15.567  0.6309 -0.2517 -0.3054
 7898SOL    HW135327   4.046   0.249  15.639  0.4799 -0.5577 -0.4955
 7898SOL    HW235328   4.106   0.339  15.538 -0.4882  4.4717  1.7313
 7899SOL     OW35329   1.119   2.242  16.557  0.4135 -0.1312 -0.7760
 7899SOL    HW135330   1.193   2.192  16.592 -1.0482 -0.9383  1.1562
 7899SOL    HW235331   1.116   2.211  16.466  0.7198 -0.9927 -0.4938
 7900SOL     OW35332   3.192   1.333   3.877  0.2789 -0.1289  0.0986
 7900SOL    HW135333   3.188   1.282   3.797 -1.7513 -1.0365  0.7845
 7900SOL    HW235334   3.246   1.274   3.929  1.2102 -0.0028 -0.7427
 7901SOL     OW35335   1.363   3.152   1.762 -0.0687 -0.1174 -0.0139
 7901SOL    HW135336   1.372   3.060   1.788 -0.1505 -0.0867  0.1215
 7901SOL    HW235337   1.444   3.181   1.804  0.1608 -3.3743  1.8252
 7902SOL     OW35338   0.602   0.030   5.517 -0.4559 -0.0606  0.0708
 7902SOL    HW135339   0.622   0.117   5.550 -0.0473 -0.6474  1.3706
 7902SOL    HW235340   0.513   0.013   5.549 -0.8077  1.0448 -0.3235
 7903SOL     OW35341   2.389   1.487   6.677  0.7387  0.5607 -0.4446
 7903SOL    HW135342   2.441   1.538   6.616  1.0426  1.3110  0.4498
 7903SOL    HW235343   2.368   1.553   6.743  3.9030 -0.6161  1.7397
 7904SOL     OW35344   0.503   3.303  10.704 -0.1348 -0.3541 -0.2264
 7904SOL    HW135345   0.576   3.296  10.643  0.5354  1.3780  0.3800
 7904SOL    HW235346   0.495   3.398  10.714  1.3595 -0.1406 -1.0345
 7905SOL     OW35347   0.410   0.957   8.089 -0.1917 -0.2866 -0.4385
 7905SOL    HW135348   0.463   1.029   8.053 -1.0724  1.1929  1.2449
 7905SOL    HW235349   0.383   0.912   8.009 -1.7115 -2.4010  1.2836
 7906SOL     OW35350   0.734   3.232   9.268 -0.8532  0.5571  0.5821
 7906SOL    HW135351   0.818   3.248   9.224 -0.0639 -1.5353  1.3349
 7906SOL    HW235352   0.696   3.319   9.254  1.5011  1.8368  2.0891
 7907SOL     OW35353   0.351   2.694   3.884 -0.5176  0.6825  0.0109
 7907SOL    HW135354   0.326   2.747   3.959  0.5395  0.5737  0.4472
 7907SOL    HW235355   0.399   2.628   3.934 -1.3195 -0.2603 -0.4824
 7908SOL     OW35356   3.742   2.140   2.962 -0.2041  0.0030 -0.6895
 7908SOL    HW135357   3.826   2.121   2.921  0.1816 -1.1814  0.6269
 7908SOL    HW235358   3.688   2.087   2.903 -0.0113  0.9245 -1.6967
 7909SOL     OW35359   0.846   2.176  12.086 -1.3113 -0.4236  0.6125
 7909SOL    HW135360   0.868   2.103  12.028 -1.6066  0.4635 -0.6207
 7909SOL    HW235361   0.845   2.242  12.016  1.8506 -2.4168 -1.3176
 7910SOL     OW35362   1.787   2.718  12.733  0.3925 -0.0955 -0.0660
 7910SOL    HW135363   1.803   2.811  12.753  1.0422  0.3095 -2.4289
 7910SOL    HW235364   1.851   2.676  12.791 -0.8900 -2.9057 -0.6867
 7911SOL     OW35365   2.813   4.195  15.385  0.4081 -0.5286  0.2688
 7911SOL    HW135366   2.849   4.122  15.435 -3.0997 -1.3873  1.4874
 7911SOL    HW235367   2.887   4.257  15.384 -1.8202  2.1446 -0.8995
 7912SOL     OW35368   1.445   1.824  14.751 -0.2972 -0.4170 -0.4613
 7912SOL    HW135369   1.434   1.859  14.663  3.2026 -2.7527 -1.8668
 7912SOL    HW235370   1.539   1.840  14.764 -0.8678  2.5933  0.0031
 7913SOL     OW35371   0.289   0.596   9.954  0.0588  0.1385 -0.6960
 7913SOL    HW135372   0.313   0.635  10.038  2.6967 -1.3925 -0.7426
 7913SOL    HW235373   0.198   0.568   9.965  0.2070 -0.4410 -0.9274
 7914SOL     OW35374   0.283   1.687   4.377 -0.5277 -0.2411 -0.1394
 7914SOL    HW135375   0.347   1.695   4.448  0.0240 -0.8820 -0.5595
 7914SOL    HW235376   0.304   1.601   4.339 -0.9869 -0.1711 -0.5497
 7915SOL     OW35377   0.876   3.327  16.279 -0.1661  0.0127  0.3112
 7915SOL    HW135378   0.963   3.317  16.240  0.9297  1.4296  2.4301
 7915SOL    HW235379   0.895   3.382  16.355  2.9205  0.1918 -0.5880
 7916SOL     OW35380   4.219   4.735   0.937  0.3105  0.1294 -0.1177
 7916SOL    HW135381   4.264   0.015   0.853  0.0670  0.3477 -0.2085
 7916SOL    HW235382   4.281   0.037   0.999  1.7086  0.6570 -1.8248
 7917SOL     OW35383   0.463   0.095   1.710  0.1402  0.0988  0.2499
 7917SOL    HW135384   0.429   0.060   1.628  0.4911  0.4378 -0.0399
 7917SOL    HW235385   0.532   0.151   1.675 -2.2949  2.4930 -0.6873
 7918SOL     OW35386   0.233   2.383   5.496  0.4415  0.3385  0.6329
 7918SOL    HW135387   0.293   2.414   5.565  0.0299 -0.7519  1.4836
 7918SOL    HW235388   0.147   2.406   5.532  0.4087 -0.4247  1.0490
 7919SOL     OW35389   2.713   3.900  15.789 -0.2413 -0.0407 -0.1879
 7919SOL    HW135390   2.685   3.829  15.848 -0.7882  1.0155  0.8386
 7919SOL    HW235391   2.770   3.939  15.856 -1.1466  2.4695 -0.8851
 7920SOL     OW35392   2.631   0.652  17.693  0.0631  0.2604 -0.1937
 7920SOL    HW135393   2.688   0.709  17.642 -2.1639  1.2661 -1.5505
 7920SOL    HW235394   2.573   0.602  17.635  0.9509 -0.1830 -0.6910
 7921SOL     OW35395   1.311   3.690   5.744 -0.1589  0.6429  0.1339
 7921SOL    HW135396   1.263   3.703   5.663 -0.1941 -2.2441 -0.2908
 7921SOL    HW235397   1.257   3.620   5.780  0.4992 -0.9036 -1.9060
 7922SOL     OW35398   1.378   2.164  12.492  0.4817  0.2595 -0.1971
 7922SOL    HW135399   1.423   2.243  12.521  1.6356 -1.1046  1.7483
 7922SOL    HW235400   1.449   2.125  12.441  2.3410 -0.3038  2.8080
 7923SOL     OW35401   1.151   1.490  11.648 -0.3375  0.0516 -0.4478
 7923SOL    HW135402   1.090   1.564  11.645 -1.2389 -0.7404 -1.0889
 7923SOL    HW235403   1.143   1.429  11.575 -1.7800  1.0524 -1.1247
 7924SOL     OW35404   1.289   3.902   7.176 -0.2937  0.2715 -0.6358
 7924SOL    HW135405   1.323   3.915   7.264  0.6125  2.6808 -1.3368
 7924SOL    HW235406   1.358   3.858   7.127 -2.0180 -3.0239 -0.0717
 7925SOL     OW35407   2.566   0.393   4.796  0.0770 -0.3586  0.0584
 7925SOL    HW135408   2.471   0.386   4.810  0.6424 -1.5495  3.4329
 7925SOL    HW235409   2.559   0.489   4.804  0.6911 -0.1575 -1.9464
 7926SOL     OW35410   1.816   0.237   5.993 -0.0836  0.1167 -0.5489
 7926SOL    HW135411   1.729   0.269   6.017 -0.7344 -1.0205 -1.3377
 7926SOL    HW235412   1.785   0.180   5.922  0.0299 -1.6037  0.8056
 7927SOL     OW35413   2.590   0.936   8.317  0.3163  0.4223  0.1500
 7927SOL    HW135414   2.612   0.874   8.386 -1.6137 -0.8139 -0.3523
 7927SOL    HW235415   2.610   0.889   8.236 -2.0533 -0.5936  0.1636
 7928SOL     OW35416   0.280   3.921   9.862  0.0353  0.1621 -0.0194
 7928SOL    HW135417   0.209   3.947   9.921 -0.9694 -1.5248 -0.4686
 7928SOL    HW235418   0.244   3.960   9.783 -0.8042 -0.3370  0.1154
 7929SOL     OW35419   4.498   4.388  11.536 -0.0334  0.0311  0.4050
 7929SOL    HW135420   4.511   4.423  11.448 -1.1423 -1.6359 -0.4201
 7929SOL    HW235421   4.540   4.302  11.530 -0.7603 -0.2680 -0.4320
 7930SOL     OW35422   0.427   2.675  12.452  0.2077  0.2182 -0.5238
 7930SOL    HW135423   0.421   2.646  12.361  1.8680  0.3955 -0.6859
 7930SOL    HW235424   0.522   2.669  12.465  0.1145 -1.4301 -0.6995
 7931SOL     OW35425   2.151   3.276   4.892 -0.2011  0.1762  0.5771
 7931SOL    HW135426   2.103   3.354   4.921  0.2648  1.2467 -1.5849
 7931SOL    HW235427   2.188   3.246   4.975  2.0312 -1.3610 -0.9766
 7932SOL     OW35428   3.042   0.049   5.960  0.1492 -0.0445 -0.3951
 7932SOL    HW135429   3.023   0.137   5.928 -0.9993  0.9909  3.1481
 7932SOL    HW235430   3.089   0.004   5.890 -1.1514  1.1737 -2.0255
 7933SOL     OW35431   2.289   1.753  10.864 -0.3262 -0.3356  0.2388
 7933SOL    HW135432   2.308   1.659  10.861 -1.5749 -0.6358  1.7094
 7933SOL    HW235433   2.377   1.788  10.867 -0.6095  0.4780 -1.0164
 7934SOL     OW35434   3.801   3.070   2.968 -0.1089  0.1340  0.7382
 7934SOL    HW135435   3.731   3.104   3.024  0.5228  0.9635  1.0283
 7934SOL    HW235436   3.840   3.156   2.952  1.5451 -0.5706  1.0623
 7935SOL     OW35437   2.169   0.784   8.594 -0.4204  0.1942 -0.6817
 7935SOL    HW135438   2.139   0.709   8.543  0.9488 -2.0895  1.8759
 7935SOL    HW235439   2.202   0.742   8.674  1.2802  1.9308 -0.4809
 7936SOL     OW35440   3.193   3.698   6.396  0.6947  0.5007  1.0893
 7936SOL    HW135441   3.278   3.683   6.437  2.0659 -2.1659 -2.6827
 7936SOL    HW235442   3.152   3.753   6.462  1.3324  1.4844  0.6556
 7937SOL     OW35443   2.078   1.628  12.554  0.1588  0.4966 -0.1380
 7937SOL    HW135444   2.034   1.661  12.476 -1.2055 -2.3788 -0.6037
 7937SOL    HW235445   2.123   1.549  12.523 -1.2214 -0.1295 -0.5089
 7938SOL     OW35446   3.388   3.516   6.731  0.0604  0.1173  0.1364
 7938SOL    HW135447   3.454   3.459   6.771 -0.2345  0.6535  1.3955
 7938SOL    HW235448   3.324   3.452   6.701  0.9053 -0.5887 -0.1263
 7939SOL     OW35449   2.519   2.223   9.357 -0.3911  0.3693 -0.0516
 7939SOL    HW135450   2.552   2.285   9.422  0.3258 -0.7124  0.6100
 7939SOL    HW235451   2.593   2.163   9.346  0.1955  1.2020 -0.6241
 7940SOL     OW35452   4.586   1.958   6.959 -0.2430 -0.2725 -0.4261
 7940SOL    HW135453   4.604   1.951   6.865  1.7072 -1.0747  0.0002
 7940SOL    HW235454   4.616   2.046   6.983 -1.5301 -0.3106  1.3354
 7941SOL     OW35455   2.282   2.392   5.386 -0.3993 -0.5254  0.2225
 7941SOL    HW135456   2.208   2.377   5.328 -1.1627 -0.7211  1.2408
 7941SOL    HW235457   2.315   2.309   5.420 -0.7673 -0.3869  0.9432
 7942SOL     OW35458   4.724   3.161   6.269  0.3223  0.0871  0.1724
 7942SOL    HW135459   4.671   3.114   6.205  0.6736  0.7652 -0.6152
 7942SOL    HW235460   4.735   3.248   6.231 -3.7945  0.9548  0.9075
 7943SOL     OW35461   4.233   0.735   6.339 -0.2767  0.0093  0.0179
 7943SOL    HW135462   4.203   0.825   6.350  0.1520  0.3061 -1.2444
 7943SOL    HW235463   4.325   0.752   6.320 -0.3784  1.0890  0.5351
 7944SOL     OW35464   1.455   2.783  14.782  0.7789  0.2754  0.0453
 7944SOL    HW135465   1.484   2.710  14.728 -0.5321  0.5730 -1.0535
 7944SOL    HW235466   1.407   2.742  14.855  2.1734 -2.4109 -0.5345
 7945SOL     OW35467   1.090   2.965   4.732 -0.4297  0.2489  0.3726
 7945SOL    HW135468   1.102   3.034   4.667  1.2046 -0.4739 -0.0703
 7945SOL    HW235469   1.178   2.940   4.759 -1.2754 -2.9622  0.1311
 7946SOL     OW35470   4.273   0.677   9.297  0.3241 -0.5627 -0.2099
 7946SOL    HW135471   4.250   0.740   9.365 -1.6167 -0.3021 -1.1146
 7946SOL    HW235472   4.280   0.593   9.343  0.1781 -1.6205 -2.1389
 7947SOL     OW35473   2.708   3.323   0.130 -0.4994  0.3680 -0.8542
 7947SOL    HW135474   2.674   3.309   0.041  0.3019  0.1709 -1.1349
 7947SOL    HW235475   2.717   3.232   0.159  1.2464  0.7098 -0.2853
 7948SOL     OW35476   1.056   1.570   5.252 -0.3601 -0.4524  0.3234
 7948SOL    HW135477   1.055   1.627   5.329 -0.6225  1.7094 -1.2954
 7948SOL    HW235478   0.971   1.597   5.216 -0.1301 -1.4593 -0.9965
 7949SOL     OW35479   2.440   2.322  15.581  0.2694  0.2065  0.0070
 7949SOL    HW135480   2.365   2.265  15.593 -0.6700  0.8039 -2.9056
 7949SOL    HW235481   2.462   2.354  15.668 -1.3349  3.3668 -0.7539
 7950SOL     OW35482   0.107   0.395   3.134 -0.1863 -0.3487 -0.4428
 7950SOL    HW135483   0.073   0.333   3.069 -0.0593  0.6912 -1.5051
 7950SOL    HW235484   0.061   0.479   3.123 -0.6763 -0.4350  0.9692
 7951SOL     OW35485   2.450   0.824   3.456 -0.3080  0.1220 -0.7100
 7951SOL    HW135486   2.488   0.752   3.405  2.5586  0.6872  0.6395
 7951SOL    HW235487   2.529   0.859   3.497  0.5317 -0.9416 -1.4209
 7952SOL     OW35488   3.927   2.213   3.739  0.1083 -0.2399 -0.7399
 7952SOL    HW135489   3.980   2.145   3.781  2.3875  0.7991 -1.8950
 7952SOL    HW235490   3.842   2.187   3.772 -0.3272  1.5134 -0.5254
 7953SOL     OW35491   0.222   1.439   7.152 -0.0329 -0.7668 -0.8139
 7953SOL    HW135492   0.215   1.534   7.162  2.2188 -0.4436 -2.1968
 7953SOL    HW235493   0.280   1.433   7.076  2.4113  0.4568  0.9692
 7954SOL     OW35494   0.886   1.394   8.523 -0.6805 -0.3668 -0.2029
 7954SOL    HW135495   0.879   1.307   8.561  1.9283  0.0167  1.1115
 7954SOL    HW235496   0.856   1.376   8.434  0.1441  1.4990 -0.8628
 7955SOL     OW35497   0.902   4.621  14.974 -0.2088 -0.2494 -0.4933
 7955SOL    HW135498   0.825   4.569  14.995  0.3049 -0.2889  1.2809
 7955SOL    HW235499   0.973   4.561  14.950  1.5998  1.2350  1.1416
 7956SOL     OW35500   1.565   1.753  16.431  0.0072  0.0245 -0.5832
 7956SOL    HW135501   1.530   1.765  16.520  2.9883  1.2838  0.4163
 7956SOL    HW235502   1.624   1.827  16.417  0.2045  0.1477  0.8684
 7957SOL     OW35503   1.854   2.710   9.139  0.1605 -0.7701  0.2340
 7957SOL    HW135504   1.867   2.697   9.233  0.7916 -0.3934  0.1989
 7957SOL    HW235505   1.941   2.706   9.099  0.4464  1.0516  0.6862
 7958SOL     OW35506   1.387   4.613   3.311  0.0752 -0.0550 -0.1037
 7958SOL    HW135507   1.450   4.657   3.368 -0.0806 -0.0559  0.0682
 7958SOL    HW235508   1.308   4.666   3.319 -0.4858 -0.9966  0.5792
 7959SOL     OW35509   1.605   1.264   6.150 -0.0639 -0.0826  0.0804
 7959SOL    HW135510   1.523   1.233   6.112 -0.1506  0.0145  0.1856
 7959SOL    HW235511   1.661   1.195   6.115 -0.2503  1.3503 -3.0029
 7960SOL     OW35512   1.880   2.685  11.447  0.0331 -0.1138  0.4523
 7960SOL    HW135513   1.847   2.621  11.510 -0.3675 -0.7589 -0.4167
 7960SOL    HW235514   1.894   2.629  11.371 -3.8580 -0.0509 -0.3290
 7961SOL     OW35515   4.270   4.684   1.248 -0.5751 -0.4050 -0.2389
 7961SOL    HW135516   4.351   4.725   1.278 -1.3384 -0.2589  1.6062
 7961SOL    HW235517   4.205   0.013   1.276 -1.0695 -0.1089 -2.0783
 7962SOL     OW35518   3.957   3.791   5.315  0.1986  0.2320 -0.2106
 7962SOL    HW135519   3.918   3.745   5.389 -1.3945  1.8239 -0.0627
 7962SOL    HW235520   4.041   3.810   5.358  0.5919 -0.8978 -0.4773
 7963SOL     OW35521   2.001   1.190   7.838  0.1033 -0.6642 -0.0612
 7963SOL    HW135522   1.940   1.165   7.769 -1.3977  0.8193  0.7354
 7963SOL    HW235523   1.940   1.215   7.907  0.0225 -0.4185 -0.2205
 7964SOL     OW35524   2.883   3.867   3.293 -0.6596  0.1872  0.0932
 7964SOL    HW135525   2.801   3.866   3.342  0.9034  2.9299  2.7923
 7964SOL    HW235526   2.852   3.832   3.210  1.0520 -3.3789  0.9363
 7965SOL     OW35527   3.799   1.430   8.274 -0.2295  0.2179 -0.3157
 7965SOL    HW135528   3.803   1.338   8.248  0.6126 -0.5489  2.5207
 7965SOL    HW235529   3.851   1.461   8.200  1.3334 -0.9458  0.3064
 7966SOL     OW35530   4.624   0.818   3.989 -0.2230  0.4379 -0.7754
 7966SOL    HW135531   4.710   0.843   3.955  0.1895 -2.1207 -1.5784
 7966SOL    HW235532   4.656   0.748   4.046 -3.1575  0.0209  0.3454
 7967SOL     OW35533   4.505   4.592   1.635  0.1792 -0.4708  0.9940
 7967SOL    HW135534   4.495   4.553   1.722 -2.6953  0.0832  0.9096
 7967SOL    HW235535   4.413   4.621   1.630 -0.0637 -1.8679 -2.7247
 7968SOL     OW35536   1.099   4.653  16.107  0.1258  0.4743 -0.3790
 7968SOL    HW135537   1.145   4.665  16.024  0.5134 -2.0808 -0.5184
 7968SOL    HW235538   1.033   4.722  16.096 -1.0834 -0.7780 -0.9671
 7969SOL     OW35539   0.373   2.351  15.920  0.6651 -0.2580  0.2088
 7969SOL    HW135540   0.311   2.408  15.875 -0.1461 -0.3418  1.2198
 7969SOL    HW235541   0.380   2.283  15.852  1.6477  2.6591 -2.6112
 7970SOL     OW35542   2.806   0.809  17.518 -0.5515  0.2043 -0.2076
 7970SOL    HW135543   2.777   0.856  17.440 -0.2388  0.0909 -0.3935
 7970SOL    HW235544   2.889   0.848  17.546 -1.7562  1.3443  1.7868
 7971SOL     OW35545   3.237   3.137   8.076 -1.0369 -0.1755  0.0454
 7971SOL    HW135546   3.326   3.170   8.073 -0.7766 -0.9633 -0.8526
 7971SOL    HW235547   3.222   3.146   7.982 -0.3461 -1.4673 -0.1790
 7972SOL     OW35548   4.589   0.901   1.396  0.0890  0.7439 -0.5722
 7972SOL    HW135549   4.519   0.955   1.434  0.4365  1.1782 -0.5426
 7972SOL    HW235550   4.624   0.954   1.324 -0.0511 -2.4845 -2.9999
 7973SOL     OW35551   1.372   1.105  12.276  0.0671 -0.3314  0.1084
 7973SOL    HW135552   1.301   1.165  12.258  0.3962  0.0761  0.1699
 7973SOL    HW235553   1.360   1.049  12.199 -1.4067 -2.1782  1.6892
 7974SOL     OW35554   1.961   0.864  12.659 -0.8238  0.3509 -0.4072
 7974SOL    HW135555   2.023   0.799  12.625  0.1318  0.7983  0.4765
 7974SOL    HW235556   1.969   0.856  12.754 -1.1551 -0.5676 -0.4594
 7975SOL     OW35557   4.352   2.886   8.032  0.1852  0.3790  0.0069
 7975SOL    HW135558   4.363   2.979   8.012 -0.3555 -0.0449 -2.2023
 7975SOL    HW235559   4.265   2.894   8.071 -0.7752  2.3933 -2.5377
 7976SOL     OW35560   0.677   4.500  13.903  0.9493 -0.7136 -0.8872
 7976SOL    HW135561   0.680   4.593  13.926  0.1631 -1.1878  1.1510
 7976SOL    HW235562   0.771   4.480  13.899  1.0957 -0.3671  0.6571
 7977SOL     OW35563   3.457   3.272   4.939  0.0983 -0.3418  0.0209
 7977SOL    HW135564   3.438   3.190   4.893 -0.1432 -0.1644 -0.1952
 7977SOL    HW235565   3.553   3.277   4.946  0.1391 -1.3115  0.2034
 7978SOL     OW35566   2.614   4.666   7.308  0.0500  0.0508  0.1746
 7978SOL    HW135567   2.700   4.622   7.306 -0.1148 -0.2900  0.6512
 7978SOL    HW235568   2.616   4.694   7.399  0.0092  1.1328 -0.1538
 7979SOL     OW35569   4.455   3.923   5.993  0.8730  0.4378 -0.3354
 7979SOL    HW135570   4.487   3.859   5.930  2.4548 -0.5584  1.5041
 7979SOL    HW235571   4.446   4.001   5.938 -1.0525 -1.8226 -3.2509
 7980SOL     OW35572   0.185   0.870   2.594  0.5445 -0.2120 -0.3568
 7980SOL    HW135573   0.198   0.909   2.507  1.5663 -2.3735 -1.1827
 7980SOL    HW235574   0.205   0.940   2.657 -1.7020 -0.3062  0.4394
 7981SOL     OW35575   3.494   0.681   0.625  0.3036  0.7432 -0.6429
 7981SOL    HW135576   3.459   0.688   0.535 -0.3646 -0.6672 -0.4949
 7981SOL    HW235577   3.454   0.613   0.679 -0.2141  0.9337 -0.7824
 7982SOL     OW35578   2.579   4.101  12.280 -0.3589  0.2808 -0.2945
 7982SOL    HW135579   2.550   4.137  12.197 -0.3799 -3.3598 -1.8379
 7982SOL    HW235580   2.536   4.157  12.345  1.3925  0.7256  0.4812
 7983SOL     OW35581   1.582   2.407   3.468  0.1617  0.1290  0.3401
 7983SOL    HW135582   1.504   2.418   3.414 -0.9113 -0.2170  1.8181
 7983SOL    HW235583   1.584   2.314   3.491 -0.7268  0.4354  1.6476
 7984SOL     OW35584   2.267   3.739   7.059 -0.2352 -0.1367  0.0597
 7984SOL    HW135585   2.291   3.771   7.147 -1.9679  1.0610  0.1187
 7984SOL    HW235586   2.322   3.662   7.072 -0.3107 -0.0033  1.2444
 7985SOL     OW35587   4.274   1.245   2.102  0.1558 -0.4748  0.8727
 7985SOL    HW135588   4.215   1.303   2.054  1.1433 -0.3165 -0.1658
 7985SOL    HW235589   4.257   1.165   2.051 -0.1322 -0.6332  1.2230
 7986SOL     OW35590   3.559   2.975   5.376  0.1024  0.3945  0.2903
 7986SOL    HW135591   3.636   2.982   5.320 -1.3959 -0.3913 -1.8784
 7986SOL    HW235592   3.596   3.024   5.450 -0.5288  1.8417 -0.3540
 7987SOL     OW35593   3.956   3.278   3.854 -0.3289 -0.0592 -0.3778
 7987SOL    HW135594   3.901   3.310   3.925 -1.6569 -0.5683 -1.1855
 7987SOL    HW235595   4.044   3.282   3.892  0.0631 -0.2083 -1.2779
 7988SOL     OW35596   1.882   3.579  16.946  0.0603 -0.3126 -0.2852
 7988SOL    HW135597   1.823   3.516  16.903  0.8210 -1.8641  0.9650
 7988SOL    HW235598   1.863   3.654  16.890 -0.8383  0.7430  1.4682
 7989SOL     OW35599   4.707   2.775  16.169  0.1794  0.6430  0.1133
 7989SOL    HW135600   4.613   2.786  16.162  0.1235 -0.5527 -0.9694
 7989SOL    HW235601   4.734   2.761  16.078  1.5502 -1.5078  0.8519
 7990SOL     OW35602   3.204   1.423   7.944  0.1526  0.1641 -0.0536
 7990SOL    HW135603   3.277   1.412   8.005 -0.8040  1.2807  1.2657
 7990SOL    HW235604   3.245   1.446   7.860  0.6438 -1.6485 -0.3208
 7991SOL     OW35605   0.840   0.809  10.174 -0.2345  0.6062 -0.8388
 7991SOL    HW135606   0.841   0.767  10.088 -0.8683 -0.5745 -0.2589
 7991SOL    HW235607   0.870   0.738  10.230 -0.4678  0.5753 -0.7515
 7992SOL     OW35608   0.926   2.714   4.785 -0.3384  0.4686 -0.2215
 7992SOL    HW135609   0.959   2.639   4.735 -0.4134  0.0098  0.4262
 7992SOL    HW235610   0.999   2.775   4.784 -0.8673  1.1047 -0.1343
 7993SOL     OW35611   4.296   1.526   3.715  0.3504  0.5744  0.4323
 7993SOL    HW135612   4.272   1.453   3.773  0.6551  1.5859  1.8346
 7993SOL    HW235613   4.258   1.496   3.633 -0.1166  1.8299  0.1846
 7994SOL     OW35614   1.584   0.507   3.326 -0.1212 -0.5143  0.1052
 7994SOL    HW135615   1.520   0.573   3.348  1.5266 -0.5069  4.8008
 7994SOL    HW235616   1.599   0.523   3.233  2.7555 -0.5236  0.5507
 7995SOL     OW35617   2.749   3.915  12.047 -0.1396 -0.6329 -0.3360
 7995SOL    HW135618   2.756   3.869  11.963 -0.9126  1.8509 -1.7865
 7995SOL    HW235619   2.762   4.005  12.015  0.0578 -0.5014  0.1196
 7996SOL     OW35620   2.287   0.564   2.996  0.3643  0.2248  0.3483
 7996SOL    HW135621   2.304   0.485   2.944 -1.7705 -0.0688  0.1320
 7996SOL    HW235622   2.197   0.582   2.972  0.7506 -0.1813 -1.3705
 7997SOL     OW35623   3.229   4.147   6.703 -0.2676 -0.2179  0.4031
 7997SOL    HW135624   3.134   4.156   6.710 -0.1723  0.8442  0.3304
 7997SOL    HW235625   3.254   4.196   6.782  0.0615 -0.5172  0.4890
 7998SOL     OW35626   4.424   0.773   2.136  0.6422 -0.3761  0.5552
 7998SOL    HW135627   4.355   0.832   2.167  0.8781 -0.6178  1.5492
 7998SOL    HW235628   4.367   0.697   2.137 -2.2943  1.7613 -1.8315
 7999SOL     OW35629   1.533   2.977  11.351  0.1235  0.2176 -0.0130
 7999SOL    HW135630   1.493   2.953  11.267 -0.0318  0.8620 -0.1222
 7999SOL    HW235631   1.618   2.998  11.313  0.8125 -3.8079 -0.6637
 8000SOL     OW35632   3.292   1.317   0.862 -0.4301 -0.1235  0.0507
 8000SOL    HW135633   3.263   1.240   0.813  1.7158 -0.2075 -1.0975
 8000SOL    HW235634   3.279   1.284   0.951  1.4426 -3.8911 -1.0635
 8001SOL     OW35635   0.294   0.024   5.290 -0.0630 -0.5976  0.3442
 8001SOL    HW135636   0.330   4.727   5.373  0.6710 -0.5953  0.0255
 8001SOL    HW235637   0.204   4.727   5.300 -0.0229 -0.9864 -0.6185
 8002SOL     OW35638   1.477   1.765   4.682  0.2342 -0.0944 -0.0195
 8002SOL    HW135639   1.421   1.691   4.658 -0.9353  0.7744  0.0461
 8002SOL    HW235640   1.565   1.729   4.680 -0.1832 -1.1340  0.3152
 8003SOL     OW35641   0.006   2.972   3.726  0.2981 -0.5335  0.3318
 8003SOL    HW135642   4.729   2.877   3.736 -0.5590 -0.2096  2.3353
 8003SOL    HW235643   4.652   3.001   3.714  0.6812 -0.0091 -1.2451
 8004SOL     OW35644   3.850   0.673   3.294  0.1755  0.2227 -0.0788
 8004SOL    HW135645   3.766   0.706   3.264 -1.0172 -1.9901  0.8620
 8004SOL    HW235646   3.865   0.740   3.361  1.7568  2.6576 -2.8435
 8005SOL     OW35647   1.460   4.482   9.794  0.3668  0.3654 -0.5799
 8005SOL    HW135648   1.450   4.551   9.859  1.8152 -0.1267  0.1701
 8005SOL    HW235649   1.519   4.418   9.834 -1.4156 -0.7379  0.2850
 8006SOL     OW35650   2.588   4.678   7.598 -0.7496 -0.0982 -0.1049
 8006SOL    HW135651   2.640   4.645   7.671  0.2814 -0.6408 -1.0860
 8006SOL    HW235652   2.580   0.036   7.615 -0.7375 -0.1216  0.0281
 8007SOL     OW35653   3.830   0.223   6.170 -0.8263  0.6450  0.3978
 8007SOL    HW135654   3.879   0.141   6.178 -0.5170  0.9131  1.2481
 8007SOL    HW235655   3.848   0.249   6.079 -0.3802 -0.0547  0.2835
 8008SOL     OW35656   0.422   0.776   1.124 -0.3707 -0.1382  0.2063
 8008SOL    HW135657   0.463   0.763   1.209  0.3566  1.1392  0.0527
 8008SOL    HW235658   0.367   0.853   1.140  0.0205  0.1436  0.2050
 8009SOL     OW35659   3.547   4.628   3.589 -0.6785 -0.1103 -0.2388
 8009SOL    HW135660   3.640   4.605   3.589 -0.3783  1.1097 -0.4883
 8009SOL    HW235661   3.517   4.606   3.677 -1.4789  1.8213 -0.0323
 8010SOL     OW35662   1.199   2.733  15.042  0.3368  0.3752  0.1229
 8010SOL    HW135663   1.181   2.757  14.951 -1.2864 -2.4398 -0.3021
 8010SOL    HW235664   1.255   2.657  15.027 -0.4664  0.1046 -1.5199
 8011SOL     OW35665   0.295   0.233  11.890  0.2666 -0.0723  0.2568
 8011SOL    HW135666   0.329   0.248  11.978  3.0432  0.5206 -0.9264
 8011SOL    HW235667   0.327   0.145  11.872  0.0502  0.0129 -0.5552
 8012SOL     OW35668   2.314   3.703  15.031 -0.1953  0.1015 -0.0075
 8012SOL    HW135669   2.313   3.762  15.106  0.9622  0.6210 -0.4150
 8012SOL    HW235670   2.254   3.636  15.066  0.8827 -1.1479 -0.5360
 8013SOL     OW35671   0.660   3.138   4.603 -0.5077  0.1799  0.1269
 8013SOL    HW135672   0.730   3.193   4.639 -1.0507  1.2702 -0.4587
 8013SOL    HW235673   0.688   3.118   4.513  1.1258 -1.2877  0.9844
 8014SOL     OW35674   3.101   2.775   4.672  0.0836  0.1109  0.3460
 8014SOL    HW135675   3.183   2.734   4.646  0.5250  0.9072  0.4698
 8014SOL    HW235676   3.059   2.705   4.721 -0.8740  0.1242 -0.4455
 8015SOL     OW35677   1.571   3.537   2.722 -0.2058  0.0254  0.5944
 8015SOL    HW135678   1.577   3.517   2.816  1.0589  0.5382  0.6271
 8015SOL    HW235679   1.612   3.462   2.678  0.9336  0.9778  0.0426
 8016SOL     OW35680   2.707   4.537   5.717 -0.0013  0.2984 -0.0564
 8016SOL    HW135681   2.615   4.537   5.743  0.0506  0.1678  0.1278
 8016SOL    HW235682   2.755   4.594   5.778 -2.5719  0.5948  1.6885
 8017SOL     OW35683   2.744   4.356   7.197 -0.2618 -0.1411 -0.3462
 8017SOL    HW135684   2.780   4.268   7.200 -0.5066 -0.3144 -2.1967
 8017SOL    HW235685   2.661   4.332   7.238  1.4604 -0.8060  2.6961
 8018SOL     OW35686   0.773   1.032   7.882 -0.0993 -0.3383  0.5249
 8018SOL    HW135687   0.724   0.969   7.829  1.4158  0.1930 -1.4654
 8018SOL    HW235688   0.822   0.970   7.936 -0.0647  0.1743  1.0786
 8019SOL     OW35689   3.187   1.998  17.275 -0.2673 -0.1399  0.6513
 8019SOL    HW135690   3.270   1.974  17.236 -0.5653  0.8880 -0.5975
 8019SOL    HW235691   3.191   2.089  17.307  0.3944 -1.0761  3.2937
 8020SOL     OW35692   0.353   4.328  12.979  0.4054 -0.5605 -0.0734
 8020SOL    HW135693   0.281   4.339  13.042  0.2482 -1.1478 -0.1568
 8020SOL    HW235694   0.314   4.268  12.916 -0.6007  1.8974 -1.7815
 8021SOL     OW35695   1.360   4.378  16.985 -0.1484 -0.0969 -0.0037
 8021SOL    HW135696   1.374   4.379  16.891 -1.0562 -1.3371 -0.1601
 8021SOL    HW235697   1.442   4.344  17.022  0.0171 -1.3911 -1.5324
 8022SOL     OW35698   3.343   4.109   7.908  0.3220 -0.7025 -0.3025
 8022SOL    HW135699   3.403   4.162   7.961  0.2608 -0.5316 -0.4070
 8022SOL    HW235700   3.307   4.052   7.976  1.6963 -1.2401 -0.0042
 8023SOL     OW35701   0.031   1.339   7.421  0.4924  0.4741  0.0168
 8023SOL    HW135702   0.088   1.376   7.353 -0.5479  1.8401 -0.1210
 8023SOL    HW235703   4.683   1.382   7.402 -0.9812 -2.4304  0.0032
 8024SOL     OW35704   1.426   2.763   9.067  0.6584 -0.1268  0.6517
 8024SOL    HW135705   1.505   2.815   9.053  0.9434 -0.8966 -0.6210
 8024SOL    HW235706   1.438   2.712   8.988 -0.8856  0.2834  0.1502
 8025SOL     OW35707   3.933   3.744   2.317 -0.4601  0.6095  0.1183
 8025SOL    HW135708   3.902   3.758   2.228  2.6463 -1.7636 -1.3239
 8025SOL    HW235709   3.966   3.831   2.339  0.8310  0.5513 -1.6522
 8026SOL     OW35710   2.779   3.831   7.977  0.7736  0.0550  0.0565
 8026SOL    HW135711   2.735   3.897   7.923  0.5080  0.8829  1.2748
 8026SOL    HW235712   2.749   3.753   7.932  1.3467  0.4566 -1.0205
 8027SOL     OW35713   4.375   0.317   4.695  0.1748  0.2481  0.0369
 8027SOL    HW135714   4.281   0.311   4.711 -0.2450 -0.9143 -2.8044
 8027SOL    HW235715   4.381   0.222   4.686 -0.6025 -0.0525  2.7825
 8028SOL     OW35716   2.013   4.575   9.113  0.4204 -0.6955  0.2956
 8028SOL    HW135717   1.949   4.642   9.137  0.6256 -0.2121 -0.4811
 8028SOL    HW235718   1.971   4.490   9.126 -0.8240 -0.2950 -1.1335
 8029SOL     OW35719   3.196   2.599   2.096  0.5191  0.3052 -0.1715
 8029SOL    HW135720   3.143   2.552   2.031  0.7072 -0.3521  0.1477
 8029SOL    HW235721   3.135   2.666   2.125  0.9000 -0.0213  1.3615
 8030SOL     OW35722   3.817   3.896   4.321  0.0381 -0.5798  0.1588
 8030SOL    HW135723   3.875   3.861   4.254  1.3449  3.4792 -0.8172
 8030SOL    HW235724   3.743   3.835   4.320  0.0664 -0.6464  2.4513
 8031SOL     OW35725   3.618   4.052   7.762  0.8065  0.5094 -0.0811
 8031SOL    HW135726   3.636   3.996   7.838  1.1302  0.4928 -0.1723
 8031SOL    HW235727   3.577   3.990   7.702  0.8202  0.7289 -0.3180
 8032SOL     OW35728   2.251   0.813   7.805  0.1541  0.9372  0.5791
 8032SOL    HW135729   2.213   0.822   7.893  1.3710 -1.0652  1.3205
 8032SOL    HW235730   2.181   0.825   7.741  1.4071  0.9047 -0.7739
 8033SOL     OW35731   2.368   2.008   7.433  0.2185  0.3497 -0.2359
 8033SOL    HW135732   2.279   2.030   7.460  0.2269  0.6675 -0.4644
 8033SOL    HW235733   2.404   2.096   7.419  2.0678 -0.3944 -0.1501
 8034SOL     OW35734   3.878   2.914  10.139 -0.3063 -0.2371 -0.1083
 8034SOL    HW135735   3.882   2.821  10.159 -3.8878 -0.4546 -0.3695
 8034SOL    HW235736   3.795   2.911  10.093 -0.9335 -0.3829  1.0322
 8035SOL     OW35737   2.193   3.418   5.185 -0.3191  0.8044  0.0338
 8035SOL    HW135738   2.214   3.511   5.184  2.4502  0.1807 -1.3307
 8035SOL    HW235739   2.174   3.392   5.275  1.2648 -2.0137 -0.4329
 8036SOL     OW35740   2.694   3.622   0.171 -0.0943 -0.1384  0.0695
 8036SOL    HW135741   2.709   3.528   0.155 -0.4928 -0.3429  0.8977
 8036SOL    HW235742   2.787   3.648   0.171 -0.3607  0.8325 -2.6764
 8037SOL     OW35743   4.410   0.476   8.319  0.0053 -0.7658  0.5706
 8037SOL    HW135744   4.468   0.447   8.249  0.8897  1.5934  0.3263
 8037SOL    HW235745   4.425   0.571   8.320  1.4141 -0.9845  0.0751
 8038SOL     OW35746   0.372   0.558   6.589  0.6639  0.0343  0.1971
 8038SOL    HW135747   0.374   0.499   6.514  3.3803 -0.8714  0.9860
 8038SOL    HW235748   0.363   0.642   6.543  0.0856 -0.1209  0.0334
 8039SOL     OW35749   0.417   2.613  12.725 -0.5232 -0.0234 -0.4995
 8039SOL    HW135750   0.436   2.650  12.639  0.0841  0.1816 -0.2743
 8039SOL    HW235751   0.434   2.519  12.720  3.3652  0.6475  0.5671
 8040SOL     OW35752   1.690   4.524   0.935 -0.2995 -0.3235  0.1861
 8040SOL    HW135753   1.723   4.444   0.976 -0.9743 -1.6229 -1.8423
 8040SOL    HW235754   1.640   4.481   0.866 -0.8376 -0.0500  0.4012
 8041SOL     OW35755   0.406   4.243   2.815  0.2613  0.0075 -0.5863
 8041SOL    HW135756   0.441   4.173   2.871  1.8222  0.1093 -1.4288
 8041SOL    HW235757   0.481   4.300   2.799  2.0775 -1.3334  3.0220
 8042SOL     OW35758   0.659   2.848   3.231 -0.0037 -0.6297  0.6158
 8042SOL    HW135759   0.714   2.921   3.201 -0.2548 -0.2182  1.1601
 8042SOL    HW235760   0.630   2.803   3.152 -0.8061 -0.0732  0.5940
 8043SOL     OW35761   2.908   0.021   3.371 -0.4048  0.6563 -0.4796
 8043SOL    HW135762   2.966   4.725   3.301 -0.7058 -0.3241 -0.2796
 8043SOL    HW235763   2.908   4.682   3.429  0.1452 -0.2992 -1.7070
 8044SOL     OW35764   1.251   3.303  12.138 -0.4026  0.0063 -0.6555
 8044SOL    HW135765   1.221   3.299  12.229 -1.2947 -2.3575 -1.0629
 8044SOL    HW235766   1.239   3.395  12.114  0.8656  0.6782  1.3041
 8045SOL     OW35767   3.595   2.441   4.886  0.4021 -0.6544 -0.0458
 8045SOL    HW135768   3.585   2.381   4.812  0.0017  0.8306 -1.2184
 8045SOL    HW235769   3.653   2.399   4.949 -1.0448  0.9790  2.3656
 8046SOL     OW35770   0.310   3.332   2.033  0.6770  0.5794 -0.4331
 8046SOL    HW135771   0.360   3.251   2.045  1.6674  1.0427 -1.4627
 8046SOL    HW235772   0.288   3.322   1.940 -1.5411  0.2591  0.1217
 8047SOL     OW35773   3.582   4.002   5.739 -0.0035 -0.1008  0.3693
 8047SOL    HW135774   3.611   3.980   5.827  1.4859 -0.2376 -0.1621
 8047SOL    HW235775   3.653   4.061   5.716 -0.2000 -0.7489 -1.8594
 8048SOL     OW35776   0.151   1.159  16.872 -0.0644  0.4107 -0.0280
 8048SOL    HW135777   0.083   1.099  16.905  0.3065 -0.9862 -1.7995
 8048SOL    HW235778   0.150   1.225  16.941  3.7220 -1.6003  1.9972
 8049SOL     OW35779   2.615   3.948  15.047  0.3004 -0.1185 -0.4207
 8049SOL    HW135780   2.530   3.938  15.090  0.8260  0.0323  0.6683
 8049SOL    HW235781   2.664   3.938  15.129  0.2576  1.7399 -0.1814
 8050SOL     OW35782   2.425   4.315  10.240 -0.2133 -0.3307  0.2315
 8050SOL    HW135783   2.515   4.298  10.214 -1.1109 -2.0770 -1.7090
 8050SOL    HW235784   2.408   4.403  10.205  1.8770  0.6982  1.8488
 8051SOL     OW35785   1.506   4.630   8.805 -0.3541  0.1286  0.2406
 8051SOL    HW135786   1.542   4.605   8.719  1.0027  2.0347  0.2667
 8051SOL    HW235787   1.589   4.662   8.841  0.4416 -2.3554  0.6410
 8052SOL     OW35788   4.464   4.325   3.653  0.1633 -0.4511 -0.1147
 8052SOL    HW135789   4.519   4.272   3.594  0.0168  0.6514 -1.2351
 8052SOL    HW235790   4.480   4.408   3.609  0.1805  0.4645  1.6152
 8053SOL     OW35791   1.178   4.689   3.003  0.1007 -0.2336  0.5268
 8053SOL    HW135792   1.244   0.020   3.019  0.4675 -0.4558 -0.0661
 8053SOL    HW235793   1.191   4.660   2.913  2.5341 -0.6451  1.0156
 8054SOL     OW35794   4.197   4.405   1.760 -0.0552 -0.7383 -0.1876
 8054SOL    HW135795   4.113   4.369   1.731 -0.7473  2.0440 -1.5354
 8054SOL    HW235796   4.199   4.486   1.710 -1.2189 -0.8055 -0.3432
 8055SOL     OW35797   1.165   0.917  12.945  0.0770 -0.3628  0.3653
 8055SOL    HW135798   1.171   0.929  13.039 -0.3502 -0.3460  0.3909
 8055SOL    HW235799   1.244   0.962  12.916 -0.5148  0.5961  0.2016
 8056SOL     OW35800   0.457   0.500   2.429  0.5249 -0.0803 -0.5379
 8056SOL    HW135801   0.439   0.409   2.406 -2.6621  0.5264 -0.4709
 8056SOL    HW235802   0.425   0.512   2.519 -0.2305 -1.8035 -0.5737
 8057SOL     OW35803   2.864   0.163   1.635 -0.0370  0.1206  0.8133
 8057SOL    HW135804   2.895   0.093   1.578  1.8366  0.8968  0.8897
 8057SOL    HW235805   2.906   0.145   1.719 -1.1765 -1.0127  1.1421
 8058SOL     OW35806   1.226   1.799  12.275 -0.2103  0.2609  0.0753
 8058SOL    HW135807   1.169   1.724  12.259 -0.4551  0.5755 -0.5384
 8058SOL    HW235808   1.223   1.796  12.370  2.4440 -2.6072  0.0629
 8059SOL     OW35809   1.027   1.938   7.376 -0.9132 -0.7442 -0.3913
 8059SOL    HW135810   0.994   1.976   7.458  0.3286 -1.7825  0.5702
 8059SOL    HW235811   1.110   1.982   7.361 -1.1449 -0.2617 -0.2611
 8060SOL     OW35812   3.666   0.873   0.548  0.0463  0.2804 -0.3584
 8060SOL    HW135813   3.720   0.833   0.616 -0.8924  2.5405  1.7157
 8060SOL    HW235814   3.596   0.810   0.563 -0.9887  1.1624 -1.5452
 8061SOL     OW35815   1.135   0.065   7.010 -0.6933 -0.1326 -0.5803
 8061SOL    HW135816   1.053   0.022   7.034 -1.3495  0.1660 -2.2591
 8061SOL    HW235817   1.192   4.727   6.989  0.6319  1.1541 -1.5130
 8062SOL     OW35818   0.369   4.209   1.718  0.0924  0.0934 -0.2106
 8062SOL    HW135819   0.288   4.158   1.719 -0.9190  1.7176  0.5652
 8062SOL    HW235820   0.343   4.267   1.646  0.1132  0.3899  0.0242
 8063SOL     OW35821   3.081   4.613   3.210  0.4676  0.0916 -0.0477
 8063SOL    HW135822   3.083   4.558   3.288 -0.0021 -1.3099 -1.0237
 8063SOL    HW235823   3.168   4.650   3.198  0.3770  0.5640  0.8017
 8064SOL     OW35824   3.021   0.673   8.142 -0.1856 -0.2973 -0.6412
 8064SOL    HW135825   3.099   0.727   8.148 -1.1317  1.0030 -0.1095
 8064SOL    HW235826   2.983   0.686   8.229  0.7069 -1.1672 -0.1139
 8065SOL     OW35827   2.508   0.374   2.168 -0.1384  0.1457 -0.2289
 8065SOL    HW135828   2.544   0.462   2.164  0.8469 -0.2336  0.0871
 8065SOL    HW235829   2.580   0.328   2.212  2.3407  1.8046 -2.5656
 8066SOL     OW35830   4.667   4.607  15.304 -0.0204 -0.0398 -0.9175
 8066SOL    HW135831   4.680   4.698  15.331  0.2818 -0.0045 -1.1771
 8066SOL    HW235832   4.678   4.623  15.210  2.2522  1.7020 -0.3827
 8067SOL     OW35833   3.099   3.967  16.094  0.3366 -0.0435 -0.4052
 8067SOL    HW135834   3.138   4.052  16.114 -1.9482  1.1909 -1.1603
 8067SOL    HW235835   3.114   3.919  16.175  0.5114  2.3851  1.0190
 8068SOL     OW35836   0.402   1.557   7.727  0.0408 -0.4336  0.2162
 8068SOL    HW135837   0.471   1.576   7.790 -0.6319 -0.8964  1.0935
 8068SOL    HW235838   0.355   1.483   7.765 -0.8436  0.4040  0.7399
 8069SOL     OW35839   3.532   2.376  10.115 -0.3090  0.2837  0.3227
 8069SOL    HW135840   3.471   2.304  10.104 -0.1603  0.0448  1.0457
 8069SOL    HW235841   3.612   2.327  10.134  0.0941  1.1388  0.8786
 8070SOL     OW35842   4.731   2.479   6.467 -0.5431 -0.3413 -0.0540
 8070SOL    HW135843   4.709   2.565   6.431  1.9803  0.7786  1.0497
 8070SOL    HW235844   4.670   2.430   6.412 -1.4277 -0.4122  1.0005
 8071SOL     OW35845   1.960   0.225   1.135 -0.2250 -0.4925  0.0321
 8071SOL    HW135846   1.931   0.165   1.066 -0.5269  0.2827 -0.5166
 8071SOL    HW235847   1.874   0.240   1.172  0.3130  2.2057  0.1685
 8072SOL     OW35848   3.190   4.685   9.365  0.1591 -0.4680  0.5303
 8072SOL    HW135849   3.123   0.014   9.344  0.5307  1.3034  4.7113
 8072SOL    HW235850   3.269   4.721   9.325 -0.4449 -0.1372 -0.3591
 8073SOL     OW35851   1.477   3.948   6.954 -0.0614 -0.0570 -0.3575
 8073SOL    HW135852   1.477   4.025   7.012  0.5424 -1.0320  0.9279
 8073SOL    HW235853   1.569   3.924   6.937 -0.2447 -0.6443 -0.5009
 8074SOL     OW35854   1.237   0.175  11.088 -0.9509  1.1427 -0.1787
 8074SOL    HW135855   1.172   0.232  11.046 -0.6139  0.6759 -1.3383
 8074SOL    HW235856   1.216   0.099  11.035  1.1740  0.4064  0.0338
 8075SOL     OW35857   1.602   2.567   8.013  0.0271  0.3659 -0.5463
 8075SOL    HW135858   1.561   2.646   7.977 -0.7935  0.0939 -0.2040
 8075SOL    HW235859   1.640   2.609   8.090 -0.2175  0.4999 -0.4986
 8076SOL     OW35860   0.884   4.534  16.228  0.0533 -0.3600 -0.3295
 8076SOL    HW135861   0.973   4.540  16.192 -0.1928  1.2838 -0.6531
 8076SOL    HW235862   0.909   4.513  16.319  0.0350  0.1227 -0.2150
 8077SOL     OW35863   0.605   3.772  15.556  0.2202  0.1601 -0.2761
 8077SOL    HW135864   0.683   3.809  15.597  1.3963  0.1109 -2.4536
 8077SOL    HW235865   0.619   3.678  15.564 -1.0755 -0.0215 -0.1503
 8078SOL     OW35866   4.134   4.540   1.089 -0.3273 -0.4017  0.1530
 8078SOL    HW135867   4.159   4.614   1.034  2.8169  0.1684  2.3187
 8078SOL    HW235868   4.197   4.558   1.159 -0.2819  0.2869 -0.0651
 8079SOL     OW35869   1.647   4.136  15.319  0.7027  0.4129 -0.0164
 8079SOL    HW135870   1.647   4.179  15.234  1.6235  0.6867  0.1186
 8079SOL    HW235871   1.739   4.148  15.343  0.3803  0.7841  1.0146
 8080SOL     OW35872   3.138   3.186   2.534 -0.2751  0.1448  0.5590
 8080SOL    HW135873   3.132   3.141   2.618  1.4162 -3.1978 -1.1330
 8080SOL    HW235874   3.088   3.265   2.557  0.3370  0.8019 -0.3921
 8081SOL     OW35875   3.159   3.980  14.815  0.1648 -0.4213  0.4985
 8081SOL    HW135876   3.183   3.950  14.902 -1.2221 -0.4168  0.8743
 8081SOL    HW235877   3.226   4.043  14.788  0.7394 -0.3837  2.0141
 8082SOL     OW35878   1.286   0.072  17.059 -0.2324 -0.4199 -0.1742
 8082SOL    HW135879   1.217   0.116  17.008  1.0100  2.0565  0.2751
 8082SOL    HW235880   1.331   0.152  17.085  0.2053 -0.9406  0.6679
 8083SOL     OW35881   1.070   4.601  15.503 -0.4513 -0.2738 -0.2457
 8083SOL    HW135882   1.037   4.599  15.414  0.7462 -0.1242 -0.6972
 8083SOL    HW235883   1.087   4.695  15.515 -0.2132 -0.2000 -1.2020
 8084SOL     OW35884   3.372   2.881   1.337 -0.2739  0.0020  0.4065
 8084SOL    HW135885   3.394   2.794   1.304  1.2063 -0.3237  2.2711
 8084SOL    HW235886   3.443   2.937   1.305  0.2869 -1.9294 -1.7303
 8085SOL     OW35887   0.776   0.985   2.787  0.1204  0.3209 -0.4271
 8085SOL    HW135888   0.707   0.972   2.722 -1.5608  1.2356  1.1799
 8085SOL    HW235889   0.752   0.920   2.853  3.2011  0.0712  0.4510
 8086SOL     OW35890   3.093   2.266   2.104  0.2839  0.2261  0.0367
 8086SOL    HW135891   3.010   2.298   2.069  0.9017  1.2918 -0.4393
 8086SOL    HW235892   3.140   2.273   2.022 -0.3766 -0.0658 -0.3673
 8087SOL     OW35893   0.144   4.126   5.053  0.6730 -0.4080 -0.0971
 8087SOL    HW135894   0.065   4.167   5.017  0.8816  0.0697 -0.0230
 8087SOL    HW235895   0.165   4.202   5.108 -1.3274  0.2091 -0.1856
 8088SOL     OW35896   3.746   4.580   3.187 -0.5102 -0.1945  0.2141
 8088SOL    HW135897   3.830   4.590   3.142 -0.9329  1.5893 -0.1552
 8088SOL    HW235898   3.706   4.509   3.135 -0.2344  1.7094 -2.6171
 8089SOL     OW35899   3.438   4.503   8.562  0.1881 -0.2553  0.0942
 8089SOL    HW135900   3.348   4.503   8.529 -0.7875  1.4358  2.7803
 8089SOL    HW235901   3.471   4.591   8.545  0.8072 -0.4896  0.0919
 8090SOL     OW35902   4.441   2.577   7.961 -0.3291  0.5927 -0.1047
 8090SOL    HW135903   4.474   2.501   7.914 -0.0409  0.7743 -0.1963
 8090SOL    HW235904   4.468   2.558   8.051 -2.1048 -0.2774  0.2450
 8091SOL     OW35905   1.786   3.239   3.821  0.7751  0.2040 -0.0091
 8091SOL    HW135906   1.712   3.276   3.870  1.7520 -0.0596  1.6485
 8091SOL    HW235907   1.803   3.149   3.848  0.3054  0.2385  0.4013
 8092SOL     OW35908   2.327   4.007  12.510  0.6589  0.2263  0.3352
 8092SOL    HW135909   2.246   4.031  12.554  1.8447  1.0811  2.0588
 8092SOL    HW235910   2.369   4.093  12.511  0.9342  0.1098 -1.2037
 8093SOL     OW35911   2.869   4.584   7.299 -0.1578  0.4451  0.0492
 8093SOL    HW135912   2.948   4.573   7.351 -1.4771 -2.4271  1.4487
 8093SOL    HW235913   2.844   4.494   7.275 -0.7946  0.4770  0.5924
 8094SOL     OW35914   0.346   2.169   6.961  0.3532 -0.4753 -0.0956
 8094SOL    HW135915   0.351   2.194   7.053  0.5551  1.3741 -0.5908
 8094SOL    HW235916   0.272   2.214   6.921 -0.7290 -0.3229  2.1070
 8095SOL     OW35917   2.512   2.943   5.789 -0.7885  0.0285  0.3795
 8095SOL    HW135918   2.450   2.890   5.737  0.6876  1.1508 -2.5584
 8095SOL    HW235919   2.520   2.898   5.873 -2.8556  1.0169  1.0871
 8096SOL     OW35920   2.752   2.559   7.813  0.6231 -0.3239  0.7126
 8096SOL    HW135921   2.689   2.491   7.838 -0.8379 -0.6667 -3.9294
 8096SOL    HW235922   2.691   2.624   7.778  2.8298  0.4142 -1.7908
 8097SOL     OW35923   1.277   3.934   8.834 -0.4899 -0.2954 -0.2320
 8097SOL    HW135924   1.339   3.978   8.776 -1.6750 -0.2623 -1.4816
 8097SOL    HW235925   1.284   3.987   8.913  2.6162  0.1998 -0.8454
 8098SOL     OW35926   3.983   2.492   9.563 -0.6779 -0.3616 -0.3549
 8098SOL    HW135927   3.999   2.428   9.493  2.3665  1.1152 -1.0109
 8098SOL    HW235928   3.942   2.559   9.508  0.0168 -0.9918 -1.6644
 8099SOL     OW35929   3.309   0.524  12.344 -0.3092  0.2146  0.6295
 8099SOL    HW135930   3.391   0.555  12.306 -0.6039 -0.4279 -0.5103
 8099SOL    HW235931   3.285   0.464  12.273  1.1654  1.6784 -1.1057
 8100SOL     OW35932   3.991   4.333   1.587  0.2460 -0.3758 -0.4603
 8100SOL    HW135933   3.917   4.393   1.597 -0.7258 -1.5718 -0.5150
 8100SOL    HW235934   3.961   4.287   1.509 -1.7821  2.3155 -1.2572
 8101SOL     OW35935   2.803   0.538   4.349  0.2178  0.5178  0.0143
 8101SOL    HW135936   2.851   0.498   4.276  0.7930  0.9940  0.1315
 8101SOL    HW235937   2.733   0.578   4.298 -0.9625 -1.3943  0.1125
 8102SOL     OW35938   0.218   2.615   2.030 -0.2077 -0.0801  0.3010
 8102SOL    HW135939   0.270   2.661   2.096  0.6229 -1.9019  0.9267
 8102SOL    HW235940   0.208   2.533   2.079  0.1375 -0.2548  0.0788
 8103SOL     OW35941   3.792   1.687   3.867 -0.4150 -0.3812 -0.1988
 8103SOL    HW135942   3.869   1.684   3.810 -0.6158 -0.5410 -0.4581
 8103SOL    HW235943   3.769   1.594   3.868 -2.5636  0.1614  0.7266
 8104SOL     OW35944   0.811   1.235   3.270  0.4610 -0.2786  0.0382
 8104SOL    HW135945   0.726   1.201   3.240  1.1279 -0.2784 -1.8359
 8104SOL    HW235946   0.784   1.249   3.361 -2.3501 -0.8318 -0.7185
 8105SOL     OW35947   4.564   1.380   3.469 -0.8041 -0.1504 -0.0513
 8105SOL    HW135948   4.575   1.300   3.418  1.5273  0.2684 -0.1768
 8105SOL    HW235949   4.499   1.426   3.415 -0.9109 -0.7055 -0.3924
 8106SOL     OW35950   3.275   4.161   3.498  0.1244  0.3299  0.3715
 8106SOL    HW135951   3.323   4.093   3.452 -1.0874  0.9080 -1.7204
 8106SOL    HW235952   3.283   4.131   3.589  1.5748 -1.0886 -0.2370
 8107SOL     OW35953   1.496   3.379  11.527  0.7785  0.0832 -1.0067
 8107SOL    HW135954   1.476   3.315  11.595  1.7400  0.3871 -0.4285
 8107SOL    HW235955   1.566   3.337  11.478  0.8237  0.0654 -0.9265
 8108SOL     OW35956   3.788   2.645   9.778 -0.0187 -0.0886 -0.1572
 8108SOL    HW135957   3.842   2.720   9.752  3.6600 -2.8112 -0.3547
 8108SOL    HW235958   3.857   2.624   9.841  0.1924 -0.3775 -0.4839
 8109SOL     OW35959   0.678   4.236  11.495  0.2732 -0.2607  0.0697
 8109SOL    HW135960   0.613   4.287  11.543 -1.2895 -1.2386 -1.0482
 8109SOL    HW235961   0.677   4.157  11.548  0.2197 -0.2676  0.0584
 8110SOL     OW35962   4.265   4.587   8.462  0.0313  0.1600  0.3928
 8110SOL    HW135963   4.196   4.521   8.462 -0.2169  0.4072 -3.7157
 8110SOL    HW235964   4.249   4.646   8.389 -1.1214 -0.3474  0.2443
 8111SOL     OW35965   4.598   4.499   3.914  0.7716 -0.2528  0.5003
 8111SOL    HW135966   4.666   4.436   3.889  0.3236 -0.3476 -0.4825
 8111SOL    HW235967   4.571   4.533   3.829 -1.6517 -2.6219  0.3120
 8112SOL     OW35968   0.658   1.336  13.621 -0.0678 -0.7011 -0.3364
 8112SOL    HW135969   0.587   1.307  13.678 -1.0477 -1.0304 -1.7280
 8112SOL    HW235970   0.721   1.362  13.688 -1.3563  1.7214 -0.0684
 8113SOL     OW35971   0.257   1.604   3.910  0.0271  0.1596 -0.6636
 8113SOL    HW135972   0.167   1.628   3.930 -0.1550 -1.4488  0.4342
 8113SOL    HW235973   0.293   1.606   3.999  0.8706  1.1986 -1.0336
 8114SOL     OW35974   3.568   0.349  11.743  0.3264 -0.0074 -0.2382
 8114SOL    HW135975   3.506   0.298  11.796  0.8354 -2.2684 -1.8482
 8114SOL    HW235976   3.568   0.290  11.668  0.6340 -0.4583  0.1182
 8115SOL     OW35977   4.326   1.415   4.829  0.4004 -0.2938 -0.4118
 8115SOL    HW135978   4.266   1.479   4.792 -0.5037 -0.5774  0.5571
 8115SOL    HW235979   4.408   1.441   4.788  0.7533 -0.7960 -0.0329
 8116SOL     OW35980   2.801   2.153   6.896  0.7090 -0.0052  0.2115
 8116SOL    HW135981   2.803   2.197   6.811  0.6139 -1.8336 -0.7345
 8116SOL    HW235982   2.759   2.072   6.867  0.7833 -0.4630  1.4075
 8117SOL     OW35983   1.868   3.214   1.569  0.2742  0.8244  0.1680
 8117SOL    HW135984   1.869   3.171   1.654  0.2480  3.5541  1.5463
 8117SOL    HW235985   1.786   3.181   1.531 -0.0341  1.4081  0.3289
 8118SOL     OW35986   1.531   3.435   5.574 -0.0367  0.1846  0.2911
 8118SOL    HW135987   1.530   3.466   5.664  0.8647 -0.4530  0.5163
 8118SOL    HW235988   1.437   3.444   5.558  0.2043  1.1857 -0.5326
 8119SOL     OW35989   3.996   3.631  10.407 -0.2347  0.0936 -0.1626
 8119SOL    HW135990   3.975   3.574  10.333 -0.1735 -0.9927  0.6464
 8119SOL    HW235991   3.937   3.597  10.475 -0.3588  1.9077  0.6276
 8120SOL     OW35992   1.101   1.677   8.977  0.1889 -0.8167 -0.0793
 8120SOL    HW135993   1.093   1.670   8.882  0.4576 -2.8072  0.0368
 8120SOL    HW235994   1.059   1.760   8.997  0.5148 -0.4293 -1.0229
 8121SOL     OW35995   0.685   0.773  13.923 -0.5498  0.4579 -0.0343
 8121SOL    HW135996   0.708   0.846  13.981  0.8502 -0.1999  0.2545
 8121SOL    HW235997   0.770   0.738  13.896 -0.1639  3.0511 -2.1627
 8122SOL     OW35998   2.381   1.115   3.169 -0.0609 -0.1641  0.0337
 8122SOL    HW135999   2.471   1.099   3.198  0.0643 -0.2372 -0.4062
 8122SOL    HW236000   2.380   1.069   3.085 -0.4215 -0.7642  0.3678
 8123SOL     OW36001   4.619   2.538   6.970  0.6079 -0.3920 -0.1924
 8123SOL    HW136002   4.642   2.520   6.879  1.6278  0.4992 -0.1126
 8123SOL    HW236003   4.639   2.632   6.978 -0.9224 -0.2239  1.6340
 8124SOL     OW36004   3.849   4.675   4.052 -0.0323  0.1766 -0.0609
 8124SOL    HW136005   3.804   0.022   4.065 -0.1264  0.3289 -1.3299
 8124SOL    HW236006   3.910   4.671   4.126  0.0839 -1.7445 -0.2572
 8125SOL     OW36007   3.391   3.979  15.953 -0.1850 -0.0267  0.1034
 8125SOL    HW136008   3.357   4.034  16.024 -2.2717 -0.6958 -0.3926
 8125SOL    HW236009   3.325   3.988  15.886  0.3701  3.2917 -0.0163
 8126SOL     OW36010   1.950   1.765   3.242 -0.1601 -0.6760  0.8858
 8126SOL    HW136011   1.893   1.699   3.203  0.3145 -1.0556  0.8320
 8126SOL    HW236012   1.992   1.717   3.313  2.3143  1.1335  0.6519
 8127SOL     OW36013   1.616   1.061   2.987 -0.2177  0.3456  0.5278
 8127SOL    HW136014   1.546   1.120   2.960 -0.2930 -0.4729 -1.0883
 8127SOL    HW236015   1.698   1.110   2.975 -0.5190  0.8086  0.3695
 8128SOL     OW36016   3.352   0.974   2.372 -0.4592  0.1391 -0.4461
 8128SOL    HW136017   3.299   0.971   2.292  0.5698  0.9514 -1.1463
 8128SOL    HW236018   3.415   0.914   2.331  2.5286  4.0226 -1.5363
 8129SOL     OW36019   3.198   3.020   6.500 -0.7030 -0.6961  0.0669
 8129SOL    HW136020   3.183   3.031   6.406 -0.1525 -4.0063 -0.4181
 8129SOL    HW236021   3.228   2.929   6.494 -0.1045 -0.3426 -2.4330
 8130SOL     OW36022   1.368   4.271   3.075 -0.3803  0.2989  0.2412
 8130SOL    HW136023   1.285   4.242   3.036  0.5251 -0.1506 -1.3826
 8130SOL    HW236024   1.431   4.261   3.003 -0.4047 -2.9206  0.6288
 8131SOL     OW36025   1.065   3.871   4.132 -0.1190  0.2913 -0.6248
 8131SOL    HW136026   1.006   3.945   4.147  0.0924  0.0968  1.0933
 8131SOL    HW236027   1.145   3.911   4.100  0.7707 -0.9270  0.0925
 8132SOL     OW36028   2.059   2.589  14.545 -0.4004  0.2154 -1.2526
 8132SOL    HW136029   2.147   2.607  14.512 -0.3579 -0.2546 -1.3968
 8132SOL    HW236030   2.044   2.658  14.609  0.8880  0.0571 -0.7761
 8133SOL     OW36031   4.488   4.609   6.958  0.3516  0.1613  0.1945
 8133SOL    HW136032   4.465   4.535   6.901 -0.5434  0.6919 -0.1254
 8133SOL    HW236033   4.500   4.676   6.891  1.7222  1.3190  1.6082
 8134SOL     OW36034   3.181   4.641  12.841  0.2006  0.0418  0.1206
 8134SOL    HW136035   3.264   4.628  12.794  1.5202 -1.0754  2.7396
 8134SOL    HW236036   3.201   4.728  12.874 -0.5315 -0.6083  2.2792
 8135SOL     OW36037   0.755   3.883   7.137 -0.1220 -0.2796  0.3537
 8135SOL    HW136038   0.815   3.939   7.186  1.4286 -1.3878 -0.2916
 8135SOL    HW236039   0.671   3.920   7.163  0.6343  1.9820 -0.3710
 8136SOL     OW36040   3.474   1.579   2.292 -0.5597 -0.0597  0.1929
 8136SOL    HW136041   3.456   1.654   2.236 -1.5998  1.3097  2.3657
 8136SOL    HW236042   3.406   1.586   2.359 -0.2899  1.1599  0.3283
 8137SOL     OW36043   0.709   1.571   4.499  0.0947 -0.2938  0.3476
 8137SOL    HW136044   0.777   1.549   4.563 -0.4438  0.1826  1.0879
 8137SOL    HW236045   0.666   1.488   4.477 -1.8778  0.6401  0.6856
 8138SOL     OW36046   0.776   3.245  11.727 -0.1419  0.0325 -0.1839
 8138SOL    HW136047   0.857   3.282  11.762 -1.0589  1.8463  0.0147
 8138SOL    HW236048   0.802   3.237  11.635 -0.3341 -2.5832  0.0004
 8139SOL     OW36049   1.501   3.533   6.991 -0.5498  0.6349  0.4195
 8139SOL    HW136050   1.584   3.576   7.012 -0.0343 -0.9672  1.6294
 8139SOL    HW236051   1.500   3.447   7.031 -0.5964  0.2624 -0.3841
 8140SOL     OW36052   4.664   3.202   5.586  0.3375 -0.2500 -0.0598
 8140SOL    HW136053   4.623   3.267   5.528  0.8210 -0.0094 -0.1311
 8140SOL    HW236054   0.010   3.181   5.542  0.9065  1.7471  0.0354
 8141SOL     OW36055   0.984   1.494   1.284 -0.0281  0.1713  0.2496
 8141SOL    HW136056   0.889   1.489   1.294 -0.1190  1.0101 -0.1727
 8141SOL    HW236057   1.011   1.438   1.357 -0.0876 -2.2799 -1.5838
 8142SOL     OW36058   2.846   4.065   0.445  0.3285  0.3830 -0.1076
 8142SOL    HW136059   2.897   4.050   0.524 -0.0373 -3.1776 -0.5345
 8142SOL    HW236060   2.829   3.974   0.419 -2.7663  0.7281  0.7522
 8143SOL     OW36061   0.072   0.824   1.541  0.2753  0.1504  0.1102
 8143SOL    HW136062   0.002   0.850   1.480 -0.4108  1.3371  1.3928
 8143SOL    HW236063   0.096   0.734   1.520  1.4565  0.4930  0.0217
 8144SOL     OW36064   2.098   3.614   1.675  0.1940 -0.1358 -0.3160
 8144SOL    HW136065   2.027   3.599   1.613 -0.4249 -0.2504  0.4230
 8144SOL    HW236066   2.155   3.545   1.643 -1.0625 -1.0200 -0.6452
 8145SOL     OW36067   1.951   0.868   7.153 -0.3831  0.3591 -0.8326
 8145SOL    HW136068   2.037   0.909   7.149 -0.7577  1.4439  2.1812
 8145SOL    HW236069   1.956   0.793   7.093 -0.9327  0.0485 -0.4862
 8146SOL     OW36070   0.372   1.657  13.808  0.1120 -0.3778 -0.3413
 8146SOL    HW136071   0.331   1.595  13.868  0.0337 -0.8294 -0.8567
 8146SOL    HW236072   0.425   1.712  13.865 -0.1895  0.1211 -0.5406
 8147SOL     OW36073   1.692   2.629   2.155 -0.0396  0.3578  0.3188
 8147SOL    HW136074   1.751   2.652   2.227  0.7236  0.3414 -0.3000
 8147SOL    HW236075   1.613   2.677   2.180  0.2111  0.0084  1.8027
 8148SOL     OW36076   1.618   2.797  13.523 -0.0428  0.1333 -0.0822
 8148SOL    HW136077   1.562   2.759  13.591 -1.9317 -0.2756 -1.8476
 8148SOL    HW236078   1.694   2.814  13.578  0.7750 -1.3902 -0.7414
 8149SOL     OW36079   4.149   3.850   4.376  0.2946 -0.0365  0.4507
 8149SOL    HW136080   4.165   3.809   4.291 -0.7736  2.2784 -0.8514
 8149SOL    HW236081   4.187   3.936   4.356  3.4419 -2.1918 -2.9360
 8150SOL     OW36082   2.084   4.158  14.786  0.1635  0.8926 -0.9801
 8150SOL    HW136083   2.026   4.088  14.817  0.6623  1.3904  1.0445
 8150SOL    HW236084   2.173   4.131  14.810  0.4021  2.9241  0.4539
 8151SOL     OW36085   2.695   0.828   3.019 -0.3089 -0.1838  0.3754
 8151SOL    HW136086   2.706   0.755   3.079  1.2343 -0.0456  0.2649
 8151SOL    HW236087   2.732   0.785   2.942  2.2128  0.3480  1.2813
 8152SOL     OW36088   1.884   0.887   6.789  0.1438 -0.3055 -0.0549
 8152SOL    HW136089   1.891   0.864   6.697 -0.4422 -0.1070 -0.1502
 8152SOL    HW236090   1.946   0.960   6.794  0.3507 -0.6690  2.9019
 8153SOL     OW36091   0.807   1.798   7.617 -0.0830 -0.1411  0.3100
 8153SOL    HW136092   0.796   1.770   7.708 -0.9881 -1.0252 -0.0685
 8153SOL    HW236093   0.884   1.854   7.627  0.3951 -1.0019  1.3830
 8154SOL     OW36094   1.476   4.608   8.522  0.1616 -0.5079  0.6631
 8154SOL    HW136095   1.493   4.689   8.474  0.4468 -0.7185  0.4025
 8154SOL    HW236096   1.384   4.618   8.547  0.0822 -0.2571  0.2751
 8155SOL     OW36097   1.766   2.485   2.507  0.4319  0.2200  0.1802
 8155SOL    HW136098   1.674   2.511   2.513  0.2825 -0.1855 -0.3520
 8155SOL    HW236099   1.796   2.558   2.453 -0.1568 -1.6219 -2.6184
 8156SOL     OW36100   0.117   2.460   8.912 -0.4718  0.0297 -0.8220
 8156SOL    HW136101   0.111   2.484   9.005  0.4580  0.2263 -0.8124
 8156SOL    HW236102   0.198   2.409   8.913  0.6642  1.8200 -1.9411
 8157SOL     OW36103   1.804   0.254   4.398 -0.2899 -0.4565 -0.3436
 8157SOL    HW136104   1.794   0.212   4.484 -0.4033 -1.1691 -0.7051
 8157SOL    HW236105   1.888   0.215   4.372  0.1367 -1.2986  2.2320
 8158SOL     OW36106   1.916   3.834   7.773  0.1357  0.3287  0.1311
 8158SOL    HW136107   1.937   3.803   7.685 -0.3509 -1.6637  0.7137
 8158SOL    HW236108   1.947   3.759   7.824  1.4473  0.1959 -0.8684
 8159SOL     OW36109   2.435   3.765   9.564 -0.0925  0.5299 -0.3025
 8159SOL    HW136110   2.368   3.740   9.627  0.8841  0.8484  0.8609
 8159SOL    HW236111   2.379   3.802   9.496 -1.8013  0.2134  0.9253
 8160SOL     OW36112   0.129   2.350   3.585  0.0431  0.1745 -0.1555
 8160SOL    HW136113   0.217   2.330   3.618  0.3247 -0.2363 -1.1716
 8160SOL    HW236114   0.074   2.324   3.659  1.0189 -1.7720 -0.1462
 8161SOL     OW36115   0.631   0.067  14.982  0.0803 -0.4119 -0.0117
 8161SOL    HW136116   0.690   4.727  14.985 -2.0843 -1.9873  2.4631
 8161SOL    HW236117   0.594   0.048  14.896 -1.9553 -0.3466  0.8567
 8162SOL     OW36118   0.621   0.164   0.395  0.5408 -0.0896 -0.2581
 8162SOL    HW136119   0.661   0.127   0.316  2.6843  2.1685 -0.2209
 8162SOL    HW236120   0.612   0.087   0.452  1.8106  1.3229  1.8414
 8163SOL     OW36121   2.991   0.796   1.411  0.1967  0.0674  0.0467
 8163SOL    HW136122   3.072   0.816   1.365 -1.0456  0.9996 -1.7167
 8163SOL    HW236123   2.927   0.868   1.413  0.8111  0.5886  1.1084
 8164SOL     OW36124   0.384   4.638  11.166 -0.3120  0.2294 -0.0831
 8164SOL    HW136125   0.390   4.664  11.074  0.8579 -0.6557 -0.2633
 8164SOL    HW236126   0.368   4.543  11.161 -1.6581  0.5114 -1.1977
 8165SOL     OW36127   0.360   2.858  11.179 -0.3433  0.5045  0.1424
 8165SOL    HW136128   0.382   2.882  11.269 -0.3356 -1.8817  0.7689
 8165SOL    HW236129   0.288   2.795  11.188  1.4217 -1.2281  2.1739
 8166SOL     OW36130   2.674   3.717  15.998  0.4793  0.2374 -0.1821
 8166SOL    HW136131   2.734   3.656  16.040 -1.3183 -2.5800 -1.6659
 8166SOL    HW236132   2.606   3.658  15.965  1.2081  0.5861 -2.2627
 8167SOL     OW36133   1.798   1.191   8.027  0.4900 -0.2917  0.2453
 8167SOL    HW136134   1.825   1.142   8.105 -0.2864 -1.3938 -0.1787
 8167SOL    HW236135   1.709   1.157   8.019 -0.0439  1.4594 -1.1911
 8168SOL     OW36136   3.644   0.521   2.704 -0.0901 -0.3938 -0.3040
 8168SOL    HW136137   3.583   0.590   2.732 -0.4583  0.4523 -3.0784
 8168SOL    HW236138   3.612   0.454   2.763  2.2042  0.2874  1.7190
 8169SOL     OW36139   4.592   2.850   9.882 -0.4812 -0.2739 -0.6173
 8169SOL    HW136140   4.548   2.920   9.929  1.3085  2.2829 -2.7606
 8169SOL    HW236141   4.540   2.770   9.891  0.3294 -0.4580  2.2134
 8170SOL     OW36142   0.276   2.507   4.571 -0.2803 -0.4382 -0.3825
 8170SOL    HW136143   0.364   2.545   4.564 -0.6593  0.2198 -1.5107
 8170SOL    HW236144   0.292   2.430   4.626 -1.2994 -1.1628 -1.0913
 8171SOL     OW36145   1.459   1.843   8.032 -0.0736 -0.3239 -0.1439
 8171SOL    HW136146   1.553   1.861   8.032 -0.1544  0.0980 -0.2156
 8171SOL    HW236147   1.439   1.909   8.099  0.8413 -1.4247  1.2150
 8172SOL     OW36148   3.965   2.558   3.420 -0.1985  0.5132 -0.5124
 8172SOL    HW136149   3.876   2.527   3.404 -0.0850  0.0520 -0.2569
 8172SOL    HW236150   3.987   2.512   3.501 -0.7899  0.3690 -0.4391
 8173SOL     OW36151   0.724   3.329   8.407  0.2758  0.1318 -0.1301
 8173SOL    HW136152   0.631   3.344   8.388  0.3959 -0.2200 -0.9988
 8173SOL    HW236153   0.734   3.396   8.475  0.0429  1.6298 -1.5709
 8174SOL     OW36154   2.569   0.275   3.985 -0.4401 -0.7098  0.0835
 8174SOL    HW136155   2.635   0.282   3.916 -0.9165 -0.6366 -0.3660
 8174SOL    HW236156   2.628   0.237   4.050 -1.0868 -4.8874 -1.7759
 8175SOL     OW36157   2.579   2.518  14.445  0.1979  0.6765  0.2354
 8175SOL    HW136158   2.639   2.445  14.458  2.3732  3.0860  3.7582
 8175SOL    HW236159   2.613   2.554  14.363  0.8478  0.1322  0.2645
 8176SOL     OW36160   3.839   1.533   6.861  0.1099  0.0813 -0.2226
 8176SOL    HW136161   3.832   1.628   6.847 -0.5860  0.1943  0.9010
 8176SOL    HW236162   3.885   1.513   6.780 -0.7612 -0.6846 -0.5322
 8177SOL     OW36163   2.924   0.324   6.843  0.0441  0.2149 -0.3368
 8177SOL    HW136164   2.861   0.370   6.787 -2.2513 -2.5146 -0.0064
 8177SOL    HW236165   2.993   0.300   6.781 -0.3726  1.5338 -1.3108
 8178SOL     OW36166   4.517   1.043   5.126  0.6953  0.2445 -0.1369
 8178SOL    HW136167   4.536   0.995   5.046  1.6811 -3.1277  2.1171
 8178SOL    HW236168   4.604   1.038   5.167 -0.0768 -2.6460  1.1304
 8179SOL     OW36169   3.163   3.866  16.328  0.1562 -0.3892  0.1485
 8179SOL    HW136170   3.254   3.882  16.351  0.8130 -2.4068 -1.0906
 8179SOL    HW236171   3.116   3.849  16.410  1.5834 -0.3632  0.9569
 8180SOL     OW36172   2.782   3.703  12.841  0.4709 -0.2334 -0.8510
 8180SOL    HW136173   2.847   3.720  12.910 -1.5695  0.2353  0.9426
 8180SOL    HW236174   2.807   3.770  12.778  1.2481 -0.0614 -0.3628
 8181SOL     OW36175   3.384   1.991   4.269  0.6209 -0.1450 -0.2197
 8181SOL    HW136176   3.414   1.906   4.302 -0.9921 -0.8791 -0.6172
 8181SOL    HW236177   3.325   2.007   4.343  0.9658 -1.0368  0.2544
 8182SOL     OW36178   0.893   2.958   5.736  0.0513  0.1230  0.7453
 8182SOL    HW136179   0.821   2.984   5.792 -0.8707 -1.0682  0.0976
 8182SOL    HW236180   0.864   2.869   5.716 -0.2020 -0.1054  2.1768
 8183SOL     OW36181   2.824   4.300  11.209 -0.0270 -0.1979  0.3301
 8183SOL    HW136182   2.815   4.383  11.163  0.6526 -0.6715 -0.6639
 8183SOL    HW236183   2.788   4.240  11.143  1.8168 -2.7119  1.5854
 8184SOL     OW36184   3.839   4.269   3.035  0.5876  0.4765  0.1127
 8184SOL    HW136185   3.791   4.292   2.955  0.4237  2.3896  0.7571
 8184SOL    HW236186   3.922   4.316   3.023  1.3418 -0.9589 -0.2853
 8185SOL     OW36187   4.291   0.045   3.209 -0.2651 -0.1332  0.5614
 8185SOL    HW136188   4.223   4.735   3.258  1.3784 -2.8648  0.2852
 8185SOL    HW236189   4.267   0.138   3.205  2.0088  0.4601  0.4085
 8186SOL     OW36190   4.292   1.788   1.418 -0.1194 -0.1992  0.3432
 8186SOL    HW136191   4.324   1.812   1.331  0.0470  2.0500  1.0186
 8186SOL    HW236192   4.365   1.806   1.476 -0.5164 -1.3730  1.2164
 8187SOL     OW36193   1.410   0.317   3.454 -0.1123 -0.2575 -0.2952
 8187SOL    HW136194   1.421   0.261   3.378 -0.0962 -1.6970  0.7603
 8187SOL    HW236195   1.466   0.384   3.416 -2.0839  1.0994 -0.7791
 8188SOL     OW36196   2.481   1.209   7.383  0.7355 -0.2089 -0.2020
 8188SOL    HW136197   2.479   1.286   7.440 -1.6016 -0.8686  0.6169
 8188SOL    HW236198   2.426   1.142   7.423  1.0792 -0.6042 -0.3889
 8189SOL     OW36199   2.404   0.274   2.507 -0.7379 -0.1925  0.8513
 8189SOL    HW136200   2.324   0.324   2.522 -1.3568 -0.4354 -1.5912
 8189SOL    HW236201   2.373   0.242   2.422 -2.8868 -0.5625  1.7789
 8190SOL     OW36202   3.251   0.482   4.147  0.3306  0.0176  0.1616
 8190SOL    HW136203   3.298   0.535   4.082 -0.5475  0.4685 -0.1016
 8190SOL    HW236204   3.326   0.422   4.149  0.3808  0.0527 -0.8222
 8191SOL     OW36205   4.607   0.225   4.278 -0.5314  0.2554  0.0138
 8191SOL    HW136206   4.616   0.309   4.323 -0.0935  0.2393 -0.0373
 8191SOL    HW236207   4.700   0.208   4.260 -0.1901  0.5897  1.4068
 8192SOL     OW36208   3.584   3.435   0.575  0.2031 -0.1934 -0.7862
 8192SOL    HW136209   3.675   3.445   0.548  0.2378  1.2519 -0.1052
 8192SOL    HW236210   3.580   3.391   0.660 -1.6066 -0.2337 -0.8950
 8193SOL     OW36211   1.568   4.306   0.516 -0.4694 -0.4618 -0.0360
 8193SOL    HW136212   1.475   4.290   0.503 -0.4949  0.7237 -1.3444
 8193SOL    HW236213   1.572   4.289   0.610  1.0490 -1.2551 -0.2506
 8194SOL     OW36214   2.908   3.589  11.795 -0.6772 -0.1046 -0.2232
 8194SOL    HW136215   2.857   3.671  11.790 -0.6397 -0.0688 -0.0017
 8194SOL    HW236216   2.995   3.627  11.803 -0.3330 -1.1587  0.9947
 8195SOL     OW36217   1.922   4.423   1.410  0.9612 -0.6367 -0.2513
 8195SOL    HW136218   1.999   4.477   1.396  0.4469  0.4170  1.0025
 8195SOL    HW236219   1.848   4.480   1.394  2.2895  1.5664  1.4435
 8196SOL     OW36220   1.892   1.769   8.227  0.5235  1.2960 -0.3494
 8196SOL    HW136221   1.950   1.698   8.256 -0.5870  0.3166 -0.5383
 8196SOL    HW236222   1.854   1.785   8.313  1.0227 -2.3112  0.5247
 8197SOL     OW36223   0.342   2.554   7.878 -0.0325 -0.3286  0.1131
 8197SOL    HW136224   0.389   2.631   7.846 -0.8179  0.6772  1.4035
 8197SOL    HW236225   0.290   2.518   7.806  2.1196  0.1173 -1.6578
 8198SOL     OW36226   3.731   3.307  10.611  0.6734 -0.2872 -0.3488
 8198SOL    HW136227   3.752   3.252  10.686  0.7174 -0.1002 -0.2256
 8198SOL    HW236228   3.728   3.243  10.540  0.8283 -0.9979  0.2913
 8199SOL     OW36229   3.331   2.635   8.706  0.3020  0.6821  0.2177
 8199SOL    HW136230   3.298   2.678   8.627  0.5800  2.4508  1.0654
 8199SOL    HW236231   3.360   2.547   8.683 -0.1136  1.2385 -2.4007
 8200SOL     OW36232   2.608   3.998   8.377  1.0430 -0.2355  0.4087
 8200SOL    HW136233   2.695   3.997   8.418  1.2848  1.3581 -0.0766
 8200SOL    HW236234   2.565   4.010   8.462  1.9344 -0.9408  0.9666
 8201SOL     OW36235   2.585   3.399   6.856 -0.3179  0.4397  0.0182
 8201SOL    HW136236   2.646   3.458   6.901 -0.5886  0.9348 -0.2687
 8201SOL    HW236237   2.532   3.380   6.933 -0.0963 -0.0076  0.0620
 8202SOL     OW36238   4.283   3.334  15.503 -0.2332  0.0338  0.0083
 8202SOL    HW136239   4.192   3.352  15.525 -0.8829 -1.3420 -1.6278
 8202SOL    HW236240   4.312   3.425  15.494 -0.7548 -0.1325 -3.3103
 8203SOL     OW36241   2.640   0.761   8.544 -0.5618 -0.6559  0.0281
 8203SOL    HW136242   2.564   0.744   8.599  0.6884 -2.6734  1.1025
 8203SOL    HW236243   2.686   0.679   8.559 -0.4554 -0.8290 -1.2584
 8204SOL     OW36244   2.877   3.922   6.882  0.3234 -0.7901 -0.1006
 8204SOL    HW136245   2.955   3.874   6.909  0.6044  0.1027  0.6687
 8204SOL    HW236246   2.804   3.889   6.935  0.8307 -0.5282  0.7623
 8205SOL     OW36247   0.132   3.446   5.266 -0.4212 -0.2554 -0.1752
 8205SOL    HW136248   0.134   3.427   5.172 -1.7325 -1.3167  0.0223
 8205SOL    HW236249   0.147   3.540   5.260  0.1411 -0.2744  0.9013
 8206SOL     OW36250   4.567   3.905   9.153 -0.2284  0.1228  0.4554
 8206SOL    HW136251   4.588   3.820   9.112 -1.8756  0.3904 -0.9534
 8206SOL    HW236252   4.505   3.869   9.216 -1.2596 -1.1791 -1.2779
 8207SOL     OW36253   2.859   2.404   7.354  0.1614  0.1901 -0.7812
 8207SOL    HW136254   2.816   2.482   7.391  0.0614 -0.7146  1.0289
 8207SOL    HW236255   2.840   2.426   7.263  0.5603 -0.6773 -1.0669
 8208SOL     OW36256   1.886   3.528   6.558  0.1375 -0.1505 -0.4437
 8208SOL    HW136257   1.909   3.460   6.495  0.6363  1.3843 -1.9151
 8208SOL    HW236258   1.816   3.577   6.515 -0.2363  0.4985  0.9019
 8209SOL     OW36259   0.734   0.225   2.240 -0.2318 -0.0599  0.2260
 8209SOL    HW136260   0.685   0.258   2.165 -0.1352  0.7896  0.5378
 8209SOL    HW236261   0.799   0.292   2.262 -0.1929 -0.4648  1.3479
 8210SOL     OW36262   3.446   0.053   6.766  0.0252  0.6342  0.4187
 8210SOL    HW136263   3.458   0.057   6.671 -0.9147  3.9542  0.4545
 8210SOL    HW236264   3.414   4.699   6.776  1.4318  0.1931  0.9619
 8211SOL     OW36265   1.901   1.257  11.760 -0.2214  0.4174  0.7506
 8211SOL    HW136266   1.887   1.312  11.837  0.6531  3.2815 -1.1339
 8211SOL    HW236267   1.856   1.177  11.788 -1.1688  0.1006 -1.6715
 8212SOL     OW36268   2.552   2.015   3.033 -0.2350  0.1218  0.2352
 8212SOL    HW136269   2.598   1.942   3.075  0.5137 -0.2520 -1.2302
 8212SOL    HW236270   2.607   2.035   2.957  1.3498 -2.0562  0.8243
 8213SOL     OW36271   2.287   2.710   7.770  0.5169  0.4452 -0.1827
 8213SOL    HW136272   2.291   2.759   7.852 -0.6146 -1.8956  1.2448
 8213SOL    HW236273   2.240   2.771   7.712  0.6523  0.1756 -0.5738
 8214SOL     OW36274   4.634   3.417   3.750  0.0497  0.5478 -0.0743
 8214SOL    HW136275   4.691   3.385   3.681  0.2211  1.2852 -0.2716
 8214SOL    HW236276   4.690   3.418   3.828  0.9300 -3.2073 -0.6694
 8215SOL     OW36277   3.492   0.262   5.444 -0.1688  0.4756  0.2655
 8215SOL    HW136278   3.397   0.253   5.435 -0.2071  1.6694 -0.5152
 8215SOL    HW236279   3.518   0.276   5.353 -0.4152  0.5639  0.2101
 8216SOL     OW36280   3.160   1.314   9.361 -0.2575  0.0602 -0.1016
 8216SOL    HW136281   3.209   1.393   9.385  0.5539 -0.9525  1.5625
 8216SOL    HW236282   3.227   1.247   9.376  1.7406  2.2820  0.9652
 8217SOL     OW36283   2.890   0.186   7.090 -0.0469 -0.5283  0.2816
 8217SOL    HW136284   2.898   0.262   7.032 -1.3785 -0.6425 -0.0590
 8217SOL    HW236285   2.956   0.218   7.152 -0.1615  2.3699 -1.0593
 8218SOL     OW36286   0.015   1.012   6.918  0.1445  0.2378 -0.8922
 8218SOL    HW136287   0.031   1.027   7.011 -1.0532  2.1654 -0.9957
 8218SOL    HW236288   4.657   1.001   6.931 -0.1599  1.8101 -1.8223
 8219SOL     OW36289   2.318   2.311   3.248 -0.0933  0.2149 -0.1454
 8219SOL    HW136290   2.368   2.378   3.202  0.7236  0.5055  1.1518
 8219SOL    HW236291   2.231   2.350   3.250  0.1450  0.7329  0.2658
 8220SOL     OW36292   3.177   4.366   6.487  0.1759  0.5199  0.1568
 8220SOL    HW136293   3.186   4.294   6.549 -0.3493  0.4684  0.1781
 8220SOL    HW236294   3.142   4.438   6.540  3.0863  0.4090  2.2321
 8221SOL     OW36295   1.227   1.437   7.734  0.2687  0.6964 -0.4833
 8221SOL    HW136296   1.271   1.521   7.749 -0.2309  0.6141  1.3884
 8221SOL    HW236297   1.146   1.465   7.692 -0.3203 -1.5114 -0.8068
 8222SOL     OW36298   2.372   2.054  15.118  0.0246 -0.3109 -0.2007
 8222SOL    HW136299   2.397   2.085  15.205 -1.4038 -0.0976  0.1413
 8222SOL    HW236300   2.453   2.070  15.069  0.0451 -1.2237 -0.4561
 8223SOL     OW36301   4.262   2.618   8.242 -0.5867 -0.3952  0.1565
 8223SOL    HW136302   4.332   2.682   8.232  0.3106 -1.7615 -2.1764
 8223SOL    HW236303   4.196   2.669   8.289 -1.1963 -1.4385  0.4376
 8224SOL     OW36304   0.620   3.262   7.101  0.3516  0.3122  0.2987
 8224SOL    HW136305   0.606   3.196   7.033 -2.2548  0.4331  0.7368
 8224SOL    HW236306   0.712   3.285   7.090 -0.1339  3.1180  2.0399
 8225SOL     OW36307   2.436   0.866  11.714  0.0570 -0.2172 -0.6045
 8225SOL    HW136308   2.425   0.937  11.776  0.3968  0.9573 -1.8912
 8225SOL    HW236309   2.431   0.923  11.637 -0.7915  0.0392 -0.3613
 8226SOL     OW36310   0.914   2.116   5.117  0.5786  0.3126  0.5026
 8226SOL    HW136311   0.991   2.060   5.126  0.9399  0.8220  0.5512
 8226SOL    HW236312   0.908   2.136   5.023 -1.5328 -0.7016  0.4101
 8227SOL     OW36313   1.934   0.539  13.019  0.3857  0.1358 -0.3505
 8227SOL    HW136314   1.848   0.573  12.994  0.7495  0.9342 -0.5297
 8227SOL    HW236315   1.974   0.509  12.937 -1.3481  0.5813 -1.3451
 8228SOL     OW36316   0.878   0.982   4.773 -0.0353 -0.0918 -0.4224
 8228SOL    HW136317   0.842   1.054   4.720 -1.1521  0.1573  0.6505
 8228SOL    HW236318   0.794   0.938   4.787  1.2309 -1.6485  2.2231
 8229SOL     OW36319   4.081   2.773   5.536 -0.1049  0.2024  0.1391
 8229SOL    HW136320   4.088   2.868   5.520 -3.5991  0.4268 -0.1216
 8229SOL    HW236321   3.986   2.760   5.525 -0.4808 -0.0945  3.8821
 8230SOL     OW36322   4.370   2.019  13.809  0.3803 -0.5577  0.3042
 8230SOL    HW136323   4.337   2.038  13.896 -0.7701 -0.2375 -0.2054
 8230SOL    HW236324   4.431   2.092  13.799  1.2734 -1.5043 -1.2637
 8231SOL     OW36325   3.281   3.089  16.874  0.6456 -0.1289 -0.4409
 8231SOL    HW136326   3.312   3.028  16.942  2.6165  0.2835 -0.9729
 8231SOL    HW236327   3.369   3.123  16.858 -0.1011  1.5621 -0.9382
 8232SOL     OW36328   3.657   1.712   5.778  0.5453  0.1394  0.0002
 8232SOL    HW136329   3.630   1.632   5.823  1.5101  0.6583  1.5183
 8232SOL    HW236330   3.605   1.782   5.817  1.7496  1.6863 -1.1427
 8233SOL     OW36331   3.250   0.394   9.206  0.0766 -0.1266  0.1719
 8233SOL    HW136332   3.170   0.413   9.157  0.7383  1.5655 -0.2644
 8233SOL    HW236333   3.259   0.465   9.269 -1.2986 -0.9316  1.2756
 8234SOL     OW36334   4.369   3.124  15.350 -0.1451 -0.4421  0.1101
 8234SOL    HW136335   4.320   3.181  15.410  3.0835  2.3271  0.1240
 8234SOL    HW236336   4.430   3.190  15.317  1.0669 -2.2235 -1.1792
 8235SOL     OW36337   2.035   2.251   4.040 -0.2051 -0.6212 -0.1835
 8235SOL    HW136338   1.967   2.301   4.086  0.8326  1.5225 -1.0058
 8235SOL    HW236339   2.095   2.229   4.111 -1.0136 -2.1680  0.0376
 8236SOL     OW36340   1.270   3.601  17.334  0.5201 -0.2543 -0.3649
 8236SOL    HW136341   1.213   3.617  17.409 -0.4249  0.1772 -1.1843
 8236SOL    HW236342   1.205   3.589  17.265  1.6117 -2.0100 -1.1042
 8237SOL     OW36343   1.247   3.451  13.602  0.1480 -0.5240  0.2796
 8237SOL    HW136344   1.212   3.529  13.559  1.1389 -0.5854 -0.6507
 8237SOL    HW236345   1.260   3.383  13.536  0.4849  0.9606 -1.1874
 8238SOL     OW36346   2.929   3.213   3.178  0.3339  0.3689  0.2753
 8238SOL    HW136347   3.019   3.230   3.205  1.3154 -1.3587 -1.8906
 8238SOL    HW236348   2.883   3.295   3.159  1.5256  0.4460 -2.3792
 8239SOL     OW36349   1.201   4.366  15.556  0.4401 -0.0383 -0.5574
 8239SOL    HW136350   1.161   4.453  15.549 -1.6397 -0.9654 -0.0565
 8239SOL    HW236351   1.251   4.364  15.474  3.4179 -2.8775  1.3514
 8240SOL     OW36352   0.049   1.635  17.615 -0.0500 -0.0689  0.3879
 8240SOL    HW136353   0.039   1.692  17.538  0.9586 -0.9892 -0.4192
 8240SOL    HW236354   0.141   1.655  17.631 -0.0983 -0.3880  1.0311
 8241SOL     OW36355   2.800   2.407   9.233 -0.1310 -0.2803 -0.0566
 8241SOL    HW136356   2.867   2.423   9.301 -0.5604 -0.9823  0.5365
 8241SOL    HW236357   2.759   2.324   9.260 -0.3017 -0.4954 -1.0064
 8242SOL     OW36358   4.203   0.301   3.156 -0.0924 -0.0248  0.1709
 8242SOL    HW136359   4.141   0.374   3.151  0.4223  0.3499 -0.9445
 8242SOL    HW236360   4.282   0.351   3.131  1.6630 -2.2290  1.3251
 8243SOL     OW36361   0.613   0.210  12.495 -0.8877 -0.7408  0.2325
 8243SOL    HW136362   0.647   0.237  12.409 -2.0066 -1.8147 -0.5629
 8243SOL    HW236363   0.634   0.116  12.490  1.3423 -0.2857  1.0824
 8244SOL     OW36364   1.466   1.010   6.742 -0.0987  0.1360  0.0807
 8244SOL    HW136365   1.436   1.038   6.828 -1.6289 -4.1457  0.9770
 8244SOL    HW236366   1.555   1.044   6.736 -0.2173  0.4525  0.1437
 8245SOL     OW36367   0.355   3.690   5.846  0.0483  0.2959 -0.0560
 8245SOL    HW136368   0.369   3.608   5.892  2.4426  0.3944 -0.5973
 8245SOL    HW236369   0.371   3.746   5.922  0.9465  0.6862 -0.5326
 8246SOL     OW36370   2.219   4.393   6.892 -0.0287 -0.0600 -0.3042
 8246SOL    HW136371   2.240   4.385   6.799  0.6633  1.2964 -0.2653
 8246SOL    HW236372   2.221   4.488   6.903  2.4131 -0.3491  1.5668
 8247SOL     OW36373   4.407   1.857   2.336 -0.0517 -0.1642 -0.1926
 8247SOL    HW136374   4.485   1.897   2.374  0.2952 -0.8674 -0.1639
 8247SOL    HW236375   4.444   1.789   2.280  0.5756  0.2659 -0.2863
 8248SOL     OW36376   3.769   4.734   2.625  0.2450 -0.5614  0.7744
 8248SOL    HW136377   3.680   4.706   2.606  0.7950 -1.2660 -0.7730
 8248SOL    HW236378   3.810   4.733   2.538 -0.2467  1.7463  0.5082
 8249SOL     OW36379   3.570   1.466   4.271 -0.1733  0.3257 -0.0223
 8249SOL    HW136380   3.493   1.411   4.282 -0.0347  0.3887  1.2959
 8249SOL    HW236381   3.638   1.405   4.300 -0.5307 -0.1568 -0.2087
 8250SOL     OW36382   1.168   1.068  14.281 -0.6382 -0.4629  0.3575
 8250SOL    HW136383   1.128   1.023  14.206  0.6505  2.1171 -1.8675
 8250SOL    HW236384   1.120   1.020  14.349 -1.6425 -1.7363 -1.2397
 8251SOL     OW36385   3.844   2.977   5.252 -0.4798  0.1581 -0.1490
 8251SOL    HW136386   3.885   3.061   5.271 -0.9516  0.2411  0.5035
 8251SOL    HW236387   3.914   2.915   5.276 -0.0719  1.3057  1.6327
 8252SOL     OW36388   4.638   2.487   6.110  0.4451 -0.8398  0.1558
 8252SOL    HW136389   4.613   2.445   6.192  1.2245 -1.1642  0.2262
 8252SOL    HW236390   4.721   2.441   6.112  1.4395  1.0213  1.7349
 8253SOL     OW36391   1.806   1.914   9.273 -0.1728  0.3650  0.4622
 8253SOL    HW136392   1.764   1.969   9.206 -1.9038  0.3788  1.5660
 8253SOL    HW236393   1.830   1.834   9.226 -1.3463 -0.7337  1.7308
 8254SOL     OW36394   0.996   3.831  16.082 -0.3311 -0.3097  0.1889
 8254SOL    HW136395   0.944   3.909  16.062  0.0886  0.1412  0.8487
 8254SOL    HW236396   1.040   3.867  16.159 -0.1426 -1.0525  0.4278
 8255SOL     OW36397   2.348   2.358  16.302  0.1605 -0.2742 -0.3544
 8255SOL    HW136398   2.423   2.392  16.352  0.2480 -0.4496 -0.3693
 8255SOL    HW236399   2.282   2.399  16.359 -0.9275 -1.1593 -0.9819
 8256SOL     OW36400   0.722   2.664   9.074  0.6321 -0.3962 -0.0894
 8256SOL    HW136401   0.666   2.622   9.008  1.5383 -2.0788  0.2176
 8256SOL    HW236402   0.673   2.651   9.155  0.9141  2.2928  0.5035
 8257SOL     OW36403   0.566   1.838   2.602 -0.0729 -0.0380 -0.2058
 8257SOL    HW136404   0.483   1.810   2.640  0.4501 -0.1183  0.8922
 8257SOL    HW236405   0.547   1.885   2.521  1.2204  2.1830  0.7454
 8258SOL     OW36406   2.469   1.897   4.911  0.0385  0.5111 -0.1642
 8258SOL    HW136407   2.470   1.864   4.822 -2.5578  1.0565 -0.3780
 8258SOL    HW236408   2.538   1.963   4.902  2.4899 -1.6699  2.4401
 8259SOL     OW36409   4.545   4.204   6.753 -0.1183 -0.3526 -0.3788
 8259SOL    HW136410   4.465   4.256   6.760  1.7795  2.5539 -0.2368
 8259SOL    HW236411   4.609   4.271   6.780  0.1756  0.1985 -2.4744
 8260SOL     OW36412   1.386   0.462   4.146 -0.4269 -0.0001 -0.7149
 8260SOL    HW136413   1.331   0.537   4.171 -0.5072 -0.3180  0.0430
 8260SOL    HW236414   1.469   0.475   4.191  1.4072 -0.6031 -3.9825
 8261SOL     OW36415   4.160   1.356   3.874  0.4376  0.0054  0.0320
 8261SOL    HW136416   4.108   1.277   3.887  0.8129 -0.2312  0.0976
 8261SOL    HW236417   4.161   1.393   3.962 -1.3530 -0.8821  0.4313
 8262SOL     OW36418   3.172   4.643   3.530 -0.0012  0.0240 -0.1900
 8262SOL    HW136419   3.147   4.570   3.475  0.0539  0.8130 -1.2621
 8262SOL    HW236420   3.117   4.621   3.605  0.0740 -0.4419 -0.2720
 8263SOL     OW36421   3.204   4.690   2.324 -0.2624  0.1175  0.1827
 8263SOL    HW136422   3.243   4.606   2.350  0.3398  0.5612  0.7162
 8263SOL    HW236423   3.117   4.683   2.363 -0.8676  1.1238 -0.9899
 8264SOL     OW36424   3.121   3.219  10.525  0.0578 -0.0838 -0.3152
 8264SOL    HW136425   3.168   3.178  10.453  0.9471 -2.7918  1.8299
 8264SOL    HW236426   3.174   3.186  10.597  0.8617  1.6431 -0.1077
 8265SOL     OW36427   4.149   3.116   3.139 -0.4527  0.4291 -0.2456
 8265SOL    HW136428   4.160   3.208   3.165  1.3322  0.9519 -2.8585
 8265SOL    HW236429   4.156   3.085   3.229 -1.7830 -0.1654 -0.3602
 8266SOL     OW36430   1.815   0.126  13.959 -0.2492  0.0006 -0.1104
 8266SOL    HW136431   1.843   0.040  13.927 -0.8971 -0.8372  1.5965
 8266SOL    HW236432   1.782   0.159  13.875  0.8708 -1.0312 -0.9580
 8267SOL     OW36433   4.341   0.459   3.961 -0.4267  0.1541 -0.4406
 8267SOL    HW136434   4.396   0.384   3.937 -2.4630 -1.2636 -0.6271
 8267SOL    HW236435   4.382   0.521   3.902  0.0931  0.6382  0.4198
 8268SOL     OW36436   0.732   2.760  16.193  0.2654 -0.8640  0.0691
 8268SOL    HW136437   0.823   2.792  16.194 -0.5177  1.3690 -0.0602
 8268SOL    HW236438   0.681   2.841  16.197  0.2571 -0.8982  0.6574
 8269SOL     OW36439   2.065   2.318   8.357  0.1482  0.0582 -0.1594
 8269SOL    HW136440   2.044   2.226   8.373  0.2446  0.1410  0.4606
 8269SOL    HW236441   1.987   2.354   8.316  0.9039  0.1533 -1.5059
 8270SOL     OW36442   2.086   0.585   3.818 -0.2253  0.6035 -0.4886
 8270SOL    HW136443   2.032   0.643   3.871  0.0978  0.4912 -0.0359
 8270SOL    HW236444   2.167   0.629   3.846 -0.0314 -1.1251  1.7636
 8271SOL     OW36445   3.552   1.803   2.823 -0.7885 -0.1283 -0.1945
 8271SOL    HW136446   3.482   1.794   2.888 -1.0119  0.5577 -0.3424
 8271SOL    HW236447   3.623   1.805   2.888 -0.5954  0.6353 -0.4237
 8272SOL     OW36448   3.006   0.369   5.952 -0.1220 -0.5632  0.5692
 8272SOL    HW136449   2.925   0.391   5.906  0.6510  0.7899 -0.1659
 8272SOL    HW236450   3.073   0.410   5.896 -0.1853 -0.1981  0.7600
 8273SOL     OW36451   4.031   3.660  11.192 -0.0101 -0.4653  0.0494
 8273SOL    HW136452   3.968   3.591  11.172 -1.4089 -0.0005  2.8998
 8273SOL    HW236453   4.068   3.670  11.104  0.9289  1.5909  0.6847
 8274SOL     OW36454   0.359   0.055   7.581 -0.3301  0.2644  0.4587
 8274SOL    HW136455   0.438   0.101   7.554  0.5755 -1.6053 -0.0860
 8274SOL    HW236456   0.293   0.091   7.522  0.0518  0.2984  0.0595
 8275SOL     OW36457   0.962   3.243   9.119  0.5200  0.5712 -0.5332
 8275SOL    HW136458   1.031   3.308   9.106 -0.4774  2.1058  1.7005
 8275SOL    HW236459   0.962   3.200   9.034 -0.4213 -0.0148 -0.2443
 8276SOL     OW36460   4.171   2.949  11.142 -0.5511 -0.4562 -0.5742
 8276SOL    HW136461   4.204   2.980  11.058  1.2585 -0.7091  0.0351
 8276SOL    HW236462   4.244   2.888  11.151 -1.3258 -1.1042  1.4274
 8277SOL     OW36463   2.062   3.161  13.118  0.4541 -0.4217 -0.2333
 8277SOL    HW136464   2.005   3.085  13.109  2.1901 -2.1142  3.2771
 8277SOL    HW236465   2.117   3.162  13.040  0.0274  0.9791 -0.5123
 8278SOL     OW36466   3.936   3.148   4.882  0.5099  0.2891 -0.3631
 8278SOL    HW136467   3.948   3.182   4.793  0.4498  0.9303 -0.1318
 8278SOL    HW236468   4.027   3.141   4.913 -0.1451  0.3184  1.5895
 8279SOL     OW36469   3.831   3.978   6.751  0.4242 -0.6103 -0.3570
 8279SOL    HW136470   3.900   3.922   6.784  0.1280 -0.6361  0.2112
 8279SOL    HW236471   3.779   3.999   6.829  1.8203 -0.4951  0.5408
 8280SOL     OW36472   0.409   2.231   9.132  0.5258 -0.4409  0.4820
 8280SOL    HW136473   0.473   2.240   9.061 -2.0279  1.0205 -1.6187
 8280SOL    HW236474   0.429   2.310   9.182 -0.4571  0.1804 -0.1078
 8281SOL     OW36475   0.316   1.505  10.563  0.2895  0.1161 -0.7474
 8281SOL    HW136476   0.340   1.571  10.629 -0.3687  0.3357 -0.7248
 8281SOL    HW236477   0.245   1.469  10.617  1.2101  1.2354  1.2064
 8282SOL     OW36478   3.897   3.283   7.904  0.4932  0.3275  0.7290
 8282SOL    HW136479   3.816   3.232   7.906  0.0400  1.0235 -0.0381
 8282SOL    HW236480   3.919   3.259   7.814 -1.9083 -1.7265  0.6833
 8283SOL     OW36481   4.457   2.969  15.587 -0.3357  0.3062 -0.0997
 8283SOL    HW136482   4.493   2.975  15.675 -0.0340  0.6244 -0.2439
 8283SOL    HW236483   4.519   3.014  15.530  0.2895  1.5128  1.5568
 8284SOL     OW36484   3.754   4.057   6.289  0.2578  0.5413  0.4228
 8284SOL    HW136485   3.664   4.086   6.275  0.1151 -0.6470 -1.0773
 8284SOL    HW236486   3.795   4.131   6.335  3.0847  0.5759 -2.1579
 8285SOL     OW36487   2.668   0.399   3.470  0.0645  0.1728 -0.2439
 8285SOL    HW136488   2.742   0.339   3.464  0.4761  0.9404 -2.7332
 8285SOL    HW236489   2.682   0.450   3.391 -1.7013  1.4996  0.2900
 8286SOL     OW36490   4.475   3.520   8.304 -0.0635 -0.2622  0.0109
 8286SOL    HW136491   4.519   3.436   8.311 -0.5881 -0.4670  0.8996
 8286SOL    HW236492   4.395   3.490   8.347  0.4129  0.2928  1.2821
 8287SOL     OW36493   1.970   1.095   3.902 -0.0267 -0.1112  0.3259
 8287SOL    HW136494   1.976   1.175   3.954  2.1151  1.4959 -2.4402
 8287SOL    HW236495   2.062   1.078   3.882 -0.3278  0.1311 -1.2216
 8288SOL     OW36496   4.628   3.422   9.695 -0.7487 -1.0843 -0.1940
 8288SOL    HW136497   4.615   3.464   9.610 -1.0915 -2.0058 -0.6030
 8288SOL    HW236498   4.617   3.494   9.757 -1.9678  0.8025 -2.6253
 8289SOL     OW36499   2.257   4.389   2.882 -0.0264 -0.5614 -0.3919
 8289SOL    HW136500   2.336   4.362   2.835  0.3064  0.5695 -0.4952
 8289SOL    HW236501   2.293   4.401   2.970 -2.8602  0.4387  0.6262
 8290SOL     OW36502   1.588   3.106   1.027  0.3430 -0.4484 -0.2830
 8290SOL    HW136503   1.571   3.027   0.977  0.8494  0.2790 -1.5942
 8290SOL    HW236504   1.665   3.147   0.989  0.1403 -0.0079 -0.2259
 8291SOL     OW36505   3.854   4.674   2.370 -1.0860  0.6433 -0.0011
 8291SOL    HW136506   3.934   4.622   2.360  0.8880  4.0989 -1.9952
 8291SOL    HW236507   3.836   4.692   2.278 -1.9441  0.2391  0.0840
 8292SOL     OW36508   2.323   2.254   7.792 -0.4076  0.5577  0.9075
 8292SOL    HW136509   2.280   2.230   7.710  0.9717  0.3238  0.2489
 8292SOL    HW236510   2.270   2.324   7.830 -0.7918  0.7934 -0.0662
 8293SOL     OW36511   3.618   4.539   4.359  0.0125 -0.7122  0.5997
 8293SOL    HW136512   3.589   4.513   4.446  2.0478 -2.2239  0.8268
 8293SOL    HW236513   3.663   4.622   4.375  1.2621 -0.8198 -2.4237
 8294SOL     OW36514   2.620   3.005   6.500  0.4730  0.0809  0.9503
 8294SOL    HW136515   2.607   3.044   6.586  1.5159 -1.0318  1.6117
 8294SOL    HW236516   2.632   3.083   6.446  0.7733  0.3021  1.3445
 8295SOL     OW36517   2.478   4.555   9.811 -0.0310  0.5863 -0.1910
 8295SOL    HW136518   2.397   4.592   9.845 -1.9175 -3.5809 -0.1701
 8295SOL    HW236519   2.531   4.620   9.857 -0.6382  0.1140  1.1889
 8296SOL     OW36520   2.517   0.260  12.439  0.0754  0.2322  0.1629
 8296SOL    HW136521   2.578   0.235  12.508  0.1967 -0.1556 -0.0908
 8296SOL    HW236522   2.476   0.178  12.413 -0.4125  0.5407 -0.0599
 8297SOL     OW36523   2.486   2.911   8.865  0.2221 -0.0123  0.4270
 8297SOL    HW136524   2.393   2.914   8.888 -0.2522  0.9589 -1.6433
 8297SOL    HW236525   2.524   2.852   8.931  3.2361  1.1887 -0.2686
 8298SOL     OW36526   1.891   0.640  11.887 -0.1321  0.1464 -0.1879
 8298SOL    HW136527   1.966   0.687  11.850  0.5078 -1.8800 -1.4395
 8298SOL    HW236528   1.936   0.609  11.965 -0.4967  0.1516  0.0275
 8299SOL     OW36529   4.368   2.817   7.155  0.4313  0.3823  0.0385
 8299SOL    HW136530   4.388   2.902   7.195  0.9170 -0.3628  1.3838
 8299SOL    HW236531   4.308   2.842   7.086  0.8472  1.5087  0.0813
 8300SOL     OW36532   1.851   1.657   6.392  0.1013 -0.3288 -0.1322
 8300SOL    HW136533   1.872   1.675   6.483  2.2237  2.1042 -1.1253
 8300SOL    HW236534   1.888   1.571   6.374 -1.5597 -1.2265  0.6615
 8301SOL     OW36535   2.166   4.229  10.291  0.2718 -0.1689 -0.5941
 8301SOL    HW136536   2.106   4.304  10.295  1.1392  0.5124 -0.4435
 8301SOL    HW236537   2.251   4.262  10.263  0.5201  0.1683  0.5738
 8302SOL     OW36538   0.013   1.664   2.904  0.3584 -0.0329  0.3627
 8302SOL    HW136539   4.654   1.678   2.907  0.6171  1.2042  2.4759
 8302SOL    HW236540   0.011   1.568   2.905  0.4712 -0.0497 -0.7735
 8303SOL     OW36541   4.216   0.233  12.077 -0.1205  0.2117  0.0617
 8303SOL    HW136542   4.209   0.185  12.159 -1.5960  2.8229  1.4539
 8303SOL    HW236543   4.310   0.252  12.081  0.5958 -2.7982 -2.3161
 8304SOL     OW36544   0.315   1.240   2.922  0.1167  0.6389  0.0238
 8304SOL    HW136545   0.371   1.222   2.997  0.2294 -1.4595 -0.5719
 8304SOL    HW236546   0.372   1.298   2.871  3.6394 -2.3117  0.6326
 8305SOL     OW36547   2.849   2.781   0.586 -0.3694  0.3858 -0.3529
 8305SOL    HW136548   2.910   2.783   0.659  0.8422 -0.6388 -1.3293
 8305SOL    HW236549   2.768   2.761   0.634 -1.2757 -0.9230 -2.4238
 8306SOL     OW36550   0.494   2.738  14.596 -0.0271 -0.5589 -0.8698
 8306SOL    HW136551   0.489   2.825  14.636  0.3807  0.5069 -3.1050
 8306SOL    HW236552   0.497   2.750  14.501  0.1245 -0.1453 -0.8129
 8307SOL     OW36553   4.615   1.743  15.902  0.0146  0.5221 -0.1355
 8307SOL    HW136554   4.649   1.829  15.876  3.8127 -1.9322 -3.1697
 8307SOL    HW236555   4.602   1.754  15.996  1.3795  2.2449 -0.1455
 8308SOL     OW36556   1.491   4.392  13.465 -0.0780 -0.1116  0.0988
 8308SOL    HW136557   1.479   4.447  13.388  2.2639  0.3053  0.0191
 8308SOL    HW236558   1.494   4.309  13.419 -2.6489 -0.1806  0.0463
 8309SOL     OW36559   1.605   3.627  15.375  0.5710 -0.1560  0.0507
 8309SOL    HW136560   1.545   3.556  15.398 -1.9390  1.4285 -1.6152
 8309SOL    HW236561   1.666   3.624  15.449 -0.3371 -0.7648  0.7707
 8310SOL     OW36562   3.824   3.090  13.038  0.0079 -0.5946 -0.2911
 8310SOL    HW136563   3.778   3.007  13.021  0.0742 -0.8525  0.8060
 8310SOL    HW236564   3.748   3.148  13.040  0.0215 -0.5765 -0.3060
 8311SOL     OW36565   1.558   3.084   3.163  0.1916 -0.1394 -0.2532
 8311SOL    HW136566   1.494   3.015   3.179 -1.2585  1.2911  0.1105
 8311SOL    HW236567   1.601   3.089   3.248 -2.3551  1.3435  0.9598
 8312SOL     OW36568   3.453   3.517   4.116 -0.1173  0.1739  0.5626
 8312SOL    HW136569   3.466   3.518   4.211 -0.7093 -1.2894  0.6540
 8312SOL    HW236570   3.510   3.444   4.092 -0.9064 -0.3740  0.3562
 8313SOL     OW36571   2.711   2.170   5.874 -0.6124 -0.2953  0.0159
 8313SOL    HW136572   2.767   2.176   5.798  1.5180 -1.7620  1.4831
 8313SOL    HW236573   2.642   2.231   5.848  0.2903 -0.0522 -1.7532
 8314SOL     OW36574   0.225   1.727  16.052 -0.2498 -0.4341 -0.4088
 8314SOL    HW136575   0.133   1.719  16.029 -0.4499  0.1796  0.1467
 8314SOL    HW236576   0.262   1.640  16.041  0.6009 -0.5137  2.9046
 8315SOL     OW36577   4.194   3.740   6.322  0.2565 -0.0722  0.1679
 8315SOL    HW136578   4.175   3.780   6.237  2.9296  0.4915 -0.1431
 8315SOL    HW236579   4.287   3.751   6.341  0.8964 -2.2256 -1.7750
 8316SOL     OW36580   1.056   2.124   9.063  0.0414 -0.4183  0.4624
 8316SOL    HW136581   1.074   2.215   9.087 -1.1053  0.7050 -2.9863
 8316SOL    HW236582   1.096   2.115   8.977  1.9658  3.8182  0.9007
 8317SOL     OW36583   3.370   4.566   4.808  0.2102 -0.0808 -0.0184
 8317SOL    HW136584   3.380   4.535   4.898  0.4019 -1.9946 -0.7040
 8317SOL    HW236585   3.274   4.563   4.804  0.1991 -1.3497  1.3088
 8318SOL     OW36586   3.605   3.377   6.826  0.0847  0.1136  0.1406
 8318SOL    HW136587   3.659   3.315   6.875  1.0388  2.8385  2.5283
 8318SOL    HW236588   3.575   3.433   6.897  2.5028  2.3266 -0.5875
 8319SOL     OW36589   3.056   4.252   4.872 -0.3914 -0.6034 -0.0042
 8319SOL    HW136590   2.971   4.283   4.903 -0.2502 -1.0966  0.8710
 8319SOL    HW236591   3.034   4.185   4.807 -0.3624  0.5686 -1.2136
 8320SOL     OW36592   2.323   1.750   5.437  0.1732  0.0423 -0.2060
 8320SOL    HW136593   2.283   1.828   5.476  1.5168  0.9259 -0.6124
 8320SOL    HW236594   2.279   1.686   5.494  0.0740 -1.4299 -1.9404
 8321SOL     OW36595   1.318   2.671   3.571 -0.0133 -0.4184  0.2370
 8321SOL    HW136596   1.317   2.653   3.477  0.6603  1.2331 -0.0904
 8321SOL    HW236597   1.244   2.622   3.606  0.5572  0.2579  2.3967
 8322SOL     OW36598   0.317   3.522   6.900  0.2355  0.1627 -0.2813
 8322SOL    HW136599   0.238   3.540   6.951 -0.9829  0.1134 -2.1345
 8322SOL    HW236600   0.283   3.546   6.814  2.0796 -2.3052 -1.7087
 8323SOL     OW36601   4.206   3.299   2.845  0.4278  0.0286 -0.2596
 8323SOL    HW136602   4.275   3.234   2.861  0.5231  0.1540 -0.1605
 8323SOL    HW236603   4.129   3.253   2.879 -0.3993  1.4908 -0.1651
 8324SOL     OW36604   2.939   4.180  15.823  0.7169  0.2711  0.1459
 8324SOL    HW136605   2.888   4.259  15.845  0.7198  1.3043 -3.3802
 8324SOL    HW236606   2.906   4.157  15.735 -0.4873  3.6310 -0.3016
 8325SOL     OW36607   1.694   3.264  11.384 -0.3652 -0.0888 -0.0050
 8325SOL    HW136608   1.768   3.290  11.330  1.1984 -0.0969  2.1278
 8325SOL    HW236609   1.710   3.178  11.423 -2.3781 -0.0507  0.9175
 8326SOL     OW36610   1.935   3.380   9.558  0.0831  0.0392 -0.3079
 8326SOL    HW136611   1.972   3.295   9.581  1.1410  0.1302 -1.6322
 8326SOL    HW236612   2.007   3.436   9.587 -0.2200  0.2448  0.0453
 8327SOL     OW36613   2.077   0.029   4.019  0.6032 -0.0873  0.2112
 8327SOL    HW136614   2.016   0.061   3.951  0.3425  0.0956  0.5279
 8327SOL    HW236615   2.148   0.093   4.014  1.3299 -0.8944  0.4205
 8328SOL     OW36616   3.077   2.565   7.159 -0.1864 -0.5603  0.7652
 8328SOL    HW136617   3.115   2.499   7.101  1.6050  1.2609 -0.1347
 8328SOL    HW236618   3.107   2.552   7.248  0.9949 -0.5812  0.3605
 8329SOL     OW36619   2.191   0.024  10.921  0.0041 -0.3224  0.2862
 8329SOL    HW136620   2.111   4.711  10.936  0.2739 -0.2544  1.9386
 8329SOL    HW236621   2.158   0.109  10.892  0.5971 -0.2511 -0.1807
 8330SOL     OW36622   3.945   0.460   6.792 -0.1727 -0.0177  0.2632
 8330SOL    HW136623   3.919   0.481   6.881 -0.6404 -0.8380  0.3280
 8330SOL    HW236624   3.947   0.544   6.746  1.4729  1.2684  2.7519
 8331SOL     OW36625   4.289   4.168   2.073 -0.3282 -0.1388 -0.8765
 8331SOL    HW136626   4.351   4.139   2.139 -0.3363  1.3446 -0.2181
 8331SOL    HW236627   4.323   4.113   2.002  1.6453  0.4090 -0.3491
 8332SOL     OW36628   0.823   0.559   8.290 -0.3720 -0.3769  0.2330
 8332SOL    HW136629   0.877   0.638   8.278 -0.3465 -0.3358  0.6198
 8332SOL    HW236630   0.889   0.491   8.279  2.0396  2.0571 -0.5467
 8333SOL     OW36631   2.513   2.642   2.956  1.0279 -0.4564 -0.0410
 8333SOL    HW136632   2.585   2.702   2.977  1.7546 -0.7961 -1.5823
 8333SOL    HW236633   2.565   2.588   2.897 -0.9790 -2.0835 -0.2978
 8334SOL     OW36634   2.330   3.691  10.536 -0.0155  0.1849  0.3777
 8334SOL    HW136635   2.270   3.764  10.554 -0.6310 -0.6634  1.7955
 8334SOL    HW236636   2.283   3.619  10.578  0.5607 -0.0905  0.5445
 8335SOL     OW36637   1.872   3.693   0.935  0.4978 -0.1733  0.2661
 8335SOL    HW136638   1.902   3.729   1.018 -0.1377 -0.4320  0.6113
 8335SOL    HW236639   1.872   3.599   0.956  4.5163 -0.1895  0.1701
 8336SOL     OW36640   2.713   1.072  15.852  0.0460  0.1257 -0.2343
 8336SOL    HW136641   2.704   1.150  15.907 -1.4093  0.8847 -1.5465
 8336SOL    HW236642   2.805   1.046  15.861  0.4077  0.8691 -1.7255
 8337SOL     OW36643   1.650   1.790   4.092 -0.3516 -0.3536 -0.0243
 8337SOL    HW136644   1.679   1.865   4.040 -2.1870  0.5726  0.3053
 8337SOL    HW236645   1.613   1.734   4.024 -2.5282  1.2423 -0.1337
 8338SOL     OW36646   3.848   3.307  12.812  0.3169  0.1769 -0.2625
 8338SOL    HW136647   3.881   3.218  12.827  2.2142  1.1857  1.5764
 8338SOL    HW236648   3.898   3.348  12.741 -0.0266 -0.5404 -0.9167
 8339SOL     OW36649   0.175   3.970   0.981 -0.4154  0.0375 -0.4884
 8339SOL    HW136650   0.230   3.903   0.939 -1.2611 -0.7762 -0.3113
 8339SOL    HW236651   0.233   4.046   0.980 -0.6329  0.2142  0.2198
 8340SOL     OW36652   0.889   0.788   0.564  0.0910 -0.6598  0.2040
 8340SOL    HW136653   0.874   0.842   0.487  1.2688  0.8757  1.0358
 8340SOL    HW236654   0.981   0.809   0.581 -0.4213 -0.1767  2.4742
 8341SOL     OW36655   3.720   4.181   4.748 -0.6773 -0.5908 -0.3017
 8341SOL    HW136656   3.752   4.182   4.658 -0.7260  1.0834 -0.2919
 8341SOL    HW236657   3.642   4.133   4.722 -0.6233 -1.2433  0.7264
 8342SOL     OW36658   3.729   3.084   7.921  0.4099  0.2718 -0.6983
 8342SOL    HW136659   3.810   3.037   7.900  0.9660  0.3019  1.3328
 8342SOL    HW236660   3.665   3.013   7.908  0.5321 -0.1565  1.0649
 8343SOL     OW36661   4.188   3.390   7.405  0.5034  0.0302 -0.6769
 8343SOL    HW136662   4.156   3.479   7.416  1.2870  0.1219  0.9615
 8343SOL    HW236663   4.248   3.383   7.479  1.0304  0.6971 -1.0371
 8344SOL     OW36664   1.978   0.365   5.538 -0.4631 -0.3465  0.4381
 8344SOL    HW136665   1.994   0.401   5.625  0.6705 -0.7512  0.4041
 8344SOL    HW236666   1.885   0.379   5.520 -0.7145 -1.5960  0.7268
 8345SOL     OW36667   4.043   4.030   7.692 -0.3772  0.0546 -0.4223
 8345SOL    HW136668   3.991   4.035   7.772  1.1837 -2.1302  0.7203
 8345SOL    HW236669   4.070   4.121   7.680 -0.9272  0.6787  3.2338
 8346SOL     OW36670   4.539   3.672   0.885 -0.1983 -0.0643  1.0183
 8346SOL    HW136671   4.562   3.765   0.891  0.6813 -0.0780 -2.3309
 8346SOL    HW236672   4.624   3.635   0.863 -0.0467  0.9309 -0.0569
 8347SOL     OW36673   3.333   0.245   4.424  0.5574  0.9375  0.3929
 8347SOL    HW136674   3.421   0.213   4.402  0.5235 -0.9746  2.9249
 8347SOL    HW236675   3.283   0.163   4.425  0.8397  0.7751  3.0615
 8348SOL     OW36676   4.246   3.429   8.409  0.7355 -0.2395 -0.3606
 8348SOL    HW136677   4.204   3.430   8.323  1.9637  3.2127 -0.9403
 8348SOL    HW236678   4.259   3.334   8.405 -0.9214 -0.5718  2.5908
 8349SOL     OW36679   1.799   2.790   5.697  0.5975  0.2972 -0.1074
 8349SOL    HW136680   1.719   2.841   5.685 -0.6551 -1.1503  2.1558
 8349SOL    HW236681   1.857   2.848   5.746  1.1395  0.4026 -0.8649
 8350SOL     OW36682   4.072   1.967   1.451  0.2016  0.3709 -0.1400
 8350SOL    HW136683   4.136   1.905   1.415 -1.3531  0.0648 -2.3869
 8350SOL    HW236684   4.069   2.023   1.373 -1.5980 -0.4085 -0.6198
 8351SOL     OW36685   2.294   3.936  17.208 -0.3978 -0.2297  0.2348
 8351SOL    HW136686   2.252   3.894  17.283 -0.3686 -1.1203 -0.2565
 8351SOL    HW236687   2.272   4.028  17.223  0.8502 -0.1293  1.3912
 8352SOL     OW36688   0.541   0.497   2.010 -0.4761 -0.3907 -0.1242
 8352SOL    HW136689   0.555   0.548   1.930 -0.4307  0.9322  0.7303
 8352SOL    HW236690   0.585   0.416   1.983 -1.1362 -0.8425  0.1707
 8353SOL     OW36691   1.022   1.636   2.790  0.0118  0.3588 -0.5783
 8353SOL    HW136692   1.116   1.650   2.796 -0.2519  1.4451  0.9980
 8353SOL    HW236693   1.003   1.619   2.882  1.8210  0.9101 -0.1024
 8354SOL     OW36694   4.036   1.627  11.277  0.0860  0.3240  0.3390
 8354SOL    HW136695   4.099   1.583  11.333  2.8993  0.3791 -2.7612
 8354SOL    HW236696   3.960   1.571  11.290  1.2831 -1.5463 -0.6161
 8355SOL     OW36697   1.466   3.726   4.865  0.3577 -0.0882  0.5378
 8355SOL    HW136698   1.527   3.777   4.812 -1.1842  0.6173 -0.5578
 8355SOL    HW236699   1.393   3.773   4.825  0.8986  1.3972  1.3156
 8356SOL     OW36700   1.235   4.376  11.935  0.1444  0.0537 -0.1791
 8356SOL    HW136701   1.306   4.435  11.961  1.4238 -1.7887  0.5470
 8356SOL    HW236702   1.281   4.292  11.941 -0.7435 -0.4850 -0.8788
 8357SOL     OW36703   1.235   0.692   0.392  0.0196 -0.1534 -0.0090
 8357SOL    HW136704   1.299   0.694   0.463 -0.2565 -1.5348  0.2736
 8357SOL    HW236705   1.197   0.606   0.406 -0.6266 -0.3409 -2.8145
 8358SOL     OW36706   3.936   1.097  15.421 -0.3350  0.2334 -0.2319
 8358SOL    HW136707   3.845   1.078  15.446  0.0434  1.1080  1.8164
 8358SOL    HW236708   3.983   1.062  15.497  1.3415 -0.0630 -1.3978
 8359SOL     OW36709   1.624   1.315   4.082  0.3663 -0.6185  0.4579
 8359SOL    HW136710   1.716   1.296   4.097  0.7900  0.2475 -0.9891
 8359SOL    HW236711   1.602   1.244   4.021 -2.4559  0.4194  0.2427
 8360SOL     OW36712   1.363   1.113   4.140 -0.3140  0.1228 -0.3356
 8360SOL    HW136713   1.283   1.165   4.130  0.5385  1.4534 -0.2344
 8360SOL    HW236714   1.358   1.044   4.073 -0.3275  0.2056 -0.4193
 8361SOL     OW36715   3.794   1.354   9.329  0.0594  0.3250 -0.0261
 8361SOL    HW136716   3.798   1.279   9.388  1.4032  0.9385  0.6530
 8361SOL    HW236717   3.831   1.421   9.386  1.0414 -0.9830  0.8919
 8362SOL     OW36718   1.405   3.712  13.945  0.1759 -0.3102  0.1450
 8362SOL    HW136719   1.322   3.666  13.929  1.2473 -1.9895 -0.5856
 8362SOL    HW236720   1.415   3.689  14.037  1.3063 -1.4202 -0.2481
 8363SOL     OW36721   3.861   1.489   3.502  0.0206  0.3949 -0.5397
 8363SOL    HW136722   3.828   1.578   3.514 -2.1520 -0.3905 -0.7771
 8363SOL    HW236723   3.924   1.496   3.430  0.2894 -1.0872 -0.4514
 8364SOL     OW36724   2.589   3.587  17.282  0.5326  0.0497 -0.3894
 8364SOL    HW136725   2.555   3.671  17.252  0.1976  0.8204  2.1565
 8364SOL    HW236726   2.638   3.613  17.360 -0.2979 -0.7865  0.4068
 8365SOL     OW36727   0.320   4.263  11.408 -0.1847  0.3837 -0.3257
 8365SOL    HW136728   0.351   4.310  11.485 -1.1592 -0.8111  0.7964
 8365SOL    HW236729   0.372   4.184  11.415  0.1920  0.6440 -0.1830
 8366SOL     OW36730   2.911   0.815   3.283  0.0501 -0.1704  0.0360
 8366SOL    HW136731   2.984   0.758   3.308  0.7818  0.3041 -1.0164
 8366SOL    HW236732   2.954   0.872   3.219 -3.0431  1.0496 -0.9552
 8367SOL     OW36733   4.474   3.637   3.512 -0.5403  0.2929  0.1724
 8367SOL    HW136734   4.557   3.683   3.499 -0.6180  0.8281  1.6421
 8367SOL    HW236735   4.495   3.558   3.462 -1.5315  0.7504 -0.9651
 8368SOL     OW36736   4.011   3.050   5.544 -0.1711  0.0152  0.2586
 8368SOL    HW136737   4.049   3.075   5.460  0.3622  1.4996  0.9524
 8368SOL    HW236738   4.067   3.103   5.601  2.2862 -1.9451 -0.3573
 8369SOL     OW36739   3.462   1.991   6.282 -0.1772  0.5830 -0.3191
 8369SOL    HW136740   3.470   2.082   6.309  1.0688  0.7422 -1.1733
 8369SOL    HW236741   3.487   1.993   6.189  2.9485 -2.0122  0.4384
 8370SOL     OW36742   1.324   4.189  14.384 -0.5079  0.2268  0.2584
 8370SOL    HW136743   1.253   4.168  14.446 -0.9083  3.5897  0.9211
 8370SOL    HW236744   1.396   4.166  14.442  0.8480  1.6562 -0.8718
 8371SOL     OW36745   0.607   4.273   4.795  0.4191  0.3941 -0.1355
 8371SOL    HW136746   0.673   4.323   4.747  0.3850  0.2125 -0.3731
 8371SOL    HW236747   0.619   4.182   4.768 -0.8708  0.6400 -1.4912
 8372SOL     OW36748   1.227   0.483   5.531 -0.7404  0.1055 -0.8416
 8372SOL    HW136749   1.270   0.448   5.609 -2.5728 -0.5250 -0.0976
 8372SOL    HW236750   1.137   0.463   5.558 -0.2645 -2.0516 -0.8473
 8373SOL     OW36751   3.616   3.315  14.155 -0.0394 -0.8349  0.2206
 8373SOL    HW136752   3.562   3.345  14.228  0.2549 -0.7767  0.4135
 8373SOL    HW236753   3.642   3.227  14.182 -0.6980 -1.4922 -1.2832
 8374SOL     OW36754   2.597   3.471  11.559  0.1317 -0.4904 -0.4036
 8374SOL    HW136755   2.678   3.425  11.580  0.2998 -0.3932 -0.8332
 8374SOL    HW236756   2.626   3.517  11.480 -2.1181 -1.7953 -2.0039
 8375SOL     OW36757   1.074   0.581   2.871 -0.1157  0.0318  0.4692
 8375SOL    HW136758   1.110   0.665   2.898 -0.4686  0.0745  0.8109
 8375SOL    HW236759   1.013   0.565   2.943 -0.9203  0.2770 -0.1505
 8376SOL     OW36760   4.285   2.892   4.863 -0.0014 -0.1757 -0.3026
 8376SOL    HW136761   4.340   2.821   4.895  1.3323  0.6323 -0.8043
 8376SOL    HW236762   4.286   2.880   4.768  1.9683 -0.5880 -0.2181
 8377SOL     OW36763   2.769   1.676  10.128  0.0063 -0.2169 -0.1568
 8377SOL    HW136764   2.846   1.694  10.074  1.2094  0.7503  1.8739
 8377SOL    HW236765   2.813   1.628  10.199 -0.3459 -1.4116 -0.7365
 8378SOL     OW36766   1.416   4.413   3.981 -0.2905 -0.8720  0.3446
 8378SOL    HW136767   1.475   4.338   3.984  1.6083  0.6280  0.8266
 8378SOL    HW236768   1.331   4.378   3.955 -0.5293  0.5384 -0.8224
 8379SOL     OW36769   2.840   0.810   7.977 -0.2169 -0.6058  0.4526
 8379SOL    HW136770   2.862   0.850   7.893  0.0615 -2.8020 -0.5156
 8379SOL    HW236771   2.926   0.809   8.020 -0.1830 -0.9241  0.3748
 8380SOL     OW36772   0.240   4.269   4.133 -0.3256  0.5435  0.5244
 8380SOL    HW136773   0.289   4.350   4.121 -0.9451  1.0748  1.5498
 8380SOL    HW236774   0.295   4.199   4.097 -1.2482 -0.7974  1.6920
 8381SOL     OW36775   4.336   1.184   2.406 -0.0905  0.5663  0.1905
 8381SOL    HW136776   4.248   1.194   2.443 -0.9877  0.3615 -1.8724
 8381SOL    HW236777   4.331   1.159   2.314 -1.4114  0.9698  0.1500
 8382SOL     OW36778   2.631   3.140   8.340 -0.5677  0.2158  0.1137
 8382SOL    HW136779   2.594   3.090   8.267 -0.3795  1.0114 -0.5298
 8382SOL    HW236780   2.711   3.090   8.354 -0.4113  0.0490 -1.3274
 8383SOL     OW36781   3.740   1.359   0.380 -0.2100  0.3388 -0.3403
 8383SOL    HW136782   3.649   1.361   0.350  0.1430 -0.3336 -1.4355
 8383SOL    HW236783   3.739   1.267   0.406 -1.5537  0.7811  1.1815
 8384SOL     OW36784   2.883   3.865   4.660 -0.2176 -0.5097  0.0519
 8384SOL    HW136785   2.959   3.833   4.709 -0.0799 -1.3805 -0.7327
 8384SOL    HW236786   2.854   3.787   4.613 -2.6169 -0.6312  1.7352
 8385SOL     OW36787   1.034   0.389  13.711 -0.3103  1.3292 -0.1033
 8385SOL    HW136788   0.948   0.349  13.727 -0.8026  1.4922 -2.2981
 8385SOL    HW236789   1.096   0.319  13.733  0.3266  1.8942 -0.1192
 8386SOL     OW36790   1.956   4.289   7.699 -0.1092  0.1070 -0.1766
 8386SOL    HW136791   1.931   4.372   7.659  2.4044  1.0883  0.3275
 8386SOL    HW236792   1.933   4.303   7.791 -2.0087  0.4650 -0.6970
 8387SOL     OW36793   4.673   0.435  15.760 -0.7951 -0.3643 -0.3022
 8387SOL    HW136794   4.660   0.396  15.674 -3.3875 -0.7859  0.2807
 8387SOL    HW236795   0.015   0.484  15.733 -0.3796  0.8629  3.0868
 8388SOL     OW36796   0.294   2.241  12.690 -0.3860  0.5535  0.0833
 8388SOL    HW136797   0.367   2.302  12.682  0.2664 -0.4183 -1.3032
 8388SOL    HW236798   0.259   2.276  12.772 -1.3469 -0.6477  0.1828
 8389SOL     OW36799   1.933   2.909   8.209 -0.0533  0.2342  0.2443
 8389SOL    HW136800   2.009   2.850   8.212  0.0040  0.3419  1.0022
 8389SOL    HW236801   1.961   2.984   8.261  1.1945  0.4900 -0.7862
 8390SOL     OW36802   1.179   4.161   7.499 -0.1986 -0.3186  0.7071
 8390SOL    HW136803   1.209   4.112   7.576  1.4774 -0.7793 -0.2349
 8390SOL    HW236804   1.085   4.144   7.499  0.1070 -1.9573  2.2248
 8391SOL     OW36805   1.138   3.553  12.002 -0.4556 -0.4761 -0.2607
 8391SOL    HW136806   1.060   3.497  12.007 -1.3506  0.5932 -2.2088
 8391SOL    HW236807   1.160   3.525  11.913 -1.2965  0.2454 -0.6949
 8392SOL     OW36808   1.374   3.528   7.394 -0.1141  0.2630 -0.4703
 8392SOL    HW136809   1.409   3.591   7.457  1.9575  1.1402 -2.5032
 8392SOL    HW236810   1.314   3.580   7.342 -0.6782 -0.1049 -0.1950
 8393SOL     OW36811   0.200   1.191   9.202 -0.4019 -0.3191  0.4549
 8393SOL    HW136812   0.232   1.180   9.291  0.4076 -1.7051 -0.0023
 8393SOL    HW236813   0.275   1.235   9.163  0.4032 -0.7232  1.5403
 8394SOL     OW36814   2.808   3.515  12.569  0.1510 -0.1318  0.7698
 8394SOL    HW136815   2.889   3.497  12.522 -0.5249  0.5571 -0.6679
 8394SOL    HW236816   2.739   3.541  12.509  0.0765 -0.6194  0.6453
 8395SOL     OW36817   3.493   2.482  15.248 -0.0090 -0.3357  0.3204
 8395SOL    HW136818   3.516   2.492  15.155 -0.1471  0.2663  0.3504
 8395SOL    HW236819   3.427   2.551  15.257 -0.5231 -0.7200 -0.4734
 8396SOL     OW36820   2.465   4.404  16.840 -0.0459  0.0023  0.3122
 8396SOL    HW136821   2.370   4.400  16.834 -0.2420  3.5249  0.8460
 8396SOL    HW236822   2.482   4.311  16.830 -0.8631 -0.0085 -0.9820
 8397SOL     OW36823   1.648   4.027  14.207  0.2927 -0.1955  0.1222
 8397SOL    HW136824   1.677   3.950  14.158  0.8046 -1.3111  2.1938
 8397SOL    HW236825   1.704   4.090  14.162  1.9503  0.3758  2.9778
 8398SOL     OW36826   1.135   3.163   0.096  0.4869  0.3628 -0.4269
 8398SOL    HW136827   1.078   3.086   0.088  2.1687 -1.1829  2.6428
 8398SOL    HW236828   1.177   3.147   0.012  3.1553 -0.7400  1.1177
 8399SOL     OW36829   1.093   1.153   4.340  0.0903  0.3415  0.1487
 8399SOL    HW136830   1.040   1.228   4.367  0.1284  0.2889  0.3749
 8399SOL    HW236831   1.179   1.193   4.354  0.9645 -2.6069  3.2030
 8400SOL     OW36832   0.156   4.314   3.050  0.3903 -0.3860  0.2346
 8400SOL    HW136833   0.086   4.351   3.104 -0.5255  0.8888 -1.8473
 8400SOL    HW236834   0.171   4.234   3.102  2.3750  0.6158  1.2205
 8401SOL     OW36835   1.683   4.237   8.076  0.0252 -0.7610 -0.2618
 8401SOL    HW136836   1.770   4.199   8.065 -0.4680 -1.1301 -2.8180
 8401SOL    HW236837   1.698   4.327   8.105 -0.4229 -1.1264  1.0992
 8402SOL     OW36838   0.709   3.176   8.062 -0.4604 -0.3439  0.1004
 8402SOL    HW136839   0.728   3.238   7.992 -1.5718  1.3296  1.2810
 8402SOL    HW236840   0.629   3.216   8.096 -1.7645 -2.7307 -0.1418
 8403SOL     OW36841   0.337   0.643  14.871 -0.0381  0.4190  0.0352
 8403SOL    HW136842   0.388   0.644  14.952  0.2168  1.1787 -0.1316
 8403SOL    HW236843   0.322   0.737  14.857 -0.1851  0.0874 -2.0205
 8404SOL     OW36844   2.318   2.932   7.941  0.2804  0.5758  0.1904
 8404SOL    HW136845   2.400   2.981   7.941  0.9250 -0.5042  0.1590
 8404SOL    HW236846   2.268   2.977   8.009 -1.0405 -0.4796 -0.0807
 8405SOL     OW36847   2.637   4.273   6.035 -0.1493 -0.1903 -0.5534
 8405SOL    HW136848   2.598   4.350   5.992  1.2609  0.0572 -1.3847
 8405SOL    HW236849   2.691   4.313   6.102 -1.1795 -2.1329  1.4271
 8406SOL     OW36850   2.175   4.262   8.623  0.0363  0.1667  0.1006
 8406SOL    HW136851   2.195   4.344   8.668 -2.9767  1.9187 -1.7655
 8406SOL    HW236852   2.262   4.231   8.601 -0.7477 -1.3076 -0.9474
 8407SOL     OW36853   2.288   1.231   5.044  0.4076 -0.3685  0.7581
 8407SOL    HW136854   2.302   1.290   5.118 -2.5413  1.7651 -0.3743
 8407SOL    HW236855   2.377   1.201   5.027 -0.4065 -2.3982  0.0403
 8408SOL     OW36856   1.571   3.259  15.448 -0.3148 -0.5415  0.0174
 8408SOL    HW136857   1.507   3.216  15.504 -1.8439 -0.0355 -1.3421
 8408SOL    HW236858   1.524   3.267  15.365 -0.9154 -1.4396  0.2737
 8409SOL     OW36859   3.624   3.297   6.074  0.2885 -0.5468 -0.2082
 8409SOL    HW136860   3.644   3.327   6.163  0.2446 -1.4277  0.0944
 8409SOL    HW236861   3.637   3.207   6.102  2.3091  0.1728  1.1439
 8410SOL     OW36862   2.536   1.475   2.149 -0.3943  0.7585  0.1950
 8410SOL    HW136863   2.480   1.403   2.120  1.4972 -0.4845 -0.3188
 8410SOL    HW236864   2.620   1.437   2.126  0.1967  1.3823  1.3053
 8411SOL     OW36865   1.156   2.223   8.845 -0.2921  0.0530  0.9518
 8411SOL    HW136866   1.238   2.191   8.807  0.9729  1.5044  2.4114
 8411SOL    HW236867   1.187   2.313   8.862 -1.2471  0.5529  0.0154
 8412SOL     OW36868   0.298   2.314   4.735 -0.2188 -0.3962  0.2033
 8412SOL    HW136869   0.327   2.348   4.819  1.0202  0.0406 -0.3938
 8412SOL    HW236870   0.361   2.241   4.737 -0.9288 -0.9986  0.5422
 8413SOL     OW36871   3.132   3.340   5.809  0.1665  0.0257 -0.9130
 8413SOL    HW136872   3.217   3.378   5.828 -0.4961 -0.0489  2.1524
 8413SOL    HW236873   3.121   3.261   5.862 -1.2494  1.3867  0.8099
 8414SOL     OW36874   3.821   2.513   1.667  0.0277 -0.3746 -0.1746
 8414SOL    HW136875   3.769   2.551   1.738  0.5442  0.1396 -0.0709
 8414SOL    HW236876   3.848   2.439   1.722 -0.4721 -0.3235  0.1470
 8415SOL     OW36877   3.056   1.718  10.835 -0.6286  0.3390 -0.2762
 8415SOL    HW136878   3.019   1.697  10.921  0.0706  0.0382 -0.0521
 8415SOL    HW236879   3.110   1.797  10.845 -3.7049  2.4983 -0.6657
 8416SOL     OW36880   2.232   3.752   8.190 -0.2423 -0.2693  0.1001
 8416SOL    HW136881   2.195   3.710   8.268  1.4574 -0.6349  0.7085
 8416SOL    HW236882   2.243   3.679   8.129  1.9356  0.5732 -0.4895
 8417SOL     OW36883   1.707   3.875   8.135 -0.7832 -0.5241  0.2812
 8417SOL    HW136884   1.715   3.791   8.089  1.4346  0.1282 -0.5114
 8417SOL    HW236885   1.743   3.846   8.219  0.6604  0.2793 -0.0728
 8418SOL     OW36886   2.978   4.315   9.387 -0.5631  0.0185  0.1595
 8418SOL    HW136887   2.909   4.381   9.396  0.7911  0.9939  3.3967
 8418SOL    HW236888   3.025   4.352   9.312 -1.6112 -1.1344 -1.0612
 8419SOL     OW36889   1.403   1.082   7.715 -0.2425  0.4509  0.0367
 8419SOL    HW136890   1.474   1.054   7.772  2.3406  0.0147 -3.3493
 8419SOL    HW236891   1.319   1.042   7.735  0.1614  1.2731  3.3048
 8420SOL     OW36892   2.645   1.351   6.835  0.3284  0.0716  0.2410
 8420SOL    HW136893   2.637   1.298   6.915  1.7738  0.8395  0.8889
 8420SOL    HW236894   2.701   1.296   6.781 -1.4827 -0.6499 -0.9230
 8421SOL     OW36895   0.026   1.214  10.775 -0.1414  0.8888 -0.2661
 8421SOL    HW136896   4.671   1.242  10.775 -0.5538 -0.5373  2.4589
 8421SOL    HW236897   0.062   1.299  10.747  1.1007  1.7408  3.9389
 8422SOL     OW36898   2.373   2.558  16.700 -0.2833 -0.5435 -0.1151
 8422SOL    HW136899   2.359   2.501  16.625  1.8260 -2.1540  0.7079
 8422SOL    HW236900   2.292   2.547  16.750 -0.2274  0.7466  0.2636
 8423SOL     OW36901   2.078   1.087   6.813  0.4171  0.7405 -0.4630
 8423SOL    HW136902   2.127   1.101   6.732 -1.4702  0.8992 -1.5511
 8423SOL    HW236903   2.082   1.175   6.851 -1.4312  0.5043  0.2708
 8424SOL     OW36904   0.847   0.389   8.804  0.1775  0.3081 -1.2857
 8424SOL    HW136905   0.860   0.424   8.716  0.0263  2.2116 -0.5498
 8424SOL    HW236906   0.814   0.464   8.853 -0.2051 -0.5558 -0.2060
 8425SOL     OW36907   0.031   0.657   6.936 -0.6617 -1.0942 -0.0934
 8425SOL    HW136908   0.097   0.596   6.903  0.0312 -0.7037  0.5701
 8425SOL    HW236909   0.068   0.744   6.916 -1.0991 -0.9075 -0.0876
 8426SOL     OW36910   4.632   2.037   4.169  0.1975 -0.6355  0.4585
 8426SOL    HW136911   4.631   2.103   4.239  1.6451 -0.8338  0.6748
 8426SOL    HW236912   4.647   2.094   4.093 -3.7123  1.1367  1.0210
 8427SOL     OW36913   3.294   1.392   2.881 -0.1219 -0.1914  0.3433
 8427SOL    HW136914   3.308   1.375   2.974 -1.2187 -0.1068  0.5222
 8427SOL    HW236915   3.224   1.457   2.895  2.9593  3.1423  0.2502
 8428SOL     OW36916   0.968   3.947   1.586 -0.7333  0.5452  0.3410
 8428SOL    HW136917   1.034   3.935   1.518 -1.4325  0.6835 -0.3713
 8428SOL    HW236918   1.009   3.890   1.652  0.5065  1.6442  0.5061
 8429SOL     OW36919   4.644   4.529   2.589 -0.8015  0.2454  0.2992
 8429SOL    HW136920   4.656   4.577   2.507  1.3521 -1.2656 -0.2926
 8429SOL    HW236921   4.720   4.471   2.603 -0.3689  0.5550 -0.7889
 8430SOL     OW36922   0.922   2.620   8.141 -0.2762 -0.2016  0.1165
 8430SOL    HW136923   0.890   2.561   8.074 -2.5185 -0.4705  1.4389
 8430SOL    HW236924   0.852   2.610   8.205 -0.8816  0.8638 -0.3851
 8431SOL     OW36925   1.411   1.015   4.605  0.0460 -0.3068 -0.0745
 8431SOL    HW136926   1.408   1.107   4.577 -1.6780  0.0309  1.2109
 8431SOL    HW236927   1.369   1.018   4.692  0.3913 -2.4453  0.1636
 8432SOL     OW36928   1.779   0.443   2.931  0.9411 -0.4792 -0.0762
 8432SOL    HW136929   1.748   0.505   2.997  1.8602 -1.7551  1.5413
 8432SOL    HW236930   1.702   0.385   2.931  1.1443 -0.7497  1.7926
 8433SOL     OW36931   0.664   2.412   6.847  0.3675  0.7697 -0.1770
 8433SOL    HW136932   0.723   2.414   6.922 -0.9832  0.7138  0.8757
 8433SOL    HW236933   0.718   2.454   6.780 -0.9817 -0.9574 -2.3592
 8434SOL     OW36934   0.681   2.576   8.271  0.3448 -0.4154  0.3726
 8434SOL    HW136935   0.623   2.539   8.206 -0.0236  1.1272 -0.1816
 8434SOL    HW236936   0.664   2.521   8.347 -0.6268 -2.2216 -1.1783
 8435SOL     OW36937   2.982   0.502   3.306 -0.0453  0.4197  0.4052
 8435SOL    HW136938   3.006   0.521   3.215  0.3040 -0.2871  0.3496
 8435SOL    HW236939   3.066   0.474   3.343  0.2056 -2.0464 -2.0993
 8436SOL     OW36940   0.583   4.664   0.542  0.1638  0.2067 -0.2621
 8436SOL    HW136941   0.596   4.573   0.516 -0.5107  0.1214 -0.2995
 8436SOL    HW236942   0.625   4.667   0.628 -1.4257 -2.5336  0.6151
 8437SOL     OW36943   1.400   0.586   7.874  0.2085 -0.4118  0.3434
 8437SOL    HW136944   1.348   0.649   7.923  1.6391 -1.2549  2.9332
 8437SOL    HW236945   1.471   0.633   7.830 -0.9316 -0.1686 -1.2438
 8438SOL     OW36946   2.665   2.799   2.601 -0.0775  0.2527 -0.4895
 8438SOL    HW136947   2.597   2.837   2.656  0.6161 -0.1996  0.7067
 8438SOL    HW236948   2.641   2.707   2.613 -0.8993  0.8498  2.4876
 8439SOL     OW36949   3.443   2.055  10.036 -0.1216  0.0022  0.0752
 8439SOL    HW136950   3.433   2.115   9.962  0.3850  1.5369  1.2693
 8439SOL    HW236951   3.440   1.968   9.996 -0.5166  0.6172 -1.2371
 8440SOL     OW36952   4.302   2.589   3.584  0.1354  0.2552  0.4987
 8440SOL    HW136953   4.328   2.601   3.675 -0.2819  1.8290  0.4134
 8440SOL    HW236954   4.287   2.494   3.580  0.0684  0.2282  1.5127
 8441SOL     OW36955   4.014   0.653   3.864  0.1295  0.1955  0.0993
 8441SOL    HW136956   4.061   0.729   3.827  0.4616  1.3718  2.9309
 8441SOL    HW236957   3.936   0.654   3.809  0.1538 -0.3417  0.0648
 8442SOL     OW36958   4.452   0.921   7.461 -0.4427  0.3403  0.5300
 8442SOL    HW136959   4.540   0.906   7.494 -0.3637  1.2250  0.7080
 8442SOL    HW236960   4.414   0.980   7.526 -2.7663  1.5123 -1.8853
 8443SOL     OW36961   1.866   4.103   2.394 -0.2092  0.6454 -0.1149
 8443SOL    HW136962   1.940   4.061   2.437  0.9087  0.0057 -2.6656
 8443SOL    HW236963   1.876   4.197   2.408 -0.1807  0.8714 -1.5718
 8444SOL     OW36964   1.024   3.528   8.863 -0.1934 -0.1569  0.0321
 8444SOL    HW136965   1.048   3.483   8.944 -0.6674  0.8298  0.7161
 8444SOL    HW236966   1.109   3.539   8.820 -0.4308 -1.0089 -0.6667
 8445SOL     OW36967   4.632   1.949   2.991 -0.2155  0.5512 -0.2662
 8445SOL    HW136968   4.592   1.977   2.909 -2.4734 -0.5194  0.4869
 8445SOL    HW236969   4.564   1.890   3.023  1.2752 -1.3569 -0.6218
 8446SOL     OW36970   3.876   3.678   8.437  0.2201 -0.6402  1.1174
 8446SOL    HW136971   3.827   3.750   8.397  0.9582 -0.6891  0.1166
 8446SOL    HW236972   3.931   3.723   8.501  0.4457  0.4163  0.1812
 8447SOL     OW36973   0.012   2.614  11.057 -0.1629 -0.0220  0.6335
 8447SOL    HW136974   4.719   2.556  10.986  0.2577 -0.7051  1.0214
 8447SOL    HW236975   4.717   2.700  11.029  1.6732  0.2000 -0.7668
 8448SOL     OW36976   2.525   0.117  16.151  0.6256 -0.8098 -0.3727
 8448SOL    HW136977   2.557   0.052  16.213 -1.1997 -0.6472  0.7501
 8448SOL    HW236978   2.596   0.123  16.087  0.8756 -1.1180 -0.1200
 8449SOL     OW36979   1.976   2.566   8.019  0.1513  0.1119  0.3982
 8449SOL    HW136980   1.958   2.643   7.965  0.8597  0.6807  0.9672
 8449SOL    HW236981   2.039   2.613   8.074  0.0115 -0.1501  0.7817
 8450SOL     OW36982   1.620   3.625   6.433 -0.0850  0.2363  0.3815
 8450SOL    HW136983   1.571   3.635   6.516 -1.4136  1.5785 -0.5546
 8450SOL    HW236984   1.629   3.720   6.426  0.6075  0.2225  1.0159
 8451SOL     OW36985   4.597   3.363   5.191 -0.5061 -0.8335  0.5243
 8451SOL    HW136986   4.623   3.284   5.239 -1.5855 -1.8696 -0.5956
 8451SOL    HW236987   4.629   3.426   5.256 -0.6745  0.0373 -0.2459
 8452SOL     OW36988   0.478   2.472   9.257  0.4350  0.2134  0.4208
 8452SOL    HW136989   0.460   2.564   9.279 -0.7979  0.3564 -1.2092
 8452SOL    HW236990   0.522   2.450   9.339  0.3076  1.7155  0.8996
 8453SOL     OW36991   0.580   1.330  13.345 -0.5416 -0.4137  0.1142
 8453SOL    HW136992   0.574   1.236  13.362 -0.6165 -0.0668  2.0535
 8453SOL    HW236993   0.588   1.354  13.438 -0.2749  2.8663 -0.7405
 8454SOL     OW36994   1.190   1.127   1.226  0.2331  0.0623  0.1357
 8454SOL    HW136995   1.214   1.045   1.269 -1.4550  0.9224  2.7694
 8454SOL    HW236996   1.138   1.102   1.150 -0.7753  2.2026  0.0966
 8455SOL     OW36997   4.654   0.378   0.658  0.4171  0.1224 -0.0000
 8455SOL    HW136998   4.701   0.304   0.696 -0.8366 -1.7707 -2.1554
 8455SOL    HW236999   4.566   0.375   0.697  1.4550 -0.1596  2.3024
 8456SOL     OW37000   3.616   1.601   6.613 -0.5870 -0.0597 -0.2213
 8456SOL    HW137001   3.680   1.543   6.571 -0.4908 -1.4115  1.7756
 8456SOL    HW237002   3.601   1.664   6.542  1.5868  1.5919  0.7751
 8457SOL     OW37003   1.559   3.944   9.362 -0.2566 -0.6981  0.3334
 8457SOL    HW137004   1.643   3.919   9.401 -0.2747  2.3816  2.3188
 8457SOL    HW237005   1.487   3.900   9.406  1.4206 -3.2721  0.5169
 8458SOL     OW37006   0.601   0.770   1.838  0.3867  0.1060 -0.1419
 8458SOL    HW137007   0.663   0.836   1.808  0.3286  0.6046  0.8382
 8458SOL    HW237008   0.556   0.809   1.913  1.0991  2.2194 -0.8226
 8459SOL     OW37009   3.920   3.446  10.902 -0.2612 -0.6050  0.3550
 8459SOL    HW137010   3.960   3.533  10.896 -0.7222 -0.4628 -0.7053
 8459SOL    HW237011   3.925   3.421  10.994 -1.9248 -2.4374 -0.0617
 8460SOL     OW37012   2.580   3.411   8.989 -0.1704 -0.0686  0.8989
 8460SOL    HW137013   2.621   3.356   8.923 -0.5628  0.9376 -0.1865
 8460SOL    HW237014   2.557   3.482   8.929 -0.1103 -2.0149 -1.4355
 8461SOL     OW37015   4.277   4.329  12.171 -0.1846 -0.6338 -0.2465
 8461SOL    HW137016   4.356   4.376  12.144  0.2635 -1.2806 -0.0713
 8461SOL    HW237017   4.264   4.357  12.261  0.9935 -1.3710  0.1546
 8462SOL     OW37018   2.131   2.050   5.971  0.3242 -0.4602  0.2974
 8462SOL    HW137019   2.095   2.088   5.890 -1.8553  0.0526  1.5010
 8462SOL    HW237020   2.215   2.096   5.968 -0.8293  1.5903 -1.1938
 8463SOL     OW37021   1.225   0.855  17.518 -0.2413 -0.1079  0.3524
 8463SOL    HW137022   1.210   0.800  17.441  1.7720 -0.7272  0.4210
 8463SOL    HW237023   1.137   0.884  17.543 -0.5433  0.8345 -1.8862
 8464SOL     OW37024   0.532   2.810   6.602 -0.0045  0.0403  0.6593
 8464SOL    HW137025   0.612   2.806   6.551  0.3345  0.0397  1.1939
 8464SOL    HW237026   0.503   2.897   6.572  0.4860 -0.6133 -1.6830
 8465SOL     OW37027   0.697   1.383   2.182  0.0109  0.1481 -0.2214
 8465SOL    HW137028   0.688   1.288   2.183  0.2130  0.1338  1.6312
 8465SOL    HW237029   0.776   1.394   2.235 -0.0096 -1.3185  0.1113
 8466SOL     OW37030   0.907   0.832  12.908 -0.6271  0.7078  0.0193
 8466SOL    HW137031   0.999   0.858  12.901  0.1431 -2.2081 -0.3252
 8466SOL    HW237032   0.879   0.821  12.818 -4.2405  1.0106  1.1110
 8467SOL     OW37033   1.990   3.657   8.772  0.5740  0.4507  0.2678
 8467SOL    HW137034   1.999   3.750   8.748 -0.4368  0.9153  1.7058
 8467SOL    HW237035   1.924   3.632   8.706 -0.3516 -0.0609  1.3956
 8468SOL     OW37036   0.509   0.555   0.138  0.0392  0.1935  0.0568
 8468SOL    HW137037   0.509   0.460   0.136 -0.3669  0.1361  2.6320
 8468SOL    HW237038   0.597   0.568   0.103 -0.1236  2.3868  0.4428
 8469SOL     OW37039   4.726   2.709   8.621  0.7765 -0.2506  0.1851
 8469SOL    HW137040   4.656   2.758   8.579  1.1471 -0.1532 -0.3212
 8469SOL    HW237041   4.704   2.739   8.709 -0.7021 -0.6499 -0.0573
 8470SOL     OW37042   1.465   0.890  13.069  0.7704  0.0941 -0.7000
 8470SOL    HW137043   1.437   0.838  12.994 -0.6681 -0.9856  0.5771
 8470SOL    HW237044   1.453   0.822  13.135 -0.3836  1.1735  0.2060
 8471SOL     OW37045   4.081   4.544   4.519  0.4096 -0.4252 -0.2056
 8471SOL    HW137046   4.154   4.510   4.467 -0.8876 -0.2747 -2.0891
 8471SOL    HW237047   4.106   4.500   4.601 -1.1293  0.7353  0.8560
 8472SOL     OW37048   4.289   3.853   0.325  0.0794 -0.0348 -0.4272
 8472SOL    HW137049   4.233   3.811   0.259  1.8528  0.6653 -2.3993
 8472SOL    HW237050   4.259   3.801   0.399 -0.9049  3.5334  1.6289
 8473SOL     OW37051   1.440   2.103   2.881  0.6118  0.1096 -0.5032
 8473SOL    HW137052   1.534   2.089   2.894 -0.0105 -2.6849  0.9072
 8473SOL    HW237053   1.409   2.165   2.947  0.5387 -0.0411 -0.3981
 8474SOL     OW37054   2.499   1.084   0.629  0.4223  0.2411 -0.0795
 8474SOL    HW137055   2.569   1.114   0.687 -0.4499  1.9604  0.0771
 8474SOL    HW237056   2.424   1.143   0.635  0.9530  1.0789 -1.6502
 8475SOL     OW37057   1.138   3.034   5.834 -0.8415 -0.2488 -0.3903
 8475SOL    HW137058   1.137   2.960   5.894 -0.5882 -1.4032 -1.8058
 8475SOL    HW237059   1.055   3.017   5.790 -0.3077 -0.7116 -1.2201
 8476SOL     OW37060   0.178   0.918   7.515  0.6683 -0.1492 -0.0098
 8476SOL    HW137061   0.128   0.995   7.539 -1.0619 -0.9304 -1.0950
 8476SOL    HW237062   0.129   0.858   7.571 -0.2736  1.5958  0.9900
 8477SOL     OW37063   0.085   4.338   8.555  1.3196 -0.0619 -0.1909
 8477SOL    HW137064   0.092   4.396   8.630 -1.9141 -0.5128  0.4768
 8477SOL    HW237065   0.017   4.279   8.588  0.4822  1.1800  0.2931
 8478SOL     OW37066   3.197   2.307   4.137  0.1753 -0.4909  0.3867
 8478SOL    HW137067   3.226   2.331   4.225  0.0184 -2.7354  1.0543
 8478SOL    HW237068   3.110   2.347   4.130  0.6609  0.6459  0.8106
 8479SOL     OW37069   3.932   2.605  13.672 -0.5022  0.1716 -0.0476
 8479SOL    HW137070   3.970   2.660  13.741 -0.7872  1.6438 -1.0763
 8479SOL    HW237071   3.839   2.629  13.681 -0.0628  0.3605  3.9102
 8480SOL     OW37072   4.577   3.114   2.523 -0.3154  0.4318  0.4956
 8480SOL    HW137073   4.614   3.033   2.560  0.5132  0.7089  0.2733
 8480SOL    HW237074   4.527   3.075   2.451  3.0530  0.9019 -2.1106
 8481SOL     OW37075   4.265   0.957   9.085 -0.3760  0.2389 -0.1961
 8481SOL    HW137076   4.217   0.988   9.162 -0.2930 -1.5555  0.5813
 8481SOL    HW237077   4.212   0.881   9.058 -1.4509  2.0542 -3.2320
 8482SOL     OW37078   2.185   4.394   5.169  0.4981  0.4407  0.0882
 8482SOL    HW137079   2.182   4.472   5.114 -1.7595  0.5803  0.4124
 8482SOL    HW237080   2.118   4.418   5.233  2.0277  1.1438  1.4158
 8483SOL     OW37081   2.886   0.712   6.178 -0.6540 -0.3799  0.4511
 8483SOL    HW137082   2.814   0.685   6.122 -1.2800  2.0237  0.0834
 8483SOL    HW237083   2.893   0.637   6.237 -2.0386 -0.9175 -0.0676
 8484SOL     OW37084   0.009   1.132   7.595 -0.6389  0.5450 -0.3606
 8484SOL    HW137085   0.013   1.204   7.532 -0.9714 -1.0373 -2.2091
 8484SOL    HW237086   4.659   1.146   7.635  0.4072  0.0436  2.1002
 8485SOL     OW37087   4.707   1.522   3.204 -0.1186 -0.4039 -0.3451
 8485SOL    HW137088   4.714   1.597   3.263  1.4837  0.3595 -1.4989
 8485SOL    HW237089   0.062   1.494   3.202 -0.3539 -1.1666 -0.5308
 8486SOL     OW37090   1.209   3.482   6.384  0.0044 -0.5633 -0.4768
 8486SOL    HW137091   1.146   3.415   6.358  0.2477 -2.4056  3.7607
 8486SOL    HW237092   1.181   3.491   6.475  2.0002  0.7905  0.0007
 8487SOL     OW37093   3.751   4.524   2.859 -0.1243 -0.2280  0.2437
 8487SOL    HW137094   3.656   4.532   2.871 -0.2694 -0.0494 -0.9807
 8487SOL    HW237095   3.758   4.547   2.766  0.2700 -2.3343 -0.2356
 8488SOL     OW37096   4.186   2.247   3.312  0.3399 -0.3097 -0.0660
 8488SOL    HW137097   4.104   2.257   3.360  0.4305  0.4622 -0.0792
 8488SOL    HW237098   4.147   2.238   3.225  1.3050  0.2717 -0.5583
 8489SOL     OW37099   2.588   1.712   9.947  0.0863 -0.5034  0.2964
 8489SOL    HW137100   2.636   1.743  10.024 -0.6522  0.7400  0.2632
 8489SOL    HW237101   2.512   1.770   9.944 -0.3655 -1.0565  0.8105
 8490SOL     OW37102   0.689   3.845   3.070 -0.0697  0.3396  0.0025
 8490SOL    HW137103   0.672   3.813   3.159 -1.1889 -1.1844 -0.7626
 8490SOL    HW237104   0.679   3.766   3.018  0.9609 -0.4390  1.0051
 8491SOL     OW37105   1.151   0.641  11.754  0.0102  0.3669  0.5863
 8491SOL    HW137106   1.246   0.630  11.751 -0.1781 -0.9065 -1.0649
 8491SOL    HW237107   1.120   0.574  11.692 -1.1238 -0.5144  2.0876
 8492SOL     OW37108   3.612   3.834   5.267  0.5706  0.1896 -0.1295
 8492SOL    HW137109   3.602   3.839   5.362  2.1435  1.3521 -0.0205
 8492SOL    HW237110   3.701   3.860   5.245  1.5923 -1.5232  2.0438
 8493SOL     OW37111   1.889   2.246   6.583  0.8657 -0.3779  0.0169
 8493SOL    HW137112   1.816   2.219   6.638 -0.7328 -0.2549 -2.0121
 8493SOL    HW237113   1.863   2.334   6.554 -0.7261 -1.6513 -2.4073
 8494SOL     OW37114   2.950   0.384   3.943  0.8764  1.0225  0.1598
 8494SOL    HW137115   2.999   0.303   3.958 -0.6264 -0.4052 -2.5707
 8494SOL    HW237116   2.870   0.348   3.906 -0.0332 -0.4146  3.5142
 8495SOL     OW37117   0.112   4.081   5.782  0.5831  0.2169 -0.2633
 8495SOL    HW137118   0.135   4.143   5.714 -0.8219  0.2350 -0.7281
 8495SOL    HW237119   0.178   4.012   5.772  1.6986  1.4838 -1.4831
 8496SOL     OW37120   3.991   4.065   3.953 -0.0624  0.1497  0.4713
 8496SOL    HW137121   4.074   4.037   3.914  0.5113  3.3556 -0.6356
 8496SOL    HW237122   3.970   4.144   3.903  2.6838  0.2818 -0.4769
 8497SOL     OW37123   4.499   0.365   3.168 -0.1938  0.1309  0.0683
 8497SOL    HW137124   4.519   0.282   3.125 -0.5871  0.7007 -1.2222
 8497SOL    HW237125   4.519   0.341   3.258  0.8974 -0.6509 -0.3949
 8498SOL     OW37126   3.227   1.707   3.774 -0.0113  0.2377  0.1830
 8498SOL    HW137127   3.206   1.670   3.859  0.3593 -1.3471 -0.4124
 8498SOL    HW237128   3.287   1.778   3.796  0.0873 -0.3034  1.6120
 8499SOL     OW37129   0.208   1.164   0.571 -0.0969  0.2390 -0.3619
 8499SOL    HW137130   0.123   1.146   0.611  0.7783  0.4215  1.6082
 8499SOL    HW237131   0.188   1.134   0.483  0.2849  1.6683 -0.9332
 8500SOL     OW37132   0.443   0.339   8.984 -0.1555  0.2048 -0.0348
 8500SOL    HW137133   0.464   0.250   9.011  0.9651  0.6471  0.5487
 8500SOL    HW237134   0.462   0.390   9.063 -1.7991  0.4310  0.2270
 8501SOL     OW37135   1.440   3.515  11.923  0.0313  0.8260  0.0681
 8501SOL    HW137136   1.384   3.554  11.989 -0.6518  0.3347 -0.2171
 8501SOL    HW237137   1.379   3.470  11.864  2.6328 -0.4239 -1.6934
 8502SOL     OW37138   4.187   1.609   2.936  0.1065  0.3205 -0.2202
 8502SOL    HW137139   4.125   1.540   2.958 -0.6653  1.2347  0.4693
 8502SOL    HW237140   4.134   1.682   2.967  0.9518  0.2395  1.3901
 8503SOL     OW37141   0.490   3.601  10.713 -0.0883 -0.0023 -0.3507
 8503SOL    HW137142   0.417   3.659  10.693 -1.9972 -1.3002  2.7481
 8503SOL    HW237143   0.556   3.666  10.738 -2.3650  1.5616  1.4703
 8504SOL     OW37144   0.489   3.854   3.587 -0.2480 -0.6136  0.4075
 8504SOL    HW137145   0.481   3.826   3.679  0.5009  0.6848  0.8725
 8504SOL    HW237146   0.442   3.780   3.548 -0.5006  0.8053 -1.9353
 8505SOL     OW37147   2.437   1.309   8.224  0.3963  0.1346 -0.7524
 8505SOL    HW137148   2.379   1.250   8.175 -0.4816 -0.9134  1.5322
 8505SOL    HW237149   2.410   1.390   8.180 -1.4500  0.4988  1.1031
 8506SOL     OW37150   0.214   3.049   8.381  0.6196  0.3542 -0.1227
 8506SOL    HW137151   0.222   2.959   8.349  0.1718  0.2941 -0.0623
 8506SOL    HW237152   0.237   3.111   8.312  3.0674 -0.3906  0.0355
 8507SOL     OW37153   4.329   3.268   6.096  0.4093 -0.6356  0.3147
 8507SOL    HW137154   4.333   3.189   6.042 -0.9333 -0.6686  0.2558
 8507SOL    HW237155   4.251   3.317   6.072 -0.8057 -2.7181 -0.0351
 8508SOL     OW37156   2.458   4.284   4.523  0.1469  0.2898  0.6797
 8508SOL    HW137157   2.430   4.365   4.564 -1.9850  0.8037 -1.8306
 8508SOL    HW237158   2.483   4.311   4.434 -2.5440 -2.0803 -0.8060
 8509SOL     OW37159   3.773   1.215   8.113 -0.0824  0.4236  0.5177
 8509SOL    HW137160   3.687   1.203   8.154 -2.8606  1.0102 -5.0761
 8509SOL    HW237161   3.752   1.226   8.020  3.9023 -0.1284 -0.4354
 8510SOL     OW37162   0.930   0.570   5.788  0.9340  0.4002 -0.1407
 8510SOL    HW137163   1.000   0.631   5.766  0.9424 -0.3416 -2.2121
 8510SOL    HW237164   0.968   0.546   5.872 -2.1386 -0.9933  0.8393
 8511SOL     OW37165   2.989   2.026   3.163  0.0082 -0.1481 -0.0450
 8511SOL    HW137166   2.971   2.036   3.257 -1.5805 -1.5203 -0.2072
 8511SOL    HW237167   2.981   2.118   3.138 -1.4337  0.0044  0.9621
 8512SOL     OW37168   3.224   1.597   5.168 -0.2563 -0.9162 -0.1390
 8512SOL    HW137169   3.317   1.577   5.180  0.0941 -1.2718 -3.3042
 8512SOL    HW237170   3.236   1.683   5.208 -1.4412 -2.0523  2.6540
 8513SOL     OW37171   0.827   3.092   3.460 -0.2545  0.1091  0.3640
 8513SOL    HW137172   0.875   3.066   3.539  1.7013  0.8881 -0.5735
 8513SOL    HW237173   0.895   3.128   3.403 -0.3173  1.3485  1.0662
 8514SOL     OW37174   1.774   4.502   8.093  0.2627  0.0600  0.3269
 8514SOL    HW137175   1.847   4.542   8.046 -0.4681  1.3951  0.3100
 8514SOL    HW237176   1.699   4.533   8.043  0.4265  1.2891  0.8181
 8515SOL     OW37177   4.617   0.236   5.135 -0.5376 -0.0753 -0.1297
 8515SOL    HW137178   4.616   0.291   5.057 -1.0567 -0.9798 -0.7558
 8515SOL    HW237179   4.610   0.147   5.101 -1.7781  0.7954 -2.1356
 8516SOL     OW37180   1.002   0.766   9.322 -0.1655  0.3004  0.6268
 8516SOL    HW137181   0.971   0.837   9.266 -0.5253 -0.8626 -0.6459
 8516SOL    HW237182   0.927   0.747   9.379 -1.9056  3.8183 -0.5169
 8517SOL     OW37183   0.311   0.859  15.246 -0.2698  0.0753 -0.0145
 8517SOL    HW137184   0.358   0.811  15.178  2.1953  2.8379 -0.2354
 8517SOL    HW237185   0.237   0.799  15.253  0.9284 -1.3588  0.4783
 8518SOL     OW37186   2.110   3.703   3.789  0.6438 -0.6071  0.0764
 8518SOL    HW137187   2.057   3.623   3.791  0.5346 -0.4988  1.7781
 8518SOL    HW237188   2.165   3.682   3.865  1.1018  0.8512  0.1456
 8519SOL     OW37189   0.007   0.247   2.946  0.2177  0.0791 -0.2346
 8519SOL    HW137190   4.662   0.245   2.895 -0.3348 -0.5410  0.6471
 8519SOL    HW237191   0.040   0.161   2.919 -1.6797 -0.7932  0.1525
 8520SOL     OW37192   3.791   2.449   6.748  0.2467 -0.1990  0.4240
 8520SOL    HW137193   3.785   2.361   6.785 -1.9567  0.8947  2.6693
 8520SOL    HW237194   3.715   2.488   6.791  1.0821  1.9187 -0.0066
 8521SOL     OW37195   0.484   1.223   3.402  0.1209  0.4727 -0.3697
 8521SOL    HW137196   0.457   1.278   3.474  2.9657 -1.9324  2.5571
 8521SOL    HW237197   0.465   1.136   3.438  1.4623  1.2377  2.1901
 8522SOL     OW37198   1.049   2.454   7.431 -0.1127 -0.1774 -0.0082
 8522SOL    HW137199   1.077   2.540   7.399 -1.6083 -0.0145 -0.8745
 8522SOL    HW237200   0.993   2.487   7.502  1.5903  2.4430  0.1084
 8523SOL     OW37201   4.552   1.961   8.944  0.4050 -0.0105  0.0440
 8523SOL    HW137202   4.613   2.001   8.882 -0.7135 -1.2277 -1.8660
 8523SOL    HW237203   4.621   1.939   9.006 -0.5375 -0.6435  0.8653
 8524SOL     OW37204   2.026   4.102   2.046  0.1579  0.7163  0.5730
 8524SOL    HW137205   2.093   4.047   2.005  0.0543  2.2518 -1.7064
 8524SOL    HW237206   1.948   4.051   2.025  3.0012 -1.8733 -3.7867
 8525SOL     OW37207   1.475   0.832   2.805  0.0304  0.3748 -0.1199
 8525SOL    HW137208   1.422   0.823   2.884 -1.8273  2.2073 -1.1470
 8525SOL    HW237209   1.439   0.910   2.761 -2.1376  0.5768  2.0037
 8526SOL     OW37210   2.962   2.421   2.860 -0.2035 -0.7709 -0.1168
 8526SOL    HW137211   2.896   2.380   2.804  1.2188 -0.7566 -1.7968
 8526SOL    HW237212   3.034   2.422   2.797 -1.5373 -0.9096 -1.6423
 8527SOL     OW37213   0.590   3.360   2.837  0.2170 -0.5145  0.2307
 8527SOL    HW137214   0.592   3.413   2.758  2.8693 -0.0575  0.6069
 8527SOL    HW237215   0.596   3.269   2.807  0.2890 -1.2373  2.3750
 8528SOL     OW37216   3.826   0.439   8.205 -0.2325 -0.1841  0.0657
 8528SOL    HW137217   3.857   0.436   8.296  1.5957  0.1840 -0.5541
 8528SOL    HW237218   3.858   0.526   8.185  1.5571 -1.1969 -1.4392
 8529SOL     OW37219   4.484   0.940   6.992 -0.1848 -0.4814 -0.3645
 8529SOL    HW137220   4.491   0.857   7.040  0.9925  0.2695  0.7734
 8529SOL    HW237221   4.478   0.994   7.071 -0.1301  0.4067 -0.9794
 8530SOL     OW37222   2.296   0.953   5.634  0.6249  0.0925  0.0797
 8530SOL    HW137223   2.328   0.967   5.723 -0.9551 -0.3131  0.7246
 8530SOL    HW237224   2.219   0.897   5.649  0.5282  0.1521 -0.1792
 8531SOL     OW37225   2.122   1.737   3.683  0.5056  0.5907  1.0255
 8531SOL    HW137226   2.157   1.796   3.616 -2.0333 -0.8248 -1.4973
 8531SOL    HW237227   2.094   1.662   3.632  3.8958  1.0707 -1.5267
 8532SOL     OW37228   3.988   3.537   1.025  0.5156  0.2675 -0.0672
 8532SOL    HW137229   4.051   3.465   1.036  0.4178  0.2849  0.6108
 8532SOL    HW237230   4.009   3.571   0.938 -0.4137  0.7199 -0.1090
 8533SOL     OW37231   1.093   3.438   6.975  0.1807 -0.7799  0.0402
 8533SOL    HW137232   1.074   3.449   7.068  0.4589  3.2277 -0.3625
 8533SOL    HW237233   1.155   3.509   6.955 -0.1778 -0.5924 -0.3979
 8534SOL     OW37234   2.160   1.080   6.522 -0.1428 -0.0689  0.2664
 8534SOL    HW137235   2.194   1.009   6.467 -2.7176 -1.2681  0.2578
 8534SOL    HW237236   2.240   1.130   6.541 -0.9748  1.1919  0.4676
 8535SOL     OW37237   2.147   1.398  10.062 -0.2701  0.2415  0.0661
 8535SOL    HW137238   2.105   1.467  10.114  2.3098  3.6476 -2.4309
 8535SOL    HW237239   2.196   1.455  10.004  0.1742 -1.5377 -1.3121
 8536SOL     OW37240   2.689   1.820   2.103 -0.2468  0.2111 -0.1958
 8536SOL    HW137241   2.594   1.823   2.115 -0.1618  0.5822  0.3746
 8536SOL    HW237242   2.707   1.855   2.016  0.1700 -0.4511 -0.3756
 8537SOL     OW37243   0.642   1.483  16.921  0.6303 -0.7512  0.4560
 8537SOL    HW137244   0.725   1.525  16.899 -0.3272  1.5822  1.3289
 8537SOL    HW237245   0.636   1.513  17.012 -1.3694 -0.7673  0.3209
 8538SOL     OW37246   0.013   2.120   8.721  0.1591  0.3560 -0.4870
 8538SOL    HW137247   0.098   2.104   8.762 -0.3385  0.2352  0.5107
 8538SOL    HW237248   4.718   2.199   8.766 -3.5762 -1.0330 -0.6421
 8539SOL     OW37249   0.103   2.809   9.297 -0.1864 -0.3433  0.0930
 8539SOL    HW137250   0.132   2.899   9.283 -1.5140  0.1177  0.3377
 8539SOL    HW237251   0.062   2.822   9.383 -1.1658  0.2258 -0.4651
 8540SOL     OW37252   0.942   4.077   5.928 -0.5948 -0.2074  0.4734
 8540SOL    HW137253   0.903   4.026   5.999 -2.7841 -0.8596 -1.2098
 8540SOL    HW237254   0.889   4.156   5.934  0.2891  0.4850 -0.8183
 8541SOL     OW37255   4.353   4.434   1.409  0.3846 -0.6140  0.0497
 8541SOL    HW137256   4.306   4.509   1.374  0.3689 -0.7995 -0.3201
 8541SOL    HW237257   4.381   4.465   1.495  1.4550 -1.3284 -0.0318
 8542SOL     OW37258   2.837   4.042   7.787  0.2490  0.1017 -0.1837
 8542SOL    HW137259   2.904   4.039   7.719  0.9901 -1.0808  0.5840
 8542SOL    HW237260   2.867   4.115   7.842  0.3132 -0.2238  0.2110
 8543SOL     OW37261   2.580   4.629   2.431  0.6883  0.1343  0.8644
 8543SOL    HW137262   2.634   4.674   2.496 -0.7024  0.1025  2.0225
 8543SOL    HW237263   2.511   4.598   2.489  1.3386 -1.0907  0.9916
 8544SOL     OW37264   1.135   4.179   6.807  0.3438  0.4809 -0.3962
 8544SOL    HW137265   1.082   4.151   6.733 -0.0111 -1.6463  0.6636
 8544SOL    HW237266   1.085   4.251   6.848  2.5264  1.2273  0.9630
 8545SOL     OW37267   1.665   0.721  11.707 -0.8074  0.3008  0.3589
 8545SOL    HW137268   1.709   0.784  11.650 -2.3863  1.6753  0.6601
 8545SOL    HW237269   1.685   0.641  11.659  1.7818  1.3538 -0.3117
 8546SOL     OW37270   4.276   2.040  14.051 -0.1631  0.2532 -0.3777
 8546SOL    HW137271   4.307   1.954  14.080  1.8937  0.9489 -0.5579
 8546SOL    HW237272   4.231   2.074  14.128  0.6442  2.6039 -0.9644
 8547SOL     OW37273   2.509   3.454  10.279 -0.1943  0.3739 -0.1169
 8547SOL    HW137274   2.484   3.427  10.191 -0.6118  0.0606  0.0999
 8547SOL    HW237275   2.443   3.413  10.335 -0.7666  1.9362  0.3550
 8548SOL     OW37276   0.659   2.915   7.279  0.3067 -0.1302  0.6255
 8548SOL    HW137277   0.733   2.902   7.219  0.7454  1.6629  0.7817
 8548SOL    HW237278   0.629   2.824   7.280  1.8380 -0.6569 -0.6193
 8549SOL     OW37279   0.411   3.023   4.035  0.7187 -0.3330 -0.2034
 8549SOL    HW137280   0.369   3.050   3.954 -0.6844  0.0319  0.6413
 8549SOL    HW237281   0.346   2.962   4.069  0.8331  0.6404  1.7807
 8550SOL     OW37282   3.043   4.602   5.343 -0.2069  0.3821  0.3078
 8550SOL    HW137283   3.005   4.688   5.359 -3.5996 -1.2159  0.7529
 8550SOL    HW237284   3.012   4.555   5.421 -0.1988  3.1347  1.9670
 8551SOL     OW37285   3.159   2.469  17.132 -0.1765  0.2003  0.1409
 8551SOL    HW137286   3.183   2.477  17.224  1.4500 -0.1533 -0.2409
 8551SOL    HW237287   3.149   2.561  17.107 -0.6783 -0.2432 -1.2786
 8552SOL     OW37288   0.946   2.076   9.781  0.7105  0.0150  0.4439
 8552SOL    HW137289   0.912   2.021   9.851  1.0333  0.6183  1.0689
 8552SOL    HW237290   0.935   2.161   9.823  0.8986 -0.0598  0.6415
 8553SOL     OW37291   3.737   0.685   7.264  0.3148 -0.6112  0.0377
 8553SOL    HW137292   3.774   0.650   7.344  0.0328 -1.8873 -0.3816
 8553SOL    HW237293   3.642   0.674   7.264  0.2555 -0.1164 -0.3610
 8554SOL     OW37294   2.693   2.142   9.703 -0.0922 -0.2633  0.2733
 8554SOL    HW137295   2.746   2.063   9.701  1.3860  0.7921 -1.9295
 8554SOL    HW237296   2.632   2.121   9.774 -0.6441  2.1151  0.4976
 8555SOL     OW37297   4.345   2.161   8.995 -0.0951 -0.3034 -0.2229
 8555SOL    HW137298   4.300   2.157   8.911  0.2126  0.6802 -0.4307
 8555SOL    HW237299   4.411   2.094   8.975  0.1660  0.6980 -2.6872
 8556SOL     OW37300   0.504   4.019   1.912  0.3304  0.3461  0.2107
 8556SOL    HW137301   0.460   4.075   1.848 -1.1456  0.2060  1.1109
 8556SOL    HW237302   0.586   3.990   1.872 -1.0628 -0.7349 -1.8787
 8557SOL     OW37303   1.747   0.998  17.448 -0.2024  0.0342  0.1871
 8557SOL    HW137304   1.751   1.002  17.543  2.0138 -1.3226  0.1581
 8557SOL    HW237305   1.793   0.916  17.430  1.6682  1.1918 -0.3281
 8558SOL     OW37306   4.447   1.205   6.802 -0.2730 -0.6800 -0.0231
 8558SOL    HW137307   4.535   1.244   6.809 -0.0023 -0.8892 -2.1533
 8558SOL    HW237308   4.441   1.151   6.880 -2.0106 -1.2386 -0.5441
 8559SOL     OW37309   4.553   2.506   2.490 -0.0407 -0.2034 -0.0547
 8559SOL    HW137310   4.593   2.530   2.406  1.7064 -2.5342  0.1152
 8559SOL    HW237311   4.582   2.584   2.537 -0.6623 -0.7037  1.1328
 8560SOL     OW37312   0.508   3.237   1.629  0.1516  0.0365 -0.2073
 8560SOL    HW137313   0.569   3.301   1.592  0.2633 -0.3862 -0.7654
 8560SOL    HW237314   0.536   3.244   1.720  0.1953  1.6404 -0.3541
 8561SOL     OW37315   2.236   3.681   3.501  0.0145  0.4413  0.1371
 8561SOL    HW137316   2.211   3.722   3.584 -0.4892  0.4626 -0.0213
 8561SOL    HW237317   2.191   3.597   3.516  2.0182 -1.1033 -2.7233
 8562SOL     OW37318   2.753   4.567  12.131 -0.3383  0.1611 -0.0900
 8562SOL    HW137319   2.717   4.645  12.174 -2.7933 -1.0562  0.0271
 8562SOL    HW237320   2.807   4.531  12.202  2.0700  0.5417 -1.7275
 8563SOL     OW37321   0.952   2.691   2.397 -0.1632  0.1805  0.1420
 8563SOL    HW137322   0.989   2.770   2.436  0.7923 -1.4160  2.4771
 8563SOL    HW237323   1.001   2.614   2.426 -2.1402 -1.3462 -0.4970
 8564SOL     OW37324   4.707   2.458  13.556 -0.1809  0.3521 -0.1209
 8564SOL    HW137325   4.634   2.396  13.556 -0.0782  0.2328  0.7259
 8564SOL    HW237326   4.682   2.508  13.634  2.0569  1.7602 -0.3031
 8565SOL     OW37327   1.893   2.774   3.079  0.4211  0.2468 -0.0105
 8565SOL    HW137328   1.864   2.705   3.138  0.2606  1.5914  1.5047
 8565SOL    HW237329   1.935   2.717   3.014  1.3334 -1.5722  2.1614
 8566SOL     OW37330   1.282   0.303  17.701  0.0884 -0.2910  0.1269
 8566SOL    HW137331   1.239   0.387  17.716 -2.5263 -1.5727 -0.2282
 8566SOL    HW237332   1.210   0.243  17.718  0.3688 -0.6387  0.0961
 8567SOL     OW37333   0.724   1.336   6.912  0.4012 -0.1840 -0.3200
 8567SOL    HW137334   0.677   1.377   6.986 -1.1446 -3.1596  0.3563
 8567SOL    HW237335   0.754   1.413   6.865 -2.4389  1.3590  0.3548
 8568SOL     OW37336   2.557   4.313   8.643 -0.2652 -0.0331  0.1640
 8568SOL    HW137337   2.536   4.222   8.624  2.3818 -0.4002 -1.0054
 8568SOL    HW237338   2.515   4.349   8.721  2.3117  0.6612  1.2320
 8569SOL     OW37339   2.995   0.742   4.451  0.0742  0.3037  0.4730
 8569SOL    HW137340   2.998   0.802   4.377 -0.6947 -1.6832 -1.1696
 8569SOL    HW237341   2.936   0.674   4.418  0.0399 -0.3902  1.9459
 8570SOL     OW37342   3.371   4.451   3.817  0.3876  0.1567 -0.0147
 8570SOL    HW137343   3.440   4.420   3.758  1.2660 -1.9063  2.0850
 8570SOL    HW237344   3.393   4.401   3.895 -1.5430 -2.3989 -1.1148
 8571SOL     OW37345   2.207   0.208  10.635  0.1814 -0.6337  0.4095
 8571SOL    HW137346   2.213   0.295  10.595 -1.0829 -0.6565  0.1670
 8571SOL    HW237347   2.182   0.231  10.724  2.0732  2.0522  0.2559
 8572SOL     OW37348   1.106   0.965   6.069  0.1358  0.4926  0.0272
 8572SOL    HW137349   1.170   1.030   6.038  0.1109  0.7082  0.4223
 8572SOL    HW237350   1.148   0.883   6.042 -1.8326 -1.4294  2.8685
 8573SOL     OW37351   0.066   2.237   6.994  0.4812 -0.2526  0.0133
 8573SOL    HW137352   0.085   2.261   6.904 -0.2664 -1.2630 -0.4141
 8573SOL    HW237353   4.710   2.261   6.995  0.2574 -1.1130  0.2127
 8574SOL     OW37354   0.717   3.778   3.469  0.0064 -0.4735  0.6685
 8574SOL    HW137355   0.650   3.835   3.508  1.4970  1.2174  0.7163
 8574SOL    HW237356   0.676   3.736   3.394 -1.6971 -1.3801  2.0938
 8575SOL     OW37357   2.676   1.144   4.390 -0.9451 -0.4911  0.5283
 8575SOL    HW137358   2.600   1.117   4.338  0.1347 -2.8003  0.1599
 8575SOL    HW237359   2.634   1.214   4.439 -0.2851  1.2356 -1.3858
 8576SOL     OW37360   2.690   3.631   1.741  0.3478  0.4877 -0.0234
 8576SOL    HW137361   2.657   3.580   1.668  3.9838  1.4108 -2.2984
 8576SOL    HW237362   2.653   3.588   1.819  1.1055  1.6933  1.0122
 8577SOL     OW37363   4.595   3.936   0.851  0.4105 -0.3247 -0.1730
 8577SOL    HW137364   4.542   3.991   0.792  0.3843  1.4162  1.4984
 8577SOL    HW237365   4.676   3.950   0.802  0.2861 -0.5934 -0.4572
 8578SOL     OW37366   3.886   3.899  10.867  0.5176  0.6323 -0.3210
 8578SOL    HW137367   3.841   3.887  10.784 -0.8181 -0.1827  0.5135
 8578SOL    HW237368   3.866   3.814  10.907 -0.3047  1.6624  1.4569
 8579SOL     OW37369   1.916   2.978  12.457  0.1763  0.6795 -0.5093
 8579SOL    HW137370   1.881   2.970  12.368  0.5436 -0.9763 -0.5014
 8579SOL    HW237371   1.875   3.061  12.484 -0.6002 -0.8557  3.0237
 8580SOL     OW37372   2.951   2.006   6.012  0.0923 -0.3809  0.1614
 8580SOL    HW137373   3.017   2.062   6.055  1.6223 -1.2234 -1.0931
 8580SOL    HW237374   2.879   2.064   5.987 -0.6849 -1.4015  0.0755
 8581SOL     OW37375   2.791   2.186   5.604 -0.4488  0.4231  0.3080
 8581SOL    HW137376   2.773   2.165   5.512  1.0255  2.2683 -0.3978
 8581SOL    HW237377   2.829   2.273   5.591  1.5032 -0.7680 -2.1297
 8582SOL     OW37378   1.626   2.660   4.997  0.1617 -0.5600  0.6669
 8582SOL    HW137379   1.573   2.658   4.918 -0.3401  2.0040  0.9433
 8582SOL    HW237380   1.690   2.726   4.970  1.6176 -1.6958  1.3243
 8583SOL     OW37381   0.807   0.639   3.229 -0.0203 -0.3574  0.0074
 8583SOL    HW137382   0.779   0.643   3.137  2.3234 -1.0635 -0.7440
 8583SOL    HW237383   0.794   0.545   3.235 -0.1948 -0.2341  1.4248
 8584SOL     OW37384   2.516   4.713   8.786 -0.4373 -0.1904 -0.1099
 8584SOL    HW137385   2.532   0.011   8.698 -0.0273  0.1932  0.1168
 8584SOL    HW237386   2.483   0.055   8.829  0.7091 -0.1774  0.7473
 8585SOL     OW37387   2.949   3.752   2.863 -0.2510 -0.1308 -0.1810
 8585SOL    HW137388   2.918   3.729   2.775 -0.1275 -1.4854  0.1203
 8585SOL    HW237389   3.041   3.774   2.844  0.5486 -2.9988  0.3247
 8586SOL     OW37390   3.518   2.789   3.506  0.0605 -0.0034  0.1182
 8586SOL    HW137391   3.499   2.705   3.549 -0.2865  0.1136  0.1926
 8586SOL    HW237392   3.548   2.843   3.579  1.1461 -0.7263  0.2061
 8587SOL     OW37393   2.105   1.985  17.061  0.1191  0.5183  0.2929
 8587SOL    HW137394   2.028   2.040  17.073 -1.2661 -1.0209 -1.6795
 8587SOL    HW237395   2.158   2.014  17.136  0.0059  0.7120  0.2989
 8588SOL     OW37396   3.999   0.264  17.457 -0.0901 -0.4222  0.2419
 8588SOL    HW137397   4.031   0.293  17.543 -1.0171 -0.7568  0.7068
 8588SOL    HW237398   3.979   0.173  17.477 -4.1784 -0.0458 -1.9454
 8589SOL     OW37399   4.197   3.146   8.336 -0.0240 -0.4267 -0.2485
 8589SOL    HW137400   4.211   3.062   8.379  0.1683 -0.6898 -0.8356
 8589SOL    HW237401   4.115   3.140   8.287 -0.4507 -1.8918  0.6499
 8590SOL     OW37402   4.599   2.648   2.245 -0.9769  0.5939 -0.2841
 8590SOL    HW137403   4.659   2.721   2.229 -0.5550  0.2685 -0.1937
 8590SOL    HW237404   4.513   2.684   2.223 -0.6455  0.3281 -2.0187
 8591SOL     OW37405   3.127   0.755  12.276  0.3229  0.1667  0.3033
 8591SOL    HW137406   3.200   0.742  12.336 -1.4163 -2.5446  1.8414
 8591SOL    HW237407   3.136   0.847  12.249  0.3047 -0.0852 -0.5796
 8592SOL     OW37408   0.434   2.380   4.956 -0.3990 -0.0203 -0.3185
 8592SOL    HW137409   0.481   2.393   5.039 -0.8213  1.6797 -0.3452
 8592SOL    HW237410   0.388   2.464   4.956  0.9887  0.7651  1.3647
 8593SOL     OW37411   2.463   2.424   8.126  0.3589 -0.4645 -0.1676
 8593SOL    HW137412   2.447   2.480   8.202 -0.1968 -2.5035  1.2125
 8593SOL    HW237413   2.379   2.378   8.128  0.3620 -0.5352 -1.6570
 8594SOL     OW37414   4.108   3.518  15.638 -0.0063 -0.5889  0.3090
 8594SOL    HW137415   4.077   3.592  15.585 -2.4502 -0.5610  1.7881
 8594SOL    HW237416   4.187   3.550  15.681 -0.3734 -0.9579  1.2528
 8595SOL     OW37417   3.347   3.921   4.863  0.0853  0.2701 -0.5349
 8595SOL    HW137418   3.319   4.002   4.906  0.6707 -0.6938  1.6912
 8595SOL    HW237419   3.375   3.864   4.935 -1.4225  1.6331  1.1266
 8596SOL     OW37420   1.701   3.614   1.872  0.0581 -0.2005 -0.0912
 8596SOL    HW137421   1.671   3.705   1.881 -1.2437 -0.6350 -0.0861
 8596SOL    HW237422   1.747   3.615   1.788 -0.8710  1.6323 -0.5792
 8597SOL     OW37423   1.465   4.436   8.265  0.2757 -0.2757 -0.6300
 8597SOL    HW137424   1.435   4.489   8.339  1.7125 -0.3141 -0.0184
 8597SOL    HW237425   1.461   4.346   8.298 -0.5831  0.5045  1.3887
 8598SOL     OW37426   1.379   4.652  16.865  0.0369  0.0278 -0.1051
 8598SOL    HW137427   1.292   4.627  16.835  0.0782 -0.1083 -0.1129
 8598SOL    HW237428   1.377   4.687  16.954 -1.4980  3.0678 -1.3451
 8599SOL     OW37429   0.282   0.844   6.907 -0.1940  0.3005  0.8231
 8599SOL    HW137430   0.232   0.897   6.845  0.2994 -0.2740 -0.0638
 8599SOL    HW237431   0.307   0.916   6.965  0.9831 -0.2939  1.0592
 8600SOL     OW37432   3.355   3.368   6.345  0.2125  0.0768  0.3564
 8600SOL    HW137433   3.421   3.328   6.402 -2.2674 -3.2798  0.8893
 8600SOL    HW237434   3.403   3.440   6.304  0.4192 -0.4690 -0.3679
 8601SOL     OW37435   0.706   0.090   8.758 -0.1743  0.3874  0.0196
 8601SOL    HW137436   0.749   0.176   8.766  1.9995 -0.8216  1.5772
 8601SOL    HW237437   0.640   0.095   8.689  0.3173  2.0507 -0.3487
 8602SOL     OW37438   2.268   1.143   4.271 -0.1111  0.2429  0.2809
 8602SOL    HW137439   2.209   1.216   4.253 -0.0383 -0.3116 -2.1624
 8602SOL    HW237440   2.351   1.184   4.250 -0.2013  0.1965 -0.1702
 8603SOL     OW37441   3.382   0.767   6.546  0.1765  0.1008  0.4315
 8603SOL    HW137442   3.421   0.722   6.472 -0.7648 -1.6464  0.9979
 8603SOL    HW237443   3.453   0.765   6.610  0.4011  2.4309  0.2536
 8604SOL     OW37444   4.243   3.356  17.701 -0.3795  0.2677 -0.1210
 8604SOL    HW137445   4.161   3.407  17.707 -1.7687 -2.0642  0.7764
 8604SOL    HW237446   4.268   3.336   0.048  2.0759  0.7518 -0.7187
 8605SOL     OW37447   0.878   3.136   1.576 -0.4569 -0.0692 -0.6586
 8605SOL    HW137448   0.899   3.186   1.497  0.7262  1.2159  0.4735
 8605SOL    HW237449   0.962   3.141   1.622 -0.1946  2.5272 -1.4302
 8606SOL     OW37450   3.096   1.812  10.506 -0.1774 -0.1301 -0.3672
 8606SOL    HW137451   3.008   1.839  10.530  0.2886  1.2948 -0.2484
 8606SOL    HW237452   3.087   1.804  10.411 -1.5730 -1.6338 -0.0920
 8607SOL     OW37453   4.640   2.680   5.305  0.3857  0.6105 -0.2868
 8607SOL    HW137454   4.649   2.604   5.362  2.1045  1.6307  0.8035
 8607SOL    HW237455   4.582   2.734   5.359  2.8712  0.7428  2.2255
 8608SOL     OW37456   3.559   4.278   2.282 -0.1009 -0.4808 -0.6918
 8608SOL    HW137457   3.555   4.326   2.199 -0.1302 -1.5211 -1.2950
 8608SOL    HW237458   3.642   4.231   2.274  1.5090  2.0847  1.2913
 8609SOL     OW37459   4.108   0.862   4.111  0.6577  0.9940  0.7297
 8609SOL    HW137460   4.068   0.775   4.109 -1.3200  1.9316 -0.4440
 8609SOL    HW237461   4.200   0.841   4.123  0.5050  1.5759  2.9382
 8610SOL     OW37462   0.795   2.783   1.836 -0.1586 -0.1665 -0.0246
 8610SOL    HW137463   0.705   2.754   1.820 -0.3542  1.2209 -1.4192
 8610SOL    HW237464   0.839   2.772   1.752  0.5751 -2.7037  0.6663
 8611SOL     OW37465   3.596   4.634   9.519 -0.5726  0.4032  0.2232
 8611SOL    HW137466   3.615   4.694   9.592 -1.7137  1.0777 -0.0305
 8611SOL    HW237467   3.543   4.565   9.558  1.5554 -0.9406  0.7038
 8612SOL     OW37468   0.663   0.280   1.612 -0.2218 -0.3421  0.9982
 8612SOL    HW137469   0.662   0.375   1.623 -1.6216 -0.1969 -0.5698
 8612SOL    HW237470   0.748   0.272   1.568  0.4742  1.1160  2.0656
 8613SOL     OW37471   1.038   4.169   8.898 -0.4006  0.0216 -0.3469
 8613SOL    HW137472   1.053   4.212   8.983 -0.0679  0.8018 -0.8000
 8613SOL    HW237473   1.030   4.079   8.927 -0.3799 -0.2471 -1.1840
 8614SOL     OW37474   4.473   1.198   9.317 -0.6283  0.2169  0.6072
 8614SOL    HW137475   4.408   1.184   9.248  0.1918  1.0773 -0.3297
 8614SOL    HW237476   4.540   1.137   9.285  0.5102  0.9550  1.5594
 8615SOL     OW37477   2.475   2.195   4.929 -0.1448 -0.1490 -0.4899
 8615SOL    HW137478   2.389   2.218   4.965  0.1914 -1.2963  1.0486
 8615SOL    HW237479   2.473   2.237   4.843 -1.5744  4.2757  1.7037
 8616SOL     OW37480   0.113   4.504  11.357 -0.0637  0.2828  0.1576
 8616SOL    HW137481   0.037   4.448  11.374  0.5278 -0.6670 -0.3033
 8616SOL    HW237482   0.080   4.544  11.276 -0.6263 -1.6508 -0.5731
 8617SOL     OW37483   4.434   2.806   3.021 -0.2352  0.0382 -0.9301
 8617SOL    HW137484   4.341   2.796   3.003 -0.2791 -1.3475  0.0718
 8617SOL    HW237485   4.436   2.874   3.088 -1.3620 -0.8561  0.0138
 8618SOL     OW37486   3.993   2.310   9.347 -0.4032 -0.0864  0.1271
 8618SOL    HW137487   4.008   2.237   9.407 -0.8591 -0.1535  0.1536
 8618SOL    HW237488   3.928   2.279   9.284 -0.7381  0.6256  0.1269
 8619SOL     OW37489   0.063   4.518   7.399 -0.2175  0.5812  0.6253
 8619SOL    HW137490   0.084   4.523   7.306 -0.5877 -0.5729  0.4698
 8619SOL    HW237491   0.013   4.436   7.397  1.2504 -0.2966  0.4705
 8620SOL     OW37492   2.219   2.879   8.896 -0.2439  0.0363 -0.0294
 8620SOL    HW137493   2.136   2.919   8.869 -0.2079 -0.1517 -0.4248
 8620SOL    HW237494   2.209   2.784   8.898  1.6535 -0.1642  0.1708
 8621SOL     OW37495   0.652   3.962  17.044 -0.3203  0.0436 -0.2300
 8621SOL    HW137496   0.716   3.995  17.107 -2.2640 -0.4102  1.9900
 8621SOL    HW237497   0.599   4.034  17.011  1.3560  0.8530 -1.1236
 8622SOL     OW37498   0.382   0.254   0.242 -0.0259  0.2333  0.3171
 8622SOL    HW137499   0.460   0.233   0.293 -0.5378 -0.0233  0.9932
 8622SOL    HW237500   0.357   0.340   0.277  1.5078  1.2391 -1.0381
 8623SOL     OW37501   2.821   4.057   5.022 -0.2456  0.2659 -0.3816
 8623SOL    HW137502   2.909   4.043   5.057 -0.3915  0.6704  0.1578
 8623SOL    HW237503   2.838   4.054   4.928 -3.1540 -1.1438 -0.8539
 8624SOL     OW37504   1.336   2.673   6.080  0.1431 -0.3576 -0.0634
 8624SOL    HW137505   1.411   2.653   6.136 -0.4479 -1.0827  0.4643
 8624SOL    HW237506   1.365   2.634   5.997 -2.4536 -1.0431 -0.6210
 8625SOL     OW37507   0.744   2.328   7.234 -0.4621  0.5937 -0.1267
 8625SOL    HW137508   0.758   2.346   7.327 -0.4311 -1.4166  0.2571
 8625SOL    HW237509   0.779   2.396   7.176  0.0552  1.6577  1.4327
 8626SOL     OW37510   1.230   1.495   4.245 -0.4591 -0.2021 -0.4044
 8626SOL    HW137511   1.140   1.472   4.226 -0.7784 -0.2904  1.2154
 8626SOL    HW237512   1.269   1.524   4.162  0.0881  0.4827  0.0959
 8627SOL     OW37513   2.136   1.174   4.811  0.3619 -0.1829 -0.1740
 8627SOL    HW137514   2.176   1.105   4.864 -1.0976 -0.7066  0.2207
 8627SOL    HW237515   2.173   1.243   4.865 -1.3801  0.6754 -0.0816
 8628SOL     OW37516   0.069   0.708   3.052  0.1880 -0.0208 -0.1156
 8628SOL    HW137517   0.069   0.759   2.971 -0.3114  0.8865  0.4528
 8628SOL    HW237518   4.717   0.675   3.070  0.1572  0.1259  0.0024
 8629SOL     OW37519   2.246   4.619   5.467 -0.6513 -0.0201  0.4045
 8629SOL    HW137520   2.167   4.672   5.476 -0.3695  0.1326  1.9781
 8629SOL    HW237521   2.230   4.546   5.526 -0.8659  0.6446  1.1686
 8630SOL     OW37522   3.424   1.929   6.679  0.0393 -0.2315 -0.1160
 8630SOL    HW137523   3.347   1.917   6.623  0.2856  3.2911 -1.2115
 8630SOL    HW237524   3.396   1.875   6.754 -1.8043  2.3421  1.0519
 8631SOL     OW37525   2.576   2.481   3.842 -0.0940 -0.4353  0.3277
 8631SOL    HW137526   2.575   2.567   3.799 -0.3625 -0.7206 -0.2346
 8631SOL    HW237527   2.513   2.437   3.784 -2.4244 -0.7548  3.0959
 8632SOL     OW37528   4.649   1.364   6.317 -0.2834 -0.3021  0.2171
 8632SOL    HW137529   4.661   1.459   6.324  1.2151 -0.4204 -0.7169
 8632SOL    HW237530   4.677   1.346   6.227 -3.4954  1.8903 -1.2302
 8633SOL     OW37531   0.464   3.418   3.349 -0.4076  0.5514  0.1115
 8633SOL    HW137532   0.488   3.392   3.261 -2.5359  2.0664 -0.9247
 8633SOL    HW237533   0.491   3.336   3.389 -1.3738  0.2297  0.0828
 8634SOL     OW37534   3.585   0.179   3.509  0.1174 -0.0541  0.7049
 8634SOL    HW137535   3.536   0.105   3.544  0.2839 -0.8611 -0.7745
 8634SOL    HW237536   3.628   0.134   3.436  3.5271  1.6804  1.5917
 8635SOL     OW37537   3.013   3.851   4.001 -0.2248 -0.3008  0.3081
 8635SOL    HW137538   3.002   3.826   4.093  0.8364  0.9829  0.7979
 8635SOL    HW237539   3.043   3.939   4.024  1.3625 -0.1788 -2.2132
 8636SOL     OW37540   2.851   3.631  15.083 -0.2855 -0.0404  0.0248
 8636SOL    HW137541   2.767   3.596  15.113  0.0700 -0.6289  0.3212
 8636SOL    HW237542   2.822   3.675  15.002  0.8188 -3.2726 -2.0988
 8637SOL     OW37543   4.192   1.833  16.331  0.0213 -0.0381  0.5524
 8637SOL    HW137544   4.212   1.926  16.336  0.2592 -0.1730  2.0732
 8637SOL    HW237545   4.269   1.800  16.376  0.8585  4.1187  2.1639
 8638SOL     OW37546   2.998   3.837  10.044  0.0276 -0.4374  0.2397
 8638SOL    HW137547   2.981   3.896   9.971  0.6684 -0.0712  0.3871
 8638SOL    HW237548   2.914   3.811  10.082  1.4042 -2.1882  2.1192
 8639SOL     OW37549   4.189   2.311   0.273 -0.6332 -0.8963 -0.7190
 8639SOL    HW137550   4.191   2.384   0.334 -2.0532 -2.0661  0.7098
 8639SOL    HW237551   4.280   2.302   0.246 -0.0598  2.8698 -0.0137
 8640SOL     OW37552   2.274   3.357   9.657  0.2044 -0.2394 -0.8812
 8640SOL    HW137553   2.270   3.394   9.569  0.5990  0.2069 -0.7112
 8640SOL    HW237554   2.232   3.432   9.700 -0.9075 -1.8972  0.8571
 8641SOL     OW37555   2.730   3.575  17.531 -0.1057  0.6104  0.6160
 8641SOL    HW137556   2.706   3.486  17.558  2.1151 -0.6515 -1.6616
 8641SOL    HW237557   2.825   3.567  17.525 -0.2763 -1.3615  0.4538
 8642SOL     OW37558   3.970   3.546  12.929  0.2257 -0.4268 -0.2397
 8642SOL    HW137559   3.934   3.458  12.939  0.4721 -0.4338  0.5778
 8642SOL    HW237560   4.005   3.564  13.016 -1.3258 -1.4193  0.5751
 8643SOL     OW37561   4.701   0.087   9.137  0.1688 -0.8035 -0.1925
 8643SOL    HW137562   0.001   0.027   9.203 -1.3493  0.5005  1.8379
 8643SOL    HW237563   4.624   0.044   9.100  1.2769 -0.1686 -3.2558
 8644SOL     OW37564   2.470   3.377   1.334  0.6393  0.0941  0.1587
 8644SOL    HW137565   2.486   3.442   1.266  1.0825 -0.4685 -0.2734
 8644SOL    HW237566   2.437   3.302   1.283  1.6734 -0.0747 -0.2543
 8645SOL     OW37567   2.200   2.888   7.379 -0.2875  0.6480 -0.3409
 8645SOL    HW137568   2.132   2.836   7.420  0.1941  1.3505  1.3621
 8645SOL    HW237569   2.273   2.871   7.440 -1.0490  1.3858  0.7818
 8646SOL     OW37570   4.148   0.301   7.176 -0.3173 -0.5731  0.4580
 8646SOL    HW137571   4.163   0.338   7.089 -2.1281  0.7852  0.7405
 8646SOL    HW237572   4.055   0.281   7.167 -0.3307  0.1597 -1.0960
 8647SOL     OW37573   4.280   0.432  10.611 -0.2898  0.1552  0.0413
 8647SOL    HW137574   4.256   0.473  10.694 -0.4441  0.0115  0.0687
 8647SOL    HW237575   4.226   0.352  10.608 -2.6321  1.8105 -1.7870
 8648SOL     OW37576   4.166   3.920   0.880 -0.4357  0.4382  0.2960
 8648SOL    HW137577   4.145   3.978   0.953 -0.1523  2.3987 -1.1648
 8648SOL    HW237578   4.080   3.886   0.857  0.1166 -2.6914  2.7940
 8649SOL     OW37579   0.604   2.717   3.006 -0.2293  0.6430  0.0125
 8649SOL    HW137580   0.670   2.647   3.005  1.1432  1.9682 -1.3958
 8649SOL    HW237581   0.532   2.674   3.052 -0.7721 -0.9371 -2.3358
 8650SOL     OW37582   4.513   1.524   8.326 -0.2585 -0.0310  0.4069
 8650SOL    HW137583   4.418   1.531   8.334 -0.4283  1.2024 -2.8929
 8650SOL    HW237584   4.519   1.613   8.293  0.1288  0.1077  0.8579
 8651SOL     OW37585   2.606   3.106   9.735 -0.4125  0.1223  0.4085
 8651SOL    HW137586   2.599   3.192   9.778  1.0243  0.1702  0.5410
 8651SOL    HW237587   2.692   3.121   9.697 -0.0252  2.0175  2.0354
 8652SOL     OW37588   2.916   1.955  17.664 -0.1424  0.2577 -0.2994
 8652SOL    HW137589   2.924   1.872  17.713  1.0511  1.3622  1.3929
 8652SOL    HW237590   2.996   1.941  17.613 -0.6118 -0.6218 -0.8049
 8653SOL     OW37591   1.226   3.980   8.471  0.0849 -0.3623 -0.0535
 8653SOL    HW137592   1.145   3.931   8.462 -1.1684  1.9786 -1.4658
 8653SOL    HW237593   1.237   3.963   8.565  0.5249 -0.2032 -0.0727
 8654SOL     OW37594   0.877   3.548  16.465 -0.6105  0.0798 -0.8100
 8654SOL    HW137595   0.788   3.552  16.499  1.0213 -0.9558  3.5965
 8654SOL    HW237596   0.914   3.634  16.486  2.1230 -0.8514 -1.7412
 8655SOL     OW37597   1.956   0.433  14.196 -0.4245 -0.6015  0.5457
 8655SOL    HW137598   2.010   0.453  14.119  0.5026 -1.0924  1.0644
 8655SOL    HW237599   1.878   0.487  14.186 -1.1094 -1.8447 -0.9298
 8656SOL     OW37600   3.871   3.629   8.849 -0.2661  0.9388  0.1702
 8656SOL    HW137601   3.945   3.689   8.858 -0.7505  1.7010 -0.8693
 8656SOL    HW237602   3.799   3.692   8.853 -1.8697 -0.8613 -0.3461
 8657SOL     OW37603   4.116   2.679   2.684 -0.5397 -0.2972 -0.1169
 8657SOL    HW137604   4.193   2.640   2.726 -0.4303 -0.6191 -0.6140
 8657SOL    HW237605   4.103   2.758   2.735  2.3402 -0.3953  0.7948
 8658SOL     OW37606   2.958   3.857   0.994  0.2473 -0.2168 -0.4184
 8658SOL    HW137607   2.976   3.865   1.087 -0.6939 -1.3610 -0.1350
 8658SOL    HW237608   3.026   3.793   0.974  2.5079  1.1779  2.8468
 8659SOL     OW37609   0.848   3.477   7.956  0.2721  0.2465  0.4882
 8659SOL    HW137610   0.814   3.567   7.955 -0.1606  0.1015  2.2882
 8659SOL    HW237611   0.893   3.471   8.040  0.3852  0.5452  0.4510
 8660SOL     OW37612   0.501   3.745   1.557 -0.9883 -0.1536  0.4998
 8660SOL    HW137613   0.500   3.668   1.500 -0.4911 -0.2139  0.5746
 8660SOL    HW237614   0.523   3.818   1.499  0.7574 -0.0536  1.3115
 8661SOL     OW37615   4.676   0.384  15.485  0.0964 -0.7194 -0.2686
 8661SOL    HW137616   4.720   0.308  15.447  1.6294 -0.8651  1.8468
 8661SOL    HW237617   4.587   0.369  15.452 -0.2345  0.2455  0.1711
 8662SOL     OW37618   1.804   1.685  10.944  0.3954  0.1595  0.0213
 8662SOL    HW137619   1.847   1.646  11.021  2.4241  0.2820 -1.0489
 8662SOL    HW237620   1.872   1.745  10.914  0.6239  0.1231  0.4632
 8663SOL     OW37621   2.262   0.266   5.774 -0.0833 -0.0044 -0.0732
 8663SOL    HW137622   2.273   0.208   5.699 -0.0530  1.0943 -0.9300
 8663SOL    HW237623   2.184   0.232   5.818 -0.1310  2.3771  1.6885
 8664SOL     OW37624   2.258   0.613   7.094 -0.1629 -0.2522  0.1088
 8664SOL    HW137625   2.228   0.701   7.072  0.3490 -0.3998 -1.1773
 8664SOL    HW237626   2.346   0.613   7.056 -0.7782 -0.5601 -1.3257
 8665SOL     OW37627   3.664   4.124   8.460  0.2372 -0.2445  0.5598
 8665SOL    HW137628   3.696   4.148   8.547  1.4893  0.7941 -0.1777
 8665SOL    HW237629   3.569   4.127   8.463  0.1405  0.5349 -3.1802
 8666SOL     OW37630   1.040   1.764   6.337  0.5132  0.1671  0.2585
 8666SOL    HW137631   0.996   1.828   6.281 -0.8666  0.5114  1.7183
 8666SOL    HW237632   1.072   1.710   6.265  2.4625 -1.1585  2.1099
 8667SOL     OW37633   4.525   4.183   8.552  0.2458 -0.3776  0.1924
 8667SOL    HW137634   4.511   4.276   8.535 -0.6484 -0.6195 -0.3348
 8667SOL    HW237635   4.510   4.172   8.646  1.0397  1.4573  0.5310
 8668SOL     OW37636   0.555   2.180   8.472  0.1385  0.3077 -0.4056
 8668SOL    HW137637   0.530   2.138   8.390  1.4292  2.3820 -1.8501
 8668SOL    HW237638   0.627   2.120   8.494 -1.8304 -1.3728  1.5333
 8669SOL     OW37639   1.745   1.585   2.529 -0.5385 -0.2803  0.2021
 8669SOL    HW137640   1.827   1.635   2.525 -0.4176 -0.4593  0.4628
 8669SOL    HW237641   1.771   1.495   2.549 -0.6307 -0.3898 -0.1682
 8670SOL     OW37642   1.737   1.978   5.477 -0.3049  0.1883  0.5469
 8670SOL    HW137643   1.819   2.016   5.445 -1.4635 -0.1253 -2.8415
 8670SOL    HW237644   1.679   2.014   5.410 -0.5395  1.2393  1.3236
 8671SOL     OW37645   1.115   2.054   2.353  0.1305  0.4819 -0.0225
 8671SOL    HW137646   1.111   2.119   2.283  0.4796  0.3727 -0.1393
 8671SOL    HW237647   1.207   2.045   2.378  0.2608 -2.2956 -1.5308
 8672SOL     OW37648   1.125   1.403   5.540 -0.9437 -0.7576 -0.6466
 8672SOL    HW137649   1.049   1.394   5.597 -0.7715 -2.1753 -0.6427
 8672SOL    HW237650   1.084   1.468   5.483  1.4124  2.4108  1.3257
 8673SOL     OW37651   4.627   1.341   9.532 -0.2497  0.1495  0.0963
 8673SOL    HW137652   4.580   1.330   9.614  0.6921 -2.1313  0.3373
 8673SOL    HW237653   4.557   1.327   9.469 -0.4549  2.9455 -0.3150
 8674SOL     OW37654   3.660   3.275   4.649  0.5076  0.2476  0.3758
 8674SOL    HW137655   3.632   3.272   4.558 -2.7129 -0.8777  1.3924
 8674SOL    HW237656   3.672   3.183   4.673  0.4882  0.2151  0.2605
 8675SOL     OW37657   2.481   4.328   9.161  0.4939  0.0820  0.2616
 8675SOL    HW137658   2.472   4.268   9.087  2.4191  0.3428 -0.1768
 8675SOL    HW237659   2.399   4.310   9.207  1.4818 -1.5148  1.3869
 8676SOL     OW37660   1.496   1.726  14.410 -0.0184  0.2059 -0.2410
 8676SOL    HW137661   1.493   1.785  14.485 -0.7374  0.3396 -0.3706
 8676SOL    HW237662   1.408   1.691  14.395  1.2886 -2.5949 -1.3643
 8677SOL     OW37663   0.614   3.658   1.906 -0.9755  0.2185  0.6878
 8677SOL    HW137664   0.672   3.582   1.901  1.7245  2.3365 -0.2173
 8677SOL    HW237665   0.667   3.729   1.869  0.1056 -1.3520 -0.7877
 8678SOL     OW37666   1.992   3.575   5.693 -0.3088  0.0801 -0.3789
 8678SOL    HW137667   1.961   3.665   5.689 -0.6809 -0.0329 -0.0487
 8678SOL    HW237668   2.075   3.597   5.735 -0.4999 -1.4162  0.8043
 8679SOL     OW37669   3.741   2.944   8.734 -0.1047  0.1972 -0.0383
 8679SOL    HW137670   3.792   2.992   8.668  1.0616 -2.9751 -1.4295
 8679SOL    HW237671   3.764   2.985   8.817  1.3101  0.7127 -0.6842
 8680SOL     OW37672   0.032   3.221   3.573  0.8113  0.3372 -0.0968
 8680SOL    HW137673   0.041   3.141   3.624 -0.2022 -0.2305 -0.8029
 8680SOL    HW237674   4.685   3.203   3.529  0.9613 -1.4505  0.3771
 8681SOL     OW37675   2.549   4.413   7.957  0.0949  0.5303 -0.3018
 8681SOL    HW137676   2.485   4.473   7.996  0.9096 -2.5197  5.7886
 8681SOL    HW237677   2.494   4.352   7.908 -1.8471  2.0545 -0.0042
 8682SOL     OW37678   3.105   0.912   5.440 -0.0157  0.4403 -0.0239
 8682SOL    HW137679   3.130   0.965   5.364  1.6408  1.4955  1.2730
 8682SOL    HW237680   3.031   0.869   5.395 -0.3183  1.9878 -1.0033
 8683SOL     OW37681   0.509   3.765  13.237 -0.3722 -0.4573  0.1881
 8683SOL    HW137682   0.462   3.771  13.154 -0.3100 -1.2869  0.0937
 8683SOL    HW237683   0.462   3.813  13.306 -1.3420 -1.8001  0.4649
 8684SOL     OW37684   1.093   3.001  13.115 -0.3225  0.1476 -0.1401
 8684SOL    HW137685   1.085   3.097  13.114  1.2481  0.2849  1.0860
 8684SOL    HW237686   1.171   2.985  13.062 -0.2043 -1.5124  0.5508
 8685SOL     OW37687   0.339   4.711   0.221 -0.0405 -0.3783  0.3151
 8685SOL    HW137688   0.345   0.065   0.251 -2.7793  0.1364 -0.6822
 8685SOL    HW237689   0.384   4.716   0.136 -1.5784 -2.2489 -0.6091
 8686SOL     OW37690   3.104   1.734   6.075  0.0118  0.2617 -0.2522
 8686SOL    HW137691   3.027   1.775   6.037  0.2587  0.2420 -0.7733
 8686SOL    HW237692   3.114   1.778   6.159  0.3678  1.0136 -0.6881
 8687SOL     OW37693   3.261   3.210  16.467  0.6910 -0.1114  0.1369
 8687SOL    HW137694   3.198   3.242  16.531  1.3360  1.0187  0.2140
 8687SOL    HW237695   3.224   3.133  16.425 -1.4095  1.4421 -0.8270
 8688SOL     OW37696   3.463   0.462   3.494 -0.5361 -0.2013  0.2136
 8688SOL    HW137697   3.476   0.369   3.511 -1.8295 -0.3607  0.3326
 8688SOL    HW237698   3.502   0.460   3.407 -0.5541 -1.2909  0.2323
 8689SOL     OW37699   1.134   2.298   7.261  0.4318  0.2966 -0.2310
 8689SOL    HW137700   1.118   2.356   7.186 -0.0355  1.2283  0.5963
 8689SOL    HW237701   1.076   2.337   7.326  1.0933 -0.3523  0.7409
 8690SOL     OW37702   0.893   0.310   3.410  0.2017  0.2943  0.0836
 8690SOL    HW137703   0.855   0.345   3.330  1.2435  1.8743  0.2693
 8690SOL    HW237704   0.985   0.303   3.382 -0.5618  0.6957 -2.5033
 8691SOL     OW37705   2.646   2.488   5.586  0.0286  0.1179 -0.2838
 8691SOL    HW137706   2.692   2.543   5.650 -0.7037 -3.0908  3.0296
 8691SOL    HW237707   2.560   2.531   5.583 -1.4328 -2.6919  1.1081
 8692SOL     OW37708   2.775   1.824   6.561  0.0039  0.4862 -0.4175
 8692SOL    HW137709   2.783   1.824   6.465 -0.8550 -1.9642 -0.4884
 8692SOL    HW237710   2.845   1.761   6.578 -1.8835 -1.1387  1.3388
 8693SOL     OW37711   1.786   1.862  16.883  1.0338  0.7435  0.0721
 8693SOL    HW137712   1.837   1.814  16.948 -0.0638 -0.9413 -0.3101
 8693SOL    HW237713   1.812   1.819  16.802 -3.0818  0.0722 -0.8967
 8694SOL     OW37714   4.247   0.449  15.444 -0.2054  0.2226  0.4107
 8694SOL    HW137715   4.282   0.528  15.402 -0.8914  0.1763 -0.2500
 8694SOL    HW237716   4.327   0.398  15.427  0.2505  0.9801  0.2439
 8695SOL     OW37717   3.931   1.257   9.866  0.2042  0.1493 -0.4396
 8695SOL    HW137718   4.019   1.285   9.841 -0.5931  2.8725 -0.1704
 8695SOL    HW237719   3.898   1.206   9.793 -1.1602  1.1545 -0.5198
 8696SOL     OW37720   2.285   3.162  14.190  0.7988 -0.0465  0.4839
 8696SOL    HW137721   2.213   3.211  14.151  0.0976 -2.3955 -1.1066
 8696SOL    HW237722   2.252   3.125  14.272  1.9223 -0.6408  0.6803
 8697SOL     OW37723   2.399   1.830  14.973 -0.2868  0.0491  0.1227
 8697SOL    HW137724   2.394   1.893  15.045  1.4074  1.5244 -1.0823
 8697SOL    HW237725   2.486   1.851  14.940 -1.2674  1.7621 -1.3344
 8698SOL     OW37726   1.011   1.524   1.615  0.1997  0.0426  0.2097
 8698SOL    HW137727   1.104   1.505   1.625  0.3359 -0.0283 -1.2489
 8698SOL    HW237728   1.018   1.613   1.580  3.8912 -1.2140 -2.2863
 8699SOL     OW37729   0.550   3.191   3.468 -0.6598  0.1032  0.1744
 8699SOL    HW137730   0.558   3.213   3.561  1.0036 -0.6822  0.2002
 8699SOL    HW237731   0.637   3.154   3.458 -0.2877  1.4259 -1.4204
 8700SOL     OW37732   2.659   2.183   3.828 -0.1988 -0.1333  0.5924
 8700SOL    HW137733   2.753   2.195   3.815 -0.1561  0.6232  1.5868
 8700SOL    HW237734   2.623   2.169   3.741 -1.4257  2.4227  0.7117
 8701SOL     OW37735   0.152   4.667   7.718 -0.0731  0.0779  0.3842
 8701SOL    HW137736   0.220   4.681   7.651 -0.3550 -1.3173 -0.1799
 8701SOL    HW237737   0.118   4.582   7.692  0.9658  0.3953 -2.0407
 8702SOL     OW37738   0.760   2.843  12.742  0.1833 -0.7665 -0.0716
 8702SOL    HW137739   0.848   2.816  12.714 -0.3892  0.0842 -2.6853
 8702SOL    HW237740   0.755   2.929  12.700 -1.9187 -0.6830  0.3538
 8703SOL     OW37741   0.518   2.176   7.983  0.5301 -0.0688 -0.7009
 8703SOL    HW137742   0.423   2.166   7.980  0.3130  2.0428 -1.0120
 8703SOL    HW237743   0.542   2.085   8.001  1.1731 -0.2519 -2.4534
 8704SOL     OW37744   2.985   0.566   4.125  0.2613 -0.2000 -0.0768
 8704SOL    HW137745   2.980   0.509   4.048 -2.1912  2.6571 -2.0545
 8704SOL    HW237746   3.070   0.544   4.162  0.7936  0.2269 -1.0634
 8705SOL     OW37747   3.708   3.177   5.808 -0.2189  0.2141 -0.3450
 8705SOL    HW137748   3.691   3.219   5.893 -0.1756 -0.8875  0.2053
 8705SOL    HW237749   3.746   3.094   5.836  0.1656  0.3609 -0.4369
 8706SOL     OW37750   2.001   0.859  13.435 -0.0993 -0.7768 -0.0207
 8706SOL    HW137751   2.030   0.892  13.350  0.6455 -0.6894  0.2692
 8706SOL    HW237752   1.911   0.831  13.416 -0.6400  1.2745 -0.4726
 8707SOL     OW37753   1.418   3.521  15.671 -0.2515  0.1202  0.3174
 8707SOL    HW137754   1.370   3.593  15.712  0.3064  0.3340  0.5982
 8707SOL    HW237755   1.481   3.498  15.739 -0.9011  1.3059  1.3176
 8708SOL     OW37756   1.653   3.709  16.273 -0.3093 -0.4795 -0.3243
 8708SOL    HW137757   1.739   3.672  16.250 -0.4442  0.6423 -2.6250
 8708SOL    HW237758   1.669   3.803  16.280 -0.0467 -0.4133 -1.9910
 8709SOL     OW37759   3.091   3.483  12.885  0.1025 -0.0354  0.2373
 8709SOL    HW137760   3.068   3.394  12.858  1.2719 -0.7047  1.3865
 8709SOL    HW237761   3.186   3.487  12.870 -0.1955  0.6712 -1.3827
 8710SOL     OW37762   4.368   4.677   7.486  0.1021 -0.3373  0.2379
 8710SOL    HW137763   4.338   4.586   7.478 -0.6858 -0.0147 -0.3484
 8710SOL    HW237764   4.382   4.683   7.581 -2.4544  3.6577  0.3421
 8711SOL     OW37765   0.271   0.802   6.480 -0.8698  0.1792  0.5334
 8711SOL    HW137766   0.344   0.864   6.478  1.4664 -2.6106 -1.7119
 8711SOL    HW237767   0.219   0.855   6.539  1.4743 -0.7231  3.4208
 8712SOL     OW37768   3.733   0.554   1.191  0.0431 -0.1834 -0.6058
 8712SOL    HW137769   3.689   0.626   1.145  0.5382 -0.0530 -0.8721
 8712SOL    HW237770   3.793   0.517   1.127 -0.6738 -1.4117 -0.5724
 8713SOL     OW37771   1.670   1.389  13.027  0.4625  0.2093  0.0291
 8713SOL    HW137772   1.676   1.323  12.958 -1.4591 -0.4320  0.4636
 8713SOL    HW237773   1.749   1.440  13.010  0.8567 -1.1902 -2.3440
 8714SOL     OW37774   4.364   3.386   9.297 -0.3777 -0.3178  0.5543
 8714SOL    HW137775   4.358   3.431   9.381  0.0066 -0.3524  0.5975
 8714SOL    HW237776   4.453   3.353   9.308 -1.2251 -3.1963 -1.0822
 8715SOL     OW37777   4.178   2.914  11.929 -0.2661 -0.3533 -0.4255
 8715SOL    HW137778   4.271   2.921  11.951 -0.5721 -1.7754  1.3510
 8715SOL    HW237779   4.145   2.970  12.000 -1.6325 -1.2853 -0.3261
 8716SOL     OW37780   1.935   3.499   3.830 -0.7110  0.0389 -0.3466
 8716SOL    HW137781   1.951   3.452   3.912  2.1385 -0.0764 -0.9577
 8716SOL    HW237782   1.850   3.463   3.807 -1.2674  0.3594  1.1890
 8717SOL     OW37783   4.088   0.154   6.616 -0.4078 -0.0806 -0.3261
 8717SOL    HW137784   4.110   0.246   6.604  0.8146 -0.2607  0.5398
 8717SOL    HW237785   4.101   0.140   6.710  1.3000 -2.2046 -0.8797
 8718SOL     OW37786   0.296   0.354   7.852 -0.0785 -0.6958 -0.4602
 8718SOL    HW137787   0.362   0.393   7.794 -0.4146  0.3906 -0.1081
 8718SOL    HW237788   0.218   0.379   7.803 -0.7067 -4.4294 -1.3465
 8719SOL     OW37789   2.033   3.882   0.063  0.2272  0.6130 -0.3284
 8719SOL    HW137790   2.089   3.906   0.136  1.6406 -0.4134 -1.0664
 8719SOL    HW237791   1.955   3.846   0.105 -0.5305  0.0567 -2.1982
 8720SOL     OW37792   1.442   0.374  15.233 -0.1375 -0.0915 -0.4183
 8720SOL    HW137793   1.411   0.414  15.151 -2.6455  1.6872  1.3754
 8720SOL    HW237794   1.528   0.415  15.245  1.0288 -2.2835 -1.2929
 8721SOL     OW37795   1.216   1.033   7.904  0.3419 -0.1648 -0.1711
 8721SOL    HW137796   1.261   1.112   7.935  1.3947 -1.1641  0.8418
 8721SOL    HW237797   1.133   1.069   7.873  0.7277 -0.3151 -1.3861
 8722SOL     OW37798   0.332   4.383  11.157  0.0602  0.4684  0.2167
 8722SOL    HW137799   0.308   4.367  11.248  0.2181  2.6992  0.6672
 8722SOL    HW237800   0.346   4.293  11.128 -1.5428  1.1810 -2.6811
 8723SOL     OW37801   2.718   2.060   2.834  0.1650 -0.0336 -0.9221
 8723SOL    HW137802   2.776   1.990   2.802  1.2553  0.0814  0.8342
 8723SOL    HW237803   2.695   2.095   2.748  1.6156  0.4656 -1.0988
 8724SOL     OW37804   2.472   4.446   0.506 -0.2130  0.1000 -0.1732
 8724SOL    HW137805   2.488   4.491   0.423 -0.1237 -1.7396 -1.1561
 8724SOL    HW237806   2.481   4.354   0.481 -0.6838 -0.2857  1.0537
 8725SOL     OW37807   0.861   1.431   7.230  0.4909  0.1039  0.7540
 8725SOL    HW137808   0.787   1.470   7.182  1.1351 -1.4795 -1.5630
 8725SOL    HW237809   0.845   1.465   7.318  0.4856 -0.7790  1.0875
 8726SOL     OW37810   3.697   2.708  17.671 -0.4338  0.1999 -0.6223
 8726SOL    HW137811   3.736   2.793  17.648  2.8574 -0.6699  1.7709
 8726SOL    HW237812   3.639   2.730   0.001 -0.2582 -1.1167 -0.0895
 8727SOL     OW37813   2.329   2.585   8.980 -0.5391  0.8209 -0.8562
 8727SOL    HW137814   2.411   2.634   8.989 -0.8165  0.8364  1.8596
 8727SOL    HW237815   2.368   2.504   8.948 -3.5435 -0.9587  0.0564
 8728SOL     OW37816   0.841   1.534   0.995  0.1425 -0.4965 -0.0444
 8728SOL    HW137817   0.850   1.610   0.937  0.8267 -1.5043 -1.2531
 8728SOL    HW237818   0.752   1.500   0.992 -0.3704  0.8324  0.2798
 8729SOL     OW37819   3.503   0.409   1.333  0.6857  0.4316  0.1975
 8729SOL    HW137820   3.572   0.463   1.294 -0.4548  0.6285 -1.5358
 8729SOL    HW237821   3.454   0.376   1.259 -0.5320 -1.8750  2.0298
 8730SOL     OW37822   2.667   1.212   3.907  0.1076  0.4448 -0.6082
 8730SOL    HW137823   2.712   1.163   3.838 -0.8855 -1.8672  0.3796
 8730SOL    HW237824   2.702   1.300   3.902  1.7126 -0.2681 -1.9130
 8731SOL     OW37825   0.746   1.782   6.970 -0.4461  1.0072 -0.1599
 8731SOL    HW137826   0.653   1.778   6.990 -0.3695 -1.3919 -0.2757
 8731SOL    HW237827   0.775   1.759   7.059 -0.9966  1.1355  0.0517
 8732SOL     OW37828   0.902   2.627   5.405 -0.3593 -0.5106 -0.4537
 8732SOL    HW137829   0.962   2.655   5.335  0.1924 -0.2674  0.1160
 8732SOL    HW237830   0.951   2.550   5.433  1.2446  0.4371 -0.6593
 8733SOL     OW37831   1.819   0.315   7.140  0.0615  0.1466  0.0857
 8733SOL    HW137832   1.783   0.347   7.057 -0.0184  1.0415  0.4682
 8733SOL    HW237833   1.908   0.349   7.132 -0.1372  0.7095  0.2465
 8734SOL     OW37834   3.860   2.231   4.757 -0.4014 -0.0691  0.0545
 8734SOL    HW137835   3.794   2.217   4.690 -0.8743 -0.7118  0.6489
 8734SOL    HW237836   3.866   2.141   4.788 -0.7041  0.5506  1.9226
 8735SOL     OW37837   0.179   0.262  14.019 -0.0355  0.4106 -0.3563
 8735SOL    HW137838   0.224   0.346  14.017  1.7370 -0.5475 -0.7857
 8735SOL    HW237839   0.245   0.197  13.994 -0.5478 -0.5135  0.6610
 8736SOL     OW37840   1.809   0.495   1.114  0.3540 -0.0840 -0.6097
 8736SOL    HW137841   1.823   0.476   1.207 -0.8260  1.4028 -0.1261
 8736SOL    HW237842   1.900   0.504   1.084 -0.3936  1.3135 -2.4835
 8737SOL     OW37843   2.307   1.311  16.897 -0.0624  0.4433  0.2561
 8737SOL    HW137844   2.324   1.240  16.835 -0.8519  0.9925 -0.5823
 8737SOL    HW237845   2.319   1.264  16.979 -0.0232  0.3656  0.2049
 8738SOL     OW37846   3.847   2.148   8.946 -0.2936  0.3943 -0.3681
 8738SOL    HW137847   3.827   2.081   8.880  1.4360 -1.1693  0.7125
 8738SOL    HW237848   3.931   2.116   8.979  0.0979  1.2527 -0.5283
 8739SOL     OW37849   0.518   0.119   1.053 -0.5284  0.4347 -0.6037
 8739SOL    HW137850   0.435   0.074   1.042 -0.0455 -1.2050  2.3062
 8739SOL    HW237851   0.500   0.204   1.015  3.0060  1.3743 -0.2134
 8740SOL     OW37852   4.030   1.132   3.329 -0.0027 -0.4002  0.3925
 8740SOL    HW137853   4.097   1.184   3.374  0.8153 -0.2631 -0.9766
 8740SOL    HW237854   3.967   1.202   3.314 -0.8425 -0.8496  1.8546
 8741SOL     OW37855   0.330   1.275   6.920 -0.4634  0.7528  0.0055
 8741SOL    HW137856   0.372   1.220   6.854 -1.1463  0.2911 -0.0515
 8741SOL    HW237857   0.326   1.218   6.997 -1.6730  0.2703 -0.4089
 8742SOL     OW37858   3.837   1.915   5.978 -0.1969  0.3888  0.0289
 8742SOL    HW137859   3.912   1.908   6.037 -0.2573  2.5392  0.3728
 8742SOL    HW237860   3.820   1.822   5.964  0.7914  0.1799  0.1946
 8743SOL     OW37861   0.047   0.616  16.498 -0.4166  0.2025 -0.1944
 8743SOL    HW137862   0.003   0.596  16.415 -2.4962  0.6144  0.7967
 8743SOL    HW237863   0.062   0.530  16.537  0.0314  0.0516 -0.6931
 8744SOL     OW37864   3.351   2.451   8.031 -0.2376  0.6941 -0.5013
 8744SOL    HW137865   3.287   2.381   8.019  0.1965  0.5261 -1.8522
 8744SOL    HW237866   3.361   2.469   8.124  1.4304 -0.8711 -0.3731
 8745SOL     OW37867   4.433   1.568   4.524 -0.3973  0.3158  0.2230
 8745SOL    HW137868   4.494   1.539   4.592 -2.0912 -1.0477  1.1378
 8745SOL    HW237869   4.437   1.662   4.541 -0.9677  0.0706  1.7093
 8746SOL     OW37870   1.210   0.407  15.350  0.6022  0.2158  0.1605
 8746SOL    HW137871   1.244   0.491  15.378  0.4888  0.2106  0.3120
 8746SOL    HW237872   1.296   0.374  15.323  0.5864  1.8168 -1.8247
 8747SOL     OW37873   1.474   1.097   9.535 -0.0253 -0.4796 -0.5510
 8747SOL    HW137874   1.522   1.179   9.531  0.5063 -0.7426  0.3357
 8747SOL    HW237875   1.417   1.105   9.459 -1.7716 -0.2061  0.7883
 8748SOL     OW37876   2.237   3.429   1.558 -0.3734  0.7542  0.2167
 8748SOL    HW137877   2.250   3.346   1.604 -1.1427  0.4530 -0.1039
 8748SOL    HW237878   2.233   3.411   1.464 -1.2675 -0.6176  0.5109
 8749SOL     OW37879   1.883   1.687   9.140 -0.0388 -0.0256 -0.3579
 8749SOL    HW137880   1.825   1.625   9.097  1.5963 -2.8683  1.6014
 8749SOL    HW237881   1.955   1.694   9.077  1.0939 -1.1057  0.8314
 8750SOL     OW37882   0.683   0.616  16.827  0.2054  0.5207 -0.7515
 8750SOL    HW137883   0.707   0.540  16.880 -1.1833  1.9598  1.8810
 8750SOL    HW237884   0.651   0.675  16.895 -0.5641 -0.0150 -0.6464
 8751SOL     OW37885   0.416   1.141   8.409  0.1689  0.5832 -0.1353
 8751SOL    HW137886   0.424   1.188   8.326 -0.6550  0.5458 -0.2366
 8751SOL    HW237887   0.337   1.183   8.444  0.6328  1.8123 -0.5858
 8752SOL     OW37888   0.720   2.993   2.937  0.6312  0.3621 -0.0781
 8752SOL    HW137889   0.702   2.899   2.935  0.7905  0.3939 -2.9159
 8752SOL    HW237890   0.636   3.033   2.956 -1.7765 -4.9149  0.4872
 8753SOL     OW37891   2.842   2.446  15.311  0.4266 -1.0009 -0.0641
 8753SOL    HW137892   2.822   2.524  15.362 -0.4298 -0.8233 -0.6741
 8753SOL    HW237893   2.799   2.380  15.365 -2.5296 -0.1520 -1.4338
 8754SOL     OW37894   4.270   4.019   3.456  0.2155  0.6710 -0.4564
 8754SOL    HW137895   4.266   4.035   3.550  3.3205  2.1015 -0.5830
 8754SOL    HW237896   4.180   4.034   3.428 -0.7148 -0.1881  2.0604
 8755SOL     OW37897   4.098   3.825  17.543 -0.4578 -0.1526 -0.2210
 8755SOL    HW137898   4.138   3.762  17.482 -1.5600  1.2421 -2.4043
 8755SOL    HW237899   4.023   3.849  17.488 -1.4942 -0.4890  1.0480
 8756SOL     OW37900   2.630   2.066  15.001  0.0663  0.1690 -0.1605
 8756SOL    HW137901   2.677   2.034  14.924  0.4181 -0.5553  0.3557
 8756SOL    HW237902   2.698   2.114  15.049 -0.0061  0.7036 -0.5892
 8757SOL     OW37903   4.081   1.727   9.053  0.2463 -0.2573 -0.2540
 8757SOL    HW137904   4.021   1.743   9.125 -1.5740 -3.6473 -1.0242
 8757SOL    HW237905   4.158   1.778   9.077 -1.1537  1.1455  1.2568
 8758SOL     OW37906   2.522   0.279  14.761 -0.1450  0.2153 -0.9782
 8758SOL    HW137907   2.545   0.317  14.846 -2.0518 -1.0697  0.1263
 8758SOL    HW237908   2.602   0.255  14.714 -0.0203 -1.1704 -0.0609
 8759SOL     OW37909   3.214   1.455   4.228  0.1863  0.0619  0.0600
 8759SOL    HW137910   3.281   1.394   4.257  1.1170  0.6833 -0.8119
 8759SOL    HW237911   3.149   1.390   4.199  0.3309  1.1852 -2.8268
 8760SOL     OW37912   4.712   0.047  16.748 -0.3977 -0.1371 -0.0366
 8760SOL    HW137913   4.726   0.139  16.728 -0.4791 -0.3662 -1.1630
 8760SOL    HW237914   0.059   0.002  16.735  0.4392  1.5870 -0.5871
 8761SOL     OW37915   3.769   0.852   4.917 -0.5649  0.0494 -0.6505
 8761SOL    HW137916   3.837   0.786   4.904 -1.3255 -1.0933  1.1855
 8761SOL    HW237917   3.743   0.835   5.008  3.2427 -1.4870  0.1729
 8762SOL     OW37918   1.884   3.111  14.094  0.5582  0.6853 -0.8588
 8762SOL    HW137919   1.938   3.168  14.149 -0.2869 -0.2168  0.8993
 8762SOL    HW237920   1.941   3.114  14.018  0.7427  3.2808 -0.6209
 8763SOL     OW37921   0.201   3.930   8.666  0.2193 -0.3120  0.1408
 8763SOL    HW137922   0.132   3.867   8.687 -0.0453 -0.0508  0.0537
 8763SOL    HW237923   0.241   3.882   8.594 -1.4719 -1.1215 -0.2533
 8764SOL     OW37924   0.440   1.973   8.711 -0.2531  0.1186 -0.5280
 8764SOL    HW137925   0.532   1.991   8.730 -0.4039  2.3516 -1.9367
 8764SOL    HW237926   0.433   1.954   8.617 -1.3118  2.9121 -1.0098
 8765SOL     OW37927   1.519   0.182   1.646  0.1406  0.1382  0.1115
 8765SOL    HW137928   1.425   0.188   1.634  0.0136 -2.7228 -0.3850
 8765SOL    HW237929   1.523   0.176   1.742  1.8880 -1.3895 -0.0570
 8766SOL     OW37930   0.816   2.024   5.803 -0.0728 -0.3986 -0.5367
 8766SOL    HW137931   0.857   2.100   5.843  0.9177 -0.1538 -2.0118
 8766SOL    HW237932   0.737   2.014   5.855  1.5497  2.1116  2.4020
 8767SOL     OW37933   3.564   1.300   6.795 -0.1198  0.1793  0.0056
 8767SOL    HW137934   3.528   1.389   6.794 -1.7390 -0.4709  0.9269
 8767SOL    HW237935   3.598   1.305   6.706  1.2426  2.8884  0.6497
 8768SOL     OW37936   0.415   3.196   2.438 -0.1223 -0.1067  0.3326
 8768SOL    HW137937   0.406   3.287   2.410 -3.8934 -1.0210 -1.4998
 8768SOL    HW237938   0.471   3.212   2.514 -1.8504  1.1661  1.3237
 8769SOL     OW37939   0.592   4.088   2.955  0.0593  0.4038  0.5442
 8769SOL    HW137940   0.590   4.007   3.005 -1.3228  0.4723  0.5977
 8769SOL    HW237941   0.611   4.056   2.867  0.3698  1.2587  0.3038
 8770SOL     OW37942   2.545   1.224   5.302 -0.0645 -0.1811  0.1367
 8770SOL    HW137943   2.469   1.175   5.333 -1.4761  1.1892 -1.1809
 8770SOL    HW237944   2.529   1.232   5.208 -1.6795  0.1536  0.4522
 8771SOL     OW37945   4.436   4.135   9.129  0.5530 -0.0762 -0.0572
 8771SOL    HW137946   4.481   4.053   9.145  1.4090  0.5603  0.8079
 8771SOL    HW237947   4.344   4.110   9.120  0.1723  1.6215 -1.0955
 8772SOL     OW37948   0.385   4.480  17.539 -0.1947  0.8378  0.1350
 8772SOL    HW137949   0.295   4.510  17.554 -0.2486 -0.2567  2.0012
 8772SOL    HW237950   0.420   4.569  17.541  1.1512  0.2867  0.4664
 8773SOL     OW37951   0.042   2.749   6.664  0.4951 -0.4226 -0.7536
 8773SOL    HW137952   0.100   2.675   6.644 -2.0001 -3.4227  2.9743
 8773SOL    HW237953   0.046   2.812   6.593  1.1737 -1.3605 -1.5491
 8774SOL     OW37954   3.712   2.860  13.803 -0.5162  0.4237  0.1163
 8774SOL    HW137955   3.728   2.848  13.897 -0.4335  0.6586  0.1334
 8774SOL    HW237956   3.755   2.944  13.786 -2.1702  1.1076 -0.6733
 8775SOL     OW37957   1.412   1.816   3.353  0.0676  0.1984  0.1376
 8775SOL    HW137958   1.456   1.811   3.438  0.3029  2.5521  0.1440
 8775SOL    HW237959   1.425   1.905   3.319 -0.3889  0.0199 -0.5058
 8776SOL     OW37960   3.536   3.297   2.715  0.5626  0.0233  0.0056
 8776SOL    HW137961   3.566   3.206   2.713  0.2112 -0.0908  0.0663
 8776SOL    HW237962   3.563   3.337   2.798  0.6905 -0.2685  0.1038
 8777SOL     OW37963   3.532   0.902   8.060  0.8539  0.0234 -0.2951
 8777SOL    HW137964   3.485   0.839   8.005  0.9657  0.4031 -0.8318
 8777SOL    HW237965   3.604   0.846   8.088 -1.0466 -1.8021  0.9036
 8778SOL     OW37966   1.861   2.209   8.009  0.2926  0.8694 -0.1741
 8778SOL    HW137967   1.935   2.165   8.051  0.0955 -0.6116 -1.3752
 8778SOL    HW237968   1.789   2.153   8.037 -0.6438  2.8432  1.4043
 8779SOL     OW37969   4.031   3.950  11.897 -0.0643 -0.6367  0.0053
 8779SOL    HW137970   4.118   3.991  11.895 -1.0424  1.3371 -1.9829
 8779SOL    HW237971   4.004   3.997  11.976  0.4938  2.3273 -1.5726
 8780SOL     OW37972   3.295   3.311   2.271  0.5641 -0.1806 -0.1943
 8780SOL    HW137973   3.211   3.305   2.316 -0.0020  0.2790 -1.1966
 8780SOL    HW237974   3.357   3.306   2.344 -1.5099 -1.9827  1.4536
 8781SOL     OW37975   3.063   2.605   9.849 -0.1754  0.3542 -0.1183
 8781SOL    HW137976   3.090   2.696   9.834  2.2489 -0.8286 -3.1034
 8781SOL    HW237977   3.148   2.559   9.848 -0.0145  0.6675 -0.7397
 8782SOL     OW37978   2.577   0.246   2.706 -0.0304  0.2457  0.0314
 8782SOL    HW137979   2.524   0.198   2.769 -0.9522  0.2405 -0.7325
 8782SOL    HW237980   2.519   0.246   2.630  0.7012 -2.0603 -0.5172
 8783SOL     OW37981   2.388   3.257  12.086  0.5537 -0.1629  0.3817
 8783SOL    HW137982   2.356   3.188  12.027 -0.2140 -0.6390  1.3487
 8783SOL    HW237983   2.403   3.208  12.167  3.2658  0.0246 -0.0189
 8784SOL     OW37984   0.294   3.332   0.283 -0.2103 -0.2864 -0.4007
 8784SOL    HW137985   0.324   3.419   0.307  0.0114 -0.9142  1.5546
 8784SOL    HW237986   0.295   3.341   0.187  1.6013  2.6563 -0.0919
 8785SOL     OW37987   1.093   3.980   6.258 -0.5726 -0.3046  0.4519
 8785SOL    HW137988   1.147   4.024   6.193  0.4308 -0.8688  0.9126
 8785SOL    HW237989   1.091   3.891   6.222 -1.1299  0.6715 -1.9056
 8786SOL     OW37990   4.095   2.874   5.084 -0.0649  0.3205 -0.1722
 8786SOL    HW137991   4.168   2.881   5.022  0.7079  0.0869  0.7102
 8786SOL    HW237992   4.033   2.818   5.036 -1.1286 -0.3727  2.0189
 8787SOL     OW37993   0.207   2.312   6.771 -0.4767 -0.0066 -0.2521
 8787SOL    HW137994   0.186   2.242   6.709 -2.9012 -0.1828  0.7515
 8787SOL    HW237995   0.138   2.377   6.755 -1.9884 -1.7497 -0.8533
 8788SOL     OW37996   0.196   2.800   6.378 -0.2148  0.5042 -0.1852
 8788SOL    HW137997   0.193   2.895   6.377  0.8741  0.5108 -2.3585
 8788SOL    HW237998   0.103   2.788   6.363 -0.1774 -1.7346  1.3827
 8789SOL     OW37999   3.390   4.071   2.410 -0.2636 -0.2016  0.1290
 8789SOL    HW138000   3.438   4.145   2.372  0.8248 -0.0983  1.7126
 8789SOL    HW238001   3.453   4.002   2.389  0.1577  0.3536 -0.4322
 8790SOL     OW38002   0.336   3.984   4.079 -0.1578  0.2562 -0.0319
 8790SOL    HW138003   0.269   3.951   4.019  0.0384 -0.3648  0.0997
 8790SOL    HW238004   0.308   3.947   4.163 -0.4381 -0.7969 -0.5922
 8791SOL     OW38005   4.639   1.451   6.661 -0.1070 -0.1484  0.2087
 8791SOL    HW138006   4.731   1.431   6.644 -0.5277 -0.9093 -1.2304
 8791SOL    HW238007   4.632   1.435   6.755  2.2884 -0.6125  0.3045
 8792SOL     OW38008   3.976   4.009   2.389  0.4363 -0.1074  0.5368
 8792SOL    HW138009   4.064   3.997   2.425 -0.2742 -0.5764  2.1440
 8792SOL    HW238010   3.932   4.063   2.455  2.4215  1.3721  0.6420
 8793SOL     OW38011   0.698   4.288  14.320  0.2785  0.2903  0.3100
 8793SOL    HW138012   0.743   4.204  14.319 -0.6652 -0.2502  1.9202
 8793SOL    HW238013   0.669   4.294  14.411 -0.5703 -1.4989  0.1450
 8794SOL     OW38014   0.964   0.232   7.416  0.1047  0.2479  0.2054
 8794SOL    HW138015   0.895   0.295   7.437 -1.0298 -0.9928  0.1860
 8794SOL    HW238016   0.992   0.203   7.503 -0.4752 -0.8535  0.0283
 8795SOL     OW38017   4.375   1.782   5.883 -0.2450  0.6187  0.0605
 8795SOL    HW138018   4.415   1.869   5.886  1.0426  0.0042  0.2555
 8795SOL    HW238019   4.284   1.796   5.856 -0.9052 -0.8653  1.4968
 8796SOL     OW38020   0.518   4.151   4.396 -0.2357  0.3746  0.3979
 8796SOL    HW138021   0.536   4.205   4.319  1.8103  1.0991  1.3723
 8796SOL    HW238022   0.604   4.131   4.433  0.6147  1.8213 -0.8124
 8797SOL     OW38023   2.667   1.179   2.859 -0.2918  0.2570  0.1370
 8797SOL    HW138024   2.590   1.203   2.807  0.0051 -2.0047 -1.3450
 8797SOL    HW238025   2.724   1.128   2.801 -1.5217  0.1077 -0.9309
 8798SOL     OW38026   1.196   3.234  12.953 -0.4184 -0.4837  0.2385
 8798SOL    HW138027   1.230   3.313  12.910 -4.7709  1.5845  0.6615
 8798SOL    HW238028   1.267   3.212  13.014 -1.5734  2.8591  2.8112
 8799SOL     OW38029   3.137   0.700  16.847  0.3404  0.2422  0.3945
 8799SOL    HW138030   3.168   0.622  16.801 -3.5779 -0.5885 -0.8687
 8799SOL    HW238031   3.088   0.741  16.776 -0.7679 -1.4268  0.1848
 8800SOL     OW38032   2.930   4.707   4.468  0.3307 -0.1691 -0.1899
 8800SOL    HW138033   2.836   4.702   4.488  1.0129 -1.6012  2.5940
 8800SOL    HW238034   2.921   4.710   4.372  2.0543 -0.1162 -0.3501
 8801SOL     OW38035   4.212   3.015  15.736  0.2785 -0.2629 -0.1910
 8801SOL    HW138036   4.287   3.007  15.678 -0.2819 -1.3659 -0.7757
 8801SOL    HW238037   4.219   3.107  15.760  4.7346 -0.5434 -0.5032
 8802SOL     OW38038   2.131   1.402  12.375 -0.0369 -0.1134  0.2160
 8802SOL    HW138039   2.095   1.357  12.299 -0.8948  0.4413  0.2893
 8802SOL    HW238040   2.224   1.402  12.355 -0.7688 -1.4261 -3.1095
 8803SOL     OW38041   4.507   1.801   4.237 -0.5884 -0.8291 -0.1517
 8803SOL    HW138042   4.566   1.875   4.225 -1.2316 -0.4156 -0.8077
 8803SOL    HW238043   4.466   1.825   4.320  2.7290  0.3846  1.1184
 8804SOL     OW38044   2.650   2.474  15.080 -0.1712 -0.1091 -0.2856
 8804SOL    HW138045   2.567   2.466  15.127 -1.4665 -0.1691 -2.6056
 8804SOL    HW238046   2.705   2.444  15.153 -0.7724 -1.0366 -0.2045
 8805SOL     OW38047   2.513   2.464  13.903 -0.4462 -0.2115 -0.1043
 8805SOL    HW138048   2.418   2.464  13.912 -0.6775  0.6500 -2.7262
 8805SOL    HW238049   2.520   2.552  13.866 -2.6659  1.0920  2.5298
 8806SOL     OW38050   2.994   4.370   2.415  0.3372 -0.1716 -0.3623
 8806SOL    HW138051   2.969   4.394   2.326  3.6114 -0.1172 -1.2820
 8806SOL    HW238052   3.051   4.294   2.405  0.0838 -0.2404 -1.2831
 8807SOL     OW38053   2.949   3.766   7.515 -0.9180  0.2552  0.5210
 8807SOL    HW138054   2.943   3.862   7.514 -0.9529  0.2592  1.5458
 8807SOL    HW238055   2.905   3.759   7.599 -0.5528  0.2286  0.7095
 8808SOL     OW38056   2.827   4.019  16.022 -0.5914 -0.5197  0.0289
 8808SOL    HW138057   2.873   4.078  15.962  1.9976 -2.0907  0.4863
 8808SOL    HW238058   2.895   4.001  16.086 -2.2445 -2.4112  1.2609
 8809SOL     OW38059   4.238   1.233   7.350 -0.0760  0.1742 -0.6813
 8809SOL    HW138060   4.183   1.163   7.313  0.9388 -1.0011  0.0102
 8809SOL    HW238061   4.181   1.305   7.376  0.0074  0.5339 -1.5054
 8810SOL     OW38062   4.355   4.377   4.562  0.1094  0.4507 -0.0883
 8810SOL    HW138063   4.451   4.372   4.562  0.0623 -0.3992  0.1687
 8810SOL    HW238064   4.339   4.342   4.474  1.9565 -0.9424  0.1358
 8811SOL     OW38065   1.840   0.449   6.275  0.3218 -0.4243  0.1046
 8811SOL    HW138066   1.912   0.452   6.339  2.1816  0.3414 -2.0054
 8811SOL    HW238067   1.858   0.520   6.213 -0.5485  0.0922  0.4408
 8812SOL     OW38068   3.469   2.942   9.759  0.1138 -0.2264  0.3568
 8812SOL    HW138069   3.400   2.981   9.706  1.0730  1.5678  0.4182
 8812SOL    HW238070   3.518   2.908   9.683  2.3579  1.3661  1.0895
 8813SOL     OW38071   1.448   2.663   3.012  0.7408 -0.4512 -0.1584
 8813SOL    HW138072   1.523   2.603   3.018  0.2635 -1.1693 -1.5289
 8813SOL    HW238073   1.391   2.609   2.958  1.8240 -1.4848 -0.2718
 8814SOL     OW38074   1.613   3.208   1.890  0.6098 -0.1008 -0.2618
 8814SOL    HW138075   1.619   3.145   1.961  1.1847  1.8358  1.3981
 8814SOL    HW238076   1.691   3.181   1.843  1.7978 -0.0509  1.6849
 8815SOL     OW38077   1.946   1.450   3.084 -0.1354 -0.1168  0.2597
 8815SOL    HW138078   2.037   1.470   3.106 -0.2861 -0.4014  1.1487
 8815SOL    HW238079   1.929   1.392   3.159 -0.7011 -2.2255 -1.5077
 8816SOL     OW38080   0.968   4.605  15.248  0.4120  0.6493  0.6114
 8816SOL    HW138081   0.942   4.683  15.199 -1.9181 -1.5269 -1.6016
 8816SOL    HW238082   0.999   4.538  15.187  2.4257 -0.7312  3.1238
 8817SOL     OW38083   2.316   0.185   2.286 -0.0581 -0.2213 -0.1093
 8817SOL    HW138084   2.225   0.161   2.304  0.0364  0.3803  1.1798
 8817SOL    HW238085   2.304   0.194   2.192  0.7983  0.7315 -0.1250
 8818SOL     OW38086   2.078   3.890   5.704  0.4218 -0.0118 -0.0319
 8818SOL    HW138087   2.059   3.894   5.798  1.2377 -0.8444  0.1748
 8818SOL    HW238088   1.989   3.877   5.671  0.6673 -0.0044 -0.6893
 8819SOL     OW38089   4.444   2.363   3.345 -0.1663  0.0745 -0.3275
 8819SOL    HW138090   4.352   2.340   3.335 -0.6947  1.6981  0.8626
 8819SOL    HW238091   4.487   2.278   3.352  0.2916  0.3665  0.4393
 8820SOL     OW38092   2.949   1.242   7.557 -0.8480  0.4375 -0.0434
 8820SOL    HW138093   2.858   1.212   7.549 -0.7865 -0.1453  1.6435
 8820SOL    HW238094   2.942   1.323   7.606 -3.1654  0.5976 -0.6007
 8821SOL     OW38095   0.422   3.677  11.127  0.0501  0.9391  0.3494
 8821SOL    HW138096   0.455   3.635  11.207 -1.0647  0.2997  0.4694
 8821SOL    HW238097   0.486   3.644  11.064  0.0475  3.3007 -0.9125
 8822SOL     OW38098   0.311   0.605  12.715  0.7668 -0.1755  0.2409
 8822SOL    HW138099   0.355   0.541  12.658  1.5777  0.8205 -0.2504
 8822SOL    HW238100   0.261   0.543  12.768  1.0022  1.1249  2.0009
 8823SOL     OW38101   0.753   0.005   1.146  0.2506  0.5487  0.7754
 8823SOL    HW138102   0.729   4.717   1.236 -0.2580 -1.4680  0.1073
 8823SOL    HW238103   0.678   0.052   1.109  0.6651  0.0826 -0.6528
 8824SOL     OW38104   4.143   1.485   5.793 -0.5232  0.2931  0.2652
 8824SOL    HW138105   4.179   1.446   5.714 -1.3342  1.3938 -0.6455
 8824SOL    HW238106   4.079   1.544   5.753 -1.8879 -1.9543 -0.8286
 8825SOL     OW38107   0.256   0.896   0.668 -0.1849 -0.3678  0.2908
 8825SOL    HW138108   0.271   0.988   0.649  1.3675 -0.5837  0.4786
 8825SOL    HW238109   0.337   0.866   0.709  1.2613 -2.8682 -4.3563
 8826SOL     OW38110   2.670   4.406  13.464  0.2686  0.9019 -0.0168
 8826SOL    HW138111   2.576   4.399  13.443  0.2757 -0.8701  0.5732
 8826SOL    HW238112   2.701   4.457  13.389  0.1464  0.1403 -0.5879
 8827SOL     OW38113   2.812   1.044  17.743 -0.4547  0.5504  0.3838
 8827SOL    HW138114   2.813   1.003   0.086  0.3408 -1.4797 -0.6006
 8827SOL    HW238115   2.891   1.010  17.701 -0.3321  0.0392  1.0399
 8828SOL     OW38116   2.233   4.285  16.500 -0.3284  0.3285  0.0247
 8828SOL    HW138117   2.145   4.312  16.526  0.6113  3.8486 -0.4329
 8828SOL    HW238118   2.254   4.353  16.436  1.7480  0.2279  0.5990
 8829SOL     OW38119   3.582   3.378   5.301  0.5709 -0.7688 -0.9178
 8829SOL    HW138120   3.510   3.438   5.281 -1.8483 -3.3004  0.0965
 8829SOL    HW238121   3.589   3.322   5.224 -0.0738  0.6047 -1.9562
 8830SOL     OW38122   2.785   0.244   1.054  0.1724  0.0929 -0.0637
 8830SOL    HW138123   2.836   0.325   1.046  1.2588 -0.5487  0.3575
 8830SOL    HW238124   2.738   0.263   1.135  0.4860  0.2537  0.0823
 8831SOL     OW38125   4.509   3.862   4.185 -0.4010 -0.5623 -0.2663
 8831SOL    HW138126   4.459   3.804   4.242  0.0625 -2.8828 -2.2341
 8831SOL    HW238127   4.594   3.841   4.225  0.9853  1.6298 -2.0715
 8832SOL     OW38128   4.197   0.324  12.556 -0.5629  0.2192  0.1559
 8832SOL    HW138129   4.259   0.327  12.628  1.2167  1.9609 -1.4529
 8832SOL    HW238130   4.241   0.372  12.485  0.6974 -0.1719  0.6822
 8833SOL     OW38131   3.586   1.512   5.933  0.1969  0.0948  0.4997
 8833SOL    HW138132   3.575   1.526   6.027  1.5474  1.1373  0.4897
 8833SOL    HW238133   3.514   1.459   5.899  3.6670 -4.0054 -0.4508
 8834SOL     OW38134   0.004   0.964   4.342  0.4286 -0.2087  0.1989
 8834SOL    HW138135   0.059   0.962   4.419  1.2155  0.6032 -0.3529
 8834SOL    HW238136   0.049   1.023   4.282 -0.0499  1.1612  1.1771
 8835SOL     OW38137   0.715   4.297  10.455  0.3142  0.1932  0.0044
 8835SOL    HW138138   0.670   4.224  10.413  1.2393 -0.0194 -0.6078
 8835SOL    HW238139   0.654   4.316  10.527  1.7027 -1.3248  1.5786
 8836SOL     OW38140   1.344   1.942   7.353 -0.3954 -0.2153  0.4314
 8836SOL    HW138141   1.415   1.923   7.414  1.1430 -0.3873 -1.3825
 8836SOL    HW238142   1.375   2.025   7.315  0.9230 -1.4561 -1.2157
 8837SOL     OW38143   2.840   1.250   2.423 -0.4242 -0.2262 -0.4701
 8837SOL    HW138144   2.814   1.235   2.333 -1.3329  1.2948 -0.4554
 8837SOL    HW238145   2.818   1.342   2.441  1.5221 -0.2017  1.8519
 8838SOL     OW38146   2.329   2.175  11.916 -0.0324  0.1824  0.4044
 8838SOL    HW138147   2.282   2.191  11.998  0.5411  0.3758  0.6931
 8838SOL    HW238148   2.256   2.173  11.854 -2.7424  2.7487  3.5172
 8839SOL     OW38149   2.412   4.696   6.451  0.3555  0.0178 -0.7627
 8839SOL    HW138150   2.461   4.633   6.399 -0.7544 -1.9433  0.5753
 8839SOL    HW238151   2.424   0.032   6.389  1.2493  0.5742  0.0447
 8840SOL     OW38152   2.197   4.192   6.628 -0.0014 -0.7640 -1.2383
 8840SOL    HW138153   2.226   4.267   6.576  1.4652  0.3047  1.1209
 8840SOL    HW238154   2.110   4.229   6.648 -0.9316 -2.4200 -2.1928
 8841SOL     OW38155   3.185   3.916   5.395  0.3043  0.2108  0.2114
 8841SOL    HW138156   3.180   3.824   5.419 -1.3711  0.6239  1.4278
 8841SOL    HW238157   3.263   3.940   5.446 -0.7842 -1.7741  2.8026
 8842SOL     OW38158   4.096   2.286   7.383  0.1504 -0.5773  0.5797
 8842SOL    HW138159   4.145   2.224   7.328 -0.9943 -0.4426 -0.6016
 8842SOL    HW238160   4.009   2.249   7.370  0.0255 -0.1459  0.1704
 8843SOL     OW38161   1.702   2.076   2.962 -0.1425 -0.5996  0.1529
 8843SOL    HW138162   1.752   1.994   2.967 -0.0689 -0.9167 -5.2024
 8843SOL    HW238163   1.751   2.124   2.896 -0.8900  1.6371  1.2397
 8844SOL     OW38164   0.881   1.353   5.691  0.1733  0.5933  0.2967
 8844SOL    HW138165   0.806   1.362   5.634 -1.3695 -0.7546  2.0922
 8844SOL    HW238166   0.837   1.304   5.761 -0.3879  0.0037 -0.4768
 8845SOL     OW38167   2.922   2.127   9.083 -1.0310 -0.0079  0.2669
 8845SOL    HW138168   2.912   2.182   9.005  1.0434  0.3007  0.2095
 8845SOL    HW238169   3.014   2.138   9.109 -0.7174  1.0523 -1.2958
 8846SOL     OW38170   3.858   0.019  17.315 -0.0043 -0.6378  0.2468
 8846SOL    HW138171   3.941   4.710  17.332  0.3665 -0.8358 -2.1547
 8846SOL    HW238172   3.831   0.039  17.405 -1.9802  2.2473 -1.0143
 8847SOL     OW38173   0.169   1.138   3.749 -0.2745 -0.4997 -0.5920
 8847SOL    HW138174   0.098   1.202   3.750  0.7671  0.6504 -0.3093
 8847SOL    HW238175   0.251   1.188   3.752  0.3719 -1.4658 -2.2572
 8848SOL     OW38176   1.260   3.295   3.639 -0.0942 -0.0320 -0.0541
 8848SOL    HW138177   1.269   3.389   3.650 -0.2283  0.2069 -2.0052
 8848SOL    HW238178   1.306   3.276   3.557 -0.0486 -0.5174  0.0839
 8849SOL     OW38179   2.254   1.690   4.069 -0.3199 -0.2925 -0.3526
 8849SOL    HW138180   2.242   1.761   4.133  0.5160 -0.6019  0.1446
 8849SOL    HW238181   2.172   1.644   4.083 -1.5085  2.1686  0.6849
 8850SOL     OW38182   0.133   4.191   8.251  0.4925  0.2686  0.5660
 8850SOL    HW138183   0.203   4.162   8.193 -2.1149 -1.1949 -1.8997
 8850SOL    HW238184   0.178   4.176   8.334  0.4433  0.5570  0.6457
 8851SOL     OW38185   2.166   0.726  12.568 -0.6125  0.4069  0.2603
 8851SOL    HW138186   2.234   0.670  12.528  0.2391  3.1795 -2.1408
 8851SOL    HW238187   2.189   0.724  12.661  1.6383 -0.1609 -0.3068
 8852SOL     OW38188   2.708   3.934   3.944 -0.3225  0.1424  0.3339
 8852SOL    HW138189   2.671   3.896   3.865 -0.1653  0.3829  0.1451
 8852SOL    HW238190   2.788   3.882   3.956  0.0929  0.3228 -1.7369
 8853SOL     OW38191   4.166   0.593  15.707  0.5177  0.6104 -0.1671
 8853SOL    HW138192   4.198   0.674  15.666  0.0322  1.2640  0.7425
 8853SOL    HW238193   4.208   0.531  15.647  1.3425  1.9304 -0.9616
 8854SOL     OW38194   3.144   1.559   6.379  0.2188  0.3831 -0.2649
 8854SOL    HW138195   3.219   1.508   6.411  0.0574 -0.2740 -0.9249
 8854SOL    HW238196   3.172   1.643   6.343 -1.2146  0.0925 -2.0530
 8855SOL     OW38197   2.928   4.619   0.474  0.5698 -0.2788  0.0771
 8855SOL    HW138198   2.901   4.548   0.532 -3.6021  0.3031 -1.1533
 8855SOL    HW238199   2.975   4.570   0.407  0.7298  2.6519 -1.9426
 8856SOL     OW38200   2.950   0.066   4.886 -0.0817  0.2214  0.2587
 8856SOL    HW138201   2.890   4.728   4.891  0.3966 -0.0110  2.4349
 8856SOL    HW238202   2.887   0.130   4.854  1.1335  1.9059  1.2745
 8857SOL     OW38203   3.446   3.709   8.289 -0.3180  0.5130  0.1633
 8857SOL    HW138204   3.462   3.615   8.281 -1.2146  0.2944  0.9396
 8857SOL    HW238205   3.405   3.703   8.375 -0.2655  1.1052  0.2335
 8858SOL     OW38206   1.842   2.062  15.257  0.0612  0.1168 -0.4360
 8858SOL    HW138207   1.930   2.029  15.243 -0.1648 -0.4368 -0.5676
 8858SOL    HW238208   1.874   2.096  15.341 -1.8796 -1.2886  0.8652
 8859SOL     OW38209   3.112   3.817   3.705 -0.1810 -0.3759 -0.4403
 8859SOL    HW138210   3.112   3.864   3.789  1.9406  1.2235 -1.3227
 8859SOL    HW238211   3.208   3.813   3.697 -0.3182  0.1406 -2.2420
 8860SOL     OW38212   3.357   0.212   3.219 -0.0369 -0.7312 -0.5252
 8860SOL    HW138213   3.310   0.184   3.297  0.6254 -0.0501  0.1253
 8860SOL    HW238214   3.428   0.148   3.219  0.8340  0.2264 -2.2138
 8861SOL     OW38215   3.644   1.899   4.008  0.1500 -0.5353  0.0258
 8861SOL    HW138216   3.568   1.841   4.008 -0.5803  0.4141 -0.0694
 8861SOL    HW238217   3.695   1.827   3.973  4.0327  2.1980  0.1168
 8862SOL     OW38218   2.802   4.710   5.894  0.3371  0.8821  0.0246
 8862SOL    HW138219   2.893   4.717   5.922  0.4622  0.4691 -0.2790
 8862SOL    HW238220   2.777   0.065   5.881  1.6374  1.1331 -0.7965
 8863SOL     OW38221   3.095   1.547   2.944  0.6374 -0.2501  0.1651
 8863SOL    HW138222   3.011   1.506   2.925  0.2765 -0.1322  1.4510
 8863SOL    HW238223   3.072   1.598   3.023 -1.1542 -0.6790 -0.0703
 8864SOL     OW38224   0.158   2.119   6.023 -0.4469 -0.2326 -0.1337
 8864SOL    HW138225   0.220   2.163   6.082 -1.5734  1.6783 -0.3956
 8864SOL    HW238226   0.088   2.091   6.083 -0.7698  0.0493 -0.3835
 8865SOL     OW38227   2.463   2.629   8.323 -0.1860  0.0491  0.1752
 8865SOL    HW138228   2.551   2.643   8.289 -1.1479  0.4216 -2.1622
 8865SOL    HW238229   2.426   2.718   8.328  0.5409  0.4577 -2.1586
 8866SOL     OW38230   0.629   4.362   1.191 -0.0101 -0.4826 -0.6829
 8866SOL    HW138231   0.610   4.270   1.173 -0.2633 -0.2353 -1.6872
 8866SOL    HW238232   0.706   4.347   1.245  0.2128 -0.3979 -0.9766
 8867SOL     OW38233   0.343   2.190  17.199 -0.5509 -0.3194  0.1010
 8867SOL    HW138234   0.375   2.280  17.188  0.3231 -0.6717 -0.2926
 8867SOL    HW238235   0.356   2.167  17.291 -3.4079  1.4953  0.9550
 8868SOL     OW38236   3.481   4.668   2.775  0.0566  0.0800 -0.5145
 8868SOL    HW138237   3.441   0.012   2.742 -0.4290  0.0490  0.0171
 8868SOL    HW238238   3.411   4.604   2.766 -0.9462  0.9581  1.3228
 8869SOL     OW38239   1.065   3.998   7.040  0.8381 -0.1148  0.0128
 8869SOL    HW138240   1.105   4.076   7.076  0.1300  0.5231 -0.5758
 8869SOL    HW238241   1.134   3.936   7.064  1.3065 -0.3575 -1.9389
 8870SOL     OW38242   1.097   4.365  14.629  0.1459 -0.2735 -0.4850
 8870SOL    HW138243   1.167   4.432  14.628 -0.0482 -0.0655 -0.2785
 8870SOL    HW238244   1.021   4.418  14.651 -0.1031 -0.4190 -1.0078
 8871SOL     OW38245   2.247   0.035  17.498  0.0479 -0.1050  0.7903
 8871SOL    HW138246   2.159   0.007  17.525 -1.0425 -0.4490 -3.0584
 8871SOL    HW238247   2.230   0.028  17.404 -2.2490 -0.3885  1.2276
 8872SOL     OW38248   3.003   2.718   8.922 -0.0903  0.0574  0.6768
 8872SOL    HW138249   3.081   2.769   8.899 -1.1212  1.2477 -0.1552
 8872SOL    HW238250   3.038   2.645   8.973 -0.0813 -0.4142  0.0018
 8873SOL     OW38251   4.354   2.626   2.793  0.0231  0.0317 -0.1226
 8873SOL    HW138252   4.429   2.681   2.816  0.1731  0.6985 -2.1664
 8873SOL    HW238253   4.387   2.537   2.799 -1.4570 -0.4820  0.3338
 8874SOL     OW38254   3.370   0.530  14.800  0.4462 -0.2117  0.1988
 8874SOL    HW138255   3.444   0.579  14.834  0.2993  0.5531 -0.5990
 8874SOL    HW238256   3.413   0.445  14.813 -2.6081 -1.8009 -0.0069
 8875SOL     OW38257   0.076   2.845   1.966 -0.2731  0.1554  0.1644
 8875SOL    HW138258   0.134   2.878   1.897 -2.5933  1.7564 -1.0228
 8875SOL    HW238259   0.107   2.754   1.974  0.0617  0.0807 -1.8981
 8876SOL     OW38260   4.492   1.371   8.645 -0.1816  0.1226  0.3031
 8876SOL    HW138261   4.531   1.284   8.653 -0.3183 -0.3122 -3.6462
 8876SOL    HW238262   4.572   1.419   8.622 -1.2448  0.9056 -1.7117
 8877SOL     OW38263   1.428   0.195   7.291  0.0715 -0.7119  0.2097
 8877SOL    HW138264   1.410   0.289   7.282  0.7683 -0.7215 -1.2406
 8877SOL    HW238265   1.336   0.171   7.287 -0.4952  1.0054  2.7579
 8878SOL     OW38266   3.305   1.633   3.164 -0.3720  0.3121  0.1223
 8878SOL    HW138267   3.378   1.636   3.226  3.1063  0.5615 -3.9523
 8878SOL    HW238268   3.307   1.539   3.147 -4.2163  0.3108 -0.3869
 8879SOL     OW38269   1.134   0.105   4.841 -0.0298 -0.2354  0.1609
 8879SOL    HW138270   1.085   0.150   4.910  1.7236  0.8744  0.6981
 8879SOL    HW238271   1.216   0.155   4.842  0.6350 -1.3145 -0.7162
 8880SOL     OW38272   2.720   3.258   7.161 -0.9483 -0.0497  0.7075
 8880SOL    HW138273   2.797   3.273   7.216 -0.3594  0.4712 -0.2585
 8880SOL    HW238274   2.684   3.343   7.137  2.4715  1.3620  0.5056
 8881SOL     OW38275   3.681   0.457   3.995  0.0365  0.6469 -0.0869
 8881SOL    HW138276   3.636   0.508   4.062  0.1867 -0.1624  0.6390
 8881SOL    HW238277   3.635   0.488   3.918 -0.0071 -3.6283 -1.7836
 8882SOL     OW38278   0.352   0.442   9.722 -0.1676  0.3047 -0.1028
 8882SOL    HW138279   0.342   0.512   9.787  2.5764 -1.2917  2.0916
 8882SOL    HW238280   0.401   0.382   9.778 -1.1715 -0.6972 -0.3008
 8883SOL     OW38281   4.620   3.766   2.145 -0.6119  0.1551  0.2974
 8883SOL    HW138282   4.646   3.782   2.235  0.0646  1.1282 -0.0641
 8883SOL    HW238283   4.702   3.737   2.106  0.2665  2.2130  0.5865
 8884SOL     OW38284   0.416   2.411   2.904 -0.5114  0.5880  0.3660
 8884SOL    HW138285   0.327   2.414   2.870 -0.3464  1.7509  0.0366
 8884SOL    HW238286   0.407   2.434   2.997 -1.0284 -1.0189  0.7048
 8885SOL     OW38287   2.408   3.803   7.280 -0.1799  0.1067 -0.9960
 8885SOL    HW138288   2.502   3.785   7.280  0.0814  1.3911  1.4668
 8885SOL    HW238289   2.395   3.883   7.331  0.4406 -0.3295 -0.1604
 8886SOL     OW38290   4.372   1.151  14.646 -0.6957 -0.4344 -0.7250
 8886SOL    HW138291   4.324   1.179  14.568  0.7330 -0.5574 -1.6608
 8886SOL    HW238292   4.319   1.156  14.725  1.6456  1.3383  0.7660
 8887SOL     OW38293   1.617   2.488   4.577 -0.0170 -0.1856  0.5444
 8887SOL    HW138294   1.576   2.562   4.621 -2.0563 -0.8343 -0.2017
 8887SOL    HW238295   1.610   2.521   4.487  0.4217 -0.5371  0.3790
 8888SOL     OW38296   0.711   3.964  15.229 -0.1430  0.3943 -0.0093
 8888SOL    HW138297   0.786   3.909  15.207  2.0520  2.4842  2.0501
 8888SOL    HW238298   0.745   4.010  15.306 -2.6958 -0.6355  1.7256
 8889SOL     OW38299   4.358   3.765   9.254 -0.1982  0.1122 -0.2815
 8889SOL    HW138300   4.319   3.711   9.185  1.4619 -2.0908  0.4816
 8889SOL    HW238301   4.287   3.828   9.252 -0.9491 -0.8074 -2.2162
 8890SOL     OW38302   3.246   2.875  12.240 -0.5987 -1.0281  0.3997
 8890SOL    HW138303   3.241   2.971  12.246 -0.5933 -0.8520 -2.3590
 8890SOL    HW238304   3.263   2.861  12.147 -1.7424 -0.7426  0.1480
 8891SOL     OW38305   3.080   2.603  16.842  0.0565  0.3220  0.3586
 8891SOL    HW138306   2.997   2.566  16.873  0.1058 -0.8661 -0.9590
 8891SOL    HW238307   3.093   2.673  16.907 -1.0371 -0.2666  1.2231
 8892SOL     OW38308   1.521   4.580  15.568  0.4641  0.2621 -1.0887
 8892SOL    HW138309   1.526   4.597  15.663 -0.1917 -1.5916 -0.7261
 8892SOL    HW238310   1.496   4.669  15.543 -1.2760  0.2944  0.6900
 8893SOL     OW38311   1.240   4.075   1.080  0.5399 -0.2823 -0.6044
 8893SOL    HW138312   1.217   4.166   1.097 -2.1731 -0.5634 -2.6488
 8893SOL    HW238313   1.304   4.088   1.010  1.3291 -1.9432 -0.1836
 8894SOL     OW38314   1.652   0.517   8.519 -0.0336 -0.0310  0.0136
 8894SOL    HW138315   1.635   0.424   8.505 -1.2991  0.2971 -0.5483
 8894SOL    HW238316   1.722   0.519   8.585 -0.2114 -1.2474  0.2310
 8895SOL     OW38317   3.444   0.792   8.337 -0.1177 -0.3929  0.3339
 8895SOL    HW138318   3.445   0.887   8.323  0.5580 -0.7746 -2.2212
 8895SOL    HW238319   3.487   0.766   8.256 -1.1170  1.9540 -0.9770
 8896SOL     OW38320   3.661   1.609   9.321  0.0147  0.6219 -0.6522
 8896SOL    HW138321   3.748   1.615   9.281  1.4456  1.1565  2.6028
 8896SOL    HW238322   3.603   1.569   9.256  1.4497  0.3399 -1.7570
 8897SOL     OW38323   0.474   4.267   2.162 -0.0097  0.1488  0.1214
 8897SOL    HW138324   0.387   4.227   2.153 -0.8332  2.0053 -0.2854
 8897SOL    HW238325   0.492   4.295   2.072 -0.3084 -3.8585 -1.1787
 8898SOL     OW38326   1.410   3.734   2.641  0.1505  0.5713  0.3377
 8898SOL    HW138327   1.471   3.671   2.680 -2.1901 -0.7242  1.8823
 8898SOL    HW238328   1.344   3.677   2.602 -0.2518  1.6096 -0.5099
 8899SOL     OW38329   2.998   1.728   3.988  0.0483  0.4686 -0.2942
 8899SOL    HW138330   2.982   1.722   4.082  0.9439  0.8961 -0.1200
 8899SOL    HW238331   3.093   1.737   3.988  0.1035 -0.2263 -2.8426
 8900SOL     OW38332   4.586   1.959   2.521 -0.1214 -0.2694  0.6700
 8900SOL    HW138333   4.589   2.051   2.497  2.5277 -0.5074  0.0311
 8900SOL    HW238334   4.668   1.952   2.570  1.7802  0.5408 -2.3744
 8901SOL     OW38335   3.304   2.145  15.212  0.5460  0.5714 -0.5763
 8901SOL    HW138336   3.351   2.088  15.152 -0.0170 -0.5335  0.0348
 8901SOL    HW238337   3.377   2.158  15.274  1.5009 -2.3007 -1.1042
 8902SOL     OW38338   3.161   1.018  13.300 -0.1287  0.1620 -0.3996
 8902SOL    HW138339   3.205   0.937  13.326  0.2022  0.9390  1.4253
 8902SOL    HW238340   3.149   1.050  13.389 -3.3532 -0.1380 -0.6984
 8903SOL     OW38341   2.628   3.884   5.106  0.1763  0.4286 -0.2148
 8903SOL    HW138342   2.609   3.909   5.197 -2.0557 -0.7783 -0.3406
 8903SOL    HW238343   2.677   3.961   5.078  0.0091  0.7053  0.2540
 8904SOL     OW38344   1.456   3.662  10.338  0.1335  0.0238  0.1453
 8904SOL    HW138345   1.392   3.591  10.332  1.3767 -1.2275  1.7631
 8904SOL    HW238346   1.448   3.661  10.433 -2.2168 -1.9537 -0.0792
 8905SOL     OW38347   4.073   1.957   3.367 -0.0316  0.1723 -0.6757
 8905SOL    HW138348   4.107   1.974   3.455  1.7659  1.3300 -1.5927
 8905SOL    HW238349   4.031   2.043   3.359  2.0966  1.0937 -1.8773
 8906SOL     OW38350   3.857   3.768   4.614 -0.1303 -0.1814 -0.4039
 8906SOL    HW138351   3.834   3.802   4.528  0.5596  0.5753 -0.2869
 8906SOL    HW238352   3.952   3.761   4.605  0.3204  2.4386  2.3746
 8907SOL     OW38353   1.588   1.335   7.674 -0.0025  1.3919  0.1490
 8907SOL    HW138354   1.532   1.388   7.617 -0.2587 -1.0989 -1.8866
 8907SOL    HW238355   1.574   1.247   7.641  1.6660  1.1164  0.1769
 8908SOL     OW38356   0.966   3.817  17.283 -0.0339  0.2104 -0.1171
 8908SOL    HW138357   0.930   3.729  17.297  0.4008  0.1694  0.7539
 8908SOL    HW238358   1.044   3.805  17.228 -0.3987 -0.9454 -0.3904
 8909SOL     OW38359   1.060   1.574  12.245  0.2474 -0.1860 -0.3802
 8909SOL    HW138360   1.005   1.534  12.312 -0.2661 -1.9577 -1.8540
 8909SOL    HW238361   1.008   1.559  12.167  0.9637 -1.1593 -0.6818
 8910SOL     OW38362   2.255   0.125   7.394 -0.4312 -0.1040 -1.1875
 8910SOL    HW138363   2.328   0.156   7.340  1.4097 -1.3450  0.5804
 8910SOL    HW238364   2.223   0.204   7.437  2.2941  0.0673  0.5550
 8911SOL     OW38365   2.104   1.559  10.729 -0.1633 -0.1046  0.0980
 8911SOL    HW138366   2.198   1.570  10.712 -0.8718  3.8397 -1.1646
 8911SOL    HW238367   2.085   1.476  10.684 -1.9808  1.5610 -2.1821
 8912SOL     OW38368   3.466   0.068  14.111  0.3298 -0.2907 -0.0951
 8912SOL    HW138369   3.430   4.718  14.133 -0.9975  0.8546  2.1198
 8912SOL    HW238370   3.520   0.094  14.186 -1.5006  1.5401  0.5684
 8913SOL     OW38371   1.007   3.530  10.871  0.1264  0.6295 -0.0378
 8913SOL    HW138372   1.084   3.476  10.891  0.5267  1.1989 -0.0442
 8913SOL    HW238373   0.967   3.544  10.957 -0.1250  2.0232 -0.3842
 8914SOL     OW38374   0.267   1.058   2.035  0.3636 -0.2896 -0.3863
 8914SOL    HW138375   0.295   1.100   2.117 -1.1988 -1.5044  0.7711
 8914SOL    HW238376   0.351   1.044   1.992  0.6006 -0.3870  0.0995
 8915SOL     OW38377   3.779   0.142  10.164  0.0094  0.0889 -0.3002
 8915SOL    HW138378   3.705   0.167  10.108 -0.2994  1.7556  0.8588
 8915SOL    HW238379   3.851   0.127  10.101 -1.8041 -0.1094 -2.3165
 8916SOL     OW38380   2.907   1.205   8.918  0.4650  0.1284 -0.2241
 8916SOL    HW138381   2.812   1.190   8.918 -0.1125  3.7534 -0.2797
 8916SOL    HW238382   2.917   1.300   8.922  2.3722 -0.0291 -1.3180
 8917SOL     OW38383   4.077   3.279   1.720 -0.0306 -0.3659  0.0044
 8917SOL    HW138384   3.983   3.265   1.730  0.1851 -1.8767 -0.1220
 8917SOL    HW238385   4.074   3.374   1.709  0.9273 -0.0867  2.1073
 8918SOL     OW38386   0.295   0.948   4.167  0.4007  0.4625 -0.0982
 8918SOL    HW138387   0.245   0.904   4.098 -0.6590  1.4181  0.0649
 8918SOL    HW238388   0.381   0.963   4.128  0.5299 -0.2051 -0.0701
 8919SOL     OW38389   2.497   4.693   4.789 -0.0014  0.1554  0.2500
 8919SOL    HW138390   2.536   0.009   4.859  0.8360  0.7515 -0.6521
 8919SOL    HW238391   2.414   0.006   4.785  0.0356  0.0513 -1.9016
 8920SOL     OW38392   2.953   0.528   2.521  0.2200 -0.1611  0.2007
 8920SOL    HW138393   2.974   0.445   2.480  0.3470  0.4417 -0.9520
 8920SOL    HW238394   2.903   0.491   2.594 -0.5998 -0.7226 -0.6579
 8921SOL     OW38395   0.927   4.341   6.248 -0.4744 -0.3215 -0.2692
 8921SOL    HW138396   1.013   4.302   6.258 -0.3684 -0.0702 -0.2067
 8921SOL    HW238397   0.908   4.302   6.162 -1.0907  0.0525 -0.3026
 8922SOL     OW38398   4.158   1.740   0.741 -0.8075 -0.1945  0.1884
 8922SOL    HW138399   4.204   1.664   0.777 -0.0865 -0.2624 -0.8748
 8922SOL    HW238400   4.084   1.685   0.713 -0.7912  0.5946 -1.4327
 8923SOL     OW38401   1.759   0.855  13.213  0.0693 -0.4485  0.7890
 8923SOL    HW138402   1.853   0.850  13.196 -0.0886  0.8166 -0.3968
 8923SOL    HW238403   1.731   0.796  13.144 -0.6204 -0.1939  0.8578
 8924SOL     OW38404   4.507   2.774   8.216 -0.0896 -0.1069 -0.3534
 8924SOL    HW138405   4.595   2.807   8.195 -0.6524  1.9601  0.5746
 8924SOL    HW238406   4.468   2.802   8.133 -1.0687 -1.2549 -0.2708
 8925SOL     OW38407   2.115   1.475  13.599  0.6093 -0.0662 -0.0109
 8925SOL    HW138408   2.056   1.549  13.613  0.9348  0.3718 -0.9622
 8925SOL    HW238409   2.137   1.489  13.507  2.8247 -2.0606  0.1958
 8926SOL     OW38410   4.261   2.098  15.225  0.2912 -1.0721 -0.0938
 8926SOL    HW138411   4.300   2.163  15.284  1.6050 -1.2949 -0.7216
 8926SOL    HW238412   4.248   2.159  15.152 -3.2588 -0.9447  0.6612
 8927SOL     OW38413   0.567   3.830   4.575  0.0613 -0.4037 -0.0692
 8927SOL    HW138414   0.586   3.744   4.612  0.6816 -0.0310  0.4804
 8927SOL    HW238415   0.625   3.831   4.498 -0.1089  1.1097 -0.1691
 8928SOL     OW38416   4.248   1.193   4.319  0.7271  0.1082  0.6639
 8928SOL    HW138417   4.335   1.207   4.359  1.8769 -1.4177 -1.3378
 8928SOL    HW238418   4.193   1.263   4.353 -1.7089 -2.0385  1.1375
 8929SOL     OW38419   1.817   1.049  12.017 -0.8728  0.1300 -0.0610
 8929SOL    HW138420   1.826   1.024  12.109 -0.3535  2.1297  0.4493
 8929SOL    HW238421   1.752   1.119  12.021  0.2591  1.1291  1.0392
 8930SOL     OW38422   2.170   0.589   7.412 -0.0159  0.7996  0.3708
 8930SOL    HW138423   2.170   0.618   7.321  1.3300 -0.6733 -0.0939
 8930SOL    HW238424   2.257   0.552   7.423 -1.6608 -2.9317  0.8761
 8931SOL     OW38425   4.615   2.552   5.063  0.2402 -0.2726 -0.0159
 8931SOL    HW138426   4.606   2.598   5.146  1.0917  0.6628 -0.4457
 8931SOL    HW238427   4.695   2.504   5.084 -0.7952 -2.6505 -1.3939
 8932SOL     OW38428   3.826   3.436   7.253 -0.1762  0.0030  0.3814
 8932SOL    HW138429   3.870   3.422   7.337  1.0038 -2.7511 -0.7041
 8932SOL    HW238430   3.828   3.532   7.252 -0.0740 -0.0029  0.0796
 8933SOL     OW38431   2.643   0.945   9.668  0.0586  0.0589 -0.2644
 8933SOL    HW138432   2.613   0.875   9.726  2.1956 -0.3898  0.3089
 8933SOL    HW238433   2.601   1.024   9.702 -2.2539 -0.4845 -1.8425
 8934SOL     OW38434   0.523   0.618   7.881 -0.3554  0.3534 -0.0767
 8934SOL    HW138435   0.443   0.671   7.877 -0.9419 -0.5536 -0.5166
 8934SOL    HW238436   0.527   0.591   7.973 -0.2094  0.0737 -0.1652
 8935SOL     OW38437   2.005   4.013   2.648  0.1000 -0.2715 -0.5629
 8935SOL    HW138438   2.038   4.060   2.725  2.2151 -0.9052 -1.0730
 8935SOL    HW238439   1.930   3.974   2.691 -0.0148  1.1285  0.5046
 8936SOL     OW38440   3.615   3.029   2.003 -0.0261 -0.0453 -0.1308
 8936SOL    HW138441   3.525   3.047   1.977 -0.1846  3.0804  2.4800
 8936SOL    HW238442   3.627   3.101   2.066 -0.1364 -1.2999  1.3426
 8937SOL     OW38443   4.191   2.876   8.464  0.0462 -0.5730 -0.2013
 8937SOL    HW138444   4.284   2.857   8.479  0.0781  0.3697  0.8335
 8937SOL    HW238445   4.150   2.811   8.522  1.1065 -3.7715 -3.0381
 8938SOL     OW38446   4.413   3.203   3.387  0.3630 -0.1664 -0.5119
 8938SOL    HW138447   4.348   3.229   3.452  1.0686  1.5166 -0.4734
 8938SOL    HW238448   4.448   3.289   3.365  3.3216 -1.3670 -0.6006
 8939SOL     OW38449   2.924   0.974   6.948 -0.3229 -0.5538 -0.1115
 8939SOL    HW138450   2.937   0.927   6.866 -1.1408 -1.4916  0.3044
 8939SOL    HW238451   2.979   1.052   6.937 -1.0326  0.0154  0.3265
 8940SOL     OW38452   0.497   4.690   7.102  0.1030  0.0574 -0.4268
 8940SOL    HW138453   0.554   4.691   7.025  0.9958  4.9133  0.2492
 8940SOL    HW238454   0.545   0.020   7.153 -1.1539  0.4560  0.2353
 8941SOL     OW38455   4.596   1.942   3.872 -0.3031  0.6151  0.2506
 8941SOL    HW138456   4.656   1.869   3.890  2.1785  3.0947  1.9917
 8941SOL    HW238457   4.533   1.935   3.943 -0.6125  1.2019  0.0335
 8942SOL     OW38458   0.138   1.233   6.063  0.1809  0.0559 -0.1468
 8942SOL    HW138459   0.107   1.147   6.092 -1.3702  1.2212  1.5872
 8942SOL    HW238460   0.215   1.214   6.010  1.0544 -0.2859  1.2312
 8943SOL     OW38461   2.248   2.278  12.171 -0.1066  0.2120  0.0028
 8943SOL    HW138462   2.248   2.371  12.153  0.9630 -0.4296 -3.3080
 8943SOL    HW238463   2.252   2.288  12.266 -0.1084  0.4547 -0.0245
 8944SOL     OW38464   3.936   0.827  15.591 -0.1360  0.2569  0.4273
 8944SOL    HW138465   3.928   0.801  15.499 -2.2591  0.0342  0.6755
 8944SOL    HW238466   3.848   0.806  15.622 -0.9938  0.1561 -2.0839
 8945SOL     OW38467   2.917   3.098   3.872  0.1394  0.3767 -0.2405
 8945SOL    HW138468   2.892   3.123   3.961 -1.5079 -0.3661 -0.5006
 8945SOL    HW238469   2.911   3.003   3.883 -1.0169  0.4049 -0.5985
 8946SOL     OW38470   0.922   1.120   3.851  0.4451  0.0648  0.0754
 8946SOL    HW138471   0.944   1.033   3.819 -0.4579  0.0577 -0.5207
 8946SOL    HW238472   0.906   1.097   3.942  3.5969  0.1571  0.6751
 8947SOL     OW38473   1.747   0.046   3.258 -1.0454 -1.3810 -0.0374
 8947SOL    HW138474   1.783   4.708   3.209  0.9300  0.3450 -1.2489
 8947SOL    HW238475   1.800   0.118   3.222 -3.5162  1.0553  1.2516
 8948SOL     OW38476   2.213   4.463   6.568 -0.5233 -0.3826 -0.4214
 8948SOL    HW138477   2.246   4.546   6.535  0.5651 -1.1026 -1.1506
 8948SOL    HW238478   2.121   4.479   6.588  0.2672  1.8364  1.3284
 8949SOL     OW38479   1.894   4.648  12.439 -0.1450  0.4004  0.2078
 8949SOL    HW138480   1.853   4.562  12.431  0.0662  0.1889  1.3246
 8949SOL    HW238481   1.827   4.708  12.408  2.8715  2.8380 -1.6117
 8950SOL     OW38482   0.045   3.190   3.086 -0.6106 -0.2219  0.3956
 8950SOL    HW138483   4.723   3.158   3.018 -0.9071 -0.3592  0.7119
 8950SOL    HW238484   0.070   3.106   3.124  1.5159 -0.9453 -2.6084
 8951SOL     OW38485   1.706   4.230  16.747 -0.0815  0.1480 -0.2435
 8951SOL    HW138486   1.782   4.284  16.767 -0.1509  0.2326 -0.2086
 8951SOL    HW238487   1.654   4.286  16.690  0.5046  0.6183 -0.3170
 8952SOL     OW38488   4.733   1.906   1.875  0.3655  0.4609 -0.2404
 8952SOL    HW138489   0.003   1.991   1.832  2.2643  0.6007  0.2802
 8952SOL    HW238490   4.656   1.917   1.931 -0.6252 -0.5546 -1.3991
 8953SOL     OW38491   3.836   2.095   2.675  0.1177 -0.5877  0.5483
 8953SOL    HW138492   3.864   2.007   2.700  0.2159 -0.8144 -0.3587
 8953SOL    HW238493   3.844   2.075   2.581  1.9283 -0.1300  0.6130
 8954SOL     OW38494   0.446   0.977  14.523 -0.7175  0.3514 -0.1214
 8954SOL    HW138495   0.479   0.965  14.612 -0.1735  0.2577 -0.3340
 8954SOL    HW238496   0.397   1.059  14.532  0.1683  1.0144 -1.4421
 8955SOL     OW38497   2.089   2.230   8.829  0.3401 -0.0486  1.0127
 8955SOL    HW138498   2.077   2.323   8.851  0.3603  0.7894 -2.4060
 8955SOL    HW238499   2.141   2.236   8.749  0.6860 -1.3483  1.1448
 8956SOL     OW38500   3.101   0.260   7.904 -0.2935  0.0279  0.4134
 8956SOL    HW138501   3.186   0.242   7.943  0.1084 -1.3321 -1.0763
 8956SOL    HW238502   3.119   0.350   7.879  0.9499  0.1468  1.7874
 8957SOL     OW38503   0.403   1.516   4.790 -0.1909  0.8542  0.4454
 8957SOL    HW138504   0.359   1.585   4.840  1.1715  1.0630  1.3490
 8957SOL    HW238505   0.470   1.484   4.850 -1.6789 -0.5998  1.3248
 8958SOL     OW38506   3.646   1.901   7.925  0.2594  0.1526  0.1886
 8958SOL    HW138507   3.713   1.921   7.860 -2.2883 -0.3590 -2.6219
 8958SOL    HW238508   3.700   1.840   7.974  1.4882 -1.0079 -2.6334
 8959SOL     OW38509   3.562   1.586   3.314  0.0755  0.0475  0.3868
 8959SOL    HW138510   3.616   1.571   3.392  1.2902  1.1094 -0.2499
 8959SOL    HW238511   3.519   1.669   3.330 -0.0597  0.2892 -1.1929
 8960SOL     OW38512   3.551   0.228   1.672 -0.1473  0.1749 -0.1265
 8960SOL    HW138513   3.584   0.278   1.747  1.4041  0.9785 -1.3519
 8960SOL    HW238514   3.473   0.198   1.719 -0.6048 -0.7373 -1.4868
 8961SOL     OW38515   3.946   0.830  11.143 -0.8834  0.0735  0.0031
 8961SOL    HW138516   3.913   0.892  11.208  0.6522 -1.4875  2.2273
 8961SOL    HW238517   3.932   0.751  11.194 -0.5387 -1.3199 -2.0729
 8962SOL     OW38518   3.105   1.730   8.203  0.2957  0.0233  0.1331
 8962SOL    HW138519   3.154   1.751   8.282  3.3582 -0.3215 -1.6732
 8962SOL    HW238520   3.180   1.716   8.144 -0.0840  1.7318 -0.7879
 8963SOL     OW38521   2.632   4.659   3.571 -0.3348  0.5777  0.2979
 8963SOL    HW138522   2.663   4.677   3.660  0.4934  2.0392 -0.2902
 8963SOL    HW238523   2.547   4.626   3.598 -0.6631  0.9085 -0.3492
 8964SOL     OW38524   1.994   4.553   0.910 -0.3865  0.2889 -0.0640
 8964SOL    HW138525   1.972   4.521   0.822  1.0000 -1.2775  0.1722
 8964SOL    HW238526   1.924   4.511   0.960 -0.2794  0.0077 -0.1544
 8965SOL     OW38527   0.139   1.345   6.595 -0.2351 -0.2864  0.1325
 8965SOL    HW138528   0.199   1.298   6.653  0.0896  1.8985  1.5346
 8965SOL    HW238529   0.086   1.271   6.566 -2.4396  1.8077 -1.1858
 8966SOL     OW38530   3.886   3.779   8.154  0.8056  0.0953 -0.4899
 8966SOL    HW138531   3.953   3.842   8.182 -0.0866  0.2514  1.2700
 8966SOL    HW238532   3.806   3.817   8.189  1.4684 -1.5657  2.8356
 8967SOL     OW38533   4.028   3.770   7.608  0.3602  0.0771 -0.1957
 8967SOL    HW138534   3.982   3.754   7.690  0.3595 -0.7748 -0.3639
 8967SOL    HW238535   4.045   3.864   7.618 -0.9698  0.4595 -1.6606
 8968SOL     OW38536   1.152   1.703   3.340  0.4131  0.9377 -0.3744
 8968SOL    HW138537   1.232   1.755   3.337  1.8517 -1.2137  1.0494
 8968SOL    HW238538   1.182   1.626   3.292 -0.3087 -0.4434  1.3924
 8969SOL     OW38539   0.943   2.664  10.353 -0.8501  0.2839 -0.1175
 8969SOL    HW138540   0.979   2.576  10.364  0.8473  1.1329  1.2133
 8969SOL    HW238541   0.849   2.653  10.345 -0.9974  0.8968  0.8389
 8970SOL     OW38542   1.583   2.545   9.815 -0.7196 -0.0263  0.3007
 8970SOL    HW138543   1.571   2.541   9.720 -1.8530  0.5178  0.4130
 8970SOL    HW238544   1.676   2.565   9.824 -0.7201  0.9784 -2.0865
 8971SOL     OW38545   1.210   4.540   6.274 -0.6461 -0.2433  0.1480
 8971SOL    HW138546   1.300   4.552   6.302 -1.2643  1.7444  1.2917
 8971SOL    HW238547   1.206   4.448   6.297  0.0919 -0.6001 -1.1126
 8972SOL     OW38548   1.439   0.771   8.155  0.2190 -0.3076 -0.3490
 8972SOL    HW138549   1.435   0.702   8.222  2.0776  0.0042  0.0735
 8972SOL    HW238550   1.533   0.773   8.140 -0.1313 -0.4698 -2.5428
 8973SOL     OW38551   2.356   3.713  10.266  0.0031  0.3352  0.1396
 8973SOL    HW138552   2.359   3.734  10.359  0.3240 -4.0759  1.1178
 8973SOL    HW238553   2.414   3.637  10.265 -0.1342  0.2405 -1.1239
 8974SOL     OW38554   0.735   0.203   7.934  1.3937  0.3430 -0.1209
 8974SOL    HW138555   0.661   0.148   7.909  0.7149  1.4058 -0.4324
 8974SOL    HW238556   0.767   0.176   8.021 -3.4216  1.5559  2.0080
 8975SOL     OW38557   0.697   2.752   6.945  0.0345 -0.0829  0.7497
 8975SOL    HW138558   0.621   2.711   6.986 -0.8088  0.8764  0.1627
 8975SOL    HW238559   0.677   2.733   6.853  1.0964 -1.4721  0.8078
 8976SOL     OW38560   2.974   1.111  11.834  0.0456 -0.1520  0.2832
 8976SOL    HW138561   2.926   1.128  11.753  1.0770 -2.3632 -0.7740
 8976SOL    HW238562   3.052   1.156  11.801 -0.2149  1.5451  1.9164
 8977SOL     OW38563   4.428   0.023  10.786  0.1611  0.0682  0.0784
 8977SOL    HW138564   4.432   4.674  10.830 -0.1372 -0.0445 -0.1176
 8977SOL    HW238565   4.349   0.045  10.834  0.6696 -0.8345  1.3255
 8978SOL     OW38566   4.038   3.862   8.837  0.2813  0.6564 -0.2518
 8978SOL    HW138567   4.055   3.846   8.745  0.0059  1.7498 -0.4915
 8978SOL    HW238568   4.100   3.932   8.860  0.9447  0.4035 -1.3015
 8979SOL     OW38569   3.526   0.814   8.727 -0.0077  0.0296  0.5860
 8979SOL    HW138570   3.503   0.894   8.680  0.7894  0.7203  1.3760
 8979SOL    HW238571   3.617   0.807   8.697 -1.1820  0.0361 -2.9485
 8980SOL     OW38572   4.714   2.886   2.219  0.1572  0.0554 -0.6516
 8980SOL    HW138573   4.726   2.881   2.124  1.0431  0.7568 -0.5779
 8980SOL    HW238574   0.050   2.935   2.257 -0.3361  0.7187 -0.5736
 8981SOL     OW38575   0.740   1.587   5.800 -0.3775  0.1042  0.0449
 8981SOL    HW138576   0.696   1.508   5.831 -0.6290  0.8046  1.4527
 8981SOL    HW238577   0.829   1.565   5.828 -0.9474  0.3661  2.0275
 8982SOL     OW38578   1.219   3.376  15.834  0.7291  0.6228  0.1461
 8982SOL    HW138579   1.265   3.313  15.779  2.5268  1.0114  1.1938
 8982SOL    HW238580   1.161   3.419  15.771  0.8372 -1.8169 -1.6303
 8983SOL     OW38581   3.427   3.388   5.590  0.6781 -0.6409  0.2115
 8983SOL    HW138582   3.500   3.388   5.651  0.3477  2.9752  0.5706
 8983SOL    HW238583   3.438   3.466   5.537  0.4238 -0.7665 -0.0239
 8984SOL     OW38584   0.065   3.145   9.846 -0.2635 -0.1381  0.3045
 8984SOL    HW138585   0.033   3.168   9.759 -2.4959 -2.3858  0.5267
 8984SOL    HW238586   0.096   3.229   9.882 -0.9895  0.0932  0.4123
 8985SOL     OW38587   1.857   4.690   6.874  0.3338  0.1161 -0.0439
 8985SOL    HW138588   1.877   0.044   6.848  0.2107  0.4593  1.0510
 8985SOL    HW238589   1.864   4.697   6.969  1.0234  1.0357 -0.1547
 8986SOL     OW38590   3.853   0.962   6.466  0.1232  0.2485 -0.0842
 8986SOL    HW138591   3.854   0.881   6.415  0.2408  0.9951 -1.2525
 8986SOL    HW238592   3.808   1.020   6.404 -2.5226 -2.8800 -1.1451
 8987SOL     OW38593   4.604   4.330   4.518 -0.2022 -0.2997  0.0172
 8987SOL    HW138594   4.567   4.269   4.454 -0.9615 -1.1979  1.3041
 8987SOL    HW238595   4.664   4.386   4.468  1.0093 -1.9727 -0.3933
 8988SOL     OW38596   1.865   1.608   7.973  0.3299 -0.0526 -0.3011
 8988SOL    HW138597   1.794   1.550   7.945 -0.7532  2.1637 -2.1053
 8988SOL    HW238598   1.843   1.636   8.062 -1.1258  0.8860 -0.9596
 8989SOL     OW38599   3.744   2.688   5.109 -0.0530 -0.1521  0.2831
 8989SOL    HW138600   3.759   2.665   5.201  1.1238 -0.8766 -0.0883
 8989SOL    HW238601   3.652   2.660   5.103 -0.1983  0.3454  0.2441
 8990SOL     OW38602   4.566   3.900  16.751 -0.9746 -0.4822 -0.2742
 8990SOL    HW138603   4.551   3.885  16.657  3.1828 -3.3637 -0.4881
 8990SOL    HW238604   4.594   3.814  16.781 -2.7568 -0.9692 -0.0401
 8991SOL     OW38605   1.366   1.011   9.967 -0.1782  0.2871  0.0718
 8991SOL    HW138606   1.460   1.019   9.951  0.4224 -3.1818  1.8733
 8991SOL    HW238607   1.343   1.101   9.948  0.0893  0.6290  1.3453
 8992SOL     OW38608   2.754   2.960  13.072  0.2990  1.2249 -0.0233
 8992SOL    HW138609   2.710   3.039  13.106 -0.0875 -0.5033  3.5431
 8992SOL    HW238610   2.812   2.935  13.144  1.1245 -0.7477 -1.3967
 8993SOL     OW38611   3.917   0.604  11.325 -0.3254  0.1692  0.5131
 8993SOL    HW138612   3.855   0.609  11.398  0.0953  1.6175  0.7696
 8993SOL    HW238613   3.994   0.587  11.379  0.9659  1.0216 -1.0884
 8994SOL     OW38614   3.811   4.671   5.238 -0.4973 -0.2900 -0.2826
 8994SOL    HW138615   3.890   4.663   5.186  0.6961 -0.2303  1.5295
 8994SOL    HW238616   3.745   4.698   5.174 -2.9165  0.3751  2.4875
 8995SOL     OW38617   4.377   1.831  15.503  0.4610  0.3870 -0.3020
 8995SOL    HW138618   4.354   1.791  15.587 -0.1181 -1.2365 -1.2463
 8995SOL    HW238619   4.406   1.754  15.453  0.4612 -0.4181  0.9502
 8996SOL     OW38620   2.132   0.945   4.442  0.5982 -0.3234  0.0288
 8996SOL    HW138621   2.181   0.884   4.497 -0.1335 -0.5761  0.4024
 8996SOL    HW238622   2.196   1.013   4.421  0.7478  0.0213  1.5906
 8997SOL     OW38623   3.793   2.226  10.376  0.4099  0.2867  0.0533
 8997SOL    HW138624   3.725   2.163  10.349  1.2582  0.1435 -1.7487
 8997SOL    HW238625   3.848   2.224  10.298 -1.1799  0.1380 -1.0856
 8998SOL     OW38626   0.636   3.623   3.256  0.2725 -0.1787  0.1608
 8998SOL    HW138627   0.692   3.567   3.203 -1.6867 -1.2820 -0.7352
 8998SOL    HW238628   0.574   3.562   3.296 -1.0668  0.3533 -1.1384
 8999SOL     OW38629   3.496   0.299   0.279 -0.8689  0.6360 -0.4015
 8999SOL    HW138630   3.401   0.305   0.278 -0.7810  2.0430  0.2444
 8999SOL    HW238631   3.520   0.390   0.264 -1.5636  0.8167 -0.3892
 9000SOL     OW38632   1.013   0.295   5.014 -0.2483 -0.4301  0.3808
 9000SOL    HW138633   0.929   0.283   5.057 -0.6465  0.0937 -0.2550
 9000SOL    HW238634   1.050   0.378   5.045 -1.0172 -0.3404  1.0653
 9001SOL     OW38635   0.202   0.327  16.733 -0.6491  0.7373  0.2750
 9001SOL    HW138636   0.239   0.330  16.822  1.7581  1.9318 -0.7716
 9001SOL    HW238637   0.270   0.373  16.684 -1.0398  1.3421  0.2911
 9002SOL     OW38638   1.857   3.852  15.129 -0.0700  0.4775  0.6095
 9002SOL    HW138639   1.795   3.780  15.123 -0.6307  1.0848 -1.0885
 9002SOL    HW238640   1.814   3.912  15.189  0.5390  3.1290 -1.5782
 9003SOL     OW38641   2.312   1.006   8.333  0.1961 -0.3435 -0.5676
 9003SOL    HW138642   2.399   0.971   8.312  0.1184 -1.3147  0.7124
 9003SOL    HW238643   2.276   0.919   8.351  1.2351 -0.9981 -1.6822
 9004SOL     OW38644   2.057   1.987   2.206  0.6272  0.6820  0.0612
 9004SOL    HW138645   2.083   2.051   2.140 -1.0375 -0.1738 -1.4384
 9004SOL    HW238646   2.040   2.028   2.290 -0.4591  2.5520 -1.0754
 9005SOL     OW38647   0.615   0.095   4.398 -0.3682 -0.5713  0.5850
 9005SOL    HW138648   0.703   0.080   4.364 -0.3644 -1.8598  1.1777
 9005SOL    HW238649   0.625   0.189   4.413  0.7076 -0.9324  2.0510
 9006SOL     OW38650   3.442   3.145   5.743  0.0397  0.3000 -0.1079
 9006SOL    HW138651   3.536   3.143   5.759  0.0682  1.0304 -0.1844
 9006SOL    HW238652   3.459   3.174   5.653 -2.0421  0.5363 -0.4147
 9007SOL     OW38653   0.285   2.041   3.494 -0.1378 -0.5252  0.2550
 9007SOL    HW138654   0.364   2.068   3.449  0.3238  2.3021  2.7411
 9007SOL    HW238655   0.276   1.953   3.458  1.3569 -0.3863 -0.4273
 9008SOL     OW38656   0.944   4.441   4.960 -0.3861 -0.0589  0.2544
 9008SOL    HW138657   0.878   4.423   4.893 -0.5332 -1.9094  0.8887
 9008SOL    HW238658   1.022   4.425   4.906 -1.9690 -1.1986 -1.7272
 9009SOL     OW38659   1.481   3.171   0.665  0.4741 -0.0093  0.1294
 9009SOL    HW138660   1.431   3.143   0.742  1.8085 -0.3783  0.8758
 9009SOL    HW238661   1.501   3.080   0.645 -1.3293 -0.1934 -0.8283
 9010SOL     OW38662   2.440   3.650   2.096 -0.5215  0.0248 -0.1030
 9010SOL    HW138663   2.487   3.734   2.094 -1.5547  0.6063 -0.0231
 9010SOL    HW238664   2.485   3.605   2.168 -0.6835  0.2916  0.1648
 9011SOL     OW38665   1.855   0.033   7.149 -0.1296 -0.0742 -0.1237
 9011SOL    HW138666   1.760   0.027   7.139 -0.1641 -0.8596  0.6512
 9011SOL    HW238667   1.870   0.126   7.164  1.7872 -0.4309  0.1644
 9012SOL     OW38668   1.013   0.244   6.163 -0.5070  0.5463 -0.8399
 9012SOL    HW138669   0.935   0.227   6.110 -0.0623 -0.6091 -1.1143
 9012SOL    HW238670   1.070   0.172   6.136  1.8624  1.2908  2.1354
 9013SOL     OW38671   3.236   0.497   5.073 -0.6067 -0.0501 -0.7290
 9013SOL    HW138672   3.159   0.443   5.092  0.2688 -0.8588  0.5537
 9013SOL    HW238673   3.248   0.548   5.153  1.3438  0.1162 -1.1362
 9014SOL     OW38674   3.929   4.271   7.442  0.6965  0.0681  0.4138
 9014SOL    HW138675   3.877   4.192   7.459  0.6772  0.4251  2.0457
 9014SOL    HW238676   3.974   4.273   7.527 -3.2791  1.4516  2.4869
 9015SOL     OW38677   3.542   1.060  15.372 -0.3922 -0.0634 -0.2942
 9015SOL    HW138678   3.488   1.124  15.419 -0.3885 -0.7873  0.6973
 9015SOL    HW238679   3.590   1.041  15.453 -1.3626 -1.0108  0.0561
 9016SOL     OW38680   3.331   2.163   8.239  0.5226  0.2562  0.3762
 9016SOL    HW138681   3.424   2.176   8.219 -0.2474  1.4294 -2.4418
 9016SOL    HW238682   3.296   2.135   8.154 -2.0526  1.6955  0.9405
 9017SOL     OW38683   3.469   1.006   3.713 -0.8741  0.1110  0.0158
 9017SOL    HW138684   3.486   1.094   3.746 -2.0176  0.7289 -1.0454
 9017SOL    HW238685   3.392   1.018   3.658  0.6732 -0.9576 -2.3747
 9018SOL     OW38686   1.062   3.989   0.242  0.7232  0.0684 -0.3205
 9018SOL    HW138687   1.117   3.945   0.307 -0.0326  0.3811  0.5241
 9018SOL    HW238688   1.028   3.918   0.188 -0.1363 -1.4522  2.2378
 9019SOL     OW38689   2.533   4.512   6.722  0.4820  0.2370 -0.1661
 9019SOL    HW138690   2.510   4.509   6.815  0.2786  0.3335 -0.2117
 9019SOL    HW238691   2.444   4.501   6.687  1.3635  0.7721 -2.6245
 9020SOL     OW38692   1.048   0.283  10.510 -0.0309  0.3059 -0.7176
 9020SOL    HW138693   1.142   0.293  10.521 -0.0311 -0.7195  0.3141
 9020SOL    HW238694   1.046   0.202  10.563 -1.3265 -2.1336 -4.4869
 9021SOL     OW38695   0.154   3.018   1.545 -0.3691 -0.4173 -0.1124
 9021SOL    HW138696   0.121   3.098   1.585 -1.3716 -0.5849 -0.6124
 9021SOL    HW238697   0.099   3.015   1.467 -0.9319 -1.4513  0.3196
 9022SOL     OW38698   2.308   2.462  11.228 -0.6447 -0.2928 -0.6719
 9022SOL    HW138699   2.280   2.387  11.280  2.5838 -0.1899  1.2042
 9022SOL    HW238700   2.356   2.417  11.159 -0.6671 -0.1685 -0.7681
 9023SOL     OW38701   3.837   4.412   4.015  0.3554  0.1137 -0.0053
 9023SOL    HW138702   3.848   4.392   3.922 -0.7508 -0.9617  0.1056
 9023SOL    HW238703   3.848   4.507   4.010 -3.9013  0.4385 -2.9948
 9024SOL     OW38704   2.974   3.579  10.624 -0.3323 -0.7597 -0.3286
 9024SOL    HW138705   3.039   3.648  10.631 -2.6356  1.2186  1.6073
 9024SOL    HW238706   2.891   3.624  10.609 -1.3434 -2.9791 -1.4515
 9025SOL     OW38707   2.948   3.387  17.598  0.3976  1.1930  0.3920
 9025SOL    HW138708   3.027   3.391  17.545 -0.8643  0.6776 -1.5352
 9025SOL    HW238709   2.958   3.303  17.643 -0.5166  0.8810  0.0276
 9026SOL     OW38710   1.226   4.188   5.656  0.4340 -0.2988 -0.3294
 9026SOL    HW138711   1.178   4.110   5.626 -0.1782  0.2496 -0.7626
 9026SOL    HW238712   1.166   4.255   5.623  0.4731  0.4563  1.1671
 9027SOL     OW38713   1.640   1.313   4.635 -0.0010  0.5490 -0.0220
 9027SOL    HW138714   1.725   1.271   4.627  0.1596  0.9972 -0.7182
 9027SOL    HW238715   1.596   1.293   4.552  0.6704 -2.2299  0.2907
 9028SOL     OW38716   0.069   1.270  17.555  0.2706  0.0731 -0.4737
 9028SOL    HW138717   0.029   1.205  17.498  1.5701 -1.0116 -0.1177
 9028SOL    HW238718   0.061   1.349  17.500 -1.9775  0.5059  0.4405
 9029SOL     OW38719   3.817   2.166   5.915  0.3562 -0.3674 -0.0645
 9029SOL    HW138720   3.830   2.072   5.921 -0.9620 -0.3992  2.0622
 9029SOL    HW238721   3.773   2.174   5.830  0.7440  0.8760 -0.1586
 9030SOL     OW38722   3.024   3.314   6.115  0.8178 -0.3573  0.1009
 9030SOL    HW138723   2.946   3.368   6.101 -0.7627 -2.7798 -0.4724
 9030SOL    HW238724   3.090   3.349   6.055  1.5655 -0.6270  0.7631
 9031SOL     OW38725   0.245   0.527   0.749 -0.9416 -0.3649  0.1617
 9031SOL    HW138726   0.301   0.481   0.687 -0.7817 -0.5318  0.4305
 9031SOL    HW238727   0.301   0.603   0.767 -1.0614  0.0766 -1.3521
 9032SOL     OW38728   1.403   0.105  17.372  0.2309  0.2340  0.3052
 9032SOL    HW138729   1.341   0.164  17.328  2.3332  0.9233 -1.6679
 9032SOL    HW238730   1.489   0.143  17.360  1.2417 -2.6707 -1.4176
 9033SOL     OW38731   1.119   3.152  11.004 -0.1395 -0.7790 -0.4570
 9033SOL    HW138732   1.032   3.124  11.034  0.5821 -1.9856  0.4972
 9033SOL    HW238733   1.163   3.071  10.980  1.6001 -0.7330  2.5471
 9034SOL     OW38734   4.250   3.156   9.389  0.2062 -0.2371  0.6329
 9034SOL    HW138735   4.258   3.243   9.352 -0.9474 -0.3789  0.0500
 9034SOL    HW238736   4.183   3.173   9.455 -2.1756  3.1242 -2.6288
 9035SOL     OW38737   4.635   3.895   5.281 -0.3873  0.4197 -0.1570
 9035SOL    HW138738   4.612   3.970   5.227 -0.1925 -1.3876 -2.7290
 9035SOL    HW238739   4.700   3.844   5.234  1.0481  1.1021  1.0935
 9036SOL     OW38740   0.749   4.154  16.596 -0.1046  0.2243  0.3632
 9036SOL    HW138741   0.785   4.160  16.507 -0.1478 -0.7628  0.2841
 9036SOL    HW238742   0.660   4.120  16.588  0.4940 -1.2181 -0.1521
 9037SOL     OW38743   0.814   3.589  17.280  0.1304 -0.0520 -0.2183
 9037SOL    HW138744   0.786   3.591  17.188  2.3012  0.1354 -0.8814
 9037SOL    HW238745   0.734   3.593  17.333 -0.8843  1.2902 -1.8570
 9038SOL     OW38746   3.919   2.619   3.149 -0.1676 -0.3687 -0.1525
 9038SOL    HW138747   3.940   2.583   3.235  0.7926 -1.2517 -0.7588
 9038SOL    HW238748   3.931   2.712   3.166 -1.2430 -0.3843  0.7167
 9039SOL     OW38749   0.047   1.206  13.387 -0.1959 -0.6901  0.1128
 9039SOL    HW138750   0.127   1.155  13.375  0.1046 -0.2794  0.3514
 9039SOL    HW238751   4.727   1.141  13.345 -0.9924 -0.5847  1.0221
 9040SOL     OW38752   4.653   4.136   4.737  0.0795 -0.2270  0.8470
 9040SOL    HW138753   4.590   4.083   4.787  0.8029 -1.4810  0.4258
 9040SOL    HW238754   4.609   4.163   4.656  2.1416  1.4757  0.3078
 9041SOL     OW38755   3.717   2.463   3.468 -0.0026 -1.0120  0.0995
 9041SOL    HW138756   3.628   2.427   3.468 -1.1410  1.7879 -0.1789
 9041SOL    HW238757   3.713   2.526   3.541 -1.1296 -1.9791  0.8842
 9042SOL     OW38758   0.356   4.100   3.414  0.1138  0.1680  0.2977
 9042SOL    HW138759   0.402   4.016   3.412  0.6510  0.4635  0.3214
 9042SOL    HW238760   0.433   4.154   3.433  0.9889 -0.8064 -0.4638
 9043SOL     OW38761   3.113   4.712   2.718 -0.4668 -0.0885 -0.2295
 9043SOL    HW138762   3.066   4.665   2.648 -1.7522 -1.8808  1.8196
 9043SOL    HW238763   3.057   4.700   2.795  0.4161  0.8628  0.5665
 9044SOL     OW38764   3.935   1.861   8.367  0.5204 -0.3659  0.7936
 9044SOL    HW138765   3.842   1.881   8.366  0.0834 -2.4376  0.2648
 9044SOL    HW238766   3.963   1.952   8.369  1.6578 -0.7112  0.8706
 9045SOL     OW38767   1.108   0.356   6.438 -0.3764 -0.4586 -0.2726
 9045SOL    HW138768   1.084   0.317   6.354 -0.5189  1.1178 -0.9704
 9045SOL    HW238769   1.144   0.279   6.482 -0.1229  0.8712  1.8657
 9046SOL     OW38770   4.668   2.210   5.284 -0.6236  0.0762  0.1403
 9046SOL    HW138771   4.712   2.275   5.229 -0.7949 -0.2303 -0.3635
 9046SOL    HW238772   4.647   2.270   5.355  0.3368 -0.3604  0.7946
 9047SOL     OW38773   2.717   1.129   5.716  0.3958 -0.2283 -0.3809
 9047SOL    HW138774   2.792   1.125   5.775  2.0996  2.0111 -2.4249
 9047SOL    HW238775   2.756   1.099   5.633  1.0784  2.0444 -0.8676
 9048SOL     OW38776   0.965   2.122   3.236 -0.1005  0.2702  0.3403
 9048SOL    HW138777   0.923   2.048   3.279  0.9551 -1.0686 -0.9454
 9048SOL    HW238778   0.950   2.101   3.143  1.6739  0.6254 -0.0253
 9049SOL     OW38779   4.212   2.919   4.262 -0.2691 -0.1402  0.4991
 9049SOL    HW138780   4.202   2.836   4.309 -0.1200 -0.8632 -0.7143
 9049SOL    HW238781   4.255   2.967   4.333 -0.6668  0.4001  0.3705
 9050SOL     OW38782   4.564   0.648   3.218  0.5811  0.3813 -0.8337
 9050SOL    HW138783   4.540   0.561   3.185 -0.6898  1.0098 -1.5639
 9050SOL    HW238784   4.480   0.692   3.202  0.6570  0.9857  0.4392
 9051SOL     OW38785   3.182   3.708  13.207 -0.2109  0.5471 -0.1976
 9051SOL    HW138786   3.272   3.731  13.232  0.7098 -0.8715 -2.1550
 9051SOL    HW238787   3.193   3.705  13.112  0.0655  0.3624 -0.1596
 9052SOL     OW38788   2.691   1.108   7.526  0.6014  0.0970  0.4808
 9052SOL    HW138789   2.645   1.088   7.607 -2.4898 -0.8700 -1.5221
 9052SOL    HW238790   2.625   1.145   7.467  1.5081 -0.4975 -0.9053
 9053SOL     OW38791   2.950   2.391   6.053 -0.2630 -0.3172  0.4698
 9053SOL    HW138792   3.012   2.338   6.003 -1.3915 -0.2262 -1.0172
 9053SOL    HW238793   2.992   2.477   6.044  0.3380 -0.6203  0.4463
 9054SOL     OW38794   4.478   0.771   6.250 -0.3909 -0.4785 -0.1670
 9054SOL    HW138795   4.467   0.691   6.199 -0.9463 -0.4285 -0.1214
 9054SOL    HW238796   4.567   0.805   6.236  0.8725 -2.6881  2.4112
 9055SOL     OW38797   1.307   0.883   0.231  0.2492 -0.3490 -0.0676
 9055SOL    HW138798   1.384   0.834   0.203 -0.0815  0.7931 -2.9896
 9055SOL    HW238799   1.285   0.833   0.309  1.5704  2.1650  1.9333
 9056SOL     OW38800   1.159   4.689   1.840  0.1312 -0.6825 -0.0866
 9056SOL    HW138801   1.081   0.005   1.818 -0.4752 -1.7705 -0.5149
 9056SOL    HW238802   1.183   4.655   1.754 -0.4340  2.0864 -1.3530
 9057SOL     OW38803   2.819   4.658   7.041  0.3329  0.0673  0.4506
 9057SOL    HW138804   2.832   4.606   7.120 -1.6969 -1.7425 -0.4222
 9057SOL    HW238805   2.828   0.012   7.074  2.1421  0.1876 -0.3246
 9058SOL     OW38806   4.731   3.804   6.389  0.0110 -0.0309 -0.4875
 9058SOL    HW138807   0.040   3.822   6.472 -2.8727 -1.0669  1.3213
 9058SOL    HW238808   0.030   3.719   6.364 -1.1929 -0.1894 -1.5723
 9059SOL     OW38809   2.874   2.865   9.651  0.3259  0.0254  0.0551
 9059SOL    HW138810   2.849   2.933   9.588  1.2886  1.0832  0.8205
 9059SOL    HW238811   2.956   2.903   9.682 -0.5306  1.3412  0.7124
 9060SOL     OW38812   2.150   3.778   2.113 -0.1183  0.0874 -0.2989
 9060SOL    HW138813   2.183   3.862   2.145 -0.4335  1.6155 -3.9878
 9060SOL    HW238814   2.228   3.744   2.070 -0.0992  0.3776 -0.4944
 9061SOL     OW38815   1.610   0.094  14.625 -0.2097 -0.3270 -0.5090
 9061SOL    HW138816   1.586   0.162  14.688  0.0664  0.1297 -0.9053
 9061SOL    HW238817   1.605   0.020  14.686  1.9938  1.3059  1.6609
 9062SOL     OW38818   1.675   2.652  12.478  0.2349 -0.3410 -0.2556
 9062SOL    HW138819   1.717   2.719  12.424 -1.5545 -0.5312 -1.8692
 9062SOL    HW238820   1.697   2.669  12.570 -0.5140  1.8662 -0.4838
 9063SOL     OW38821   1.814   0.354   1.367 -0.1542 -0.1495  0.2675
 9063SOL    HW138822   1.794   0.363   1.460  0.9816  0.6421  0.4317
 9063SOL    HW238823   1.910   0.354   1.375 -0.2552  1.2781  1.4123
 9064SOL     OW38824   3.217   2.423   3.167 -0.3726 -0.1236 -0.1215
 9064SOL    HW138825   3.193   2.467   3.249 -0.7277  1.8035 -1.2385
 9064SOL    HW238826   3.135   2.410   3.119  0.2802  0.2821 -1.3494
 9065SOL     OW38827   2.359   1.732   5.831 -0.1519  0.5554  0.3800
 9065SOL    HW138828   2.290   1.781   5.787 -0.6746  0.1909  0.7954
 9065SOL    HW238829   2.439   1.781   5.812 -0.3308  0.7221  0.0542
 9066SOL     OW38830   2.580   1.278   4.622  0.1400 -0.1201 -0.1512
 9066SOL    HW138831   2.663   1.247   4.659 -0.0842 -0.3486  0.1597
 9066SOL    HW238832   2.523   1.205   4.646  0.9318 -0.0862  1.8572
 9067SOL     OW38833   0.451   1.836   4.129  0.1525 -0.0281 -0.3460
 9067SOL    HW138834   0.454   1.775   4.203  1.0350 -0.1034 -0.4443
 9067SOL    HW238835   0.529   1.889   4.142 -0.5863  1.4663 -2.0918
 9068SOL     OW38836   3.756   1.550   3.119 -0.1244  0.0234 -0.0299
 9068SOL    HW138837   3.709   1.519   3.042  0.5827  2.6273 -1.5064
 9068SOL    HW238838   3.687   1.558   3.185  0.0016 -1.4303  0.2807
 9069SOL     OW38839   2.074   3.289   4.646  0.0252 -0.1376  0.0506
 9069SOL    HW138840   1.988   3.251   4.663 -0.2384 -0.5817 -2.2168
 9069SOL    HW238841   2.115   3.294   4.732  2.0472  0.1288 -0.9058
 9070SOL     OW38842   0.205   3.283   5.462 -0.3246 -0.7181 -0.5065
 9070SOL    HW138843   0.183   3.339   5.388 -0.6809  0.3649  0.4142
 9070SOL    HW238844   0.299   3.300   5.469 -0.2085 -0.5391 -2.5408
 9071SOL     OW38845   3.509   3.778   8.790 -0.1592  0.3581  0.3830
 9071SOL    HW138846   3.584   3.832   8.817 -0.9169  2.0322 -0.8660
 9071SOL    HW238847   3.487   3.719   8.862  0.8140 -0.9775 -0.4170
 9072SOL     OW38848   3.156   2.354   2.660 -0.7269  0.1629 -0.0272
 9072SOL    HW138849   3.167   2.447   2.642  1.4579 -0.2817 -1.0701
 9072SOL    HW238850   3.134   2.315   2.575  1.1930  2.5982 -1.6332
 9073SOL     OW38851   1.858   1.414   8.472  0.3054 -1.0742  0.2293
 9073SOL    HW138852   1.948   1.392   8.449 -0.2949 -1.7106 -1.5027
 9073SOL    HW238853   1.865   1.471   8.549 -0.3088  0.6482 -0.9816
 9074SOL     OW38854   4.620   2.739   5.995 -0.1816 -0.0784 -0.5958
 9074SOL    HW138855   4.709   2.753   5.961 -0.1166  0.6775 -0.1027
 9074SOL    HW238856   4.617   2.647   6.021 -0.9150  0.6286  1.7643
 9075SOL     OW38857   1.450   2.116   2.133  0.3611 -0.3871 -0.2321
 9075SOL    HW138858   1.355   2.105   2.141 -0.0326  2.2858 -0.9173
 9075SOL    HW238859   1.478   2.065   2.057  1.8194 -0.0982  0.1154
 9076SOL     OW38860   1.791   4.484  15.481  0.1848  0.1522 -0.3736
 9076SOL    HW138861   1.810   4.548  15.550  0.0060 -0.9944  0.7350
 9076SOL    HW238862   1.702   4.513  15.461  0.3538  1.9580  1.4185
 9077SOL     OW38863   0.154   0.035   3.530 -0.0954  0.5797  0.4464
 9077SOL    HW138864   0.097   0.065   3.601 -0.9764  0.2165 -0.1065
 9077SOL    HW238865   0.228   0.008   3.583 -0.5846  0.4413  1.0669
 9078SOL     OW38866   4.569   0.149   6.834 -0.2061 -0.6731 -0.1098
 9078SOL    HW138867   4.665   0.146   6.827 -0.2150 -1.8019  0.2757
 9078SOL    HW238868   4.543   0.215   6.770  3.6302  1.3610  0.3963
 9079SOL     OW38869   0.119   1.687  16.864  0.3936 -0.3536 -0.3696
 9079SOL    HW138870   0.076   1.738  16.933  0.9532  1.5489 -1.4073
 9079SOL    HW238871   0.208   1.715  16.885  1.7225 -1.7220 -4.2614
 9080SOL     OW38872   0.070   2.061   5.599  0.0770 -0.0753 -0.0300
 9080SOL    HW138873   0.137   2.029   5.538  0.6086  0.7338  0.1232
 9080SOL    HW238874   0.048   2.150   5.572 -0.5805 -0.7157 -1.5742
 9081SOL     OW38875   2.912   4.243   9.667 -0.1486  0.2650  0.3409
 9081SOL    HW138876   2.935   4.224   9.576  1.9579 -1.3286  1.2167
 9081SOL    HW238877   2.932   4.337   9.672 -0.3280  0.3177  0.1033
 9082SOL     OW38878   3.316   4.202  16.092  0.0021 -0.2695 -0.5896
 9082SOL    HW138879   3.269   4.275  16.052 -0.6624 -1.1086 -1.3300
 9082SOL    HW238880   3.283   4.220  16.181  1.2863  1.4074 -0.4401
 9083SOL     OW38881   3.309   3.052  15.711  0.1277  0.1455  0.4342
 9083SOL    HW138882   3.283   3.144  15.706 -3.1667 -0.7416  1.6279
 9083SOL    HW238883   3.375   3.053  15.780 -1.7033 -3.7851  2.2177
 9084SOL     OW38884   4.023   2.117  10.206  0.2047 -0.2225 -0.1531
 9084SOL    HW138885   4.069   2.130  10.123 -0.8421 -1.9307 -0.9947
 9084SOL    HW238886   4.079   2.157  10.274 -0.8040  3.0634 -1.2313
 9085SOL     OW38887   3.071   0.437   2.111  0.7207  0.0662 -0.5866
 9085SOL    HW138888   3.078   0.422   2.017  0.3161  1.0716 -0.7700
 9085SOL    HW238889   3.058   0.346   2.139  2.0029 -0.1231 -0.5692
 9086SOL     OW38890   1.279   0.182   6.052  0.0728 -0.3172 -0.0562
 9086SOL    HW138891   1.220   0.111   6.076 -1.9069  2.1606  2.3240
 9086SOL    HW238892   1.314   0.202   6.139 -1.8410 -2.3994  1.1833
 9087SOL     OW38893   1.529   4.176   7.805 -0.0075 -0.3586  0.0602
 9087SOL    HW138894   1.609   4.123   7.805  0.9314  1.0728 -0.0399
 9087SOL    HW238895   1.573   4.253   7.842 -1.5306 -0.4376  2.0183
 9088SOL     OW38896   3.920   1.639   5.705 -0.5324  0.2455  0.3295
 9088SOL    HW138897   3.908   1.603   5.617 -0.2322 -1.5416  1.0199
 9088SOL    HW238898   3.831   1.669   5.722 -0.8293 -0.4292 -0.0383
 9089SOL     OW38899   0.710   3.849  15.915  0.2070 -0.2477 -0.8052
 9089SOL    HW138900   0.720   3.886  15.827 -1.9187 -2.4664 -1.9937
 9089SOL    HW238901   0.767   3.912  15.960 -1.9053  0.4029  0.9527
 9090SOL     OW38902   4.220   4.129  10.392 -0.3496 -0.3756  0.4202
 9090SOL    HW138903   4.248   4.165  10.308  1.2457 -0.3630  0.9636
 9090SOL    HW238904   4.186   4.043  10.366  1.0443 -0.8013  0.0301
 9091SOL     OW38905   3.472   0.653   7.283  0.1955 -0.0266 -0.3361
 9091SOL    HW138906   3.438   0.578   7.233  0.8156 -0.3283 -0.2983
 9091SOL    HW238907   3.393   0.707   7.289 -0.6753 -1.4943  1.2465
 9092SOL     OW38908   2.240   2.603   3.903 -0.3831 -0.5869  0.2109
 9092SOL    HW138909   2.299   2.559   3.964 -0.2523 -1.3234 -0.4455
 9092SOL    HW238910   2.259   2.552   3.824  0.3249  0.3230 -0.2037
 9093SOL     OW38911   4.726   0.367  17.261  0.0574 -0.1586 -0.2289
 9093SOL    HW138912   0.010   0.452  17.223 -1.7305 -0.1458 -1.1359
 9093SOL    HW238913   0.076   0.325  17.262  0.5979  0.9386 -1.0141
 9094SOL     OW38914   1.540   4.337   0.788 -0.0587 -0.4167 -0.2234
 9094SOL    HW138915   1.459   4.387   0.801  0.3837 -0.4958  2.7521
 9094SOL    HW238916   1.526   4.269   0.853  1.2548  2.3020  2.8945
 9095SOL     OW38917   4.484   3.110   3.950 -0.2936  0.3137 -0.4432
 9095SOL    HW138918   4.391   3.130   3.934  0.8810  6.0781  0.0836
 9095SOL    HW238919   4.471   3.028   3.999 -0.0318  0.4738 -0.1103
 9096SOL     OW38920   2.300   1.046  10.398  0.0264  0.2722  0.2332
 9096SOL    HW138921   2.237   1.069  10.330  1.2650  0.8439 -0.7132
 9096SOL    HW238922   2.376   1.098  10.372  1.3026 -2.1049 -0.7296
 9097SOL     OW38923   1.906   0.968  11.762 -0.9977  0.0263 -0.1630
 9097SOL    HW138924   1.976   0.904  11.762 -0.7130  0.3624  2.0952
 9097SOL    HW238925   1.863   0.970  11.847  0.1156  0.3042  0.3840
 9098SOL     OW38926   1.792   2.853  15.383  0.6551  0.3350  0.1736
 9098SOL    HW138927   1.781   2.760  15.362 -0.1646  0.4613  0.0273
 9098SOL    HW238928   1.886   2.842  15.393  0.4106 -0.9140  1.0606
 9099SOL     OW38929   2.861   3.296  10.430 -0.5220  0.2692  0.2378
 9099SOL    HW138930   2.787   3.236  10.440  1.8543 -2.7808 -0.5547
 9099SOL    HW238931   2.940   3.247  10.454 -0.0314  0.0062 -1.8789
 9100SOL     OW38932   1.531   4.449  17.298  0.0063  0.0404 -1.0537
 9100SOL    HW138933   1.442   4.484  17.285 -1.1422 -2.9495 -1.2982
 9100SOL    HW238934   1.545   4.450  17.392  0.7620  0.7711 -1.1805
 9101SOL     OW38935   0.309   3.939  10.433  0.0423 -0.0069  0.2985
 9101SOL    HW138936   0.368   3.870  10.402 -2.1872 -1.1363 -1.4049
 9101SOL    HW238937   0.235   3.896  10.477  1.6550 -0.0326  2.9822
 9102SOL     OW38938   0.531   0.155  10.666  0.2082 -0.0198  0.0480
 9102SOL    HW138939   0.623   0.154  10.694  0.5019 -3.7631 -1.0799
 9102SOL    HW238940   0.509   0.101  10.590  0.7206  0.7108 -0.6190
 9103SOL     OW38941   3.191   2.962   5.488 -0.1449 -0.1530 -0.5807
 9103SOL    HW138942   3.187   3.054   5.514 -3.3840 -0.1704 -1.0760
 9103SOL    HW238943   3.105   2.951   5.449 -1.2586 -0.7888  2.0375
 9104SOL     OW38944   1.861   0.349   9.038  0.2400  0.1421 -0.7278
 9104SOL    HW138945   1.937   0.379   9.088 -0.3044  1.9219 -0.9671
 9104SOL    HW238946   1.808   0.334   9.116 -0.0951  1.4121 -0.7161
 9105SOL     OW38947   1.128   4.589   2.097  0.4420  0.0118  0.2121
 9105SOL    HW138948   1.109   4.622   2.009  0.4019  1.6029  0.8211
 9105SOL    HW238949   1.131   4.666   2.154 -2.2548  0.1337  0.1584
 9106SOL     OW38950   3.437   0.404  14.275  0.1794 -0.7183 -0.3573
 9106SOL    HW138951   3.358   0.441  14.316  0.7579  0.3659 -0.2449
 9106SOL    HW238952   3.405   0.421  14.187  0.5700 -1.0456 -0.5614
 9107SOL     OW38953   3.253   0.933   9.311 -0.1913  0.2706 -0.2672
 9107SOL    HW138954   3.276   0.911   9.221 -2.7421 -1.1375 -0.5841
 9107SOL    HW238955   3.303   1.013   9.330 -2.3515  1.3805  0.7050
 9108SOL     OW38956   0.157   1.727   9.724 -0.3770  0.0773 -0.1823
 9108SOL    HW138957   0.119   1.668   9.659 -0.0252 -0.7363  0.3483
 9108SOL    HW238958   0.197   1.789   9.663 -2.8934  0.3779 -1.4812
 9109SOL     OW38959   3.190   0.562   4.817 -0.3818 -0.3152  0.2012
 9109SOL    HW138960   3.232   0.544   4.900 -1.1746  0.5701  0.8017
 9109SOL    HW238961   3.107   0.516   4.828 -0.0242 -0.4756  2.0723
 9110SOL     OW38962   2.683   2.335  15.493 -0.3374 -0.5698 -0.2031
 9110SOL    HW138963   2.668   2.244  15.516  2.6790 -0.9495  0.3077
 9110SOL    HW238964   2.597   2.370  15.518 -0.0592  1.1883 -1.6505
 9111SOL     OW38965   1.251   3.142   5.624  0.0201 -0.2728  0.7887
 9111SOL    HW138966   1.294   3.094   5.695  1.2811 -0.7398 -0.2964
 9111SOL    HW238967   1.171   3.160   5.673 -0.6335 -2.4836  0.5027
 9112SOL     OW38968   3.026   2.200   3.575  0.2422  0.7045 -0.4671
 9112SOL    HW138969   3.083   2.203   3.499 -0.2234  2.0291 -0.7745
 9112SOL    HW238970   2.976   2.281   3.562 -0.5191  0.1916 -0.8156
 9113SOL     OW38971   2.728   0.349   5.118 -0.4798 -0.4407  0.7334
 9113SOL    HW138972   2.651   0.313   5.074 -1.4756 -0.5061  2.5266
 9113SOL    HW238973   2.687   0.423   5.164 -1.7578 -1.1515  0.7318
 9114SOL     OW38974   3.499   3.869   8.534  0.3054  0.0499  0.2058
 9114SOL    HW138975   3.404   3.857   8.532  0.3095 -0.0614  0.7112
 9114SOL    HW238976   3.523   3.842   8.623 -1.5219  2.1236  1.3236
 9115SOL     OW38977   2.328   2.575   3.152 -0.2876 -0.3531 -0.7236
 9115SOL    HW138978   2.365   2.603   3.069  1.0221  0.7416  0.2467
 9115SOL    HW238979   2.274   2.651   3.173  1.9914 -0.0720  3.9299
 9116SOL     OW38980   0.220   3.282  10.759 -0.3818 -0.1993  0.2841
 9116SOL    HW138981   0.311   3.314  10.761 -0.5651  0.1192  2.7722
 9116SOL    HW238982   0.177   3.368  10.756 -1.0118 -0.5314 -0.1423
 9117SOL     OW38983   4.579   4.653   0.707  0.5264 -0.2021  0.4681
 9117SOL    HW138984   4.605   4.666   0.799 -1.0288  2.2436  0.5744
 9117SOL    HW238985   4.638   4.716   0.665  2.9647 -2.0688  1.0679
 9118SOL     OW38986   2.905   3.687   1.935  0.2844 -0.1215 -0.3166
 9118SOL    HW138987   2.857   3.653   1.859 -0.1047  0.9220 -0.5354
 9118SOL    HW238988   2.950   3.612   1.974 -1.3409 -0.4462  0.8870
 9119SOL     OW38989   2.289   3.845  14.266 -0.1384 -0.1835 -0.3875
 9119SOL    HW138990   2.307   3.753  14.285  0.3127 -0.2282 -1.0307
 9119SOL    HW238991   2.193   3.849  14.271 -0.2605 -1.8270 -1.3697
 9120SOL     OW38992   1.554   3.379   8.669 -0.1830  0.2790 -0.4242
 9120SOL    HW138993   1.561   3.301   8.725 -1.0771  0.8672  0.4822
 9120SOL    HW238994   1.588   3.347   8.585  2.6174 -0.2241  0.9090
 9121SOL     OW38995   3.345   0.139   1.864 -0.1825  0.2055  0.1029
 9121SOL    HW138996   3.261   0.107   1.832 -0.4091  3.0284 -2.1038
 9121SOL    HW238997   3.394   0.056   1.857  0.0754  0.2938  0.9202
 9122SOL     OW38998   0.310   3.252   8.805 -0.0127  0.4733  0.1344
 9122SOL    HW138999   0.351   3.168   8.825  0.2434  0.0674 -2.0551
 9122SOL    HW239000   0.243   3.259   8.874  0.6358 -0.9448  0.9075
 9123SOL     OW39001   3.119   1.095  13.537 -0.1182  0.0811  0.5926
 9123SOL    HW139002   3.030   1.128  13.547 -0.2798 -0.4933  1.0563
 9123SOL    HW239003   3.169   1.150  13.597 -2.1211  0.9118  1.4630
 9124SOL     OW39004   0.330   2.502   5.718 -0.4114  0.2325  0.0369
 9124SOL    HW139005   0.320   2.505   5.814 -0.7262  0.5871 -0.0073
 9124SOL    HW239006   0.380   2.581   5.700 -0.2591  0.1411  0.0553
 9125SOL     OW39007   4.019   0.014   6.229 -0.3159 -0.1338  0.1373
 9125SOL    HW139008   4.073   4.707   6.162  0.6703 -1.2715  1.6633
 9125SOL    HW239009   4.065   4.732   6.310  0.9855 -0.0937 -0.5947
 9126SOL     OW39010   3.895   3.537   3.058 -0.0965  0.3017 -0.1243
 9126SOL    HW139011   3.971   3.592   3.040 -0.0143  0.4339  0.6512
 9126SOL    HW239012   3.839   3.538   2.980 -1.2674 -1.2999  0.6960
 9127SOL     OW39013   1.025   1.554   4.909  0.0180 -0.2315  0.1615
 9127SOL    HW139014   1.026   1.460   4.891 -0.1078 -0.0592 -0.7765
 9127SOL    HW239015   1.000   1.555   5.001 -0.2071  0.7536  0.0928
 9128SOL     OW39016   1.719   3.925   6.726  0.3559  0.7090  0.5359
 9128SOL    HW139017   1.722   4.002   6.669  1.4142 -0.8190 -1.4639
 9128SOL    HW239018   1.771   3.953   6.801 -0.5255  1.3346  0.9046
 9129SOL     OW39019   0.960   4.499   4.456  0.3760 -0.5644  0.3255
 9129SOL    HW139020   0.963   4.403   4.460 -2.4385 -0.7556 -2.6788
 9129SOL    HW239021   1.016   4.515   4.532  1.0309 -2.9688  0.3552
 9130SOL     OW39022   0.928   1.181   2.214  0.0754 -0.0236 -0.6935
 9130SOL    HW139023   0.911   1.210   2.304 -0.3186 -2.9443  0.1950
 9130SOL    HW239024   0.981   1.258   2.193  0.2154 -0.3823 -1.6378
 9131SOL     OW39025   4.007   0.145   3.771  0.6591  0.3752  0.1828
 9131SOL    HW139026   4.003   0.178   3.681 -2.1776  2.3460  1.0291
 9131SOL    HW239027   4.034   0.228   3.810 -0.5019  0.2271  1.2954
 9132SOL     OW39028   1.453   2.313  13.102 -0.0411 -0.1622  0.3360
 9132SOL    HW139029   1.486   2.305  13.191 -1.6677  2.9969  1.2196
 9132SOL    HW239030   1.363   2.283  13.110 -0.8424  2.6209  1.9204
 9133SOL     OW39031   3.167   2.201   3.348 -0.1622  0.0386  0.0598
 9133SOL    HW139032   3.111   2.253   3.290  1.9628 -1.0613 -2.9592
 9133SOL    HW239033   3.237   2.177   3.288 -1.1802 -0.8059 -0.7906
 9134SOL     OW39034   3.284   1.824  15.956 -0.5183 -0.3355 -0.1991
 9134SOL    HW139035   3.290   1.754  15.891 -1.2937 -0.5093 -0.0772
 9134SOL    HW239036   3.315   1.901  15.909  2.0299 -0.4260  1.3080
 9135SOL     OW39037   2.856   3.356   8.211 -0.4213 -0.6497 -0.0367
 9135SOL    HW139038   2.869   3.353   8.305 -1.2714 -0.4696  0.0888
 9135SOL    HW239039   2.939   3.383   8.171 -0.1728 -1.4538 -0.0601
 9136SOL     OW39040   3.884   4.689   5.915 -0.2972  0.1364  0.2716
 9136SOL    HW139041   3.810   4.656   5.966  0.4398 -0.4342  0.9784
 9136SOL    HW239042   3.944   4.614   5.921 -1.6377 -1.0339 -0.9091
 9137SOL     OW39043   3.705   0.882  16.002 -0.0089 -0.3982 -0.0861
 9137SOL    HW139044   3.703   0.942  15.927  1.0896  1.0355  1.0415
 9137SOL    HW239045   3.615   0.895  16.033 -0.2862  1.0812 -1.5335
 9138SOL     OW39046   3.013   3.304   4.330  0.0404  0.2649  0.0175
 9138SOL    HW139047   2.925   3.306   4.368  0.3143 -0.4617  0.6931
 9138SOL    HW239048   3.071   3.315   4.406 -0.6928  1.0383  0.4647
 9139SOL     OW39049   2.617   0.706   4.217  0.5042 -0.4099 -0.1164
 9139SOL    HW139050   2.601   0.795   4.188  0.1546 -0.6683 -0.7114
 9139SOL    HW239051   2.568   0.663   4.147 -0.7505  0.0936  0.4518
 9140SOL     OW39052   1.120   3.851  14.149 -0.1494  0.0610  0.5626
 9140SOL    HW139053   1.102   3.842  14.242  0.5351  1.5049  0.8370
 9140SOL    HW239054   1.172   3.931  14.148 -0.8145  0.4908  0.1505
 9141SOL     OW39055   1.103   4.148  15.945 -0.3153  0.2085  0.1107
 9141SOL    HW139056   1.119   4.207  16.018  0.6550 -0.5786  0.5336
 9141SOL    HW239057   1.193   4.116  15.939 -0.0972  0.6560  1.0386
 9142SOL     OW39058   3.361   0.460  10.256  0.0447  0.6166  0.1119
 9142SOL    HW139059   3.389   0.381  10.301 -2.8560 -1.3684 -1.5177
 9142SOL    HW239060   3.354   0.509  10.338  0.5062  0.0016  0.5146
 9143SOL     OW39061   4.447   3.814  13.380  0.3144  1.1001  0.3280
 9143SOL    HW139062   4.366   3.846  13.418  0.7539 -0.2217  2.3617
 9143SOL    HW239063   4.471   3.746  13.442  0.0794  0.5710 -0.1630
 9144SOL     OW39064   0.948   1.760   4.290  0.0627  0.0790 -0.5160
 9144SOL    HW139065   1.036   1.766   4.326 -0.0531 -1.5788  0.0551
 9144SOL    HW239066   0.946   1.821   4.217 -0.1204  1.2503  0.4631
 9145SOL     OW39067   4.324   3.919  15.162 -0.1688  1.2384 -0.3096
 9145SOL    HW139068   4.229   3.928  15.175 -0.1243  1.8050 -0.3619
 9145SOL    HW239069   4.349   3.992  15.105  1.3072  1.3976  0.5638
 9146SOL     OW39070   1.701   4.177   7.555  0.1729 -0.5898  0.5362
 9146SOL    HW139071   1.654   4.201   7.635  0.2423  1.8604 -0.1558
 9146SOL    HW239072   1.791   4.210   7.558  0.4566 -1.1993 -0.9349
 9147SOL     OW39073   1.389   2.293   6.661  0.3302  0.4233  0.5600
 9147SOL    HW139074   1.336   2.214   6.666  0.0426  0.5204 -1.0755
 9147SOL    HW239075   1.460   2.265   6.603 -0.3652  2.0107 -1.0661
 9148SOL     OW39076   0.671   4.515   5.420  0.8647  0.2846  0.1471
 9148SOL    HW139077   0.684   4.609   5.432 -0.9269  0.4536  0.8360
 9148SOL    HW239078   0.667   4.500   5.326  1.5565 -0.7330  0.2803
 9149SOL     OW39079   4.335   3.090  17.636 -0.0619  0.2242 -0.2350
 9149SOL    HW139080   4.292   3.174  17.652 -0.6230  0.1938 -1.5222
 9149SOL    HW239081   4.276   3.022  17.669 -0.1993  1.3697  1.8954
 9150SOL     OW39082   2.775   2.113  13.367 -0.2620 -0.0649  0.7517
 9150SOL    HW139083   2.833   2.177  13.409  0.8011  0.2090 -1.1539
 9150SOL    HW239084   2.765   2.048  13.436 -0.2203 -0.3963  0.4413
 9151SOL     OW39085   2.390   4.052   0.125  0.0906 -0.6811 -0.3687
 9151SOL    HW139086   2.338   4.038   0.204  2.3994 -0.7288  1.1444
 9151SOL    HW239087   2.466   4.102   0.156 -0.0642 -1.4482  1.2777
 9152SOL     OW39088   0.748   4.485   6.658  0.5042  0.3169 -0.6449
 9152SOL    HW139089   0.652   4.489   6.653  0.5233 -0.3882 -1.6743
 9152SOL    HW239090   0.771   4.420   6.591  0.4155  0.4803 -0.8359
 9153SOL     OW39091   0.296   1.367   5.725  0.7741 -1.1687 -0.4107
 9153SOL    HW139092   0.358   1.375   5.652 -0.9474 -0.3194 -1.7608
 9153SOL    HW239093   0.261   1.280   5.704 -1.7307  0.3905 -2.5398
 9154SOL     OW39094   2.872   0.913  11.228 -0.0350  0.0486 -0.1488
 9154SOL    HW139095   2.892   0.835  11.280  0.6268  0.3118 -0.0047
 9154SOL    HW239096   2.954   0.910  11.179  0.5518  2.0219  0.7129
 9155SOL     OW39097   3.830   2.457   5.676  0.5819  0.0068  0.7581
 9155SOL    HW139098   3.860   2.486   5.763 -0.7585 -0.6957  1.4572
 9155SOL    HW239099   3.739   2.486   5.676  0.1690 -1.3227 -3.1589
 9156SOL     OW39100   4.592   3.138   7.513 -0.3082 -0.0644  0.0130
 9156SOL    HW139101   4.514   3.190   7.532 -0.5915 -1.1023  1.6652
 9156SOL    HW239102   4.613   3.092   7.595  1.3557  2.7979  1.2185
 9157SOL     OW39103   0.730   4.446   0.462 -0.4280  0.4754  0.1470
 9157SOL    HW139104   0.687   4.376   0.510  1.3286  0.3969  1.6293
 9157SOL    HW239105   0.705   4.418   0.374 -1.2293  1.5175  0.0493
 9158SOL     OW39106   0.043   2.446   7.199  0.2316 -0.5722 -0.2436
 9158SOL    HW139107   4.725   2.470   7.124  1.2871  0.3242 -0.7126
 9158SOL    HW239108   0.084   2.368   7.161  0.3700  0.7916 -2.8541
 9159SOL     OW39109   1.479   3.718   5.302 -0.1132 -0.2046  0.3165
 9159SOL    HW139110   1.399   3.667   5.287 -0.5282  0.6857 -0.5014
 9159SOL    HW239111   1.447   3.808   5.298  1.0589  0.3812  4.1618
 9160SOL     OW39112   3.081   3.984   5.141 -0.2658 -0.4435 -0.3295
 9160SOL    HW139113   3.120   3.965   5.226 -0.8646 -0.5038 -0.0720
 9160SOL    HW239114   3.153   4.032   5.100  0.6207 -1.0474  0.4911
 9161SOL     OW39115   3.001   0.516   5.462  0.6342  0.0677  0.1475
 9161SOL    HW139116   3.071   0.528   5.397 -1.0706  1.7920 -1.3657
 9161SOL    HW239117   2.980   0.426   5.437 -0.5752  0.4831 -0.3155
 9162SOL     OW39118   1.081   2.295  12.183  1.0174  0.5053  0.1600
 9162SOL    HW139119   1.138   2.219  12.174  0.8153  0.4871 -0.9024
 9162SOL    HW239120   0.998   2.259  12.153  0.6200  1.6029 -0.0748
 9163SOL     OW39121   4.273   4.535   6.098 -0.5570 -0.1033  0.0334
 9163SOL    HW139122   4.216   4.537   6.022 -1.4236  1.8190  0.7324
 9163SOL    HW239123   4.300   4.626   6.111 -0.4215 -0.1506  0.0769
 9164SOL     OW39124   0.117   2.762   5.139  0.2672  0.3162 -0.0994
 9164SOL    HW139125   0.170   2.789   5.214  2.1883 -2.9002 -0.3057
 9164SOL    HW239126   0.032   2.739   5.178  1.1641  1.0999  2.3324
 9165SOL     OW39127   2.348   2.336   1.602 -0.2467 -0.2654 -0.9015
 9165SOL    HW139128   2.279   2.396   1.630  1.6824  1.7989 -0.6006
 9165SOL    HW239129   2.344   2.283   1.682  2.8265 -1.1994 -1.4063
 9166SOL     OW39130   2.205   4.533  11.337 -0.0449 -0.4653 -0.5489
 9166SOL    HW139131   2.284   4.586  11.337 -1.1157  1.1432 -0.5199
 9166SOL    HW239132   2.178   4.515  11.427  0.2905  1.3542 -0.0932
 9167SOL     OW39133   3.025   2.451   5.062 -0.3331 -0.6997 -0.3311
 9167SOL    HW139134   3.104   2.421   5.017  0.6018 -1.3221  1.6813
 9167SOL    HW239135   2.993   2.375   5.111  0.9530 -1.1444 -0.1720
 9168SOL     OW39136   1.029   4.676   4.006  0.8511  0.1194 -0.2720
 9168SOL    HW139137   1.109   4.716   4.039 -1.4853  3.6715  1.1432
 9168SOL    HW239138   1.071   4.615   3.946 -0.3716  0.0896 -1.1038
 9169SOL     OW39139   0.927   1.912   4.043  0.4926  0.0375 -0.3321
 9169SOL    HW139140   0.894   1.858   3.971  0.4977 -1.8519  1.0688
 9169SOL    HW239141   0.925   1.990   3.988  0.8450  1.0940  1.1652
 9170SOL     OW39142   0.819   0.223  15.659  0.1858  0.0260  0.1631
 9170SOL    HW139143   0.790   0.207  15.570  1.1534 -2.2848  0.2691
 9170SOL    HW239144   0.893   0.280  15.638 -0.0470 -0.8701 -3.0739
 9171SOL     OW39145   4.241   3.280   3.587 -0.0874 -0.5071  0.0485
 9171SOL    HW139146   4.284   3.363   3.607 -1.1021  0.6096 -2.3259
 9171SOL    HW239147   4.223   3.231   3.667  2.5179  0.9482  1.4868
 9172SOL     OW39148   2.849   4.223   8.645 -0.0207 -0.2134 -0.0216
 9172SOL    HW139149   2.823   4.298   8.591  0.2362  1.9277  2.8204
 9172SOL    HW239150   2.774   4.225   8.704 -0.0325  0.8346 -0.0653
 9173SOL     OW39151   4.584   0.531   6.462  0.1662 -0.1394  0.0633
 9173SOL    HW139152   4.654   0.513   6.399 -0.9339 -0.2810 -1.1137
 9173SOL    HW239153   4.504   0.523   6.411  0.1656 -2.1961  0.3577
 9174SOL     OW39154   4.457   3.294   1.081  0.6436 -0.2242  0.0808
 9174SOL    HW139155   4.368   3.328   1.080  0.7739  0.1133 -0.4266
 9174SOL    HW239156   4.480   3.318   1.171 -0.3686 -1.5544  0.6923
 9175SOL     OW39157   2.369   1.516   8.540  0.1822  0.0636 -0.0101
 9175SOL    HW139158   2.282   1.477   8.538  0.1765  0.2289 -2.1078
 9175SOL    HW239159   2.422   1.439   8.561  1.0054  0.6877  0.2308
 9176SOL     OW39160   1.558   4.510   4.182  0.5284  0.6605  0.1938
 9176SOL    HW139161   1.603   4.595   4.177  0.4252  0.6094 -1.6305
 9176SOL    HW239162   1.515   4.505   4.097 -0.3450 -2.7509  0.8588
 9177SOL     OW39163   0.351   2.852  16.484  0.2628 -0.7790  0.2086
 9177SOL    HW139164   0.406   2.884  16.412 -0.3553 -0.6301 -0.1990
 9177SOL    HW239165   0.262   2.873  16.458  0.5789 -1.6662 -1.6582
 9178SOL     OW39166   3.368   0.781   5.469  0.0616  0.1751 -0.3234
 9178SOL    HW139167   3.274   0.784   5.452  0.1348  0.7771 -0.5984
 9178SOL    HW239168   3.388   0.861   5.517 -1.1026 -0.4152  1.1536
 9179SOL     OW39169   1.756   2.015   4.499 -0.5011  0.0402 -0.0603
 9179SOL    HW139170   1.835   1.980   4.540 -1.5304 -0.8666  1.1709
 9179SOL    HW239171   1.728   2.083   4.561 -0.2808  0.4387 -0.4057
 9180SOL     OW39172   0.928   0.115   1.941 -0.1476 -0.6804 -0.2802
 9180SOL    HW139173   0.986   0.187   1.916 -0.8302  0.8472  2.5550
 9180SOL    HW239174   0.938   0.118   2.036  1.2332 -1.4842 -0.4107
 9181SOL     OW39175   2.391   1.025  11.472 -0.1492  0.0677 -1.0872
 9181SOL    HW139176   2.424   1.017  11.383  2.6603  0.6349 -0.0965
 9181SOL    HW239177   2.321   1.090  11.468  0.0496  0.3177 -0.5765
 9182SOL     OW39178   4.732   1.584   2.375 -0.1884 -0.1598 -1.0717
 9182SOL    HW139179   4.715   1.489   2.378  0.3739 -0.1965  0.8635
 9182SOL    HW239180   0.091   1.579   2.384 -0.1747  2.7902  0.1804
 9183SOL     OW39181   4.249   2.758   7.716  0.3495 -0.0291 -0.8317
 9183SOL    HW139182   4.176   2.788   7.662  0.3004  2.1366  0.4283
 9183SOL    HW239183   4.200   2.716   7.787 -1.1168 -1.0128 -2.4442
 9184SOL     OW39184   4.540   3.301   8.566 -0.8559  0.7852  0.4326
 9184SOL    HW139185   4.605   3.356   8.610 -2.3771  4.1567 -1.5326
 9184SOL    HW239186   4.590   3.220   8.552 -0.6092  1.0819 -0.4216
 9185SOL     OW39187   2.630   4.560   0.283  0.1497  0.2425 -0.1898
 9185SOL    HW139188   2.569   4.525   0.218  0.6469 -1.4739  0.2571
 9185SOL    HW239189   2.717   4.530   0.256  1.0421  2.0173  0.6838
 9186SOL     OW39190   3.881   3.986   5.574 -0.3546  0.2166  0.2252
 9186SOL    HW139191   3.844   4.052   5.633  0.3715 -0.8503  1.8773
 9186SOL    HW239192   3.932   3.933   5.636  1.5991  2.6870  0.7352
 9187SOL     OW39193   3.753   0.421   8.783 -0.7493 -0.3368  0.2458
 9187SOL    HW139194   3.719   0.353   8.841 -2.9860  0.6083  0.0124
 9187SOL    HW239195   3.751   0.492   8.847 -0.4872 -1.7435  1.8472
 9188SOL     OW39196   0.120   1.371  15.684 -0.1357  0.4535  0.1117
 9188SOL    HW139197   0.053   1.438  15.695 -1.8345 -0.9845 -1.4817
 9188SOL    HW239198   0.190   1.404  15.740 -0.8111  1.4813  0.3474
 9189SOL     OW39199   4.126   3.738   4.630 -0.5329  0.1090  0.1074
 9189SOL    HW139200   4.194   3.756   4.694  1.6075 -3.2742 -1.2153
 9189SOL    HW239201   4.154   3.789   4.553  0.0394  1.4212  1.1906
 9190SOL     OW39202   0.253   4.201   0.751  0.8625 -0.2302 -0.2189
 9190SOL    HW139203   0.188   4.264   0.784 -2.0167 -3.3111 -0.0843
 9190SOL    HW239204   0.326   4.263   0.761  0.0781  0.4920  1.0427
 9191SOL     OW39205   2.841   1.974   7.258 -0.2261 -0.1424 -0.1253
 9191SOL    HW139206   2.793   1.941   7.334 -0.3363  2.2253  0.8040
 9191SOL    HW239207   2.780   2.042   7.228 -0.3032  0.2616  0.9742
 9192SOL     OW39208   3.152   1.909   7.357  0.6365  0.0677 -0.1840
 9192SOL    HW139209   3.115   1.941   7.275 -1.7222 -0.8381  0.5344
 9192SOL    HW239210   3.075   1.867   7.396  0.5545  1.0371  0.6901
 9193SOL     OW39211   4.002   2.507   2.486 -0.3715  0.2482 -0.0301
 9193SOL    HW139212   4.001   2.586   2.541  0.0421 -1.8984  3.0619
 9193SOL    HW239213   3.980   2.451   2.560 -2.3253 -1.8138 -2.1600
 9194SOL     OW39214   2.550   0.145   5.026 -0.1772 -0.1658  0.1980
 9194SOL    HW139215   2.458   0.168   5.036 -0.0317  0.8073 -0.7526
 9194SOL    HW239216   2.552   0.089   5.104  0.5454 -1.0343 -0.4440
 9195SOL     OW39217   0.185   3.504   8.435 -0.3866 -0.1206 -0.0269
 9195SOL    HW139218   0.248   3.468   8.498  0.2844  0.3574 -0.4187
 9195SOL    HW239219   0.205   3.461   8.352 -2.2135  1.7357 -1.4062
 9196SOL     OW39220   1.412   3.492   4.569  0.0254  0.0855  0.1393
 9196SOL    HW139221   1.412   3.419   4.630  0.3835 -1.6566 -1.9464
 9196SOL    HW239222   1.371   3.455   4.491 -1.1395 -0.6356  1.0887
 9197SOL     OW39223   1.347   3.287   4.769 -0.5858  0.2133 -0.3980
 9197SOL    HW139224   1.417   3.328   4.820  0.7084 -0.9520 -1.2368
 9197SOL    HW239225   1.289   3.271   4.844 -0.2492  2.1587  0.2695
 9198SOL     OW39226   2.242   1.982  12.178  0.0265  0.4871  0.1491
 9198SOL    HW139227   2.273   2.072  12.173 -1.3834  0.7950 -2.7112
 9198SOL    HW239228   2.294   1.932  12.116 -0.2171 -0.3709  0.6330
 9199SOL     OW39229   0.219   2.706  11.765  0.5792  0.0377 -0.0408
 9199SOL    HW139230   0.227   2.696  11.670 -0.7892 -3.3651  0.1725
 9199SOL    HW239231   0.290   2.765  11.787  1.2449 -0.3894 -1.0666
 9200SOL     OW39232   3.139   2.120   7.551 -0.2357  0.1371 -0.2348
 9200SOL    HW139233   3.163   2.031   7.524 -1.4155 -0.2711  0.0493
 9200SOL    HW239234   3.112   2.150   7.465  1.5082  1.4450 -0.3213
 9201SOL     OW39235   1.194   3.657   3.337  0.1906  0.9783 -0.1037
 9201SOL    HW139236   1.105   3.620   3.335  0.8096 -0.6206  2.1435
 9201SOL    HW239237   1.209   3.672   3.430  2.1443  1.2178 -0.4710
 9202SOL     OW39238   0.755   2.798   6.429  0.0722  0.5755 -0.5306
 9202SOL    HW139239   0.832   2.757   6.471 -1.5974 -3.7180 -1.6019
 9202SOL    HW239240   0.781   2.837   6.346  0.6541 -3.2051 -2.1620
 9203SOL     OW39241   4.676   0.525   3.706  1.1164 -0.0654  0.1856
 9203SOL    HW139242   0.033   0.536   3.688  1.3151 -2.2901 -0.1747
 9203SOL    HW239243   4.683   0.511   3.801 -1.0095 -0.6136  0.2812
 9204SOL     OW39244   3.569   3.236  15.857  0.5513  0.1411 -0.0325
 9204SOL    HW139245   3.551   3.286  15.778  0.5240  0.2671  0.0527
 9204SOL    HW239246   3.664   3.237  15.862  0.5539 -0.0740 -0.0322
 9205SOL     OW39247   2.578   3.323   9.527  0.2019 -0.5970  0.2627
 9205SOL    HW139248   2.558   3.333   9.434  2.4889 -5.0796 -0.7115
 9205SOL    HW239249   2.489   3.313   9.561 -0.3145 -1.3338 -1.2943
 9206SOL     OW39250   1.493   0.541   7.069  0.5234  0.4081  0.1335
 9206SOL    HW139251   1.514   0.523   7.160  1.0825  1.4879  0.2218
 9206SOL    HW239252   1.449   0.625   7.084 -1.2377 -0.4777 -0.0791
 9207SOL     OW39253   3.564   4.597  16.552 -0.0557  0.4549  0.3787
 9207SOL    HW139254   3.524   4.682  16.534  0.2847  0.2538 -1.3215
 9207SOL    HW239255   3.595   4.573  16.464 -2.3106 -1.7511  0.1969
 9208SOL     OW39256   1.425   0.659   5.779 -0.0445 -0.3739  0.2042
 9208SOL    HW139257   1.483   0.585   5.762  0.3275 -0.2660  1.0173
 9208SOL    HW239258   1.466   0.723   5.837 -0.2796  0.3133 -0.3921
 9209SOL     OW39259   1.087   1.724   7.846  0.1685  0.3778  0.3343
 9209SOL    HW139260   1.118   1.815   7.842 -0.0016  0.2517 -3.4304
 9209SOL    HW239261   1.040   1.727   7.929 -1.0565  0.0376 -0.3515
 9210SOL     OW39262   3.794   3.092  17.010  0.0055  0.4576 -0.0561
 9210SOL    HW139263   3.872   3.145  16.994  1.2821 -1.3830  0.0939
 9210SOL    HW239264   3.811   3.054  17.096 -2.2253 -2.5328 -0.9070
 9211SOL     OW39265   4.677   1.571  15.688  0.0299 -0.2584  0.4284
 9211SOL    HW139266   4.648   1.630  15.619  1.3567 -1.2104 -0.9455
 9211SOL    HW239267   4.649   1.625  15.762  1.4595  1.3496 -0.1908
 9212SOL     OW39268   2.102   3.710   1.401  0.2388 -0.1657 -0.1894
 9212SOL    HW139269   2.141   3.752   1.325  0.4227  0.8626  0.4803
 9212SOL    HW239270   2.010   3.709   1.375 -0.0018 -2.3842  0.7483
 9213SOL     OW39271   3.996   3.504   2.424  0.0582 -0.2336 -0.0477
 9213SOL    HW139272   3.966   3.586   2.386  0.0917  0.1617  0.7796
 9213SOL    HW239273   4.048   3.460   2.357  0.7547  1.8785 -0.8793
 9214SOL     OW39274   2.537   3.295  10.038 -0.1025  0.1386 -0.0492
 9214SOL    HW139275   2.465   3.255   9.990 -0.1968  1.8976 -1.3588
 9214SOL    HW239276   2.596   3.302   9.964  0.7881  1.3862  0.7630
 9215SOL     OW39277   2.925   0.048   8.238 -0.1525 -0.0510  0.0641
 9215SOL    HW139278   2.921   0.143   8.223  0.0963  0.0230  0.4716
 9215SOL    HW239279   3.018   0.037   8.255  0.0992 -1.6224 -2.3029
 9216SOL     OW39280   1.946   3.475   7.654  0.1672  0.1194 -0.5416
 9216SOL    HW139281   1.923   3.550   7.600 -3.0033 -0.3575  0.1348
 9216SOL    HW239282   1.939   3.402   7.593  0.4800  1.4137 -2.1051
 9217SOL     OW39283   4.159   4.245   7.242  0.0580 -0.1097 -0.2072
 9217SOL    HW139284   4.187   4.169   7.191  1.1642 -0.8252  1.4672
 9217SOL    HW239285   4.083   4.203   7.284 -3.5215  2.7948 -3.7705
 9218SOL     OW39286   0.099   4.221  16.200  0.6852  0.1100 -0.2314
 9218SOL    HW139287   0.120   4.191  16.289 -0.7671 -1.1306 -0.3115
 9218SOL    HW239288   0.147   4.156  16.149 -0.9606 -1.3601  0.0908
 9219SOL     OW39289   0.447   0.242   3.702  0.0124  0.1002 -0.8336
 9219SOL    HW139290   0.504   0.171   3.672  0.3839 -1.1477  2.7231
 9219SOL    HW239291   0.476   0.246   3.794  0.5555  1.2707 -1.0567
 9220SOL     OW39292   0.830   4.262   1.359 -0.3032  0.3496 -0.0299
 9220SOL    HW139293   0.888   4.338   1.362  1.6720 -1.1889  1.0168
 9220SOL    HW239294   0.824   4.254   1.454 -1.1136  1.4908  0.0056
 9221SOL     OW39295   0.488   1.135  17.054  0.0266  0.2030  0.8777
 9221SOL    HW139296   0.487   1.105  17.145  0.6441  2.0376  1.4934
 9221SOL    HW239297   0.582   1.146  17.039 -0.0683 -0.7516 -0.4812
 9222SOL     OW39298   3.691   2.036   4.917  0.1092 -0.3460 -0.1822
 9222SOL    HW139299   3.686   2.096   4.992  4.1696  0.1257 -0.2942
 9222SOL    HW239300   3.782   2.008   4.926 -0.5236 -2.7832 -1.4661
 9223SOL     OW39301   0.829   3.522   6.184 -0.5557  0.1211 -0.3555
 9223SOL    HW139302   0.769   3.594   6.169  1.0031  1.5181  0.1273
 9223SOL    HW239303   0.766   3.456   6.214  1.3614 -0.7243  1.7979
 9224SOL     OW39304   0.686   0.930  12.303 -0.2377  0.2791  0.1605
 9224SOL    HW139305   0.701   1.008  12.250 -2.1517 -1.5939 -3.0934
 9224SOL    HW239306   0.723   0.864  12.245  0.7563 -0.0058  1.1125
 9225SOL     OW39307   0.878   4.633   5.854 -0.9974 -0.7521  0.1646
 9225SOL    HW139308   0.850   4.563   5.796 -3.6638  1.2501 -0.9482
 9225SOL    HW239309   0.800   4.688   5.857  0.5608  1.3973  0.9855
 9226SOL     OW39310   1.184   3.412   9.054 -0.2398 -0.5707  0.1743
 9226SOL    HW139311   1.223   3.378   8.973 -2.7097  0.7578 -1.5818
 9226SOL    HW239312   1.261   3.463   9.079 -0.8855  0.5205 -0.0634
 9227SOL     OW39313   1.435   2.283   5.038  0.0379  0.2539  0.1525
 9227SOL    HW139314   1.350   2.319   5.011  1.4438  0.9117 -3.4221
 9227SOL    HW239315   1.476   2.364   5.067 -0.0157  0.4091 -0.2030
 9228SOL     OW39316   2.043   2.914   7.086 -0.2840 -0.3040 -0.1145
 9228SOL    HW139317   1.950   2.894   7.092  0.3188 -2.9224  0.3334
 9228SOL    HW239318   2.083   2.870   7.161  2.9528  1.1291 -0.9783
 9229SOL     OW39319   2.042   0.307   3.468  0.1007 -0.5797  0.1745
 9229SOL    HW139320   2.062   0.396   3.498 -0.1791  0.1281 -1.6709
 9229SOL    HW239321   1.948   0.309   3.451 -0.0879 -1.9082  1.1398
 9230SOL     OW39322   1.056   4.250   0.131  0.3079 -0.5982 -0.9484
 9230SOL    HW139323   1.115   4.230   0.058  2.6634 -0.8543  1.0306
 9230SOL    HW239324   1.047   4.165   0.173  1.4073 -0.0352  0.4277
 9231SOL     OW39325   0.219   3.962   7.208 -0.1069 -0.6478  0.0093
 9231SOL    HW139326   0.134   3.922   7.223 -0.7824  0.1018 -1.8458
 9231SOL    HW239327   0.200   4.056   7.210  0.8175 -0.4652  0.3509
 9232SOL     OW39328   1.404   1.920   3.939  0.0931  0.6777 -0.2473
 9232SOL    HW139329   1.463   1.964   3.999  2.2521 -2.0640 -0.3646
 9232SOL    HW239330   1.343   1.994   3.929  1.7557  2.0814  0.1431
 9233SOL     OW39331   3.798   2.090   6.668  0.4545  0.2979 -0.1306
 9233SOL    HW139332   3.791   2.004   6.710  2.3240  0.3818  0.3396
 9233SOL    HW239333   3.707   2.120   6.681 -0.3053 -1.6155 -1.0047
 9234SOL     OW39334   0.280   2.517   3.424 -0.5772 -0.2134  0.2538
 9234SOL    HW139335   0.226   2.485   3.496  1.4220 -1.1453  1.3484
 9234SOL    HW239336   0.206   2.530   3.365 -0.7450  1.5517  0.8480
 9235SOL     OW39337   1.544   3.158   5.957  0.1779 -0.9354  0.0978
 9235SOL    HW139338   1.449   3.164   5.969  0.0756 -0.5166 -0.8890
 9235SOL    HW239339   1.568   3.204   6.037 -0.6437 -0.9705  0.3735
 9236SOL     OW39340   4.712   4.417  15.791 -0.3140  0.2095 -0.2907
 9236SOL    HW139341   0.070   4.420  15.807  0.2315 -1.3757 -3.1293
 9236SOL    HW239342   4.699   4.450  15.702 -1.1966 -1.5980 -0.8389
 9237SOL     OW39343   4.278   3.408   4.755 -0.6043 -0.5702  0.0512
 9237SOL    HW139344   4.269   3.504   4.757 -1.1109 -0.6371  1.4931
 9237SOL    HW239345   4.327   3.394   4.837  1.0124  0.1258 -0.7941
 9238SOL     OW39346   3.428   2.385   6.586 -0.0769  0.3682 -1.1559
 9238SOL    HW139347   3.348   2.405   6.633  0.6222 -0.8412  0.5703
 9238SOL    HW239348   3.468   2.469   6.606  2.6336 -0.7548 -1.7995
 9239SOL     OW39349   0.770   4.728  11.122  0.3739 -0.3358  0.0079
 9239SOL    HW139350   0.748   4.675  11.046 -0.9401 -0.5282  0.5252
 9239SOL    HW239351   0.693   0.049  11.124 -0.2125 -1.0783 -1.4632
 9240SOL     OW39352   0.485   2.716   9.354  0.2187  0.5434 -0.1061
 9240SOL    HW139353   0.400   2.760   9.362  0.2443  0.1310  2.4403
 9240SOL    HW239354   0.549   2.783   9.379  1.1754  0.0502 -1.2252
 9241SOL     OW39355   1.811   1.112   6.042 -0.1534  0.2800 -0.4343
 9241SOL    HW139356   1.804   1.025   6.004  3.1471 -0.5754  0.9589
 9241SOL    HW239357   1.866   1.148   5.972 -0.7321  1.6662 -0.1865
 9242SOL     OW39358   2.069   2.699   5.292 -0.1645  0.2030  0.0747
 9242SOL    HW139359   2.053   2.687   5.386 -0.1780  0.9530  0.1672
 9242SOL    HW239360   1.987   2.734   5.258  1.0061  3.4559  0.5296
 9243SOL     OW39361   4.529   3.483   2.218  0.4484 -0.4783  0.0348
 9243SOL    HW139362   4.561   3.445   2.136  0.5150 -0.2868 -0.0264
 9243SOL    HW239363   4.530   3.577   2.204  1.0313 -0.5963 -0.7527
 9244SOL     OW39364   3.351   2.427   5.030  0.1379  0.4122  0.4541
 9244SOL    HW139365   3.347   2.338   5.065  1.3817 -0.1344 -0.8180
 9244SOL    HW239366   3.419   2.421   4.963  1.5010 -1.4802  2.0185
 9245SOL     OW39367   2.539   3.157  16.220  1.0477  0.2984  0.9396
 9245SOL    HW139368   2.589   3.220  16.272  0.8898 -0.8218  2.4770
 9245SOL    HW239369   2.590   3.157  16.140 -0.5368 -2.4848 -0.0819
 9246SOL     OW39370   3.122   2.932   4.425 -0.0260  0.3240 -0.0879
 9246SOL    HW139371   3.045   2.989   4.424 -0.7672 -0.6614  2.3692
 9246SOL    HW239372   3.108   2.884   4.507 -0.6949  0.5142 -0.0951
 9247SOL     OW39373   0.572   1.165   8.000  0.4228 -0.1668  0.0624
 9247SOL    HW139374   0.657   1.137   7.964  0.9184  0.7273  0.5436
 9247SOL    HW239375   0.570   1.261   8.005  0.7444 -0.1050 -0.9412
 9248SOL     OW39376   3.548   3.448   9.984  0.1766  0.4118 -0.1432
 9248SOL    HW139377   3.458   3.455   9.952  0.0136  0.7613  0.3872
 9248SOL    HW239378   3.536   3.415  10.073  1.1494  0.2913 -0.0544
 9249SOL     OW39379   1.474   2.802   9.903  0.1504  0.0438  0.1069
 9249SOL    HW139380   1.543   2.797   9.969 -1.0026  5.1992  1.7406
 9249SOL    HW239381   1.514   2.746   9.837  0.3149  0.6364 -0.2968
 9250SOL     OW39382   4.062   3.446   0.324 -0.6210  0.1834 -0.2223
 9250SOL    HW139383   4.109   3.374   0.281 -0.2122  0.4120 -0.1628
 9250SOL    HW239384   4.046   3.502   0.248 -0.2116 -2.3509 -2.1754
 9251SOL     OW39385   2.471   3.131   3.099  0.4054  0.0793 -0.0633
 9251SOL    HW139386   2.403   3.103   3.038  0.2349  2.6815 -1.0695
 9251SOL    HW239387   2.456   3.081   3.179 -1.1366  0.5845 -0.0361
 9252SOL     OW39388   4.658   0.069   2.425  0.3513  0.2106  0.1317
 9252SOL    HW139389   4.734   0.085   2.368  0.7771  1.5727  1.0818
 9252SOL    HW239390   4.701   0.119   2.495 -0.9519  0.2188  0.9154
 9253SOL     OW39391   0.296   1.902   4.751  0.4105  0.2646  0.5000
 9253SOL    HW139392   0.317   1.839   4.820  0.3469  0.6899  0.9071
 9253SOL    HW239393   0.297   1.843   4.675  0.1814 -0.3507  0.9700
 9254SOL     OW39394   4.374   2.478   8.469  0.1773  0.2331  0.7595
 9254SOL    HW139395   4.446   2.416   8.451  0.8036  1.4046 -0.7511
 9254SOL    HW239396   4.355   2.511   8.381 -0.1489  0.5920  0.9671
 9255SOL     OW39397   4.031   4.537   8.094  0.3942  0.5010  0.6387
 9255SOL    HW139398   3.969   4.593   8.140  1.7323  1.9337  0.6892
 9255SOL    HW239399   4.109   4.593   8.094 -0.0320  1.1001  2.9502
 9256SOL     OW39400   4.287   2.096  10.521 -0.1399 -0.2939 -0.3875
 9256SOL    HW139401   4.236   2.160  10.471 -2.7981  0.2213  2.9735
 9256SOL    HW239402   4.370   2.113  10.476 -0.0224 -0.5202 -0.2523
 9257SOL     OW39403   0.066   3.558   6.409 -0.2496 -0.0944 -0.5034
 9257SOL    HW139404   0.068   3.495   6.337 -1.9996 -0.5760 -0.1394
 9257SOL    HW239405   4.710   3.546   6.434 -0.6848  0.6004 -1.7362
 9258SOL     OW39406   3.250   2.128   9.139  0.0689  0.3147  0.5115
 9258SOL    HW139407   3.309   2.202   9.147  1.7304 -1.1320  1.5563
 9258SOL    HW239408   3.247   2.098   9.230 -0.0434 -0.1055  0.3713
 9259SOL     OW39409   1.204   3.844  16.275  0.5132 -0.0356  0.0811
 9259SOL    HW139410   1.262   3.842  16.199  1.5472  0.5508  0.8511
 9259SOL    HW239411   1.199   3.749  16.290  1.1697 -0.4469 -2.2357
 9260SOL     OW39412   3.453   0.243   9.495  0.4245 -0.4091  0.4870
 9260SOL    HW139413   3.531   0.202   9.456 -0.2839 -0.0445 -1.2895
 9260SOL    HW239414   3.461   0.334   9.469 -0.1389 -0.0198  1.6722
 9261SOL     OW39415   0.235   2.833   5.374 -0.5779  0.0679  0.2698
 9261SOL    HW139416   0.233   2.927   5.360  1.1889 -0.4793 -3.7682
 9261SOL    HW239417   0.325   2.817   5.399 -1.2448 -0.1765  2.4795
 9262SOL     OW39418   2.831   4.474   4.872 -0.1648  0.0353  0.3706
 9262SOL    HW139419   2.843   4.466   4.967 -1.5040  1.4137  0.6671
 9262SOL    HW239420   2.739   4.450   4.857 -0.2287  0.6133 -0.1801
 9263SOL     OW39421   1.492   3.276   7.110  0.4959 -0.0364 -0.0870
 9263SOL    HW139422   1.572   3.223   7.107  1.6326  1.6464  0.3859
 9263SOL    HW239423   1.447   3.251   7.191  0.2088  0.7447 -0.0037
 9264SOL     OW39424   1.276   3.423   5.517  0.4197 -0.4418  0.3281
 9264SOL    HW139425   1.256   3.330   5.529  0.0723  0.0135  3.3136
 9264SOL    HW239426   1.297   3.430   5.424  0.1846 -0.2080  0.2935
 9265SOL     OW39427   2.464   4.409   5.382  0.4950  0.2524 -0.2302
 9265SOL    HW139428   2.458   4.375   5.293 -1.5968  1.1069 -0.4043
 9265SOL    HW239429   2.370   4.423   5.377  0.5197  0.9492  1.2183
 9266SOL     OW39430   2.266   1.858   2.388  0.9615 -0.2480 -0.5499
 9266SOL    HW139431   2.209   1.803   2.442 -0.8812  0.7513 -1.4730
 9266SOL    HW239432   2.240   1.948   2.406  0.0429 -0.5759 -0.2026
 9267SOL     OW39433   3.147   3.601   2.564 -0.6512 -0.1476 -0.3538
 9267SOL    HW139434   3.100   3.551   2.631  2.1061  2.3099  3.3938
 9267SOL    HW239435   3.224   3.543   2.563 -0.2369  0.3885  0.2724
 9268SOL     OW39436   1.836   2.979  12.212 -0.4172 -0.0807  0.5276
 9268SOL    HW139437   1.927   2.956  12.198 -0.6372 -0.7826  0.2733
 9268SOL    HW239438   1.833   3.058  12.157 -0.4498 -0.6832 -0.3320
 9269SOL     OW39439   1.540   4.006   6.035  0.4696 -0.2974  0.5269
 9269SOL    HW139440   1.459   3.986   5.989 -1.2182  0.7990  3.0065
 9269SOL    HW239441   1.522   4.047   6.119  1.1909 -0.7994  0.9315
 9270SOL     OW39442   2.433   3.864   3.476  0.0404 -0.0899 -0.7696
 9270SOL    HW139443   2.366   3.796   3.483 -0.5289  0.5132 -0.3883
 9270SOL    HW239444   2.394   3.941   3.433 -5.0963 -1.8158  0.8460
 9271SOL     OW39445   4.126   0.382   8.926  0.5627  0.3647 -0.3218
 9271SOL    HW139446   4.127   0.465   8.879  1.1899  0.1913 -0.6164
 9271SOL    HW239447   4.058   0.399   8.991 -2.2586 -1.4650 -2.7783
 9272SOL     OW39448   0.772   0.009   7.307  0.2098  0.3780 -0.4439
 9272SOL    HW139449   0.727   0.075   7.255 -1.2352 -0.8830 -0.7847
 9272SOL    HW239450   0.809   0.068   7.373  0.2969  0.5516 -0.6482
 9273SOL     OW39451   3.420   3.847   3.111 -0.2966  0.2534 -0.1537
 9273SOL    HW139452   3.351   3.780   3.108 -0.9704  0.9970 -0.9405
 9273SOL    HW239453   3.481   3.798   3.055 -0.0651  0.8221 -0.3986
 9274SOL     OW39454   4.563   4.479   9.650 -0.3720  0.2991  0.3688
 9274SOL    HW139455   4.642   4.509   9.693 -1.4152  5.2273 -1.1573
 9274SOL    HW239456   4.520   4.436   9.724 -1.7656  0.2837 -0.4459
 9275SOL     OW39457   0.827   3.246   5.431 -0.0310 -0.0394 -0.0547
 9275SOL    HW139458   0.766   3.286   5.370 -1.8996 -0.6161  1.4136
 9275SOL    HW239459   0.802   3.288   5.514 -0.4939  1.0435 -0.7453
 9276SOL     OW39460   0.499   1.807  12.590 -0.5032  0.4655 -0.9158
 9276SOL    HW139461   0.486   1.901  12.577  1.4165  0.7244 -0.9756
 9276SOL    HW239462   0.430   1.763  12.541 -1.7313  0.9251  0.4120
 9277SOL     OW39463   4.491   1.945   3.629  0.1040 -0.8993 -0.2302
 9277SOL    HW139464   4.531   1.958   3.715 -2.4051 -1.0458  0.9558
 9277SOL    HW239465   4.497   1.850   3.618 -1.0201 -1.2681  2.3977
 9278SOL     OW39466   0.117   4.720   1.266 -0.7285  0.1437 -0.2069
 9278SOL    HW139467   0.061   4.667   1.322  1.7608 -0.1914  1.9315
 9278SOL    HW239468   0.098   0.073   1.295  0.8451 -0.1116  1.5734
 9279SOL     OW39469   3.686   2.482  10.414  0.0522 -0.1516  0.7133
 9279SOL    HW139470   3.598   2.466  10.446 -0.2565 -0.3633 -0.2299
 9279SOL    HW239471   3.716   2.395  10.388 -2.1265 -0.3671 -1.0691
 9280SOL     OW39472   2.458   2.439  15.828 -0.0572  0.7740  0.5660
 9280SOL    HW139473   2.536   2.408  15.875 -3.6061 -3.1636  3.8782
 9280SOL    HW239474   2.395   2.465  15.895  0.3892  0.0949  1.2537
 9281SOL     OW39475   4.735   2.599   4.810 -0.0604 -0.2346 -0.4842
 9281SOL    HW139476   0.049   2.523   4.840  0.5618 -0.1315 -1.2562
 9281SOL    HW239477   0.053   2.666   4.852 -0.2025 -0.3097 -0.1823
 9282SOL     OW39478   1.466   1.614   2.582  0.1397  0.6047  0.4116
 9282SOL    HW139479   1.550   1.642   2.543  0.9325 -0.1266  1.6001
 9282SOL    HW239480   1.415   1.606   2.501 -1.1221  0.8740  1.1895
 9283SOL     OW39481   1.253   2.505  12.343  0.0295  0.1872  0.2062
 9283SOL    HW139482   1.206   2.443  12.287  0.9090 -0.5198  0.2533
 9283SOL    HW239483   1.343   2.494  12.313 -0.9321  0.6246 -2.8749
 9284SOL     OW39484   3.624   4.624   7.101 -0.1256  0.0296 -0.5162
 9284SOL    HW139485   3.627   4.663   7.188 -0.5609  2.3750 -1.5444
 9284SOL    HW239486   3.650   4.706   7.059  1.2487 -1.1841 -2.0267
 9285SOL     OW39487   1.502   3.781   3.623 -0.0883 -0.1349 -0.3886
 9285SOL    HW139488   1.485   3.820   3.537  1.2870  0.9770 -0.1574
 9285SOL    HW239489   1.589   3.820   3.637 -0.8519  1.0154  1.1197
 9286SOL     OW39490   3.097   2.855   8.594 -0.4101  0.4057 -0.1699
 9286SOL    HW139491   3.116   2.890   8.681 -0.7247  0.1700 -0.0057
 9286SOL    HW239492   3.059   2.935   8.558  1.9389  0.0839 -3.3243
 9287SOL     OW39493   3.729   0.488   0.678 -0.7496  0.4073 -0.2609
 9287SOL    HW139494   3.705   0.579   0.692 -1.6398  0.3767 -1.5563
 9287SOL    HW239495   3.641   0.449   0.675  1.0380 -3.6830 -0.0183
 9288SOL     OW39496   1.628   2.321   8.136  0.3676  0.0853  0.1854
 9288SOL    HW139497   1.608   2.392   8.074  0.4526 -0.4716 -0.4880
 9288SOL    HW239498   1.723   2.323   8.145  0.1536  0.5982  2.2117
 9289SOL     OW39499   1.079   0.694  13.352  0.3612  0.3840  0.2478
 9289SOL    HW139500   0.999   0.690  13.406  0.1026 -0.8156 -0.2148
 9289SOL    HW239501   1.136   0.648  13.413 -0.3221  0.3671  0.8707
 9290SOL     OW39502   1.311   0.326   5.136  0.0223  0.1369  0.0475
 9290SOL    HW139503   1.267   0.289   5.212 -1.6243 -0.6693 -1.3066
 9290SOL    HW239504   1.251   0.394   5.106 -0.6042 -0.5414 -0.2261
 9291SOL     OW39505   2.496   3.015   4.208  0.0549  0.0731  0.8820
 9291SOL    HW139506   2.579   2.967   4.200 -0.8350 -1.2050 -0.7389
 9291SOL    HW239507   2.438   2.939   4.222  0.0449  0.0050  0.4486
 9292SOL     OW39508   3.336   4.051   5.602 -0.3752 -0.0287  0.3013
 9292SOL    HW139509   3.383   4.118   5.553 -1.6192  0.4000 -0.3201
 9292SOL    HW239510   3.412   4.031   5.656  1.1496  0.9575 -1.4773
 9293SOL     OW39511   0.130   1.386   5.492  0.3509 -0.3631  0.0949
 9293SOL    HW139512   0.116   1.295   5.519 -1.4126  0.5244  2.1535
 9293SOL    HW239513   0.053   1.430   5.527 -0.0019 -0.4630 -0.5584
 9294SOL     OW39514   3.491   3.085  16.623 -0.1385 -0.1208 -0.7336
 9294SOL    HW139515   3.425   3.137  16.577  1.6077  0.3794 -2.6869
 9294SOL    HW239516   3.463   2.996  16.603  0.8587 -0.2030 -1.7802
 9295SOL     OW39517   3.330   0.769   3.428 -0.7805 -0.0001 -0.0164
 9295SOL    HW139518   3.405   0.787   3.484 -0.8650 -0.8421  0.3739
 9295SOL    HW239519   3.377   0.731   3.354 -3.1760 -1.2700 -0.9119
 9296SOL     OW39520   2.435   0.896   4.702  0.0892 -0.1215 -0.5366
 9296SOL    HW139521   2.388   0.973   4.671  0.8589 -0.1073 -1.6899
 9296SOL    HW239522   2.521   0.913   4.662  1.4231 -2.5309  1.2914
 9297SOL     OW39523   0.317   3.817   7.662  0.4995 -0.5244  0.4435
 9297SOL    HW139524   0.374   3.741   7.655  0.9704 -0.3595  2.4829
 9297SOL    HW239525   0.235   3.783   7.626 -0.3892 -0.2284  2.1820
 9298SOL     OW39526   3.803   2.951   5.919 -0.3968  0.1960 -0.1352
 9298SOL    HW139527   3.737   2.882   5.918 -0.8771  0.6507 -0.0037
 9298SOL    HW239528   3.890   2.930   5.885 -0.6971 -0.7967 -0.2876
 9299SOL     OW39529   0.207   0.035  14.227 -0.3100  0.3824  0.1820
 9299SOL    HW139530   0.240   0.122  14.248  0.6638  0.8450 -3.3484
 9299SOL    HW239531   0.290   4.728  14.208 -1.1943 -1.6272  0.8644
 9300SOL     OW39532   0.993   2.233   5.874  0.3068 -0.1326 -0.2077
 9300SOL    HW139533   1.089   2.229   5.870  0.2115 -2.1119 -0.5251
 9300SOL    HW239534   0.975   2.249   5.967  1.8024  0.8718 -0.0868
 9301SOL     OW39535   1.043   3.713   6.150 -0.3366  0.6483 -0.3366
 9301SOL    HW139536   0.973   3.650   6.170  0.1436  0.3064  0.2712
 9301SOL    HW239537   1.023   3.743   6.062 -2.3897 -0.5777 -0.2920
 9302SOL     OW39538   1.266   2.065  12.206 -0.0708  0.2034 -0.1050
 9302SOL    HW139539   1.347   2.074  12.257  1.7073  1.7914 -3.1574
 9302SOL    HW239540   1.243   1.976  12.230  2.9464 -0.1918  1.2966
 9303SOL     OW39541   0.812   0.860   8.595 -0.7577  0.4202 -0.1406
 9303SOL    HW139542   0.734   0.913   8.580  1.2771  2.9780 -1.6848
 9303SOL    HW239543   0.811   0.842   8.689 -0.8589  1.7462  0.1137
 9304SOL     OW39544   2.570   2.044   8.778 -0.1739 -0.1290 -0.0506
 9304SOL    HW139545   2.553   1.952   8.761 -0.9811  0.5299 -2.8140
 9304SOL    HW239546   2.629   2.084   8.714  2.4944 -1.9508  1.2904
 9305SOL     OW39547   0.539   3.613   4.048  0.2680  0.1252 -0.0613
 9305SOL    HW139548   0.490   3.607   4.129 -0.7511 -0.7817 -0.7457
 9305SOL    HW239549   0.631   3.627   4.071  0.4071  0.1087 -0.6007
 9306SOL     OW39550   1.995   3.550   9.024 -0.0970 -0.1299 -0.1669
 9306SOL    HW139551   1.986   3.593   8.939  2.7926  0.2360 -0.2743
 9306SOL    HW239552   1.915   3.571   9.073 -0.3643  1.2700 -1.2068
 9307SOL     OW39553   4.363   3.591  17.518  0.2845  0.3780 -0.2158
 9307SOL    HW139554   4.371   3.532  17.593 -4.0330 -0.8540 -0.7946
 9307SOL    HW239555   4.288   3.546  17.481  1.6388 -1.8857 -0.2091
 9308SOL     OW39556   0.520   0.385  14.246 -0.5211  0.4587 -0.3396
 9308SOL    HW139557   0.523   0.477  14.272  1.8357  0.1850  0.3543
 9308SOL    HW239558   0.610   0.354  14.257 -0.1244  1.3424 -1.1593
 9309SOL     OW39559   2.719   4.703  12.495  0.2331 -0.0638  0.0943
 9309SOL    HW139560   2.753   4.613  12.484 -0.4631 -0.4710  1.3520
 9309SOL    HW239561   2.635   4.691  12.452 -0.0735 -0.6890  0.8583
 9310SOL     OW39562   1.106   2.655   3.154  0.3470 -0.2270 -0.1787
 9310SOL    HW139563   1.093   2.624   3.244 -0.2319 -1.1854 -0.5912
 9310SOL    HW239564   1.078   2.578   3.104 -0.4911  0.1958 -0.3477
 9311SOL     OW39565   3.944   4.610  10.846 -0.5322  0.3082 -0.5375
 9311SOL    HW139566   3.886   4.588  10.919  0.2084  1.3983  0.3745
 9311SOL    HW239567   3.997   4.681  10.883 -0.9869  1.7352 -2.6383
 9312SOL     OW39568   0.202   4.083   3.184  0.4620 -0.5000  0.0278
 9312SOL    HW139569   0.159   4.003   3.213  1.2261 -0.8709  0.1322
 9312SOL    HW239570   0.253   4.096   3.264 -2.8606 -2.8445  2.5264
 9313SOL     OW39571   0.306   3.407   1.148  0.6089 -0.2582 -0.0512
 9313SOL    HW139572   0.349   3.325   1.171  2.4351  0.3748 -1.2643
 9313SOL    HW239573   0.300   3.394   1.053  1.8056 -0.6597 -0.0714
 9314SOL     OW39574   3.515   4.318   3.585  0.0770 -0.3718  0.3511
 9314SOL    HW139575   3.431   4.297   3.547  0.0234 -0.9345  0.7823
 9314SOL    HW239576   3.558   4.233   3.581  2.9490  1.0968 -0.0908
 9315SOL     OW39577   0.516   1.115   1.578 -0.7821  0.5275  0.4093
 9315SOL    HW139578   0.448   1.047   1.582 -0.2695 -0.0152 -0.1049
 9315SOL    HW239579   0.530   1.129   1.484 -0.1249  4.0102  1.0216
 9316SOL     OW39580   1.772   1.788  11.275 -0.3266  0.1542  0.2185
 9316SOL    HW139581   1.777   1.788  11.370  2.7498 -0.0106  0.0419
 9316SOL    HW239582   1.745   1.698  11.258 -1.7209  0.6638 -0.3133
 9317SOL     OW39583   4.182   2.299   7.815 -0.2186 -0.1211  0.4982
 9317SOL    HW139584   4.177   2.358   7.891 -1.2197  0.0388  0.3010
 9317SOL    HW239585   4.214   2.361   7.749 -1.6300 -0.7690 -0.7723
 9318SOL     OW39586   3.677   3.877   6.533 -0.1952  0.3108 -0.1183
 9318SOL    HW139587   3.732   3.883   6.611 -0.6235 -0.4734  0.2445
 9318SOL    HW239588   3.676   3.970   6.510 -1.6783  0.1662 -0.6547
 9319SOL     OW39589   2.159   2.156   7.500  0.3000 -0.5752 -0.0589
 9319SOL    HW139590   2.111   2.171   7.581  0.4724 -0.6716  0.0607
 9319SOL    HW239591   2.099   2.108   7.443 -0.4806 -1.3974  1.4534
 9320SOL     OW39592   3.181   2.478  10.964  0.4376 -0.6945 -0.7124
 9320SOL    HW139593   3.215   2.549  11.017 -0.3279 -2.2294  1.8552
 9320SOL    HW239594   3.161   2.512  10.877 -0.8456 -0.7403 -0.4373
 9321SOL     OW39595   4.292   0.960  13.877  0.5193  0.0628  0.5254
 9321SOL    HW139596   4.366   0.905  13.850  0.4441 -2.0478  4.5808
 9321SOL    HW239597   4.230   0.887  13.886  2.4299 -1.7471 -0.8596
 9322SOL     OW39598   1.886   2.728  10.271 -0.3429  0.3566 -0.0192
 9322SOL    HW139599   1.875   2.633  10.269 -1.3220  0.5509 -3.3299
 9322SOL    HW239600   1.980   2.734  10.254 -0.6084 -1.2950 -1.9813
 9323SOL     OW39601   0.557   1.364  10.589 -0.3434 -0.7158 -0.2613
 9323SOL    HW139602   0.480   1.412  10.557  0.0494 -0.2518 -0.5085
 9323SOL    HW239603   0.497   1.307  10.638 -0.3666 -0.1024  0.4221
 9324SOL     OW39604   2.338   4.128   5.721  0.0088  0.2467  0.0293
 9324SOL    HW139605   2.329   4.134   5.816 -1.2604 -1.4358  0.0107
 9324SOL    HW239606   2.317   4.036   5.705  1.7350 -0.5205  2.1978
 9325SOL     OW39607   1.020   0.457   9.154 -0.0493 -0.3046 -0.3628
 9325SOL    HW139608   1.041   0.372   9.114  0.2225  0.2103 -1.3010
 9325SOL    HW239609   0.926   0.467   9.136 -0.6206 -3.8802  0.6372
 9326SOL     OW39610   0.403   0.618   3.585  0.0104  0.1494 -0.2315
 9326SOL    HW139611   0.387   0.608   3.491  0.9861  1.4828 -0.5334
 9326SOL    HW239612   0.490   0.579   3.588  0.6533  1.4527 -1.8419
 9327SOL     OW39613   4.485   0.926  15.138 -0.7329  0.3893 -0.1441
 9327SOL    HW139614   4.514   1.017  15.140 -0.5964  0.3424  0.1974
 9327SOL    HW239615   4.547   0.890  15.202  2.4883  2.9885 -1.7897
 9328SOL     OW39616   2.145   1.329  12.782  0.3013  0.8130  0.3070
 9328SOL    HW139617   2.213   1.297  12.723  0.3635  0.8360  0.3659
 9328SOL    HW239618   2.082   1.257  12.788 -0.2994  1.3409  0.2980
 9329SOL     OW39619   0.306   1.357  17.063  0.0166 -0.1405 -0.7136
 9329SOL    HW139620   0.355   1.274  17.063 -0.6193 -0.5243  0.8559
 9329SOL    HW239621   0.376   1.418  17.039  0.6138 -1.0681 -1.3240
 9330SOL     OW39622   2.182   1.590   9.084  0.2011  0.3364 -0.0310
 9330SOL    HW139623   2.261   1.600   9.031  0.0621  0.8111 -0.1475
 9330SOL    HW239624   2.199   1.511   9.136 -1.0433 -0.8759 -1.4563
 9331SOL     OW39625   3.187   3.873   2.654 -0.3797 -0.2796  0.1404
 9331SOL    HW139626   3.281   3.879   2.675 -0.4266  0.1853  0.2202
 9331SOL    HW239627   3.176   3.798   2.596 -0.9190 -1.2561  1.5048
 9332SOL     OW39628   3.898   2.962   8.429  0.8003  0.0185  0.1029
 9332SOL    HW139629   3.990   2.936   8.436  0.7568  0.0141  0.6622
 9332SOL    HW239630   3.900   3.034   8.491  0.8377  1.2135 -1.2751
 9333SOL     OW39631   4.210   4.345   8.688  0.2625  0.3215  0.5006
 9333SOL    HW139632   4.261   4.407   8.740 -0.2399  0.9006  0.2999
 9333SOL    HW239633   4.136   4.401   8.666 -0.7866 -0.9920  0.7185
 9334SOL     OW39634   3.683   1.863  17.210  1.0152  0.3844 -0.4665
 9334SOL    HW139635   3.685   1.783  17.263  0.8463 -1.0442 -2.5959
 9334SOL    HW239636   3.756   1.836  17.154  1.0639 -0.9613  0.2378
 9335SOL     OW39637   3.874   0.686   2.718 -0.1830 -0.2238 -0.4378
 9335SOL    HW139638   3.933   0.683   2.643  1.3074 -0.6032  0.7371
 9335SOL    HW239639   3.791   0.657   2.680 -1.2326  2.1382  0.0363
 9336SOL     OW39640   0.719   3.204  10.534  0.2491 -0.3721 -0.2486
 9336SOL    HW139641   0.764   3.138  10.586  1.2833  0.8979  0.4599
 9336SOL    HW239642   0.678   3.144  10.472 -0.4086 -2.2556  2.0511
 9337SOL     OW39643   4.630   1.677   9.980  0.5692  0.1989  0.0999
 9337SOL    HW139644   4.640   1.592   9.936 -1.2834 -0.0839  0.2037
 9337SOL    HW239645   4.710   1.685  10.033 -0.3531  0.3090  1.4781
 9338SOL     OW39646   2.813   0.126  12.277  0.3194 -0.2935 -0.5817
 9338SOL    HW139647   2.765   0.088  12.350  1.5046 -2.1791 -0.8058
 9338SOL    HW239648   2.806   0.220  12.296 -1.2244 -0.0848 -2.1512
 9339SOL     OW39649   2.264   2.757   2.885 -0.0500 -0.0164  0.0778
 9339SOL    HW139650   2.278   2.804   2.802  0.0421 -0.2751 -0.0551
 9339SOL    HW239651   2.351   2.718   2.896 -0.1023 -0.0873  0.2456
 9340SOL     OW39652   3.714   3.060   7.264  0.4648 -0.8500  0.8252
 9340SOL    HW139653   3.667   2.977   7.262  1.3345 -1.3251  0.3587
 9340SOL    HW239654   3.662   3.091   7.338 -0.2856 -1.3284  0.4985
 9341SOL     OW39655   0.893   2.312  12.874  0.1043  0.2819  0.4268
 9341SOL    HW139656   0.818   2.350  12.920 -0.6595  0.1185 -0.6906
 9341SOL    HW239657   0.915   2.366  12.799 -1.6715 -0.2096 -0.4478
 9342SOL     OW39658   1.779   0.928   4.717 -0.0286 -0.4020  0.0881
 9342SOL    HW139659   1.853   0.872   4.741  2.2308  1.0714 -3.2855
 9342SOL    HW239660   1.723   0.861   4.677  2.0385 -2.2046  0.2158
 9343SOL     OW39661   1.088   1.794   2.465  0.5594 -0.0541 -0.0410
 9343SOL    HW139662   1.147   1.815   2.537  1.2837  0.1947 -0.7151
 9343SOL    HW239663   1.096   1.881   2.426 -0.2858  0.1670  0.2865
 9344SOL     OW39664   4.115   4.652  17.278 -0.0307 -0.6254 -0.3133
 9344SOL    HW139665   4.059   4.607  17.215 -2.9771 -0.9152  2.5194
 9344SOL    HW239666   4.187   4.678  17.221  1.0408 -1.2280  0.7383
 9345SOL     OW39667   0.400   0.791   4.725 -0.2438  0.2701  0.5350
 9345SOL    HW139668   0.399   0.886   4.728 -3.1283  0.2443  0.2750
 9345SOL    HW239669   0.345   0.770   4.801 -0.1366 -2.1663 -0.0458
 9346SOL     OW39670   2.816   3.996  14.897 -0.5327 -0.6776  0.2517
 9346SOL    HW139671   2.724   4.009  14.919 -0.4150  0.5265  0.0367
 9346SOL    HW239672   2.838   3.910  14.933  3.4236  0.9943  1.8772
 9347SOL     OW39673   0.479   0.057  14.774  0.4754  0.3019 -0.1255
 9347SOL    HW139674   0.484   0.101  14.689  2.7866  0.9102  0.3095
 9347SOL    HW239675   0.386   0.038  14.784  0.6473 -0.4758  0.0054
 9348SOL     OW39676   0.816   3.363  10.845 -0.1389 -0.4278 -0.3791
 9348SOL    HW139677   0.780   3.356  10.934 -0.2871 -2.5182 -0.6116
 9348SOL    HW239678   0.901   3.406  10.848 -1.1639  1.6241  0.2693
 9349SOL     OW39679   0.461   2.649  16.158  0.4779 -0.6840  0.5224
 9349SOL    HW139680   0.534   2.710  16.150  1.5131 -1.8185  1.3321
 9349SOL    HW239681   0.474   2.616  16.247  1.2200 -0.8547  0.3440
 9350SOL     OW39682   3.175   2.848   9.824  0.1623 -0.8342 -0.2756
 9350SOL    HW139683   3.197   2.908   9.752  0.6951 -1.2861 -0.4895
 9350SOL    HW239684   3.247   2.842   9.887 -0.3733 -2.2598  0.1835
 9351SOL     OW39685   0.643   4.487   0.960  0.2793 -0.4862 -0.8631
 9351SOL    HW139686   0.721   4.435   0.938  1.3625  0.8709 -0.2361
 9351SOL    HW239687   0.628   4.448   1.046 -0.7509  2.0944  0.1333
 9352SOL     OW39688   1.192   0.204   8.371  0.3623 -0.5491 -0.5462
 9352SOL    HW139689   1.165   0.291   8.400  0.0039 -1.1314  0.8840
 9352SOL    HW239690   1.107   0.164   8.353  0.6577 -0.3479 -2.3743
 9353SOL     OW39691   3.603   4.313   7.038 -0.0201 -0.2087  0.1331
 9353SOL    HW139692   3.627   4.326   7.130 -1.7534  1.0985  0.4066
 9353SOL    HW239693   3.657   4.380   6.996  0.5245 -1.8957 -1.8662
 9354SOL     OW39694   2.148   0.921  14.495  0.2973 -0.0427 -0.3802
 9354SOL    HW139695   2.172   0.986  14.429  2.0223 -0.7591 -0.4523
 9354SOL    HW239696   2.230   0.873  14.512 -1.0045 -1.6380  1.4449
 9355SOL     OW39697   0.425   0.320   0.920  0.3949  0.1829 -0.2668
 9355SOL    HW139698   0.399   0.378   0.848  0.2027 -0.1561 -0.4670
 9355SOL    HW239699   0.359   0.328   0.989  0.8773  0.8388  0.1214
 9356SOL     OW39700   4.423   2.220   7.997  0.4949  0.0193 -0.1520
 9356SOL    HW139701   4.346   2.183   7.955  0.2106  0.4991 -0.0549
 9356SOL    HW239702   4.506   2.184   7.966  1.0071 -0.2999  1.5540
 9357SOL     OW39703   3.695   3.892   8.318 -0.5997 -0.1293 -0.0604
 9357SOL    HW139704   3.705   3.976   8.362  0.5539 -0.0747 -0.4247
 9357SOL    HW239705   3.611   3.868   8.357 -0.5195 -1.2441 -0.5591
 9358SOL     OW39706   2.661   4.171   9.451  0.1822  0.1452  0.2703
 9358SOL    HW139707   2.616   4.253   9.431 -1.7460 -1.2241 -0.9698
 9358SOL    HW239708   2.752   4.197   9.436  0.4829 -1.5876 -0.7874
 9359SOL     OW39709   0.584   4.654   2.279 -0.3594  0.2340 -0.1889
 9359SOL    HW139710   0.547   4.584   2.333 -0.1696  1.1975  1.2164
 9359SOL    HW239711   0.537   4.655   2.196 -1.4681 -2.0135  0.4212
 9360SOL     OW39712   3.248   2.736   7.749 -0.0576  0.0503  0.6307
 9360SOL    HW139713   3.286   2.649   7.733 -1.1567 -0.4243  0.6083
 9360SOL    HW239714   3.267   2.739   7.843 -0.0726  0.3158  0.6254
 9361SOL     OW39715   2.216   1.827   5.187  0.8281 -0.5480 -0.1070
 9361SOL    HW139716   2.269   1.795   5.261 -1.5609 -0.5810  1.6038
 9361SOL    HW239717   2.137   1.773   5.194 -0.3988  1.1472 -0.8519
 9362SOL     OW39718   1.480   0.944   4.360 -0.6918 -0.1128 -0.0643
 9362SOL    HW139719   1.434   0.966   4.440  0.8475 -2.0765  1.3558
 9362SOL    HW239720   1.454   1.015   4.301  1.4603  1.0800  0.4030
 9363SOL     OW39721   2.818   4.194   6.498  0.2018 -0.5937 -0.8223
 9363SOL    HW139722   2.870   4.200   6.578 -0.9100 -1.3022 -0.0452
 9363SOL    HW239723   2.835   4.103   6.472 -0.4608 -0.8835 -0.2181
 9364SOL     OW39724   3.700   1.058   7.630 -0.3625  0.0574  0.4090
 9364SOL    HW139725   3.757   1.031   7.702  1.0080  0.6698 -0.4572
 9364SOL    HW239726   3.761   1.094   7.566 -1.0705 -1.0596 -0.8833
 9365SOL     OW39727   4.283   1.252   8.068  0.6156 -0.0983  0.0554
 9365SOL    HW139728   4.285   1.340   8.032  0.2443 -0.0624  0.1208
 9365SOL    HW239729   4.281   1.190   7.995 -1.7188  0.7855 -0.6391
 9366SOL     OW39730   2.839   1.823  16.552  0.8287 -0.7467 -0.0340
 9366SOL    HW139731   2.798   1.741  16.579 -2.2244 -0.0646 -2.5824
 9366SOL    HW239732   2.873   1.804  16.465  0.1551 -0.5281 -0.3515
 9367SOL     OW39733   0.512   0.712   2.737  0.0512  0.0314  0.3889
 9367SOL    HW139734   0.437   0.680   2.686  0.0027 -2.0415  1.7541
 9367SOL    HW239735   0.540   0.792   2.693  1.2949  0.8251  2.6260
 9368SOL     OW39736   4.591   0.015   4.003 -0.6609 -0.2083 -0.0096
 9368SOL    HW139737   4.678   4.733   4.037 -1.1800 -0.5930  1.1024
 9368SOL    HW239738   4.573   4.666   3.963 -0.1253  0.2607 -1.2394
 9369SOL     OW39739   1.367   2.610   9.303  0.0817  0.2214  0.0877
 9369SOL    HW139740   1.400   2.656   9.226  0.1152 -0.8002 -0.5090
 9369SOL    HW239741   1.430   2.640   9.369 -0.3712 -1.0564  1.0954
 9370SOL     OW39742   3.408   4.350   7.530  0.3007  0.2573 -0.1177
 9370SOL    HW139743   3.397   4.320   7.440 -2.1128 -1.2294  0.6685
 9370SOL    HW239744   3.317   4.341   7.558 -0.1643  0.6422 -1.5041
 9371SOL     OW39745   2.548   4.543   6.246  0.5153 -0.2962 -0.1821
 9371SOL    HW139746   2.598   4.462   6.238  1.3308  0.1008  0.9158
 9371SOL    HW239747   2.618   4.607   6.235 -0.6143  0.8810 -0.5280
 9372SOL     OW39748   0.650   1.725   2.891  0.3956 -0.3969 -0.5210
 9372SOL    HW139749   0.595   1.790   2.848  3.3479  2.7681  0.4977
 9372SOL    HW239750   0.690   1.686   2.813  1.2450 -1.6648  0.5400
 9373SOL     OW39751   3.144   0.337   8.243  0.8176 -0.4150  0.4512
 9373SOL    HW139752   3.050   0.331   8.231  0.6987  1.9273  0.1778
 9373SOL    HW239753   3.175   0.250   8.220 -0.4932 -1.1227  1.3956
 9374SOL     OW39754   1.917   4.317   3.942  0.3298  0.2903  0.4781
 9374SOL    HW139755   1.973   4.249   3.906  0.0171  0.3096 -0.0432
 9374SOL    HW239756   1.953   4.399   3.909  0.2340  0.0309 -0.2637
 9375SOL     OW39757   4.069   4.501   5.923  0.4302 -0.3554  0.1338
 9375SOL    HW139758   4.066   4.457   5.839 -0.0150 -0.4181  0.1849
 9375SOL    HW239759   4.053   4.427   5.982 -1.1444  0.4064  0.6356
 9376SOL     OW39760   3.802   3.611   6.850  0.2804  0.2197 -0.5558
 9376SOL    HW139761   3.815   3.517   6.847 -1.3512 -0.0174  0.2182
 9376SOL    HW239762   3.877   3.652   6.807  0.9338  0.1606  0.5325
 9377SOL     OW39763   2.040   0.515   4.933  0.1277  0.3543  0.5169
 9377SOL    HW139764   1.966   0.483   4.984 -1.0738  3.0733  0.4886
 9377SOL    HW239765   2.076   0.567   5.005 -0.8786 -0.5184  1.6475
 9378SOL     OW39766   3.207   3.094   2.815  0.7385 -0.1504  0.2164
 9378SOL    HW139767   3.288   3.099   2.866  0.6467  2.1127  0.1322
 9378SOL    HW239768   3.168   3.171   2.857  0.5093  0.1648 -0.5890
 9379SOL     OW39769   4.153   3.609   3.774  0.1321  0.2405  0.1387
 9379SOL    HW139770   4.238   3.565   3.767  0.1271 -0.1064  2.3666
 9379SOL    HW239771   4.162   3.650   3.688 -1.5688  0.1264 -0.0899
 9380SOL     OW39772   2.703   4.675   8.151  0.5860 -0.2007 -0.2722
 9380SOL    HW139773   2.711   4.666   8.056  0.6141 -2.0669 -0.0971
 9380SOL    HW239774   2.783   4.721   8.175  1.6305 -2.5085  0.7103
 9381SOL     OW39775   4.419   4.014   1.872 -0.3669 -0.9599 -0.1748
 9381SOL    HW139776   4.514   4.001   1.866 -0.4445 -0.8547 -1.7505
 9381SOL    HW239777   4.425   4.075   1.799 -0.3031 -0.1112  0.5438
 9382SOL     OW39778   1.403   3.801  16.094 -0.0479 -0.1452 -0.0314
 9382SOL    HW139779   1.480   3.750  16.122  0.7143  1.4543  0.7952
 9382SOL    HW239780   1.436   3.848  16.017 -2.0799 -0.3100 -1.0046
 9383SOL     OW39781   3.989   2.266   2.269  0.1537  0.3528 -0.2358
 9383SOL    HW139782   4.015   2.289   2.179 -0.4207 -2.1920 -1.0458
 9383SOL    HW239783   3.975   2.351   2.309  2.0487  0.2950  0.5604
 9384SOL     OW39784   3.498   2.312   3.038  0.2568 -0.1110 -0.0390
 9384SOL    HW139785   3.455   2.238   3.080  0.2564  0.4203  0.9111
 9384SOL    HW239786   3.576   2.269   3.002  1.1478  0.6667  0.9606
 9385SOL     OW39787   1.727   4.604   9.856 -0.3191  0.6992  0.0134
 9385SOL    HW139788   1.752   4.530   9.912 -1.6411 -0.8246 -1.4112
 9385SOL    HW239789   1.665   4.659   9.903 -0.1767  1.3674 -0.5912
 9386SOL     OW39790   1.949   2.733   6.773 -0.0743  0.0877 -0.6871
 9386SOL    HW139791   1.917   2.690   6.852  1.2213 -0.3966 -0.4348
 9386SOL    HW239792   1.895   2.695   6.703 -0.2970  0.6157 -0.8107
 9387SOL     OW39793   2.273   0.315   7.893 -0.4727  0.1493  0.6412
 9387SOL    HW139794   2.350   0.312   7.837  0.1748  2.0320  1.4542
 9387SOL    HW239795   2.206   0.305   7.825 -1.0243 -0.4575  1.2694
 9388SOL     OW39796   0.269   2.770   9.009  0.1690  0.3827  0.5870
 9388SOL    HW139797   0.234   2.855   9.035  0.2814  0.3904  0.7156
 9388SOL    HW239798   0.189   2.721   9.027  0.5736 -0.1749  0.8493
 9389SOL     OW39799   0.116   0.565   8.353  0.0452  0.0942 -0.5466
 9389SOL    HW139800   0.057   0.564   8.428  1.7340  2.1556  0.8231
 9389SOL    HW239801   0.202   0.545   8.391 -0.5278  0.6687  1.0289
 9390SOL     OW39802   1.588   2.719  16.780 -0.0853  0.6945  0.8033
 9390SOL    HW139803   1.505   2.673  16.771 -0.6747  1.1379  3.9062
 9390SOL    HW239804   1.623   2.699  16.694 -1.4362  0.5253  0.2925
 9391SOL     OW39805   2.791   2.833   9.030  0.2510  0.0847 -0.3847
 9391SOL    HW139806   2.823   2.923   9.026 -0.6008  0.3924 -0.4071
 9391SOL    HW239807   2.870   2.792   8.996  0.2843 -0.8514  0.8184
 9392SOL     OW39808   3.793   2.607   4.275 -0.1175 -0.6164  0.0269
 9392SOL    HW139809   3.833   2.601   4.362 -0.5889  1.8756  0.4226
 9392SOL    HW239810   3.726   2.539   4.279 -0.1257 -0.7304 -2.4845
 9393SOL     OW39811   3.236   4.335  12.788 -0.5653 -0.2889  0.1946
 9393SOL    HW139812   3.189   4.416  12.811  0.0598  0.4325 -1.0214
 9393SOL    HW239813   3.319   4.348  12.835 -1.0570 -1.0475  1.2689
 9394SOL     OW39814   3.331   0.344  15.732  0.4484  0.5523 -0.1024
 9394SOL    HW139815   3.418   0.302  15.726  0.0611 -0.1769 -0.6116
 9394SOL    HW239816   3.308   0.351  15.640 -0.9769 -0.3098  0.1909
 9395SOL     OW39817   1.012   2.245   4.401 -0.4033  0.0778 -0.2979
 9395SOL    HW139818   0.927   2.202   4.412 -1.9651  3.3713  0.5373
 9395SOL    HW239819   1.075   2.172   4.400 -0.9178 -0.3691 -0.4429
 9396SOL     OW39820   0.158   2.147   6.569  0.1856 -0.2500 -0.4734
 9396SOL    HW139821   0.221   2.184   6.507 -0.0148  0.1562 -0.4391
 9396SOL    HW239822   0.145   2.055   6.546  1.5630 -0.3957 -0.6657
 9397SOL     OW39823   2.138   3.778  17.382 -0.7435 -0.0322  0.4226
 9397SOL    HW139824   2.111   3.718  17.312 -2.1651  0.8840  0.1932
 9397SOL    HW239825   2.112   3.739  17.466  1.3705 -4.4494 -1.0040
 9398SOL     OW39826   3.322   0.953   9.037 -0.1509 -0.6284  0.5421
 9398SOL    HW139827   3.348   1.018   8.972 -0.4607  0.0984  1.1343
 9398SOL    HW239828   3.235   0.992   9.049  0.7535  1.1660  1.3595
 9399SOL     OW39829   2.729   0.386  12.250 -0.3507  0.0421 -0.0712
 9399SOL    HW139830   2.754   0.467  12.295 -1.2782  1.0356 -1.3432
 9399SOL    HW239831   2.634   0.384  12.243 -0.4487 -2.3693  2.0822
 9400SOL     OW39832   4.692   1.048   8.063 -0.1119 -0.4624  0.2833
 9400SOL    HW139833   4.715   1.018   7.975  1.3051 -0.1190  0.5473
 9400SOL    HW239834   0.011   1.002   8.126  0.2276  0.3395  0.5731
 9401SOL     OW39835   0.699   2.031   7.133 -0.0374  0.1446  0.2967
 9401SOL    HW139836   0.725   2.124   7.135 -3.8417  1.2359 -1.1129
 9401SOL    HW239837   0.743   1.998   7.055  0.1355 -1.0109  0.8847
 9402SOL     OW39838   1.391   4.706  10.904  0.4054 -0.0254 -0.5102
 9402SOL    HW139839   1.457   0.035  10.926 -1.8073  2.0530 -0.0175
 9402SOL    HW239840   1.419   4.630  10.955  0.4673 -1.4956 -2.7420
 9403SOL     OW39841   0.834   0.781   7.118 -0.5017 -0.4754 -0.2760
 9403SOL    HW139842   0.754   0.828   7.139 -0.9560 -0.6033 -1.7169
 9403SOL    HW239843   0.837   0.793   7.023 -1.3993 -0.4272 -0.2988
 9404SOL     OW39844   3.349   0.378   6.665 -0.9995 -0.0638 -0.0764
 9404SOL    HW139845   3.419   0.433   6.630 -1.4539 -0.0281 -0.9087
 9404SOL    HW239846   3.384   0.332   6.742  0.5284  1.5578  0.1963
 9405SOL     OW39847   3.041   4.318   6.244 -0.0485 -0.1384 -0.8712
 9405SOL    HW139848   3.091   4.383   6.194 -3.0672  4.2126  1.8309
 9405SOL    HW239849   3.071   4.333   6.333  0.5112  0.4348 -1.1507
 9406SOL     OW39850   3.597   2.312  15.582 -0.0002 -0.4728 -0.0681
 9406SOL    HW139851   3.686   2.284  15.561  0.2505 -1.9026  2.8714
 9406SOL    HW239852   3.621   2.390  15.632  0.9275 -0.6796 -0.1963
 9407SOL     OW39853   2.290   4.186   9.992  0.5410  0.2928 -0.2728
 9407SOL    HW139854   2.358   4.223  10.048  1.3402 -0.8774 -0.4474
 9407SOL    HW239855   2.341   4.108   9.970  0.8824  0.1247  1.1635
 9408SOL     OW39856   1.267   1.362   0.780  0.0141 -0.2758 -0.2701
 9408SOL    HW139857   1.235   1.452   0.776 -0.1766 -0.3619 -0.7496
 9408SOL    HW239858   1.284   1.353   0.873  0.7219 -1.6994 -0.5403
 9409SOL     OW39859   2.460   2.756   9.313 -0.2056 -0.4964 -0.1396
 9409SOL    HW139860   2.507   2.686   9.358  0.8028 -0.6952 -1.4894
 9409SOL    HW239861   2.502   2.750   9.227  0.1788 -0.3762  0.0381
 9410SOL     OW39862   2.525   1.565   5.369  0.1940 -0.6804  0.0176
 9410SOL    HW139863   2.477   1.616   5.434 -0.2584  0.2586 -1.0445
 9410SOL    HW239864   2.560   1.635   5.314  1.6113 -1.6324 -0.2753
 9411SOL     OW39865   3.346   1.738   9.913 -0.2025 -0.5240  0.1387
 9411SOL    HW139866   3.280   1.795   9.873  0.3364  2.3846  3.3493
 9411SOL    HW239867   3.356   1.672   9.845 -3.1436 -1.3525  0.5046
 9412SOL     OW39868   2.971   1.561   7.980 -0.5625 -0.1947 -0.0283
 9412SOL    HW139869   3.064   1.541   7.992 -0.6914 -1.0233 -0.4439
 9412SOL    HW239870   2.946   1.592   8.067  0.0788  0.3878 -0.0517
 9413SOL     OW39871   3.587   3.895   2.326 -0.6488 -0.2042 -0.3022
 9413SOL    HW139872   3.651   3.893   2.397 -0.7219  1.8391 -0.1661
 9413SOL    HW239873   3.611   3.969   2.270  1.1847 -1.0101 -0.5670
 9414SOL     OW39874   2.666   3.915  15.324  0.1618  0.4948  0.0433
 9414SOL    HW139875   2.735   3.920  15.390  0.1473  2.9419 -0.1263
 9414SOL    HW239876   2.582   3.935  15.367 -0.4097 -0.9624 -0.4020
 9415SOL     OW39877   3.219   2.260   4.799 -0.9936 -0.0141 -0.0531
 9415SOL    HW139878   3.170   2.198   4.853  0.6648 -0.7264  0.6349
 9415SOL    HW239879   3.312   2.247   4.816 -0.9728 -2.3215 -1.9275
 9416SOL     OW39880   1.932   4.463  12.084 -0.2387 -0.1624 -0.3775
 9416SOL    HW139881   1.992   4.395  12.116 -0.5094 -0.4674 -0.5193
 9416SOL    HW239882   1.887   4.424  12.009 -0.7127 -2.3760  1.0321
 9417SOL     OW39883   0.522   1.903   7.583 -0.4481 -0.2084 -0.2588
 9417SOL    HW139884   0.550   1.923   7.494  0.7069 -1.4508 -0.1824
 9417SOL    HW239885   0.588   1.941   7.641  1.0517 -0.9041 -1.4750
 9418SOL     OW39886   2.022   3.901   5.961 -0.1414  0.4224 -0.2046
 9418SOL    HW139887   2.048   3.819   6.004  1.3181  0.0640 -1.7761
 9418SOL    HW239888   1.979   3.939   6.037  0.0604  0.3696 -0.0629
 9419SOL     OW39889   3.663   0.821   5.651 -0.0365  0.0262  0.3277
 9419SOL    HW139890   3.684   0.784   5.737  0.4491  0.9815  0.6122
 9419SOL    HW239891   3.576   0.858   5.665  1.0294  2.4760  0.3838
 9420SOL     OW39892   1.574   0.745   3.960  0.5508  0.2374  0.4243
 9420SOL    HW139893   1.614   0.662   3.935 -0.9860 -0.3251 -0.1303
 9420SOL    HW239894   1.613   0.761   4.046  0.8507  0.3087  0.2765
 9421SOL     OW39895   1.146   1.213  12.118 -0.3714 -0.0451  0.0711
 9421SOL    HW139896   1.089   1.227  12.194 -2.7318 -2.3256 -1.2900
 9421SOL    HW239897   1.178   1.298  12.088  0.7104  0.8836  3.8684
 9422SOL     OW39898   0.741   0.257   8.432 -0.0103 -0.2499 -0.0031
 9422SOL    HW139899   0.707   0.346   8.434  1.2851  0.2645 -1.4020
 9422SOL    HW239900   0.675   0.204   8.479  0.3126 -0.3663  0.3175
 9423SOL     OW39901   2.761   0.808   0.497 -0.5527  0.3486  0.1771
 9423SOL    HW139902   2.685   0.855   0.464 -0.4035 -0.9129 -1.9526
 9423SOL    HW239903   2.741   0.726   0.451 -1.3933  0.4807  0.3031
 9424SOL     OW39904   2.184   2.318  15.212  0.0636 -0.0307 -0.4323
 9424SOL    HW139905   2.090   2.301  15.217 -0.3802  3.2868  2.4097
 9424SOL    HW239906   2.207   2.259  15.140  0.3862  0.3034 -0.5978
 9425SOL     OW39907   1.302   1.616   2.814 -0.2570  1.0354 -0.1261
 9425SOL    HW139908   1.362   1.663   2.871 -0.9506  0.2961  1.1936
 9425SOL    HW239909   1.369   1.596   2.747  1.0885  0.9687  1.2406
 9426SOL     OW39910   2.844   4.194  12.068 -0.2304 -0.3122  0.0494
 9426SOL    HW139911   2.847   4.187  11.973  0.6679 -1.8845  0.1931
 9426SOL    HW239912   2.851   4.290  12.072  1.7028 -0.3971 -1.3353
 9427SOL     OW39913   2.506   0.763   5.397  0.4328 -0.9735 -0.2775
 9427SOL    HW139914   2.530   0.827   5.464  0.2506 -0.4996 -0.6698
 9427SOL    HW239915   2.525   0.798   5.310 -0.8079  1.4513  0.4531
 9428SOL     OW39916   3.423   0.283   6.226 -0.5095 -0.3026  0.1332
 9428SOL    HW139917   3.501   0.304   6.277 -0.0204  1.1912 -1.2043
 9428SOL    HW239918   3.363   0.357   6.234 -0.6922 -0.7469  2.7748
 9429SOL     OW39919   2.119   4.022  17.585 -0.5676 -0.0225 -0.1790
 9429SOL    HW139920   2.094   3.971  17.507  1.5759  0.1614 -0.9935
 9429SOL    HW239921   2.127   3.952  17.650  0.0038 -0.5638 -0.8169
 9430SOL     OW39922   1.462   4.295  10.247  0.0189  0.0319  0.1664
 9430SOL    HW139923   1.426   4.221  10.199 -3.9218  1.2613  1.1738
 9430SOL    HW239924   1.438   4.374  10.199 -1.6671 -0.0350  0.8819
 9431SOL     OW39925   3.558   1.800  12.517  0.6302  0.1572  0.2541
 9431SOL    HW139926   3.615   1.727  12.492  1.0434  0.5998 -0.1019
 9431SOL    HW239927   3.626   1.867  12.506  0.1820  0.0907 -2.8658
 9432SOL     OW39928   0.945   4.649   7.121 -0.0191  0.8791  0.4772
 9432SOL    HW139929   0.953   4.554   7.113  2.0210  1.0630  0.5522
 9432SOL    HW239930   0.875   4.659   7.186  0.2253  1.1401  0.6974
 9433SOL     OW39931   2.223   0.476   8.402  0.1288  0.2978 -0.0091
 9433SOL    HW139932   2.224   0.430   8.318  1.6415 -2.6650  1.6073
 9433SOL    HW239933   2.132   0.505   8.402  1.0089  3.1100  1.4448
 9434SOL     OW39934   4.670   2.540   9.522 -0.2321 -0.4772  0.4286
 9434SOL    HW139935   4.623   2.532   9.439 -2.7097 -1.7844  1.9621
 9434SOL    HW239936   4.670   2.635   9.533 -1.7018 -0.3665 -0.5214
 9435SOL     OW39937   3.208   4.665  15.226  0.3422 -0.4551 -0.0101
 9435SOL    HW139938   3.132   4.633  15.275 -0.2175 -0.5305 -0.9311
 9435SOL    HW239939   3.238   4.730  15.289 -1.1013  0.8343 -0.6562
 9436SOL     OW39940   0.241   4.566   2.522 -0.2046  0.5485 -0.3228
 9436SOL    HW139941   0.318   4.517   2.491  2.0625  1.8460  3.1861
 9436SOL    HW239942   0.277   4.626   2.587 -2.8408  1.6211  0.1184
 9437SOL     OW39943   3.488   2.245   1.925  0.1894  0.1853  0.2872
 9437SOL    HW139944   3.455   2.257   2.014 -0.9231 -1.1184  0.0570
 9437SOL    HW239945   3.579   2.267   1.945  0.3278 -0.0118 -0.1278
 9438SOL     OW39946   3.504   0.595   3.044  0.1117 -0.5757 -0.3453
 9438SOL    HW139947   3.538   0.657   3.108  1.1625 -1.6292  0.1142
 9438SOL    HW239948   3.508   0.644   2.963 -2.9256  0.8642  0.3566
 9439SOL     OW39949   1.337   1.680  10.413  0.2171  0.4540 -0.2295
 9439SOL    HW139950   1.295   1.754  10.456  3.6049  1.6719  1.0090
 9439SOL    HW239951   1.345   1.719  10.326 -0.5933  0.5726 -0.2454
 9440SOL     OW39952   2.746   3.196  16.025 -0.4745 -0.3373 -0.1767
 9440SOL    HW139953   2.840   3.182  16.023 -0.4320 -0.0194 -0.2453
 9440SOL    HW239954   2.718   3.162  15.940 -0.3180  2.2181 -1.2365
 9441SOL     OW39955   1.983   3.897   6.452  0.2013  0.1176  0.0768
 9441SOL    HW139956   1.995   3.843   6.530 -2.8915 -1.5559 -0.5903
 9441SOL    HW239957   2.074   3.924   6.443  0.2513  0.1477  0.6268
 9442SOL     OW39958   4.261   4.432   7.451  0.6075  0.2777  1.0510
 9442SOL    HW139959   4.237   4.374   7.379 -1.4712  1.5274  0.7547
 9442SOL    HW239960   4.189   4.405   7.507 -0.0714  1.7447  0.8777
 9443SOL     OW39961   3.169   0.937  14.385  0.3122  0.1875 -0.0918
 9443SOL    HW139962   3.093   0.889  14.419  0.0064  1.1943  0.6478
 9443SOL    HW239963   3.120   1.016  14.366 -0.2586 -0.5186 -1.5763
 9444SOL     OW39964   3.770   2.400  11.053  0.2913  0.1038 -0.1606
 9444SOL    HW139965   3.711   2.454  11.105  1.5180  2.0042 -0.7678
 9444SOL    HW239966   3.706   2.370  10.989 -0.7136  0.7593  0.5273
 9445SOL     OW39967   1.210   4.715   4.419 -0.7483  0.5121  0.3374
 9445SOL    HW139968   1.191   4.643   4.359 -0.2696  0.5628  0.1162
 9445SOL    HW239969   1.177   4.685   4.503  0.5551  0.8710  0.9802
 9446SOL     OW39970   2.964   0.206   5.476  0.5006  0.2232  0.7925
 9446SOL    HW139971   2.871   0.185   5.478 -0.0025  2.5372  1.4403
 9446SOL    HW239972   2.979   0.201   5.571  1.8395 -1.1141  0.5229
 9447SOL     OW39973   0.539   0.283  17.050 -0.6697 -0.1357  0.1485
 9447SOL    HW139974   0.530   0.193  17.017  0.1879  0.6211 -2.1495
 9447SOL    HW239975   0.604   0.312  16.986 -1.1630 -1.6955 -1.0640
 9448SOL     OW39976   0.434   1.160   9.410 -0.9870  0.1555 -0.4830
 9448SOL    HW139977   0.410   1.251   9.391  2.2451  0.6984 -1.9225
 9448SOL    HW239978   0.402   1.154   9.500 -0.2188 -0.1681 -0.2328
 9449SOL     OW39979   4.579   3.886  14.812  0.4092 -0.4296 -0.0223
 9449SOL    HW139980   4.635   3.922  14.880  1.0746 -1.5701  0.0244
 9449SOL    HW239981   4.514   3.955  14.798  0.0748 -0.5273  1.0381
 9450SOL     OW39982   1.303   4.153  11.246 -0.8667  0.0194 -0.2514
 9450SOL    HW139983   1.338   4.080  11.195 -1.3583 -0.8634  0.6821
 9450SOL    HW239984   1.234   4.182  11.186  0.1233  0.4295 -1.1918
 9451SOL     OW39985   4.022   1.288   4.543  0.4122 -0.7128  0.4605
 9451SOL    HW139986   4.075   1.251   4.613 -0.6105 -0.2116  1.4955
 9451SOL    HW239987   4.064   1.369   4.512  0.8278 -1.3030 -0.5164
 9452SOL     OW39988   1.823   1.483   5.932  0.0681  0.8929 -0.2965
 9452SOL    HW139989   1.858   1.395   5.946  2.3353  1.3696 -3.0974
 9452SOL    HW239990   1.900   1.534   5.955  0.9915  1.4262 -4.5157
 9453SOL     OW39991   0.969   2.668   4.417  0.1151 -0.0115  0.3042
 9453SOL    HW139992   1.051   2.693   4.374 -0.3323  1.6565  0.4100
 9453SOL    HW239993   0.929   2.755   4.423  0.4707  0.2151 -0.6627
 9454SOL     OW39994   1.748   3.077   5.231 -0.3174 -0.6039 -0.6092
 9454SOL    HW139995   1.716   3.156   5.188 -0.4108 -0.7995 -0.9064
 9454SOL    HW239996   1.731   3.089   5.324  0.5486 -1.4646 -0.3416
 9455SOL     OW39997   1.764   2.348  13.675 -0.6084 -0.6310 -0.3619
 9455SOL    HW139998   1.703   2.280  13.648 -0.5454 -0.8124 -0.0488
 9455SOL    HW239999   1.743   2.351  13.768  2.4531  2.8653  0.2492
 9456SOL     OW40000   1.238   2.083   4.300  0.1243 -0.3641 -0.1438
 9456SOL    HW140001   1.318   2.030   4.298  0.1643 -0.1851 -4.5276
 9456SOL    HW240002   1.275   2.166   4.332  1.6972 -0.6306 -1.2518
 9457SOL     OW40003   1.263   0.654   4.285 -0.0381  0.0102 -0.1506
 9457SOL    HW140004   1.345   0.693   4.314 -0.7057  1.6148 -0.4279
 9457SOL    HW240005   1.211   0.731   4.262  0.0411  0.4044  0.9802
 9458SOL     OW40006   1.842   2.992   7.572 -0.0218 -0.6144 -0.1268
 9458SOL    HW140007   1.830   2.999   7.667  0.3255 -0.0398 -0.1263
 9458SOL    HW240008   1.847   3.083   7.544  0.1726 -0.5244  0.2022
 9459SOL     OW40009   0.076   2.460   8.559  0.2139  0.1828  0.3123
 9459SOL    HW140010   0.070   2.555   8.575  0.7078  0.7227 -2.6415
 9459SOL    HW240011   0.030   2.427   8.636 -0.1035  0.7073  0.3498
 9460SOL     OW40012   0.978   0.794   1.964 -0.3555 -0.6824  0.0278
 9460SOL    HW140013   0.899   0.838   1.932  0.3903  1.9178  1.6855
 9460SOL    HW240014   1.016   0.865   2.016 -0.7570 -0.2859 -0.2157
 9461SOL     OW40015   0.722   4.482   6.932  0.1785  0.1433 -0.6164
 9461SOL    HW140016   0.770   4.458   6.853  0.7594  0.4882 -0.3670
 9461SOL    HW240017   0.714   4.577   6.922  0.9016  0.5091  2.1521
 9462SOL     OW40018   4.703   3.430   4.431  0.7587 -0.5077 -0.5326
 9462SOL    HW140019   0.026   3.454   4.503  1.0697 -3.9871  0.3713
 9462SOL    HW240020   0.015   3.405   4.352 -1.6982 -0.7420 -1.9646
 9463SOL     OW40021   0.108   1.570   2.637 -0.0655  0.0294 -0.4012
 9463SOL    HW140022   0.089   1.546   2.727  0.4782  1.5486  0.1230
 9463SOL    HW240023   0.021   1.554   2.601 -0.1231 -0.1673 -0.1700
 9464SOL     OW40024   0.825   3.619   3.669 -0.1746 -0.5383  0.0741
 9464SOL    HW140025   0.858   3.533   3.642 -1.6325 -1.2583  0.6208
 9464SOL    HW240026   0.794   3.645   3.582 -1.5714 -0.4234  0.6010
 9465SOL     OW40027   0.259   3.326   3.828  0.0525 -0.3345 -0.1598
 9465SOL    HW140028   0.255   3.232   3.809  1.6415  0.0515 -2.3169
 9465SOL    HW240029   0.352   3.315   3.849 -0.5207 -1.4905  1.8488
 9466SOL     OW40030   3.376   4.648   3.362 -0.5515  0.0061 -0.7770
 9466SOL    HW140031   3.322   4.676   3.436  0.8255 -1.7440  0.9092
 9466SOL    HW240032   3.460   4.640   3.408 -0.2304  2.0133 -1.0369
 9467SOL     OW40033   1.270   3.460  10.387  0.4815 -0.1362 -0.4255
 9467SOL    HW140034   1.202   3.481  10.451  0.9994  0.7724 -0.1740
 9467SOL    HW240035   1.303   3.380  10.427 -1.5530  0.1832  1.9035
 9468SOL     OW40036   1.535   4.232   7.092 -0.6116 -0.3515  0.0798
 9468SOL    HW140037   1.574   4.318   7.105 -0.4476 -0.5975  1.2434
 9468SOL    HW240038   1.531   4.197   7.181 -1.4601 -1.1419 -0.2663
 9469SOL     OW40039   2.871   1.642   9.101  0.3574 -0.2622  0.1054
 9469SOL    HW140040   2.814   1.717   9.083 -0.1448 -0.5762  0.3943
 9469SOL    HW240041   2.849   1.591   9.023  0.9481  1.9926 -1.5642
 9470SOL     OW40042   3.612   2.635   6.593  0.1147  0.0380 -0.1471
 9470SOL    HW140043   3.694   2.643   6.642  0.6384 -0.4149 -0.9423
 9470SOL    HW240044   3.555   2.679   6.656  1.3859  0.8484  0.4387
 9471SOL     OW40045   0.411   3.420   8.630  0.1924 -0.4811 -0.3221
 9471SOL    HW140046   0.382   3.360   8.698  0.3248  0.1731  0.3202
 9471SOL    HW240047   0.465   3.478   8.684 -0.5528 -0.1266  0.0454
 9472SOL     OW40048   0.728   0.021   0.188 -0.3712 -0.0579 -0.6031
 9472SOL    HW140049   0.782   0.083   0.139  3.6022 -1.5951  1.8476
 9472SOL    HW240050   0.763   4.671   0.164 -0.9404 -0.2576 -0.7124
 9473SOL     OW40051   2.487   0.559   9.428  0.1973 -0.2721  0.5716
 9473SOL    HW140052   2.485   0.545   9.523  1.7272 -0.4535  0.5771
 9473SOL    HW240053   2.492   0.654   9.419  0.0980 -0.4500 -1.3386
 9474SOL     OW40054   4.566   2.828   1.632 -0.5251 -0.8157 -0.1745
 9474SOL    HW140055   4.506   2.768   1.587 -0.4041 -0.4858 -0.7731
 9474SOL    HW240056   4.547   2.901   1.573  0.5905  0.9398  1.6564
 9475SOL     OW40057   1.571   0.758   7.721 -0.0109 -0.2409  0.2141
 9475SOL    HW140058   1.610   0.840   7.749 -0.0001  0.4793 -1.9096
 9475SOL    HW240059   1.648   0.714   7.684  0.4454  1.2997 -0.6408
 9476SOL     OW40060   0.369   3.765   2.179 -0.5397  0.2612  0.1908
 9476SOL    HW140061   0.346   3.696   2.117 -0.1951 -1.4244  1.9365
 9476SOL    HW240062   0.292   3.820   2.167 -0.3137  0.3603 -0.7778
 9477SOL     OW40063   1.678   2.796  10.070  0.5028 -0.4280 -0.0590
 9477SOL    HW140064   1.623   2.785  10.148 -0.3218  1.5667 -0.3841
 9477SOL    HW240065   1.752   2.736  10.087  0.2631 -0.4756  0.8111
 9478SOL     OW40066   1.306   3.235   8.559  0.9510 -0.1228 -0.2016
 9478SOL    HW140067   1.259   3.203   8.483  2.4299 -1.1806 -0.6691
 9478SOL    HW240068   1.362   3.299   8.516  1.9863 -1.4335 -0.8171
 9479SOL     OW40069   2.593   3.808   2.432 -0.2301 -0.0096 -0.3597
 9479SOL    HW140070   2.524   3.749   2.464 -0.1297 -0.5003 -1.0420
 9479SOL    HW240071   2.632   3.836   2.515  2.1821  1.2338 -1.9315
 9480SOL     OW40072   4.371   2.414   4.788  0.0727 -0.2996  0.2684
 9480SOL    HW140073   4.316   2.452   4.856 -2.0135 -1.3540 -0.8209
 9480SOL    HW240074   4.387   2.326   4.823  2.2221 -0.4115 -1.0062
 9481SOL     OW40075   0.305   3.152   1.209 -0.0282  0.4095 -0.0248
 9481SOL    HW140076   0.352   3.128   1.129 -0.7561 -1.4727  0.1080
 9481SOL    HW240077   0.334   3.086   1.272  2.2948  1.2133 -0.2832
 9482SOL     OW40078   1.607   4.502  16.880  0.0859  0.3166  0.3436
 9482SOL    HW140079   1.524   4.546  16.861  0.0226 -0.5567 -1.4421
 9482SOL    HW240080   1.600   4.485  16.974 -1.1220  1.4336  0.4572
 9483SOL     OW40081   2.879   2.428   3.518 -0.1724 -0.5177  0.3078
 9483SOL    HW140082   2.929   2.494   3.470  1.1996 -2.1614 -0.5326
 9483SOL    HW240083   2.822   2.480   3.575  0.7620  0.8437 -0.0124
 9484SOL     OW40084   0.753   1.989   6.684  0.0269 -0.2352  1.0075
 9484SOL    HW140085   0.780   1.918   6.742  1.6748 -2.1585 -2.0935
 9484SOL    HW240086   0.673   2.018   6.729  0.6308  0.6497  1.4907
 9485SOL     OW40087   3.696   4.706   4.782  0.4102  0.5925  0.1471
 9485SOL    HW140088   3.637   0.045   4.781  1.2967  1.2772  0.1822
 9485SOL    HW240089   3.675   4.660   4.700 -0.6098  1.2073  0.0651
 9486SOL     OW40090   3.771   0.753   2.977  0.1775  0.0750 -0.1962
 9486SOL    HW140091   3.751   0.837   2.934  2.2966 -0.1390 -1.5584
 9486SOL    HW240092   3.786   0.700   2.899  1.3579  1.5079 -0.9336
 9487SOL     OW40093   1.397   2.065   6.337  0.0524  0.2289  0.2647
 9487SOL    HW140094   1.475   2.111   6.368 -0.7530  1.2238  0.8176
 9487SOL    HW240095   1.393   2.003   6.410 -0.2607  0.4594  0.4430
 9488SOL     OW40096   4.692   0.429   1.755  0.3634 -0.0520 -0.0837
 9488SOL    HW140097   4.702   0.492   1.826  0.2982 -1.4309  1.1559
 9488SOL    HW240098   0.044   0.430   1.719 -0.5166 -1.0932 -2.3081
 9489SOL     OW40099   1.830   2.386   9.080 -0.0068  0.4051  0.1119
 9489SOL    HW140100   1.890   2.381   9.005 -0.8389  0.2566 -0.5381
 9489SOL    HW240101   1.876   2.437   9.147  0.2621 -1.9577  1.7217
 9490SOL     OW40102   0.987   3.585   8.411 -0.0676  0.1647 -0.3051
 9490SOL    HW140103   0.913   3.641   8.391  0.3609  0.8088 -0.1089
 9490SOL    HW240104   0.956   3.556   8.497 -2.1009  2.4429 -0.2847
 9491SOL     OW40105   2.914   2.833   8.107 -0.4332 -0.6157  0.7528
 9491SOL    HW140106   2.918   2.892   8.182 -0.4762  2.0222 -1.2968
 9491SOL    HW240107   2.995   2.783   8.095 -0.9851 -1.5890  1.1537
 9492SOL     OW40108   3.294   2.850   7.194  0.1444 -0.2481 -0.1149
 9492SOL    HW140109   3.236   2.789   7.149  0.1897 -0.9521  0.7683
 9492SOL    HW240110   3.258   2.866   7.282  2.2117 -2.9333  1.2246
 9493SOL     OW40111   1.256   2.210  10.909 -0.5238  0.7771  0.1788
 9493SOL    HW140112   1.164   2.198  10.933 -0.4746  0.2416  0.1070
 9493SOL    HW240113   1.303   2.187  10.989  1.9372 -0.5459 -1.6818
 9494SOL     OW40114   0.964   4.327   8.663 -0.7820 -0.1642 -0.0707
 9494SOL    HW140115   1.041   4.383   8.671 -1.2732  0.5461 -0.3343
 9494SOL    HW240116   0.984   4.285   8.747 -0.3831 -2.2691 -1.2185
 9495SOL     OW40117   0.900   0.061   2.757 -0.3748 -0.0353 -0.1173
 9495SOL    HW140118   0.961   4.734   2.795  1.5759  1.8117 -0.1650
 9495SOL    HW240119   0.955   0.138   2.741 -1.0830  0.4010 -0.4485
 9496SOL     OW40120   2.856   0.615   6.467  0.8176 -0.2693  0.9269
 9496SOL    HW140121   2.927   0.642   6.525  0.3176  0.3263  1.2696
 9496SOL    HW240122   2.817   0.535   6.501 -2.9226  1.8057  1.5677
 9497SOL     OW40123   2.728   4.032   0.973  0.2434 -0.1673 -0.2888
 9497SOL    HW140124   2.798   3.970   0.952 -0.2499 -0.9512  0.3493
 9497SOL    HW240125   2.682   3.980   1.039  0.5384  1.6029  1.2998
 9498SOL     OW40126   3.642   2.807   2.141  0.3693  0.5420  0.1516
 9498SOL    HW140127   3.585   2.737   2.109 -0.7720  1.9528 -0.8854
 9498SOL    HW240128   3.618   2.883   2.089  0.5811  0.1188 -0.5553
 9499SOL     OW40129   2.852   2.803   7.409 -0.3656 -0.0277  0.2005
 9499SOL    HW140130   2.812   2.717   7.419 -1.4621  0.4646 -0.0533
 9499SOL    HW240131   2.871   2.818   7.502  1.3106  0.2515 -0.1737
 9500SOL     OW40132   1.074   4.114  14.094  0.0573 -0.6112 -0.3836
 9500SOL    HW140133   0.997   4.166  14.069 -0.6250 -1.0679  0.7932
 9500SOL    HW240134   1.143   4.179  14.105  0.6887 -1.3988  0.3027
 9501SOL     OW40135   2.500   2.331   5.825 -0.2461  0.3988  0.3020
 9501SOL    HW140136   2.426   2.390   5.836  0.7644  1.6365  0.3546
 9501SOL    HW240137   2.544   2.373   5.752 -0.9931  0.6373 -0.0064
 9502SOL     OW40138   1.622   0.754   4.584 -0.3850  0.2205  0.4299
 9502SOL    HW140139   1.548   0.696   4.600  0.9586 -1.2461  1.2961
 9502SOL    HW240140   1.584   0.805   4.512  0.8098  2.1290  1.1383
 9503SOL     OW40141   2.916   3.421   9.957 -0.0581 -0.7818  0.0889
 9503SOL    HW140142   2.884   3.360  10.024  0.5179 -0.5418  0.5832
 9503SOL    HW240143   2.982   3.455  10.018 -1.1271  1.0126  0.2434
 9504SOL     OW40144   3.887   0.015   0.969 -0.2841 -0.0409  0.2920
 9504SOL    HW140145   3.890   0.100   0.925 -0.9750  0.2160  0.7514
 9504SOL    HW240146   3.977   4.725   0.951  0.0212  2.1978 -1.5105
 9505SOL     OW40147   0.050   3.836   3.579 -0.3876  0.4563 -0.5884
 9505SOL    HW140148   0.076   3.925   3.603  1.1291 -0.4617  1.2269
 9505SOL    HW240149   0.074   3.839   3.487  2.0933 -0.0828  0.0508
 9506SOL     OW40150   3.243   0.095   8.945 -0.0161 -0.9414  0.2896
 9506SOL    HW140151   3.162   0.140   8.970  0.8419  0.7977 -0.1277
 9506SOL    HW240152   3.297   0.119   9.020 -0.2310 -1.3484  0.5752
 9507SOL     OW40153   0.331   3.181   0.906  0.1071 -0.4237  0.3740
 9507SOL    HW140154   0.240   3.206   0.921 -0.0161 -1.6267  1.7060
 9507SOL    HW240155   0.363   3.250   0.848 -2.4570 -1.6651 -2.5024
 9508SOL     OW40156   1.428   2.254   1.144 -0.6447  0.4643 -0.1715
 9508SOL    HW140157   1.478   2.192   1.197  1.7019  1.4318 -1.2030
 9508SOL    HW240158   1.463   2.233   1.057 -1.3607 -1.0641 -0.0831
 9509SOL     OW40159   0.415   4.407   7.216 -0.1615  0.2614  0.1320
 9509SOL    HW140160   0.466   4.482   7.245  0.0568 -0.3168  1.2275
 9509SOL    HW240161   0.457   4.337   7.267  0.3068  0.1023 -0.4713
 9510SOL     OW40162   3.922   3.290   2.921  0.6519 -0.4690  0.1309
 9510SOL    HW140163   3.925   3.374   2.967  3.6972 -0.2554 -0.4174
 9510SOL    HW240164   3.936   3.318   2.830  0.8048  0.7521  0.5225
 9511SOL     OW40165   0.621   1.929   8.077  0.2672 -0.2602 -0.1162
 9511SOL    HW140166   0.631   1.995   8.146 -2.9247 -1.1759  1.2060
 9511SOL    HW240167   0.661   1.853   8.118 -0.7758  0.3444  1.9951
 9512SOL     OW40168   0.755   0.360   3.185  0.1226  0.4564 -0.5532
 9512SOL    HW140169   0.667   0.324   3.198 -0.6483  2.1582 -1.0632
 9512SOL    HW240170   0.765   0.360   3.090  2.7580 -0.7303 -0.2690
 9513SOL     OW40171   0.817   4.254  14.061  0.2029  0.4604 -0.6235
 9513SOL    HW140172   0.756   4.291  14.124  2.1647  0.9513  1.0104
 9513SOL    HW240173   0.775   4.179  14.020 -0.0943  1.2381 -1.7513
 9514SOL     OW40174   1.001   2.362   8.509 -0.0885  0.8445 -0.4856
 9514SOL    HW140175   0.924   2.412   8.537  0.7574  1.4101  0.8493
 9514SOL    HW240176   0.973   2.342   8.420 -0.4807 -3.2760  0.5384
 9515SOL     OW40177   0.433   3.927   4.791 -0.3031 -0.6196 -0.1529
 9515SOL    HW140178   0.507   3.875   4.823 -1.1028 -1.4320  0.3573
 9515SOL    HW240179   0.422   3.890   4.703 -0.4167  2.2270 -1.3439
 9516SOL     OW40180   1.782   3.970   2.082  0.2591 -0.0741 -0.3230
 9516SOL    HW140181   1.710   3.999   2.027  0.2851  1.4063  0.4361
 9516SOL    HW240182   1.749   3.987   2.171 -1.0985 -1.4317 -0.5478
 9517SOL     OW40183   2.577   3.992   9.252 -0.1150  0.4185 -0.0837
 9517SOL    HW140184   2.648   4.007   9.189  0.7905 -1.1707  0.5517
 9517SOL    HW240185   2.606   4.039   9.330 -0.0161  2.1174 -1.1307
 9518SOL     OW40186   1.851   0.584  12.365 -0.3277  0.0095 -0.1572
 9518SOL    HW140187   1.771   0.628  12.393 -0.7325 -1.0166  0.2958
 9518SOL    HW240188   1.845   0.499  12.410 -2.3541  1.5545  2.5068
 9519SOL     OW40189   2.807   2.223  15.152  0.6840  0.1261 -0.0965
 9519SOL    HW140190   2.870   2.271  15.206  1.2885 -0.5369 -0.2236
 9519SOL    HW240191   2.751   2.182  15.219 -1.0728  0.7267 -1.1858
 9520SOL     OW40192   0.138   2.488   9.207 -0.3420 -0.2123  0.4993
 9520SOL    HW140193   0.097   2.547   9.269  0.4216  1.5931 -0.7149
 9520SOL    HW240194   0.225   2.498   9.245  0.6198  2.6214 -2.4250
 9521SOL     OW40195   4.284   4.696  17.088 -0.4623 -0.2294 -0.7408
 9521SOL    HW140196   4.259   4.653  17.007 -0.0661 -1.9929  0.0637
 9521SOL    HW240197   4.337   0.033  17.056 -0.4107 -0.7491 -1.8283
 9522SOL     OW40198   1.580   2.073   5.256 -0.0569  0.4559  0.2458
 9522SOL    HW140199   1.512   2.035   5.201 -1.1190  2.2787  0.3107
 9522SOL    HW240200   1.531   2.141   5.303 -1.5307  0.0038 -0.6546
 9523SOL     OW40201   1.470   3.291   5.126 -0.1890 -0.6128  0.3624
 9523SOL    HW140202   1.403   3.355   5.151 -1.4791 -2.4919  1.6577
 9523SOL    HW240203   1.544   3.352   5.124 -1.5788  1.0955  0.9278
 9524SOL     OW40204   0.177   3.544  12.578  0.1725 -0.3861 -0.1101
 9524SOL    HW140205   0.245   3.611  12.589 -0.7908  0.7555 -1.1191
 9524SOL    HW240206   0.212   3.476  12.635  1.2874 -0.1024 -0.4549
 9525SOL     OW40207   4.657   0.082   7.706  0.4602 -0.3425  0.2599
 9525SOL    HW140208   4.647   0.077   7.611  0.6440 -2.3794  0.3628
 9525SOL    HW240209   0.011   0.057   7.726  0.4153  0.4833  1.5352
 9526SOL     OW40210   0.823   0.787  12.103 -0.3729 -0.5057  0.2615
 9526SOL    HW140211   0.911   0.825  12.109  0.2395 -1.6792 -1.1471
 9526SOL    HW240212   0.809   0.776  12.009 -1.8643  1.2881  0.2797
 9527SOL     OW40213   4.711   0.569  11.340  0.2716 -0.1901 -0.0737
 9527SOL    HW140214   0.060   0.528  11.325  0.7828  1.3436 -1.4253
 9527SOL    HW240215   4.725   0.573  11.434 -0.2186 -1.2966  0.0413
 9528SOL     OW40216   3.169   4.384   8.582 -0.1681 -0.3097 -0.6281
 9528SOL    HW140217   3.105   4.312   8.585 -0.4588 -0.1513 -2.8603
 9528SOL    HW240218   3.151   4.422   8.496  1.3680  1.2732 -0.2355
 9529SOL     OW40219   2.085   0.679  16.031 -0.5166 -0.0649  0.0480
 9529SOL    HW140220   2.088   0.772  16.051 -0.6980  0.0674 -0.5543
 9529SOL    HW240221   2.005   0.686  15.979  0.6097  1.2059 -1.5295
 9530SOL     OW40222   3.976   3.420   8.988 -0.5606 -0.3252 -0.0363
 9530SOL    HW140223   3.915   3.489   8.962  1.6509  2.1584  1.4251
 9530SOL    HW240224   4.046   3.434   8.924  0.6442 -0.7380  1.2163
 9531SOL     OW40225   0.501   4.722   6.607 -0.0953  0.1920  0.3302
 9531SOL    HW140226   0.495   4.626   6.606 -1.2410  0.2578  0.6336
 9531SOL    HW240227   0.438   0.007   6.538  0.4340 -2.7504 -1.0840
 9532SOL     OW40228   1.004   0.091   8.678 -0.0499 -0.2546  0.1920
 9532SOL    HW140229   0.925   0.044   8.703 -1.1818  1.3222 -0.4108
 9532SOL    HW240230   0.981   0.184   8.679  1.3435  0.0641  2.9571
 9533SOL     OW40231   3.103   0.956   8.470 -0.4242  0.2865 -0.4035
 9533SOL    HW140232   3.097   0.985   8.561 -2.3934 -0.8402 -0.1738
 9533SOL    HW240233   3.040   1.023   8.446 -3.3837 -2.5462 -0.4743
 9534SOL     OW40234   0.995   1.382   6.803  0.1093 -0.3307 -0.1904
 9534SOL    HW140235   0.938   1.455   6.826  0.8703  0.5193 -0.9650
 9534SOL    HW240236   0.955   1.313   6.855 -0.2220 -1.0144 -1.3645
 9535SOL     OW40237   3.536   4.586   6.406  0.1220 -0.5616  0.9369
 9535SOL    HW140238   3.500   4.636   6.332  0.1012 -3.7326 -1.1962
 9535SOL    HW240239   3.529   4.653   6.474  0.8488  1.6790 -1.1815
 9536SOL     OW40240   1.514   4.063   8.196  0.2062 -0.0295  0.0107
 9536SOL    HW140241   1.571   4.125   8.151 -0.3171  1.3877  1.2978
 9536SOL    HW240242   1.583   3.996   8.195  0.4967  0.3272 -3.3656
 9537SOL     OW40243   2.047   2.080   8.163 -0.1609  0.3913 -0.2075
 9537SOL    HW140244   2.064   1.991   8.132  0.7472  0.3105  0.5035
 9537SOL    HW240245   2.010   2.062   8.249  1.2932  0.0348  0.3544
 9538SOL     OW40246   2.035   0.454   6.475  1.2882 -0.1770 -0.1791
 9538SOL    HW140247   1.958   0.425   6.525 -0.7635  0.0766 -3.2436
 9538SOL    HW240248   2.105   0.436   6.538 -0.2911 -0.1392  1.6096
 9539SOL     OW40249   2.299   1.062   5.362  0.1278 -0.2421  0.4293
 9539SOL    HW140250   2.271   1.007   5.435  0.3413  1.0322  1.4878
 9539SOL    HW240251   2.244   1.141   5.364 -0.4018 -0.6027 -0.0545
 9540SOL     OW40252   1.827   4.537   3.075 -0.2439 -0.1676 -0.9150
 9540SOL    HW140253   1.856   4.447   3.060 -2.2528 -0.9987  0.2984
 9540SOL    HW240254   1.734   4.534   3.053 -0.9885  0.2688  2.1332
 9541SOL     OW40255   1.471   4.608   4.478 -0.1234 -0.1222  0.2225
 9541SOL    HW140256   1.474   4.536   4.415  1.4943  1.8653 -1.9849
 9541SOL    HW240257   1.380   4.637   4.470  0.1692  0.5440 -0.6848
 9542SOL     OW40258   2.453   3.615   4.297  0.2525 -1.0035 -0.6876
 9542SOL    HW140259   2.405   3.630   4.215  0.8254 -0.8076 -0.9870
 9542SOL    HW240260   2.423   3.525   4.310  2.1562 -1.7207 -1.2362
 9543SOL     OW40261   1.883   2.995   3.239  0.4785 -0.7101  0.3597
 9543SOL    HW140262   1.976   3.015   3.247  0.6272 -1.2641  0.0634
 9543SOL    HW240263   1.871   2.937   3.164  2.2031 -0.4487 -0.1154
 9544SOL     OW40264   2.479   1.392   2.598 -0.2004 -0.7391 -0.0892
 9544SOL    HW140265   2.449   1.432   2.680  0.9848  0.4126 -0.2052
 9544SOL    HW240266   2.399   1.341   2.584 -1.8361  1.7341  0.1661
 9545SOL     OW40267   1.706   3.887   7.244 -0.3594  0.2862  0.7299
 9545SOL    HW140268   1.738   3.942   7.172  0.5539 -0.5824  0.4711
 9545SOL    HW240269   1.764   3.914   7.316  1.4247  0.5872 -0.8142
 9546SOL     OW40270   4.515   4.061   2.223  0.6232  0.1984  0.2351
 9546SOL    HW140271   4.528   3.967   2.237 -0.8217 -0.2855 -1.6749
 9546SOL    HW240272   4.567   4.098   2.295  2.1284  0.2238 -0.8608
 9547SOL     OW40273   2.380   1.512  10.779  0.2826  0.0702 -0.8024
 9547SOL    HW140274   2.337   1.436  10.819 -0.8483  0.9441 -0.3450
 9547SOL    HW240275   2.416   1.488  10.693 -0.4517 -0.3856 -0.9914
 9548SOL     OW40276   3.959   0.664   6.437  0.2390  0.1062 -0.1693
 9548SOL    HW140277   3.950   0.569   6.441 -1.0351  0.2992  1.3827
 9548SOL    HW240278   4.050   0.678   6.463 -0.4209 -0.6480  2.5160
 9549SOL     OW40279   1.134   4.418   8.196  0.4671 -0.2169  0.3740
 9549SOL    HW140280   1.213   4.375   8.164  0.7629  0.9181 -0.4432
 9549SOL    HW240281   1.091   4.443   8.115 -1.7021  0.7845  1.8222
 9550SOL     OW40282   1.809   3.203   4.555 -0.1198 -0.4954  0.1756
 9550SOL    HW140283   1.841   3.132   4.499 -1.1156  0.3447 -1.4493
 9550SOL    HW240284   1.774   3.260   4.487  5.1460  2.8825  0.3332
 9551SOL     OW40285   0.071   3.415   3.976 -0.0187 -0.0318  0.6770
 9551SOL    HW140286   0.028   3.342   4.020  0.8082 -0.3997  0.8592
 9551SOL    HW240287   0.138   3.371   3.924  0.1059  1.1818 -0.2015
 9552SOL     OW40288   0.925   1.230   2.798 -0.2395 -0.0235  0.2075
 9552SOL    HW140289   0.905   1.272   2.882 -0.2697  0.5762 -0.0937
 9552SOL    HW240290   0.875   1.149   2.808 -0.2004  0.0759  1.2373
 9553SOL     OW40291   0.072   2.574  12.807 -0.0985 -0.0346 -0.6353
 9553SOL    HW140292   0.076   2.493  12.857  0.7462  0.7415  0.5638
 9553SOL    HW240293   0.126   2.629  12.864 -1.7344  0.7350  0.1945
 9554SOL     OW40294   2.099   1.034   3.026 -0.3740  0.0587  0.5981
 9554SOL    HW140295   2.055   0.980   3.091 -0.0109 -1.5795 -0.5148
 9554SOL    HW240296   2.190   1.005   3.024 -0.4165  0.0265 -0.6794
 9555SOL     OW40297   4.096   1.896   4.773 -0.0093  0.7574 -0.0979
 9555SOL    HW140298   4.060   1.917   4.859 -1.1558 -0.1633 -0.3494
 9555SOL    HW240299   4.017   1.878   4.723  0.4874 -1.1171 -0.2313
 9556SOL     OW40300   0.957   0.044  15.785 -0.0683 -0.5538  0.0814
 9556SOL    HW140301   0.899   0.104  15.738  0.2938 -1.5010 -1.6011
 9556SOL    HW240302   0.937   0.081  15.871  0.4823  0.7857 -0.3744
 9557SOL     OW40303   2.899   1.001  12.061  0.1779 -0.5460  0.2140
 9557SOL    HW140304   2.929   0.917  12.029 -0.6095 -1.2849  1.4185
 9557SOL    HW240305   2.932   1.059  11.992 -0.0906  0.9616  1.3542
 9558SOL     OW40306   4.504   3.965   8.393 -0.1816 -0.1055  0.5513
 9558SOL    HW140307   4.481   4.014   8.314  0.3580  0.1807  0.5723
 9558SOL    HW240308   4.511   4.035   8.457  0.0829  0.5953 -0.2345
 9559SOL     OW40309   2.030   3.268   7.925 -0.5022 -0.1377 -0.0503
 9559SOL    HW140310   2.068   3.254   7.838  0.5810  1.0252  0.2324
 9559SOL    HW240311   1.941   3.234   7.928 -0.9347  0.7993 -1.7307
 9560SOL     OW40312   0.981   0.408   5.582 -0.6087  0.3629  0.4084
 9560SOL    HW140313   0.909   0.355   5.546  1.2106 -1.8610  0.0425
 9560SOL    HW240314   0.947   0.448   5.662 -0.8057  1.5169 -0.2529
 9561SOL     OW40315   0.723   4.242   2.210  0.0695 -0.3208 -0.3726
 9561SOL    HW140316   0.730   4.279   2.122 -0.1729  2.4695  0.7952
 9561SOL    HW240317   0.628   4.240   2.225 -0.2186 -1.6451 -2.3398
 9562SOL     OW40318   3.342   1.795   6.911  0.4565  0.1247  0.2841
 9562SOL    HW140319   3.317   1.731   6.978  0.7773  2.7079  2.8549
 9562SOL    HW240320   3.325   1.866   6.973  0.4494  2.2103 -2.0978
 9563SOL     OW40321   2.370   3.976   6.656  0.2346  0.6132 -0.1882
 9563SOL    HW140322   2.445   4.029   6.629  1.0933 -0.9881 -0.9117
 9563SOL    HW240323   2.307   4.039   6.622 -0.5847  0.1278  0.4387
 9564SOL     OW40324   3.242   1.311  10.983 -0.3253  0.6550  0.4511
 9564SOL    HW140325   3.296   1.384  10.953  0.5060 -0.9388 -1.9470
 9564SOL    HW240326   3.299   1.277  11.053  0.4876 -1.1307 -1.0637
 9565SOL     OW40327   0.121   4.400   3.582 -0.6625  0.0093  0.0130
 9565SOL    HW140328   0.112   4.305   3.573  1.0844 -0.3821  2.2310
 9565SOL    HW240329   0.147   4.405   3.674  1.5993 -0.2404 -0.6063
 9566SOL     OW40330   4.254   0.476   6.606  0.6031 -0.3376  0.1423
 9566SOL    HW140331   4.338   0.446   6.640  1.2317  0.9093 -0.2973
 9566SOL    HW240332   4.222   0.543   6.668  1.8379 -0.2636  0.7067
 9567SOL     OW40333   2.018   3.194   6.953 -0.6168  0.2901 -0.1881
 9567SOL    HW140334   1.974   3.200   7.038 -1.5169 -0.4677 -0.5974
 9567SOL    HW240335   2.058   3.108   6.966 -1.7946 -0.1836  0.3419
 9568SOL     OW40336   0.468   4.372   1.916 -0.0417 -0.5677  0.0687
 9568SOL    HW140337   0.459   4.465   1.896  0.7243 -0.3835  0.5780
 9568SOL    HW240338   0.456   4.322   1.835  1.5882 -0.3409 -0.3206
 9569SOL     OW40339   3.852   4.622   8.290 -0.2843 -0.5839 -0.0319
 9569SOL    HW140340   3.782   4.559   8.307 -0.9101  0.6569  1.9916
 9569SOL    HW240341   3.863   4.664   8.375 -2.1476 -2.1760  0.9829
 9570SOL     OW40342   3.717   3.568   1.729 -0.5555 -0.0889  0.4685
 9570SOL    HW140343   3.762   3.652   1.739  2.4488 -1.9243  2.3374
 9570SOL    HW240344   3.629   3.575   1.765 -0.6185 -0.5407  0.4075
 9571SOL     OW40345   1.984   3.345  16.712 -0.1140 -0.3844  0.0923
 9571SOL    HW140346   2.015   3.262  16.677  2.3846  1.0982 -1.1662
 9571SOL    HW240347   1.909   3.308  16.761 -0.4321  0.3769  0.1747
   4.73614   4.73614  17.74312
