Membrane in water
40347
    1TMC1    C1    1   2.489   0.914  11.781 -0.2500  0.3346 -0.0785
    1TMC1    C2    2   2.508   0.886  11.646 -0.6535  0.1654  0.8864
    1TMC1    C3    3   2.548   0.988  11.562  0.0749  0.0972 -0.3842
    1TMC1    C4    4   2.508   1.040  11.829  0.6514 -0.4004  0.5189
    1TMC1    C5    5   2.541   1.140  11.741  0.2197 -0.4451  0.3722
    1TMC1    C6    6   2.559   1.119  11.605  0.4182  0.4167 -0.2898
    1TMC1     C    7   2.446   0.809  11.875  0.3181  0.7651  0.3089
    1TMC1     O    8   2.390   0.842  11.981 -0.2352  0.0573  0.1587
    1TMC1     H    9   2.490   0.788  11.604  0.3727  0.8805 -1.2143
    1TMC1    H1   10   2.505   1.065  11.934  0.7388 -0.0956  0.4477
    1TMC1    H2   11   2.577   1.196  11.531  2.4625  2.5579  2.4254
    1TMC1    C7   12   2.531   1.282  11.772  0.9650  0.0336  0.1860
    1TMC1    C8   13   2.627   0.950  11.444  0.4540  0.6369 -1.0638
    1TMC1    O1   14   2.509   1.376  11.693  0.1881 -0.3879  0.7960
    1TMC1    O2   15   2.729   1.014  11.410 -0.2702 -0.1421 -0.1110
    1TMC1    O3   16   2.571   1.292  11.894  0.6305 -0.2779 -0.1244
    1TMC1    H3   17   2.609   1.214  11.940 -0.4788 -0.7234  0.0248
    1TMC1    O5   18   2.559   0.849  11.378  0.4760  0.6179  0.0399
    1TMC1    H5   19   2.470   0.837  11.418  0.6723 -1.0060 -0.0172
    2MPD2     C   20   2.410   0.306  11.995  0.2885 -0.3696  0.4794
    2MPD2    C1   21   2.321   0.414  12.002 -0.1350 -0.8880 -0.1806
    2MPD2    C2   22   2.353   0.541  11.959 -0.1419 -0.1811 -0.0782
    2MPD2    C3   23   2.477   0.565  11.903 -0.1650  0.9262  0.3639
    2MPD2    C4   24   2.567   0.464  11.897 -0.1618 -0.0091 -0.4751
    2MPD2    C5   25   2.541   0.336  11.946 -0.1253 -0.1615 -0.0479
    2MPD2     H   26   2.277   0.618  11.955  1.9699  1.9804  1.7484
    2MPD2    H1   27   2.668   0.485  11.863 -0.3966  3.3459  0.8352
    2MPD2    H2   28   2.389   0.204  12.028 -0.3345 -0.1197  0.8506
    2MPD2    H3   29   2.611   0.254  11.943 -1.1758 -1.1319  1.4717
    2MPD2     N   30   2.509   0.691  11.852  0.5402 -0.2256 -0.0747
    2MPD2    H5   31   2.590   0.692  11.790 -0.4603  0.9046 -1.3524
    2MPD2    N1   32   2.184   0.394  12.043  0.1002 -0.3557  0.0974
    2MPD2    H7   33   2.114   0.466  12.027 -0.2599 -0.8324 -0.4891
    3TMC1    C1   34   1.425   1.970  10.304 -0.8334  0.0952  0.6160
    3TMC1    C2   35   1.360   2.045  10.208 -0.2014  0.3613  0.9798
    3TMC1    C3   36   1.398   2.022  10.080  0.2057 -0.6349  0.0036
    3TMC1    C4   37   1.529   1.886  10.278  0.8012  0.0717 -0.8088
    3TMC1    C5   38   1.563   1.870  10.148  0.4375  0.6094 -0.7116
    3TMC1    C6   39   1.494   1.931  10.042 -0.1329  0.6536 -0.0869
    3TMC1     C   40   1.366   1.960  10.439 -0.4191  0.3057  0.6678
    3TMC1     O   41   1.404   1.869  10.516  0.1583  0.4777 -0.5328
    3TMC1     H   42   1.277   2.112  10.229 -0.8241 -1.0005  2.8422
    3TMC1    H1   43   1.571   1.827  10.359 -0.3014  0.9852  0.4378
    3TMC1    H2   44   1.521   1.922   9.937 -1.6987 -1.6542 -0.3036
    3TMC1    C7   45   1.633   1.750  10.109  0.3621 -0.2173 -0.6758
    3TMC1    C8   46   1.314   2.069   9.979 -0.7279 -0.2269  0.5239
    3TMC1    O1   47   1.580   1.684  10.018 -0.2103  0.2432  0.0834
    3TMC1    O2   48   1.355   2.105   9.870 -0.1333 -0.1551 -0.0251
    3TMC1    O3   49   1.702   1.704  10.219 -0.5110 -0.3503 -0.1675
    3TMC1    H3   50   1.732   1.780  10.273  1.0988 -1.4185  0.4293
    3TMC1    O5   51   1.184   2.032  10.001 -0.3614 -0.0689 -0.0948
    3TMC1    H5   52   1.170   1.991  10.089 -2.5949  1.4113  0.2350
    4MPD2     C   53   1.122   2.139  10.858 -0.6742 -0.7113 -0.6873
    4MPD2    C1   54   1.120   2.238  10.767  0.3051 -0.1601  0.0352
    4MPD2    C2   55   1.180   2.208  10.649 -0.3264  0.1140  0.2776
    4MPD2    C3   56   1.231   2.084  10.609 -0.2275  0.3243  0.0155
    4MPD2    C4   57   1.233   1.986  10.711 -0.4115 -0.8765 -0.8005
    4MPD2    C5   58   1.171   2.016  10.825  0.2521  0.1079  0.0598
    4MPD2     H   59   1.186   2.285  10.573 -2.3013 -0.2092 -0.2284
    4MPD2    H1   60   1.272   1.885  10.704 -0.4369 -1.0076  1.1679
    4MPD2    H2   61   1.088   2.153  10.960  1.2444  0.2517 -0.1791
    4MPD2    H3   62   1.168   1.931  10.892  3.0144  1.0966  1.4421
    4MPD2     N   63   1.289   2.068  10.478  0.1864 -0.0557 -0.9918
    4MPD2    H5   64   1.296   2.148  10.416 -0.3803 -1.4515 -2.8391
    4MPD2    N1   65   1.062   2.365  10.792 -0.3310  0.2666 -0.2792
    4MPD2    H7   66   1.079   2.442  10.728 -1.1546 -0.9263 -1.9363
    5TCq1    O1   67   0.500   3.085  11.516  0.2202 -0.4369 -0.3339
    5TCq1    C1   68   0.544   3.020  11.621 -0.2493  0.4156  0.2394
    5TCq1    O2   69   0.594   3.067  11.724 -0.7692 -0.5853  0.5747
    5TCq1    C2   70   0.595   2.890  11.577 -0.1568 -1.1346 -0.0586
    5TCq1    C3   71   0.601   2.796  11.679 -0.0629 -0.4887  0.3083
    5TCq1    C4   72   0.716   2.718  11.687 -0.6670 -0.0648 -0.6141
    5TCq1    C5   73   0.818   2.728  11.594  0.1494 -0.5657 -0.4453
    5TCq1    C6   74   0.816   2.821  11.494 -0.0200 -0.0549 -0.5429
    5TCq1    C7   75   0.707   2.907  11.491 -0.0148 -0.2939  0.2239
    5TCq1    C8   76   0.910   2.843  11.385  0.0543  0.0788  0.1053
    5TCq1    O4   77   0.883   2.934  11.310  0.3128 -0.6963  0.1105
    5TCq1    C9   78   0.716   2.611  11.785 -0.3451 -0.0295  0.0526
    5TCq1    O5   79   0.802   2.520  11.788 -0.0650  0.1857  0.0685
    5TCq1    O6   80   0.622   2.618  11.870  0.2290 -0.0410  0.6808
    5TCq1    H1   81   0.457   3.022  11.454  1.6723  0.1280 -1.9132
    5TCq1    H2   82   0.539   2.802  11.768 -1.5226 -1.2117 -0.6569
    5TCq1    H3   83   0.906   2.665  11.607  1.2456  1.1865  0.5816
    5TCq1    H4   84   0.695   2.990  11.422 -3.8816 -0.2148  0.9846
    6MPD2     C   85   1.171   2.626  11.270  0.1662  0.7618 -0.2676
    6MPD2    C1   86   1.100   2.739  11.274  0.0640 -0.3887  0.6386
    6MPD2    C2   87   1.115   2.823  11.170  0.0605  0.1040  0.0574
    6MPD2    C3   88   1.188   2.795  11.060 -0.3254 -0.0670 -0.3955
    6MPD2    C4   89   1.262   2.678  11.064  0.1756  0.4423  0.0825
    6MPD2    C5   90   1.264   2.599  11.171 -0.2121  0.2419  0.9613
    6MPD2     H   91   1.058   2.915  11.165 -0.7996 -0.3719  1.0008
    6MPD2    H1   92   1.331   2.653  10.985  0.2197 -1.2707  0.6689
    6MPD2    H2   93   1.177   2.551  11.348 -2.5397  0.4160 -0.3747
    6MPD2    H3   94   1.340   2.522  11.172  0.9461  1.3809  1.5316
    6MPD2     N   95   1.190   2.881  10.950  0.2771  0.2470  0.2776
    6MPD2    H5   96   1.150   2.971  10.973 -1.8812 -0.5348 -0.4627
    6MPD2    N1   97   1.007   2.749  11.379 -0.0273  0.0025  0.3497
    6MPD2    H7   98   0.991   2.669  11.440  2.5067 -0.9295 -0.1629
    7TCq1    O1   99   3.879   2.936  12.484  0.4553 -0.4481 -0.4667
    7TCq1    C1  100   3.913   2.864  12.375 -0.0824  0.0542 -0.1502
    7TCq1    O2  101   3.944   2.925  12.272  0.3290 -0.0327  0.4131
    7TCq1    C2  102   3.835   2.744  12.364 -0.5789  1.0397 -0.2100
    7TCq1    C3  103   3.791   2.705  12.241 -1.0470 -0.3755  0.2165
    7TCq1    C4  104   3.725   2.585  12.234 -0.1381 -0.5826 -0.0768
    7TCq1    C5  105   3.703   2.510  12.349 -0.1283 -0.2253  0.3516
    7TCq1    C6  106   3.746   2.559  12.468 -0.0161 -0.0798 -0.5938
    7TCq1    C7  107   3.820   2.671  12.479  0.6162 -0.1994 -0.8898
    7TCq1    C8  108   3.752   2.468  12.579 -0.6148  0.0711 -0.1300
    7TCq1    O4  109   3.710   2.352  12.575 -0.5884  0.3126 -0.1221
    7TCq1    C9  110   3.689   2.536  12.101 -0.3468  0.2337 -0.7712
    7TCq1    O5  111   3.744   2.595  12.006 -0.0763 -0.0812  0.5267
    7TCq1    O6  112   3.605   2.442  12.097  0.0201  0.4190  0.1100
    7TCq1    H1  113   3.825   2.881  12.545 -0.8619  0.0859 -1.1445
    7TCq1    H2  114   3.801   2.775  12.158  0.7679 -2.8090 -1.6230
    7TCq1    H3  115   3.678   2.405  12.340 -0.4429 -0.0089 -1.2551
    7TCq1    H4  116   3.886   2.687  12.564  0.9159  0.0056 -1.1602
    8MPD2     C  117   3.760   2.404  13.091 -0.3809 -0.1925  0.0464
    8MPD2    C1  118   3.727   2.309  12.994 -0.3707  0.5649  0.6257
    8MPD2    C2  119   3.743   2.348  12.858  0.7501  0.9923 -0.3780
    8MPD2    C3  120   3.768   2.480  12.830 -0.3312  0.3267 -0.2719
    8MPD2    C4  121   3.790   2.579  12.926  0.2163  0.1381 -0.0696
    8MPD2    C5  122   3.783   2.532  13.057 -0.3231 -0.4279 -0.5178
    8MPD2     H  123   3.744   2.277  12.776  0.3255  3.2077 -2.2986
    8MPD2    H1  124   3.804   2.683  12.901 -1.3576  0.8050  1.8800
    8MPD2    H2  125   3.743   2.383  13.196  0.9311 -3.2704 -0.3650
    8MPD2    H3  126   3.793   2.596  13.143 -2.9393  1.1056 -1.3478
    8MPD2     N  127   3.765   2.535  12.697 -0.0117  0.5110 -0.5386
    8MPD2    H5  128   3.762   2.636  12.689  1.2953  0.6184  0.2685
    8MPD2    N1  129   3.694   2.179  13.034  0.1389  0.0789 -0.1042
    8MPD2    H7  130   3.698   2.179  13.135  1.6510 -0.4667 -0.1575
    9TMC1    C1  131   1.957   1.497  10.789 -0.1326 -0.0705  0.1548
    9TMC1    C2  132   1.886   1.379  10.768  0.1783 -0.1302 -0.6816
    9TMC1    C3  133   1.966   1.285  10.707  0.0531  0.0116  0.1512
    9TMC1    C4  134   2.080   1.524  10.733  0.6976  0.3766  0.3175
    9TMC1    C5  135   2.132   1.435  10.649 -0.2821  0.4806  0.4095
    9TMC1    C6  136   2.081   1.317  10.637 -0.3703 -0.5571  0.9416
    9TMC1     C  137   1.902   1.608  10.864  0.6325  0.1982 -0.4645
    9TMC1     O  138   1.932   1.724  10.839 -0.5679  0.3201  0.4295
    9TMC1     H  139   1.795   1.356  10.822  0.4617 -1.5016 -0.8038
    9TMC1    H1  140   2.137   1.612  10.760  0.4830  0.9126 -0.9697
    9TMC1    H2  141   2.136   1.244  10.579 -3.0430 -0.4903 -1.7027
    9TMC1    C7  142   2.278   1.417  10.664 -0.9465 -0.3542 -0.3742
    9TMC1    C8  143   1.911   1.154  10.669 -0.5698  0.1554 -0.0496
    9TMC1    O1  144   2.354   1.466  10.743 -0.1881 -0.1009 -0.3871
    9TMC1    O2  145   1.955   1.093  10.572  0.1862  0.6916  0.0504
    9TMC1    O3  146   2.311   1.394  10.529  0.2416  0.0987  0.4628
    9TMC1    H3  147   2.236   1.384  10.468  0.2370 -0.0307  0.4903
    9TMC1    O5  148   1.837   1.097  10.774 -0.3239 -0.5201 -0.9007
    9TMC1    H5  149   1.835   1.161  10.848 -1.0927 -1.4132 -0.1485
   10MPD2     C  150   1.764   1.762  11.078 -1.1714  0.5199  0.2376
   10MPD2    C1  151   1.766   1.624  11.070  0.2787 -0.3155 -0.1441
   10MPD2    C2  152   1.737   1.551  11.186  0.1758 -0.5995  0.2416
   10MPD2    C3  153   1.708   1.608  11.309  0.8600 -0.0450  0.0633
   10MPD2    C4  154   1.714   1.748  11.320  0.4428 -0.0300 -0.2786
   10MPD2    C5  155   1.754   1.822  11.205 -0.0596  0.0644 -0.4155
   10MPD2     H  156   1.739   1.443  11.181 -1.4995 -0.6624  1.0678
   10MPD2    H1  157   1.681   1.801  11.409  0.0279 -0.6640 -0.0501
   10MPD2    H2  158   1.784   1.824  10.991 -0.3185  2.2974  1.6874
   10MPD2    H3  159   1.741   1.930  11.214 -0.0059  0.1894 -1.7353
   10MPD2     N  160   1.681   1.536  11.428 -0.0765  0.3990  0.0199
   10MPD2    H5  161   1.660   1.594  11.508 -1.0626 -0.1950  0.1997
   10MPD2    N1  162   1.818   1.560  10.956  0.1257  0.9230 -0.4131
   10MPD2    H7  163   1.822   1.458  10.959 -0.0393  0.9623  0.9918
   11TCq1    O1  164   1.274   0.534  14.606  0.3506  0.0045 -0.4042
   11TCq1    C1  165   1.392   0.585  14.641 -0.1963  0.0573  0.2734
   11TCq1    O2  166   1.418   0.617  14.755 -0.2065  0.3936 -0.0834
   11TCq1    C2  167   1.488   0.560  14.539 -0.1618 -1.2441 -0.5205
   11TCq1    C3  168   1.608   0.638  14.547 -0.4094 -0.2335  0.7877
   11TCq1    C4  169   1.706   0.611  14.458  0.4329 -0.2582 -0.0368
   11TCq1    C5  170   1.679   0.532  14.354  0.6605 -0.1796  0.2982
   11TCq1    C6  171   1.560   0.461  14.339 -0.3899 -0.1433  0.4416
   11TCq1    C7  172   1.469   0.468  14.438 -0.5915 -0.4067  0.3947
   11TCq1    C8  173   1.522   0.396  14.214  0.2969  0.2204  0.3511
   11TCq1    O4  174   1.402   0.370  14.198 -0.0695  0.2463 -0.2612
   11TCq1    C9  175   1.824   0.693  14.459 -0.1217  0.5033 -0.1043
   11TCq1    O5  176   1.919   0.670  14.377 -0.3967 -0.1678  0.3834
   11TCq1    O6  177   1.835   0.766  14.560  0.1236  0.3288  0.8011
   11TCq1    H1  178   1.266   0.536  14.508  0.0713 -2.9015 -0.4621
   11TCq1    H2  179   1.615   0.721  14.617 -1.4743  0.6383 -0.1461
   11TCq1    H3  180   1.746   0.532  14.268  0.2018  0.6413 -0.0611
   11TCq1    H4  181   1.376   0.415  14.422 -0.3533 -0.5177 -0.5739
   12MPD2     C  182   1.477   0.339  13.913 -0.1496 -0.5175  0.0486
   12MPD2    C1  183   1.595   0.324  13.985 -0.1405  0.5281 -0.1465
   12MPD2    C2  184   1.706   0.284  13.918  0.4305 -1.1927  0.5109
   12MPD2    C3  185   1.709   0.244  13.787  0.3195 -0.5489 -0.0616
   12MPD2    C4  186   1.588   0.246  13.720  0.1047 -0.1012 -0.2767
   12MPD2    C5  187   1.472   0.297  13.781 -0.1771 -0.0847 -0.4538
   12MPD2     H  188   1.800   0.281  13.972  0.0519 -0.6383  1.2128
   12MPD2    H1  189   1.583   0.208  13.619 -1.1153 -0.0355 -0.2412
   12MPD2    H2  190   1.384   0.380  13.950 -0.1296 -0.6772  0.2762
   12MPD2    H3  191   1.379   0.309  13.726  0.1372 -3.5516 -1.7242
   12MPD2     N  192   1.820   0.193  13.721 -0.0709  0.5045  1.0639
   12MPD2    H5  193   1.798   0.161  13.627  0.2213  2.0953  0.4380
   12MPD2    N1  194   1.619   0.370  14.123 -0.4515  0.3650 -0.9875
   12MPD2    H7  195   1.716   0.365  14.152 -0.0898  0.6672 -2.1456
   13TCq1    O1  196   2.097   0.560  11.747  0.0561  0.4945 -0.1820
   13TCq1    C1  197   1.993   0.509  11.680 -0.6595 -0.1306 -0.2095
   13TCq1    O2  198   1.923   0.414  11.705  0.2722 -0.2419  0.3851
   13TCq1    C2  199   1.985   0.598  11.558  0.8537 -0.3781 -0.0030
   13TCq1    C3  200   2.098   0.658  11.509 -0.0936  0.8922 -0.1169
   13TCq1    C4  201   2.082   0.740  11.398 -0.2846 -0.6795 -0.6181
   13TCq1    C5  202   1.953   0.767  11.350  0.3829 -0.1492  0.6793
   13TCq1    C6  203   1.847   0.711  11.409 -0.5868  0.5681 -0.5840
   13TCq1    C7  204   1.856   0.620  11.509  0.0956 -0.3553  0.1192
   13TCq1    C8  205   1.717   0.741  11.346  1.0219 -0.7365  0.5858
   13TCq1    O4  206   1.620   0.735  11.419  0.5325 -0.7157 -0.0213
   13TCq1    C9  207   2.203   0.794  11.337 -0.1817 -0.0236  0.0737
   13TCq1    O5  208   2.191   0.842  11.220  0.4982  0.3969  0.0470
   13TCq1    O6  209   2.303   0.808  11.411 -0.3726  0.0550 -0.5415
   13TCq1    H1  210   2.125   0.654  11.737  1.0857 -0.0169 -1.9823
   13TCq1    H2  211   2.196   0.642  11.554 -0.0652 -0.0905 -0.5455
   13TCq1    H3  212   1.945   0.843  11.273  1.7469 -0.1870  0.4927
   13TCq1    H4  213   1.771   0.570  11.554 -0.0430 -2.3778 -2.3890
   14MPD2     C  214   1.678   0.860  11.001  0.2479  0.2874  0.1696
   14MPD2    C1  215   1.638   0.844  11.130 -0.1279 -0.3941  0.4146
   14MPD2    C2  216   1.525   0.908  11.179 -0.5174 -0.3644  0.4101
   14MPD2    C3  217   1.448   0.990  11.093  0.7457  0.1951 -0.4398
   14MPD2    C4  218   1.487   1.002  10.967 -0.0050 -0.1520  0.0058
   14MPD2    C5  219   1.594   0.933  10.919 -0.0770  0.6248  0.0316
   14MPD2     H  220   1.503   0.892  11.284 -0.4880  1.9553  0.7671
   14MPD2    H1  221   1.422   1.051  10.896  0.7914  1.2817  0.2626
   14MPD2    H2  222   1.760   0.803  10.959  0.4694  0.3367  0.5299
   14MPD2    H3  223   1.634   0.947  10.819  1.0328 -1.5454  0.1816
   14MPD2     N  224   1.348   1.066  11.160 -0.3268 -0.7450 -0.0968
   14MPD2    H5  225   1.321   1.038  11.253  0.4515 -1.0623  0.0331
   14MPD2    N1  226   1.723   0.763  11.206 -0.0089  0.2746 -0.6735
   14MPD2    H7  227   1.811   0.741  11.160  0.5079 -2.4389  1.5914
   15TCq1    O1  228   3.519   0.408   0.998  0.1522  0.5550 -0.4753
   15TCq1    C1  229   3.544   0.271   1.009 -0.7755  0.1538 -0.0748
   15TCq1    O2  230   3.640   0.214   0.965  0.0557 -0.2374 -0.5055
   15TCq1    C2  231   3.461   0.205   1.109  0.2599  0.0674 -0.0227
   15TCq1    C3  232   3.387   0.284   1.200 -0.1256  0.1847 -0.6269
   15TCq1    C4  233   3.308   0.216   1.292  0.2593 -0.0609 -0.8144
   15TCq1    C5  234   3.288   0.083   1.286 -0.1954 -0.7262  0.0184
   15TCq1    C6  235   3.353   0.014   1.189  0.1548  0.1994 -0.5180
   15TCq1    C7  236   3.441   0.072   1.106  0.1290 -0.1151 -0.1702
   15TCq1    C8  237   3.346   4.606   1.170  0.5726 -0.3405  0.2894
   15TCq1    O4  238   3.446   4.546   1.122  0.1300  0.1499 -0.0687
   15TCq1    C9  239   3.251   0.290   1.401  0.0494 -0.3314  0.1310
   15TCq1    O5  240   3.188   0.223   1.484 -0.3191 -0.5028 -0.2441
   15TCq1    O6  241   3.251   0.420   1.403  0.0275  0.3541 -0.3179
   15TCq1    H1  242   3.428   0.431   1.028  1.0641  1.0245  1.9529
   15TCq1    H2  243   3.420   0.381   1.235 -1.9476  0.2282  0.9972
   15TCq1    H3  244   3.231   0.030   1.362 -0.6620  0.0581  0.2166
   15TCq1    H4  245   3.486   0.013   1.027  0.2744  0.5211 -0.5579
   16MPD2     C  246   3.055   4.382   1.165  0.4733 -0.0324  0.2110
   16MPD2    C1  247   3.189   4.418   1.166 -0.6948  0.2285 -0.3407
   16MPD2    C2  248   3.279   4.313   1.148  0.3705  0.4976  0.4259
   16MPD2    C3  249   3.242   4.183   1.134  0.6048 -0.3712 -0.4265
   16MPD2    C4  250   3.112   4.145   1.144 -0.5926  0.1297 -0.3907
   16MPD2    C5  251   3.023   4.248   1.155  0.4570 -0.3701  0.1048
   16MPD2     H  252   3.384   4.334   1.168  1.4351 -3.9974 -0.4282
   16MPD2    H1  253   3.079   4.042   1.133  0.0681 -0.0746 -0.5123
   16MPD2    H2  254   2.979   4.459   1.175  0.3920  0.1733 -1.9876
   16MPD2    H3  255   2.917   4.226   1.158  0.6248 -1.4394 -1.8445
   16MPD2     N  256   3.346   4.094   1.109 -0.1391  0.2333  0.7860
   16MPD2    H5  257   3.435   4.142   1.105 -0.2868  0.3998 -0.4979
   16MPD2    N1  258   3.222   4.551   1.192 -0.5621 -0.9659 -0.2410
   16MPD2    H7  259   3.147   4.612   1.224  0.0640  0.9665 -2.4233
   17TMC1    C1  260   1.311   0.073  10.244  0.3953  0.1845  0.1558
   17TMC1    C2  261   1.285   0.009  10.361  0.4781 -0.4343 -0.4094
   17TMC1    C3  262   1.229   4.616  10.368 -0.7515  0.0617  0.2910
   17TMC1    C4  263   1.291   0.002  10.125  0.3424 -0.0982  0.7316
   17TMC1    C5  264   1.227   4.618  10.135 -0.2927  0.4382 -0.0344
   17TMC1    C6  265   1.192   4.557  10.252  0.1406  0.5414 -1.6033
   17TMC1     C  266   1.351   0.211  10.233  0.6306  0.5752  1.1638
   17TMC1     O  267   1.342   0.255  10.118  0.0527 -0.2561 -0.6296
   17TMC1     H  268   1.306   0.064  10.452  0.1421 -1.5358  0.3411
   17TMC1    H1  269   1.329   0.032  10.028  0.8617  1.5122  1.4334
   17TMC1    H2  270   1.163   4.453  10.257  0.4650  0.6081  1.4719
   17TMC1    C7  271   1.191   4.552  10.008  0.3914 -0.1131  1.0844
   17TMC1    C8  272   1.225   4.541  10.487 -0.1815 -0.6154  0.1734
   17TMC1    O1  273   1.251   4.586   9.907  0.5561  0.2433  0.2248
   17TMC1    O2  274   1.156   4.441  10.504  0.3885  0.0457  0.1640
   17TMC1    O3  275   1.056   4.580  10.017  0.3841  0.3615  0.1131
   17TMC1    H3  276   1.008   4.568  10.102  0.2392 -2.8406 -0.4076
   17TMC1    O5  277   1.348   4.564  10.536 -0.1231  0.0711 -0.5493
   17TMC1    H5  278   1.383   4.645  10.493 -0.9544  0.0516 -1.2598
   18MPD2     C  279   1.436   0.486  10.286  0.1256 -0.9763 -0.6285
   18MPD2    C1  280   1.453   0.379  10.372 -0.1854  0.2384  0.3674
   18MPD2    C2  281   1.517   0.399  10.488  0.3766 -0.0414 -0.4226
   18MPD2    C3  282   1.580   0.524  10.514  0.3829  0.0174 -0.3966
   18MPD2    C4  283   1.548   0.630  10.428  0.0354 -0.6136 -0.6427
   18MPD2    C5  284   1.488   0.612  10.311 -0.9568  0.0974  0.1342
   18MPD2     H  285   1.534   0.315  10.554  2.4137  1.6848  1.2874
   18MPD2    H1  286   1.574   0.732  10.454 -0.7588 -0.5563 -0.0830
   18MPD2    H2  287   1.384   0.467  10.193 -1.8030 -0.3383  0.3214
   18MPD2    H3  288   1.453   0.696  10.251  0.3630  0.0636 -0.6926
   18MPD2     N  289   1.660   0.546  10.631 -0.7471 -0.5573 -0.3998
   18MPD2    H5  290   1.712   0.632  10.617  1.4392 -1.6527  1.0378
   18MPD2    N1  291   1.410   0.249  10.351  0.1919 -0.0254 -0.3332
   18MPD2    H7  292   1.430   0.181  10.424  0.5175  1.5831  1.0773
   19TMC2    C1  293   3.365   0.899  13.835 -0.1841  0.0826  0.4497
   19TMC2    C2  294   3.340   1.014  13.913 -0.1437 -0.1676  0.5590
   19TMC2    C3  295   3.259   0.993  14.019  0.0195 -0.1009  0.1999
   19TMC2    C4  296   3.313   0.773  13.854  1.1197  0.3431  0.1536
   19TMC2    C5  297   3.225   0.763  13.966  0.2508  0.2401 -0.4376
   19TMC2    C6  298   3.199   0.871  14.046  0.1385 -0.6580 -0.4261
   19TMC2     C  299   3.474   0.906  13.735  0.4711  0.5277  0.5681
   19TMC2     O  300   3.521   1.015  13.707 -0.4107  0.5335  0.3315
   19TMC2     H  301   3.386   1.106  13.880  2.3107 -2.3274 -2.1636
   19TMC2    H1  302   3.340   0.685  13.796 -2.7553 -1.2027  0.6826
   19TMC2    H2  303   3.139   0.861  14.136 -0.6378  1.2222 -0.7278
   19TMC2    C7  304   3.149   0.643  13.982  0.0212 -0.8654 -0.8602
   19TMC2    C8  305   3.240   1.087  14.125  0.7038 -0.3080  0.4276
   19TMC2    O1  306   3.195   0.545  13.928 -0.5089  0.0391  0.4728
   19TMC2    O2  307   3.131   1.098  14.181 -0.2218 -0.0930 -0.1614
   19TMC2    O5  308   3.352   1.151  14.143  1.1888  0.7583 -0.3483
   19TMC2    H5  309   3.432   1.115  14.099  1.2107 -1.5965  1.6208
   20MPD2     C  310   3.749   0.852  13.623  0.3360 -0.0119 -0.0436
   20MPD2    C1  311   3.668   0.756  13.679  0.2313  0.2612  0.2349
   20MPD2    C2  312   3.715   0.625  13.692 -1.4053  0.4475  0.1302
   20MPD2    C3  313   3.844   0.596  13.653 -0.0036 -0.3282 -0.1077
   20MPD2    C4  314   3.925   0.690  13.594  0.0467  0.0213 -0.4181
   20MPD2    C5  315   3.880   0.820  13.584  0.1980  0.6039 -0.5807
   20MPD2     H  316   3.651   0.550  13.738 -0.5035 -1.0495 -1.0648
   20MPD2    H1  317   4.025   0.663  13.565  0.7507  0.0360  1.9582
   20MPD2    H2  318   3.708   0.952  13.609 -0.6968 -0.5831 -1.0082
   20MPD2    H3  319   3.947   0.893  13.539 -0.4849  2.2143  0.9802
   20MPD2     N  320   3.904   0.474  13.690  0.3335 -0.6378  0.7093
   20MPD2    H5  321   4.003   0.464  13.667 -0.0774  1.3761 -1.8895
   20MPD2    N1  322   3.535   0.784  13.726  0.1569 -0.0659 -0.9187
   20MPD2    H7  323   3.500   0.703  13.776 -2.0785  1.8283  0.5880
   21TMC2    C1  324   0.272   1.050  14.711 -0.1765 -0.0159 -0.3416
   21TMC2    C2  325   0.242   0.950  14.801 -0.7279  0.7468 -0.4018
   21TMC2    C3  326   0.132   0.973  14.883 -0.7204 -0.0061  0.5223
   21TMC2    C4  327   0.204   1.176  14.716 -0.0116 -0.2505  0.5182
   21TMC2    C5  328   0.093   1.185  14.794  0.4112  0.2321 -0.6258
   21TMC2    C6  329   0.057   1.083  14.869 -0.1610 -0.4102 -0.7518
   21TMC2     C  330   0.408   1.050  14.662 -0.2269  0.2901  0.3930
   21TMC2     O  331   0.454   0.936  14.655  0.1245  0.2523  0.2916
   21TMC2     H  332   0.304   0.864  14.823 -1.2305  0.4844 -0.0173
   21TMC2    H1  333   0.234   1.260  14.654 -1.0784 -1.9744 -2.3175
   21TMC2    H2  334   4.723   1.104  14.947 -0.7773  1.3108 -1.7871
   21TMC2    C7  335   0.081   1.311  14.861 -0.6192  0.0653 -1.3057
   21TMC2    C8  336   0.126   0.900  15.004 -0.4165 -0.3898  0.3375
   21TMC2    O1  337   0.097   1.311  14.983  0.3327  0.3287 -0.1634
   21TMC2    O2  338   0.019   0.855  15.051  0.2376  0.5047 -0.2845
   21TMC2    O5  339   0.219   0.957  15.084 -0.1452 -0.2608 -0.1387
   21TMC2    H5  340   0.280   1.021  15.041 -2.4005  2.3338  0.5946
   22MPD2     C  341   0.879   1.236  14.558  0.5729  0.3360  0.4248
   22MPD2    C1  342   0.838   1.105  14.602 -0.2273  0.2551 -0.0392
   22MPD2    C2  343   0.704   1.085  14.633  0.6105  0.9005  0.3194
   22MPD2    C3  344   0.607   1.183  14.617  0.9424  0.6600 -0.0557
   22MPD2    C4  345   0.647   1.307  14.584  0.0851 -0.1662 -0.3517
   22MPD2    C5  346   0.780   1.335  14.549 -0.0541 -0.6779  0.2506
   22MPD2     H  347   0.672   0.999  14.691 -1.5649  1.8144  0.5058
   22MPD2    H1  348   0.572   1.384  14.572  1.0114  1.1451  2.2101
   22MPD2    H2  349   0.979   1.264  14.529  0.3353  0.7162 -0.0252
   22MPD2    H3  350   0.817   1.432  14.518 -0.0263 -0.7988 -0.0910
   22MPD2     N  351   0.467   1.169  14.639  0.4736 -0.1055  0.0034
   22MPD2    H5  352   0.413   1.255  14.648 -1.2017 -1.0488 -0.8970
   22MPD2    N1  353   0.923   0.997  14.629 -0.3807  0.6576 -0.3975
   22MPD2    H7  354   0.881   0.916  14.674 -2.5021  0.6033 -2.5024
   23TMC2    C1  355   1.691   2.684  14.668 -0.3870 -0.2015  0.2619
   23TMC2    C2  356   1.688   2.714  14.537  0.2618  0.1500  0.0056
   23TMC2    C3  357   1.583   2.685  14.457 -0.2011  0.8415  0.6466
   23TMC2    C4  358   1.577   2.634  14.730  0.2399 -0.2334 -0.2908
   23TMC2    C5  359   1.468   2.614  14.651 -0.0514 -1.1693  0.3657
   23TMC2    C6  360   1.473   2.632  14.515 -0.4025  1.2443  0.6536
   23TMC2     C  361   1.801   2.710  14.760 -0.6061 -0.1764 -0.8984
   23TMC2     O  362   1.786   2.653  14.866  0.7227 -0.3813 -0.2980
   23TMC2     H  363   1.780   2.761  14.505  1.7312 -0.2427  3.6017
   23TMC2    H1  364   1.574   2.604  14.835  2.9498  0.2906 -0.0622
   23TMC2    H2  365   1.392   2.607  14.447 -0.1127  0.2805  0.6667
   23TMC2    C7  366   1.358   2.551  14.715  0.7843  0.2203 -0.7761
   23TMC2    C8  367   1.579   2.735  14.316  0.1126  0.2176 -0.0225
   23TMC2    O1  368   1.361   2.539  14.836 -0.1456  0.6314  0.2942
   23TMC2    O2  369   1.670   2.715  14.243 -0.2476  0.0779  0.0670
   23TMC2    O5  370   1.454   2.779  14.295  0.3275  0.1613  0.1503
   23TMC2    H5  371   1.407   2.797  14.380 -0.8879 -0.5487 -0.3725
   24MPD2     C  372   2.283   2.825  14.918 -0.4609 -0.1051 -0.1354
   24MPD2    C1  373   2.177   2.760  14.990  0.3703  0.1915 -0.0620
   24MPD2    C2  374   2.056   2.748  14.923 -0.3819 -0.2972  0.5271
   24MPD2    C3  375   2.032   2.797  14.792  0.0774 -0.4223 -0.1038
   24MPD2    C4  376   2.130   2.876  14.735  0.1140 -0.1443  0.5182
   24MPD2    C5  377   2.254   2.886  14.792 -0.0849 -0.0618 -0.1753
   24MPD2     H  378   1.976   2.698  14.977  0.3890 -1.8087  0.2816
   24MPD2    H1  379   2.107   2.937  14.649  0.3476 -0.9311 -0.1016
   24MPD2    H2  380   2.382   2.836  14.959  0.4651 -0.8404 -2.1988
   24MPD2    H3  381   2.337   2.939  14.747 -1.0923  0.2344 -1.6640
   24MPD2     N  382   1.915   2.777  14.714 -0.1468  0.1409  0.5452
   24MPD2    H5  383   1.912   2.815  14.620 -1.0799 -3.6209 -0.9415
   24MPD2    N1  384   2.191   2.690  15.114 -0.0725  0.0890 -0.3529
   24MPD2    H7  385   2.103   2.648  15.141 -0.0242 -0.1079 -0.4932
   25TMC2    C1  386   1.409   0.027  11.739  0.3178 -0.5309  0.8333
   25TMC2    C2  387   1.466   0.137  11.677  0.2554 -0.4744  0.4018
   25TMC2    C3  388   1.399   0.255  11.676 -0.9211  0.2962 -0.5857
   25TMC2    C4  389   1.296   0.040  11.806 -1.7125 -0.4916 -0.9111
   25TMC2    C5  390   1.229   0.159  11.801  0.4084 -0.1923  1.1755
   25TMC2    C6  391   1.277   0.270  11.733 -0.3612  0.2196  0.2777
   25TMC2     C  392   1.488   4.639  11.747  0.0197  0.4868 -0.0496
   25TMC2     O  393   1.597   4.657  11.700  0.3307  0.3420  0.4244
   25TMC2     H  394   1.564   0.129  11.631  0.9194  3.3143  1.1292
   25TMC2    H1  395   1.260   4.693  11.863  1.8385  0.2669  2.5183
   25TMC2    H2  396   1.238   0.371  11.748  0.3172  0.9375 -2.8670
   25TMC2    C7  397   1.092   0.151  11.841 -0.8581 -0.0793 -0.2974
   25TMC2    C8  398   1.442   0.380  11.613  0.0899  0.3739  0.4850
   25TMC2    O1  399   1.076   0.084  11.943 -0.0871 -0.8324 -0.2242
   25TMC2    O2  400   1.362   0.463  11.571  0.8783 -0.7257  0.5125
   25TMC2    O5  401   1.574   0.392  11.620 -0.3029 -0.2952 -0.0935
   25TMC2    H5  402   1.607   0.330  11.688 -1.2317  1.7118  2.1864
   26MPD2     C  403   1.498   4.134  11.619 -0.2019  0.4819  0.5779
   26MPD2    C1  404   1.373   4.169  11.635  0.9849  0.5220  0.3621
   26MPD2    C2  405   1.341   4.296  11.688 -0.9092 -0.1678 -0.2460
   26MPD2    C3  406   1.438   4.392  11.716  0.3532  0.2491  0.5453
   26MPD2    C4  407   1.564   4.357  11.681  0.3670 -0.6958 -0.2201
   26MPD2    C5  408   1.597   4.233  11.637 -0.3116  0.0663  0.8501
   26MPD2     H  409   1.237   4.322  11.703 -0.6250  1.5184 -1.1605
   26MPD2    H1  410   1.650   4.422  11.692 -0.2499  0.0183  0.3153
   26MPD2    H2  411   1.522   4.031  11.598  0.1500  0.6403  0.2102
   26MPD2    H3  412   1.698   4.206  11.607 -0.4808  0.1423  0.1948
   26MPD2     N  413   1.401   4.531  11.738  0.2130 -0.3922  0.3831
   26MPD2    H5  414   1.302   4.547  11.753  0.1101  0.2227 -0.9497
   26MPD2    N1  415   1.274   4.078  11.584 -0.3716  0.3857 -0.9521
   26MPD2    H7  416   1.302   3.995  11.532 -1.9437  0.6632 -2.2034
   27TMC2    C1  417   4.617   1.995  11.866 -0.8256 -0.4637  0.3558
   27TMC2    C2  418   4.689   2.028  11.752  0.5173  0.3725 -0.7969
   27TMC2    C3  419   4.680   2.155  11.702 -0.2049  0.0841  0.3155
   27TMC2    C4  420   4.523   2.085  11.906 -0.1287 -0.1377  0.6932
   27TMC2    C5  421   4.516   2.213  11.856  0.4144  0.0290  0.3335
   27TMC2    C6  422   4.595   2.249  11.747  0.2497  0.1361  0.4635
   27TMC2     C  423   4.580   1.855  11.890 -0.0142  0.4202 -0.2076
   27TMC2     O  424   4.576   1.781  11.789 -0.2002  0.5616 -0.5149
   27TMC2     H  425   0.022   1.955  11.716  0.5371 -0.5543  1.1036
   27TMC2    H1  426   4.454   2.061  11.987 -0.8615 -2.0161 -0.4993
   27TMC2    H2  427   4.610   2.347  11.702  0.5060 -0.4083 -0.6482
   27TMC2    C7  428   4.474   2.321  11.933  0.0401  0.0322 -0.1334
   27TMC2    C8  429   0.039   2.201  11.612  0.4718 -0.6190  0.3192
   27TMC2    O1  430   4.470   2.428  11.876  0.4501  0.3226  0.1903
   27TMC2    O2  431   0.023   2.292  11.528  0.0123  0.4760 -0.2077
   27TMC2    O5  432   0.155   2.149  11.653 -0.1150  0.0527 -0.0895
   27TMC2    H5  433   0.151   2.083  11.725  1.5867 -0.3228 -0.3413
   28MPD2     C  434   4.376   1.483  12.152 -0.0594  0.6496 -0.0478
   28MPD2    C1  435   4.382   1.593  12.233  0.0985 -0.6099 -0.0509
   28MPD2    C2  436   4.445   1.702  12.189 -0.1036 -1.0875 -0.5240
   28MPD2    C3  437   4.495   1.707  12.066  0.2762 -0.0333 -0.2375
   28MPD2    C4  438   4.499   1.597  11.988 -0.4535 -0.4815  0.3694
   28MPD2    C5  439   4.457   1.481  12.043 -0.1368  0.0673 -0.1969
   28MPD2     H  440   4.437   1.792  12.248  3.1753 -1.0489 -0.1606
   28MPD2    H1  441   4.562   1.592  11.900  0.8262  1.4319  1.1726
   28MPD2    H2  442   4.317   1.396  12.178 -0.9697  1.6879  1.3734
   28MPD2    H3  443   4.457   1.397  11.975 -0.1365 -0.1572  0.0808
   28MPD2     N  444   4.537   1.832  12.019  0.2049 -0.2143 -0.8244
   28MPD2    H5  445   4.545   1.904  12.090  1.5962 -0.4061 -0.7753
   28MPD2    N1  446   4.283   1.602  12.339 -0.3461  0.3217 -0.2944
   28MPD2    H7  447   4.213   1.529  12.345 -0.0657  0.0353 -0.5347
   29TMC2    C1  448   4.123   4.248  14.294 -0.5215  0.5492  0.0836
   29TMC2    C2  449   4.104   4.310  14.415  0.1231  0.9081 -0.9647
   29TMC2    C3  450   4.061   4.436  14.404 -0.4132 -0.1092 -0.1340
   29TMC2    C4  451   4.119   4.310  14.180 -0.2566 -1.1179  0.1834
   29TMC2    C5  452   4.096   4.442  14.174 -0.7497 -0.7029 -0.8784
   29TMC2    C6  453   4.073   4.510  14.292  0.3750  0.8683 -0.2144
   29TMC2     C  454   4.157   4.106  14.276  0.0826 -0.8143 -0.4823
   29TMC2     O  455   4.105   4.052  14.176  0.6322  0.2095 -0.2082
   29TMC2     H  456   4.108   4.255  14.509 -3.6380 -2.4256 -2.7528
   29TMC2    H1  457   4.157   4.262  14.091  1.9408 -0.9170  1.0267
   29TMC2    H2  458   4.042   4.614  14.288  3.0434  1.6127 -1.3670
   29TMC2    C7  459   4.145   4.510  14.057  0.1673  0.2242  0.2562
   29TMC2    C8  460   4.032   4.501  14.535  0.2485 -0.0244 -0.4938
   29TMC2    O1  461   4.123   4.461  13.947  0.0281  0.3784 -0.4023
   29TMC2    O2  462   3.994   4.447  14.639 -0.1873 -0.3938 -0.1500
   29TMC2    O5  463   4.075   4.631  14.512 -0.3817 -0.0658 -0.0757
   29TMC2    H5  464   4.141   4.628  14.439 -1.2661  0.6631 -0.9071
   30MPD2     C  465   4.343   3.646  14.392  0.9197  0.1553 -0.2570
   30MPD2    C1  466   4.310   3.707  14.275 -0.2267  0.1265  0.2363
   30MPD2    C2  467   4.274   3.837  14.272  0.5432 -0.0901  0.3061
   30MPD2    C3  468   4.269   3.914  14.382  0.6738  0.5569 -0.1663
   30MPD2    C4  469   4.310   3.858  14.491  0.8572  0.1655 -0.3478
   30MPD2    C5  470   4.345   3.728  14.507 -0.3084  0.1891 -1.1642
   30MPD2     H  471   4.253   3.882  14.175  3.2069  0.5552  0.0175
   30MPD2    H1  472   4.302   3.914  14.583 -2.3533 -1.9467  0.6682
   30MPD2    H2  473   4.368   3.540  14.402 -0.0160 -0.0453 -0.0774
   30MPD2    H3  474   4.353   3.690  14.608 -0.2381 -0.1783 -1.3096
   30MPD2     N  475   4.209   4.043  14.385  0.6290  0.0286 -0.1366
   30MPD2    H5  476   4.218   4.099  14.468 -0.6236 -0.8844  0.6150
   30MPD2    N1  477   4.299   3.639  14.160  0.5545  0.3187 -0.0632
   30MPD2    H7  478   4.275   3.697  14.080 -2.4358  0.1173  0.6679
   31TMC2    C1  479   1.582   2.957  15.575  0.6093 -0.7516 -0.0842
   31TMC2    C2  480   1.463   2.978  15.516  0.8223 -0.0921  0.3601
   31TMC2    C3  481   1.354   2.962  15.592  0.4094 -0.1923  0.0642
   31TMC2    C4  482   1.597   2.937  15.711  0.6220 -0.8320 -0.0204
   31TMC2    C5  483   1.479   2.936  15.785  0.1849 -0.2720  0.4046
   31TMC2    C6  484   1.354   2.952  15.729  0.3635 -0.3951 -0.0828
   31TMC2     C  485   1.705   2.986  15.496 -0.1717 -0.0663  1.1464
   31TMC2     O  486   1.684   3.015  15.381  0.1187 -0.0733  0.0339
   31TMC2     H  487   1.464   2.992  15.409  1.2607 -1.1685  0.2228
   31TMC2    H1  488   1.693   2.900  15.746  0.5180  0.2659  1.4154
   31TMC2    H2  489   1.274   2.924  15.797 -0.2263 -1.5439 -1.2510
   31TMC2    C7  490   1.486   2.879  15.918 -0.6919 -0.4029  0.0590
   31TMC2    C8  491   1.221   2.992  15.544 -0.4039  0.2374  0.2585
   31TMC2    O1  492   1.403   2.796  15.947 -0.1000 -0.3473 -0.5527
   31TMC2    O2  493   1.129   3.021  15.620  0.0748  0.1702 -0.4005
   31TMC2    O5  494   1.213   2.985  15.408  0.3649  0.8254 -0.1598
   31TMC2    H5  495   1.288   2.936  15.370  0.7549  1.3900 -0.1162
   32MPD2     C  496   2.201   2.981  15.397  0.2835  0.6623  0.0057
   32MPD2    C1  497   2.093   3.023  15.313  0.4035  0.2167 -0.1751
   32MPD2    C2  498   1.974   2.995  15.366  0.8508  0.4539  0.5364
   32MPD2    C3  499   1.952   2.989  15.507  0.4054 -0.5276 -0.2743
   32MPD2    C4  500   2.062   2.989  15.592 -0.2346  0.6921 -0.1389
   32MPD2    C5  501   2.183   2.961  15.534 -0.1360 -0.3918  0.3036
   32MPD2     H  502   1.894   3.015  15.295 -0.6883  0.5468  2.3111
   32MPD2    H1  503   2.058   2.982  15.700 -1.6154  1.4525 -0.1418
   32MPD2    H2  504   2.300   2.971  15.354 -0.1658 -0.8006 -0.6588
   32MPD2    H3  505   2.266   2.948  15.602 -1.4416 -1.4467  1.6936
   32MPD2     N  506   1.823   2.989  15.571  0.2734  0.3463  0.3475
   32MPD2    H5  507   1.820   2.981  15.672  0.0612 -0.3514  0.2819
   32MPD2    N1  508   2.104   3.070  15.176  0.1583  0.1489 -0.0898
   32MPD2    H7  509   2.019   3.087  15.124  0.0166  0.0560  0.1115
   33TMC2    C1  510   2.407   1.033  10.222 -0.2979  0.3853 -0.3021
   33TMC2    C2  511   2.386   0.952  10.117  0.5448  0.8070  0.4287
   33TMC2    C3  512   2.363   0.996   9.987 -0.6958 -0.7532 -0.4613
   33TMC2    C4  513   2.395   1.169  10.207  0.6404  0.8807 -1.2215
   33TMC2    C5  514   2.356   1.217  10.078 -0.4122  0.6448  0.4540
   33TMC2    C6  515   2.330   1.128   9.974 -0.1307  0.1641 -0.1547
   33TMC2     C  516   2.378   0.978  10.351  0.1343  0.5354 -0.3300
   33TMC2     O  517   2.340   0.863  10.350 -0.2502 -0.5835 -0.3084
   33TMC2     H  518   2.416   0.848  10.130  0.3091  0.5387 -1.2554
   33TMC2    H1  519   2.416   1.239  10.287 -0.5041 -1.2218  0.8725
   33TMC2    H2  520   2.306   1.178   9.881 -1.2631  2.3719  1.3121
   33TMC2    C7  521   2.380   1.347  10.054 -0.6231 -0.3530  0.0087
   33TMC2    C8  522   2.298   0.902   9.901  0.2046  0.2469 -0.4478
   33TMC2    O1  523   2.479   1.392  10.116 -0.2106  0.7049 -0.3474
   33TMC2    O2  524   2.298   0.781   9.923  0.9267 -0.0003 -0.2968
   33TMC2    O5  525   2.180   0.970   9.892  0.2941  0.3992 -0.0822
   33TMC2    H5  526   2.188   1.067   9.881  0.3120  0.3619 -0.4193
   34MPD2     C  527   2.273   1.002  10.850  0.3236  0.1339  0.1548
   34MPD2    C1  528   2.232   0.915  10.750  0.6298  0.2501  0.4738
   34MPD2    C2  529   2.280   0.930  10.622 -0.4979  0.3187 -0.2098
   34MPD2    C3  530   2.373   1.027  10.591  0.2032  0.1653  0.3975
   34MPD2    C4  531   2.413   1.115  10.694  0.3431 -0.1161  0.4685
   34MPD2    C5  532   2.362   1.101  10.817 -0.3302 -0.3769  0.7592
   34MPD2     H  533   2.240   0.860  10.550  2.4713 -0.9928 -0.5920
   34MPD2    H1  534   2.475   1.198  10.662 -0.0452  0.0643  0.1868
   34MPD2    H2  535   2.222   1.003  10.946 -2.1664 -2.2559 -1.1343
   34MPD2    H3  536   2.403   1.167  10.892 -0.1759  0.8400 -0.3971
   34MPD2     N  537   2.401   1.058  10.458 -0.1099  0.8560 -0.1762
   34MPD2    H5  538   2.458   1.141  10.448 -2.4127  2.2937 -1.2560
   34MPD2    N1  539   2.149   0.808  10.798 -0.2337  0.4178  0.0126
   34MPD2    H7  540   2.123   0.816  10.896 -1.2224  0.4997 -0.2659
   35TMC2    C1  541   3.499   2.015  11.452  0.1922 -0.4579  0.9072
   35TMC2    C2  542   3.409   2.090  11.374 -0.7652  0.4024  0.2424
   35TMC2    C3  543   3.275   2.083  11.402  0.1508 -0.3874  0.0482
   35TMC2    C4  544   3.449   1.937  11.549 -0.0413 -0.0788 -0.6455
   35TMC2    C5  545   3.314   1.941  11.576 -0.1241 -0.1597 -0.1518
   35TMC2    C6  546   3.229   2.019  11.511 -0.0274 -0.5692  0.0858
   35TMC2     C  547   3.643   2.016  11.421  0.1841 -0.2538 -0.4347
   35TMC2     O  548   3.670   2.110  11.348  0.4845  0.7549 -0.5691
   35TMC2     H  549   3.446   2.144  11.288  0.5909  1.6932  1.6123
   35TMC2    H1  550   3.516   1.880  11.613 -1.7920 -1.0716  0.3295
   35TMC2    H2  551   3.125   1.990  11.512 -0.1917  0.0059 -0.5145
   35TMC2    C7  552   3.275   1.869  11.706 -1.7475  0.1470  0.4086
   35TMC2    C8  553   3.184   2.169  11.335  0.4795 -0.7450  1.0557
   35TMC2    O1  554   3.360   1.807  11.767  0.1422 -0.1767 -0.0102
   35TMC2    O2  555   3.068   2.132  11.313  0.6513 -0.1275 -0.5028
   35TMC2    O5  556   3.246   2.280  11.281 -0.1465  0.4279  0.1572
   35TMC2    H5  557   3.328   2.311  11.325  0.2484 -0.0238 -0.2592
   36MPD2     C  558   4.125   1.818  11.404 -0.2316  0.3882 -0.0711
   36MPD2    C1  559   4.042   1.748  11.499  0.1992 -0.5977 -0.5180
   36MPD2    C2  560   3.903   1.785  11.517  0.5168 -0.1772 -0.3784
   36MPD2    C3  561   3.854   1.891  11.444 -0.3594 -0.4429  0.7790
   36MPD2    C4  562   3.927   1.958  11.345 -0.0729 -0.0298 -0.9850
   36MPD2    C5  563   4.063   1.918  11.334 -0.5167 -0.5735 -0.4167
   36MPD2     H  564   3.847   1.723  11.585  1.5737 -1.8541 -1.0518
   36MPD2    H1  565   3.895   2.042  11.284  0.4625 -0.0067 -1.2326
   36MPD2    H2  566   4.231   1.797  11.392 -0.3021 -0.0173  0.0046
   36MPD2    H3  567   4.126   1.969  11.262 -1.3487 -1.4861 -1.7915
   36MPD2     N  568   3.722   1.925  11.479  0.1460 -0.1341 -0.0489
   36MPD2    H5  569   3.678   1.865  11.548 -0.5298 -0.8467 -1.1024
   36MPD2    N1  570   4.111   1.666  11.583 -1.0060 -0.2681 -0.1897
   36MPD2    H7  571   4.213   1.666  11.580 -0.9882 -0.9427  0.4600
   37TMC2    C1  572   0.622   2.285  12.250  0.1987 -0.6186 -0.8274
   37TMC2    C2  573   0.530   2.296  12.153  0.2396 -0.5084  0.4642
   37TMC2    C3  574   0.575   2.297  12.025 -0.0759  0.6736 -1.0255
   37TMC2    C4  575   0.757   2.288  12.215  0.2476 -0.0679  0.2489
   37TMC2    C5  576   0.801   2.319  12.087 -0.0837 -0.2968  0.7517
   37TMC2    C6  577   0.708   2.317  11.987 -0.1673 -0.4881 -0.1211
   37TMC2     C  578   0.575   2.239  12.379 -0.4168  0.3267 -0.5864
   37TMC2     O  579   0.453   2.242  12.401 -0.3636  0.8557 -0.0097
   37TMC2     H  580   0.425   2.271  12.167 -0.0706  0.7983  0.5269
   37TMC2    H1  581   0.823   2.293  12.300  1.1475  0.9222 -0.5046
   37TMC2    H2  582   0.738   2.322  11.883  0.5827 -0.3929  0.1040
   37TMC2    C7  583   0.942   2.337  12.075 -0.0293  0.2364 -0.9028
   37TMC2    C8  584   0.475   2.282  11.921 -0.0415  0.1301  0.5430
   37TMC2    O1  585   1.009   2.276  12.162  0.8186  0.3869  0.2901
   37TMC2    O2  586   0.377   2.217  11.945  0.2977  0.3996  0.3470
   37TMC2    O5  587   0.496   2.382  11.832  0.0621 -0.4314  0.9380
   37TMC2    H5  588   0.546   2.456  11.873  0.2241 -0.3003  0.5045
   38MPD2     C  589   0.636   1.997  12.823 -0.5910  0.3685 -0.5577
   38MPD2    C1  590   0.719   1.938  12.730 -0.1508 -0.0705  0.2487
   38MPD2    C2  591   0.731   2.002  12.609 -0.4878 -0.7112  0.1373
   38MPD2    C3  592   0.659   2.112  12.576  0.5270 -0.5450  0.2950
   38MPD2    C4  593   0.577   2.165  12.669 -0.1189 -0.4015  0.1317
   38MPD2    C5  594   0.561   2.111  12.793  0.2237 -0.2961  0.3117
   38MPD2     H  595   0.804   1.970  12.536 -0.9270  0.7499 -0.9465
   38MPD2    H1  596   0.508   2.245  12.644 -0.1510 -0.7083 -0.7986
   38MPD2    H2  597   0.616   1.954  12.921 -2.6059  1.4150 -0.4972
   38MPD2    H3  598   0.494   2.158  12.865  1.0550  0.5375  0.5366
   38MPD2     N  599   0.674   2.172  12.442  0.0299  0.9844 -0.5338
   38MPD2    H5  600   0.759   2.144  12.394 -0.6554 -0.3200 -0.9817
   38MPD2    N1  601   0.768   1.805  12.732 -0.8706 -0.4765  0.1458
   38MPD2    H7  602   0.805   1.766  12.646  0.5061  2.5127 -0.6074
   39TMC2    C1  603   3.311   4.516   1.580 -0.4251 -0.6031  0.0546
   39TMC2    C2  604   3.214   4.576   1.654 -0.5999  0.6631  0.8933
   39TMC2    C3  605   3.243   4.713   1.680 -0.2392 -0.4243 -1.0506
   39TMC2    C4  606   3.427   4.576   1.543  0.4973 -0.1989 -0.1325
   39TMC2    C5  607   3.451   4.703   1.582 -0.5699  0.0758  0.5167
   39TMC2    C6  608   3.356   0.041   1.641 -0.0342 -0.5074 -0.3442
   39TMC2     C  609   3.292   4.375   1.551 -0.0393 -0.5763 -0.2437
   39TMC2     O  610   3.193   4.322   1.602 -0.2472  0.3340 -0.3740
   39TMC2     H  611   3.125   4.526   1.688 -1.3905  3.5133  3.0681
   39TMC2    H1  612   3.514   4.521   1.508  2.0939  1.5911  1.0308
   39TMC2    H2  613   3.376   0.144   1.670 -1.3583 -0.1604 -0.6538
   39TMC2    C7  614   3.560   0.038   1.528  0.4458  0.8660 -0.2177
   39TMC2    C8  615   3.147   0.039   1.760  0.8640  0.0365 -0.1622
   39TMC2    O1  616   3.558   0.159   1.552  0.1646 -0.3150 -0.1625
   39TMC2    O2  617   3.071   4.727   1.844  0.3135  1.1915 -0.7097
   39TMC2    O5  618   3.168   0.170   1.738  0.6077 -0.2272 -0.2270
   39TMC2    H5  619   3.180   0.195   1.644  2.4133 -0.8476 -0.1501
   40MPD2     C  620   3.530   4.124   1.456  0.5727 -0.1230 -1.1374
   40MPD2    C1  621   3.408   4.175   1.478  0.0873 -0.5409  0.3752
   40MPD2    C2  622   3.293   4.098   1.464 -0.4381  0.6282  0.0435
   40MPD2    C3  623   3.310   3.963   1.434  0.2279  0.6045 -0.2659
   40MPD2    C4  624   3.438   3.910   1.419  0.4429  0.1270 -0.5160
   40MPD2    C5  625   3.550   3.994   1.415 -1.0638  0.2025  0.3770
   40MPD2     H  626   3.194   4.140   1.478  0.4925  2.4821  1.2131
   40MPD2    H1  627   3.466   3.814   1.376 -1.3269 -1.4307  1.8557
   40MPD2    H2  628   3.625   4.176   1.461  0.1201  0.5298  0.8589
   40MPD2    H3  629   3.651   3.963   1.391 -1.9625 -4.0551  2.0327
   40MPD2     N  630   3.200   3.873   1.402  0.5009 -0.1322  0.5650
   40MPD2    H5  631   3.227   3.787   1.355  0.3467  1.4298 -2.3761
   40MPD2    N1  632   3.401   4.313   1.507 -0.0576  0.4298  0.8310
   40MPD2    H7  633   3.486   4.369   1.501 -0.4444  1.0277  0.8543
   41TMC2    C1  634   2.933   2.331  13.570  0.8630 -0.3434  0.3740
   41TMC2    C2  635   2.820   2.407  13.547  0.3796  0.3576  0.1268
   41TMC2    C3  636   2.817   2.476  13.424 -0.0591  1.2574 -0.4013
   41TMC2    C4  637   3.025   2.306  13.469  0.5193 -0.5788  0.7284
   41TMC2    C5  638   3.014   2.368  13.352 -0.9961  0.2968 -0.1298
   41TMC2    C6  639   2.909   2.450  13.326  0.3370 -0.5680  0.4239
   41TMC2     C  640   2.966   2.292  13.698 -0.1114 -0.1749  0.8097
   41TMC2     O  641   3.080   2.243  13.712  0.3240 -0.3512  0.7874
   41TMC2     H  642   2.736   2.416  13.616 -0.5434 -0.9550 -0.8350
   41TMC2    H1  643   3.117   2.255  13.496  0.4289  0.3807  2.8885
   41TMC2    H2  644   2.902   2.498  13.229  0.7046  1.0668  1.2030
   41TMC2    C7  645   3.137   2.374  13.273 -0.1134 -0.0346 -0.3067
   41TMC2    C8  646   2.703   2.543  13.375  0.6518 -0.0858 -0.1734
   41TMC2    O1  647   3.241   2.408  13.325  0.2867 -0.3527 -0.4257
   41TMC2    O2  648   2.670   2.559  13.258  0.1477  0.0042 -0.4305
   41TMC2    O5  649   2.650   2.625  13.475  0.5055  0.0285 -0.2973
   41TMC2    H5  650   2.692   2.618  13.563 -0.7445 -0.8582  0.2309
   42MPD2     C  651   3.033   2.312  13.981  0.3018  0.0660  0.3715
   42MPD2    C1  652   2.903   2.311  13.932 -0.0017 -0.0761 -0.2072
   42MPD2    C2  653   2.795   2.310  14.024 -0.0725  0.5845 -0.4722
   42MPD2    C3  654   2.817   2.321  14.165 -0.4894 -0.4106  0.6074
   42MPD2    C4  655   2.947   2.310  14.206  0.6738  0.0389  0.4007
   42MPD2    C5  656   3.049   2.306  14.117 -0.1701  1.1006 -0.4138
   42MPD2     H  657   2.690   2.307  13.998 -0.4158  1.0101  0.8658
   42MPD2    H1  658   2.962   2.293  14.312 -0.9757 -1.3939  0.4215
   42MPD2    H2  659   3.124   2.321  13.922 -0.1602  1.2340 -0.1650
   42MPD2    H3  660   3.149   2.287  14.155 -0.2964 -2.6513 -1.9209
   42MPD2     N  661   2.711   2.336  14.261  0.3311  0.1931  0.1396
   42MPD2    H5  662   2.738   2.363  14.355 -0.0937  2.4352 -0.3925
   42MPD2    N1  663   2.874   2.317  13.795  0.4938  0.5552 -0.2411
   42MPD2    H7  664   2.778   2.327  13.764  0.2787  0.7923  0.5212
   43TMC2    C1  665   3.658   0.790   0.447 -0.1202 -0.9370 -0.1028
   43TMC2    C2  666   3.542   0.704   0.446  0.7333  0.9682 -0.3649
   43TMC2    C3  667   3.466   0.730   0.560 -0.1360  0.6774 -0.1627
   43TMC2    C4  668   3.694   0.877   0.544  0.2771 -0.3768  0.3454
   43TMC2    C5  669   3.605   0.891   0.653 -0.3516 -0.1348 -1.1075
   43TMC2    C6  670   3.490   0.820   0.661  0.4547  0.5062  0.6440
   43TMC2     C  671   3.751   0.770   0.338 -0.5123 -0.1381  0.0948
   43TMC2     O  672   3.714   0.676   0.270 -0.2404 -0.1522  0.0387
   43TMC2     H  673   3.524   0.620   0.379  0.9565  0.9228 -0.3696
   43TMC2    H1  674   3.777   0.946   0.538  0.0428 -0.2292 -1.3295
   43TMC2    H2  675   3.419   0.843   0.739  0.5487  1.2320  0.5168
   43TMC2    C7  676   3.641   0.996   0.752  0.8908  0.2251 -0.2271
   43TMC2    C8  677   3.362   0.633   0.597 -0.3324  0.3128  0.6225
   43TMC2    O1  678   3.721   1.078   0.706 -0.2657 -0.5059 -0.6231
   43TMC2    O2  679   3.344   0.605   0.715 -0.2903  0.2575  0.0206
   43TMC2    O5  680   3.313   0.569   0.486  0.0544 -0.3213 -0.1182
   43TMC2    H5  681   3.320   0.625   0.406 -0.7212 -0.5719 -0.3629
   44MPD2     C  682   4.199   0.853   0.084  0.0990 -0.4312  0.1587
   44MPD2    C1  683   4.118   0.739   0.086  0.2181  0.8859  0.4071
   44MPD2    C2  684   3.995   0.743   0.157 -0.2993 -0.3224  0.0721
   44MPD2    C3  685   3.954   0.856   0.227  0.0720  1.3279 -0.3407
   44MPD2    C4  686   4.047   0.952   0.231  0.2842 -0.0930 -0.0650
   44MPD2    C5  687   4.159   0.953   0.154 -0.2973 -0.4081 -0.2102
   44MPD2     H  688   3.943   0.649   0.176 -0.7986  0.1934  1.2284
   44MPD2    H1  689   4.029   1.030   0.303  2.3257  0.3537 -0.0348
   44MPD2    H2  690   4.292   0.869   0.031 -0.4359  2.4114  0.0713
   44MPD2    H3  691   4.228   1.037   0.162 -1.6424  0.6592  0.1511
   44MPD2     N  692   3.844   0.867   0.318  0.7040 -0.1756  0.3440
   44MPD2    H5  693   3.829   0.966   0.338 -1.1115 -1.0416  3.2326
   44MPD2    N1  694   4.142   0.632  17.750  0.5136 -0.3121  0.7693
   44MPD2    H7  695   4.063   0.569  17.750  0.4341 -0.2131 -0.3308
   45TMC2    C1  696   0.285   2.803   9.559  0.2275  0.5231 -0.2739
   45TMC2    C2  697   0.214   2.880   9.469  0.2478  0.7916  0.5641
   45TMC2    C3  698   0.239   3.019   9.463  0.2167  0.2676  0.2385
   45TMC2    C4  699   0.367   2.864   9.649 -0.7359  0.2270  0.6325
   45TMC2    C5  700   0.366   2.999   9.656 -0.2474 -0.1303 -0.3113
   45TMC2    C6  701   0.305   3.084   9.564  0.3047 -0.4703  0.1315
   45TMC2     C  702   0.256   2.666   9.568 -0.0909  0.4578  0.2228
   45TMC2     O  703   0.323   2.592   9.636 -0.0280 -0.6196  0.1666
   45TMC2     H  704   0.157   2.831   9.391 -0.5801  3.5882 -0.5576
   45TMC2    H1  705   0.415   2.801   9.722 -2.2335 -0.7040  0.8129
   45TMC2    H2  706   0.320   3.191   9.574  0.4683 -0.6438  1.7585
   45TMC2    C7  707   0.451   3.064   9.751 -0.0395  0.0756  0.9559
   45TMC2    C8  708   0.166   3.098   9.366 -0.8560  0.0100  0.3743
   45TMC2    O1  709   0.418   3.179   9.774  0.1299 -0.3815 -0.0380
   45TMC2    O2  710   0.062   3.055   9.317  0.2378  0.5673  1.0011
   45TMC2    O5  711   0.209   3.223   9.376  0.1298  0.0405  0.0888
   45TMC2    H5  712   0.302   3.230   9.406  0.8959 -0.2677 -2.1928
   46MPD2     C  713   0.088   2.413   9.584  0.3871 -0.2455 -0.1411
   46MPD2    C1  714   0.045   2.541   9.551 -0.2294  0.5613 -1.0794
   46MPD2    C2  715   4.649   2.559   9.519  0.2038  0.2234  0.2401
   46MPD2    C3  716   4.566   2.453   9.509 -0.8160  0.2059  0.1146
   46MPD2    C4  717   4.612   2.321   9.531 -0.0752  0.1955  0.1060
   46MPD2    C5  718   0.004   2.308   9.567  0.3311 -0.2795 -0.2352
   46MPD2     H  719   4.616   2.658   9.491 -0.2598 -0.1581 -0.5598
   46MPD2    H1  720   4.546   2.235   9.527 -1.8423  1.5156  0.5707
   46MPD2    H2  721   0.188   2.393   9.619  0.5481 -0.5887 -0.7861
   46MPD2    H3  722   0.044   2.208   9.582  0.1858 -0.1855  0.7344
   46MPD2     N  723   4.425   2.476   9.493  0.1863  0.1524 -0.9947
   46MPD2    H5  724   4.399   2.574   9.501 -1.0682 -0.3686  1.4124
   46MPD2    N1  725   0.122   2.655   9.545  0.0684  1.1135 -0.0331
   46MPD2    H7  726   0.074   2.742   9.525 -0.3843  0.9339  0.2829
   47TMC2    C1  727   2.720   3.600   9.677 -0.0380  0.0358  0.0691
   47TMC2    C2  728   2.695   3.486   9.601 -0.0447  0.4360 -0.3151
   47TMC2    C3  729   2.563   3.458   9.574 -0.9379 -1.1816 -0.3889
   47TMC2    C4  730   2.615   3.683   9.721 -0.3373  0.2471  0.2242
   47TMC2    C5  731   2.490   3.647   9.683  0.2110 -0.0487  0.1506
   47TMC2    C6  732   2.465   3.534   9.612  0.1369 -0.4078 -0.6699
   47TMC2     C  733   2.829   3.583   9.765 -0.0556 -0.5775 -0.6099
   47TMC2     O  734   2.842   3.665   9.855 -0.6954 -0.2372  0.2545
   47TMC2     H  735   2.774   3.435   9.549 -1.1702 -2.1967  0.5536
   47TMC2    H1  736   2.629   3.773   9.779  2.2471  0.5213 -0.8289
   47TMC2    H2  737   2.366   3.491   9.606 -0.3046  0.5344 -0.0274
   47TMC2    C7  738   2.372   3.697   9.749 -0.1752  0.2602 -0.6026
   47TMC2    C8  739   2.529   3.349   9.482  0.1278  0.2295  0.1652
   47TMC2    O1  740   2.269   3.687   9.684 -0.2489 -0.6888 -0.1044
   47TMC2    O2  741   2.430   3.344   9.418 -0.3049 -0.5759  0.2099
   47TMC2    O5  742   2.630   3.258   9.484  0.2651  0.3252 -0.0890
   47TMC2    H5  743   2.697   3.265   9.555  1.1219  0.5978 -0.9235
   48MPD2     C  744   3.090   3.539   9.881 -0.2332 -0.0425  0.2945
   48MPD2    C1  745   3.016   3.435   9.833  0.2667  0.2301 -0.1833
   48MPD2    C2  746   3.070   3.309   9.828  0.5543 -0.1977 -0.3572
   48MPD2    C3  747   3.197   3.280   9.874  0.4204 -0.3298 -0.1032
   48MPD2    C4  748   3.268   3.385   9.933  0.3622 -0.4435  0.3485
   48MPD2    C5  749   3.206   3.511   9.939  0.3008  0.5519  0.4369
   48MPD2     H  750   3.017   3.236   9.768 -1.0333 -1.0803  2.0869
   48MPD2    H1  751   3.372   3.383   9.962  0.2457  1.1936  0.8700
   48MPD2    H2  752   3.052   3.640   9.893 -0.2483  0.2966 -2.5286
   48MPD2    H3  753   3.261   3.594   9.982 -0.6619  1.8372 -0.8181
   48MPD2     N  754   3.247   3.149   9.853 -0.2169 -0.0394  0.5793
   48MPD2    H5  755   3.183   3.078   9.819 -1.5427  0.8941  1.1368
   48MPD2    N1  756   2.891   3.461   9.770  0.4878 -0.2043 -0.0690
   48MPD2    H7  757   2.855   3.382   9.718  0.6108  0.3571 -1.0084
   49TMC2    C1  758   0.932   4.707  10.643  0.5186  0.0291 -0.0298
   49TMC2    C2  759   0.915   4.676  10.509  0.2674  0.1584  0.1366
   49TMC2    C3  760   0.872   4.556  10.469  0.1030  0.0630  0.1262
   49TMC2    C4  761   0.903   4.608  10.733 -0.6068 -1.1294 -0.7857
   49TMC2    C5  762   0.858   4.488  10.687 -0.2339 -0.7987  1.3938
   49TMC2    C6  763   0.842   4.461  10.558  0.6328 -0.0552 -0.7934
   49TMC2     C  764   1.036   0.059  10.676 -0.3185 -0.1026 -0.4157
   49TMC2     O  765   1.120   0.085  10.590 -0.1238 -0.4804 -0.1283
   49TMC2     H  766   0.937   0.015  10.437 -0.1602  2.2419  2.2226
   49TMC2    H1  767   0.897   4.642  10.836 -2.8825 -1.7232 -0.7107
   49TMC2    H2  768   0.811   4.364  10.521 -0.6334 -0.6314  1.7608
   49TMC2    C7  769   0.813   4.380  10.776 -0.2454  0.4413  0.0718
   49TMC2    C8  770   0.856   4.531  10.328 -0.3944  0.2184  0.0807
   49TMC2    O1  771   0.715   4.320  10.730 -0.0717  0.1807 -0.5555
   49TMC2    O2  772   0.908   4.607  10.251 -0.0696 -0.1411 -0.6798
   49TMC2    O5  773   0.733   4.478  10.305 -0.0372 -0.3665  0.0472
   49TMC2    H5  774   0.688   4.454  10.389  0.3880  1.0872  0.6946
   50MPD2     C  775   1.180   0.299  10.769 -0.0247 -0.2155 -0.0892
   50MPD2    C1  776   1.074   0.245  10.840  0.6261 -0.0354  0.7327
   50MPD2    C2  777   1.017   0.319  10.940  0.1380 -0.3051  0.4508
   50MPD2    C3  778   1.077   0.445  10.973 -0.2902 -0.2897 -0.1410
   50MPD2    C4  779   1.185   0.487  10.905  0.1297 -0.2251  0.4896
   50MPD2    C5  780   1.234   0.419  10.804 -0.1301  0.3418  0.8769
   50MPD2     H  781   0.926   0.288  10.989  0.2855 -0.9536  0.3143
   50MPD2    H1  782   1.228   0.581  10.938  1.7291 -0.5768 -0.6355
   50MPD2    H2  783   1.235   0.257  10.686 -0.0491 -2.1472  0.8681
   50MPD2    H3  784   1.324   0.450  10.751 -0.2262  0.7172  0.9308
   50MPD2     N  785   1.011   0.531  11.063 -0.2349  0.6397 -0.3223
   50MPD2    H5  786   1.037   0.628  11.047  0.6554  0.3075 -0.9196
   50MPD2    N1  787   1.007   0.123  10.791  0.0507  0.2842  0.2829
   50MPD2    H7  788   0.926   0.094  10.846 -0.3396 -0.2743 -0.5808
   51TMC2    C1  789   0.789   4.061   0.815 -0.8803 -0.3415 -0.5848
   51TMC2    C2  790   0.699   4.025   0.715 -0.3753 -0.0215 -0.5645
   51TMC2    C3  791   0.616   4.124   0.670  0.1700  0.7174  0.8288
   51TMC2    C4  792   0.808   4.191   0.856  0.4861 -0.0274 -0.3529
   51TMC2    C5  793   0.736   4.289   0.792  0.6265  0.4201  0.1358
   51TMC2    C6  794   0.632   4.258   0.705  0.0756  0.2051  0.1866
   51TMC2     C  795   0.852   3.956   0.892  0.4357 -0.1086 -0.0970
   51TMC2     O  796   0.822   3.844   0.862 -0.1800  0.1002  0.4756
   51TMC2     H  797   0.698   3.923   0.679  0.4780  0.8523 -3.1128
   51TMC2    H1  798   0.892   4.217   0.919  0.4989 -0.6837 -0.1014
   51TMC2    H2  799   0.568   4.337   0.668  0.0231 -0.8602 -2.0039
   51TMC2    C7  800   0.778   4.424   0.825 -0.3302  0.0929  0.0483
   51TMC2    C8  801   0.527   4.091   0.567 -0.4059  0.2054 -0.4157
   51TMC2    O1  802   0.893   4.439   0.866 -0.3980 -0.1151 -0.0078
   51TMC2    O2  803   0.478   4.178   0.498  0.2483 -0.0235 -0.8653
   51TMC2    O5  804   0.450   3.996   0.616  0.0849  0.3702  0.2675
   51TMC2    H5  805   0.484   3.928   0.678 -1.1383  1.1147  1.7430
   52MPD2     C  806   1.147   3.810   1.282 -1.3300 -0.1445 -0.2550
   52MPD2    C1  807   1.102   3.735   1.168  0.0347 -0.7262  0.4851
   52MPD2    C2  808   1.032   3.800   1.069  0.6318 -0.3397 -0.4016
   52MPD2    C3  809   0.995   3.931   1.096  0.1714 -0.4539 -0.3969
   52MPD2    C4  810   1.033   3.989   1.214  0.3389 -0.3019 -1.0245
   52MPD2    C5  811   1.102   3.932   1.311 -0.3049 -0.9622  0.8419
   52MPD2     H  812   1.001   3.743   0.982  3.0143 -0.0222 -1.4306
   52MPD2    H1  813   1.017   4.094   1.232  1.0987 -0.5592  1.2072
   52MPD2    H2  814   1.206   3.768   1.363 -0.1461  1.2952 -0.3593
   52MPD2    H3  815   1.136   3.992   1.395 -1.9635  1.8919 -0.5374
   52MPD2     N  816   0.918   4.005   1.004  0.3304 -0.0057 -0.0161
   52MPD2    H5  817   0.911   4.106   1.017 -2.7520 -0.4047  1.3581
   52MPD2    N1  818   1.137   3.599   1.154 -0.1935 -0.2365  0.6527
   52MPD2    H7  819   1.120   3.560   1.062 -1.0262 -2.5955  1.8107
   53TMC2    C1  820   1.622   2.456  12.237 -0.3055 -0.4820 -0.0385
   53TMC2    C2  821   1.750   2.483  12.268  0.0136  0.0961 -0.3396
   53TMC2    C3  822   1.791   2.480  12.395 -0.0114  0.2015 -0.0821
   53TMC2    C4  823   1.532   2.415  12.339  0.0132 -0.4907 -0.0074
   53TMC2    C5  824   1.575   2.404  12.467 -0.6448 -0.0410 -0.4011
   53TMC2    C6  825   1.706   2.438  12.502 -0.3210  0.2705 -0.2870
   53TMC2     C  826   1.572   2.468  12.105 -0.4305 -0.0025 -0.4784
   53TMC2     O  827   1.627   2.527  12.015 -0.4510  0.6394 -0.5765
   53TMC2     H  828   1.816   2.506  12.186  0.3857 -0.6023 -0.2386
   53TMC2    H1  829   1.426   2.402  12.321 -0.2777 -0.7021  1.9036
   53TMC2    H2  830   1.743   2.434  12.604  1.2404  0.8352 -0.8172
   53TMC2    C7  831   1.476   2.376  12.559  0.1736 -0.0974 -0.5905
   53TMC2    C8  832   1.912   2.550  12.432 -0.2706  1.0673 -0.7456
   53TMC2    O1  833   1.369   2.441  12.551 -0.1787  0.2265  0.4077
   53TMC2    O2  834   1.938   2.561  12.550  0.4715 -1.0190  0.3054
   53TMC2    O5  835   1.981   2.586  12.328 -0.1994 -0.2007  0.1275
   53TMC2    H5  836   2.070   2.614  12.357 -0.1405  1.1768 -1.4110
   54MPD2     C  837   1.376   2.531  11.869  0.1229  0.2417 -0.5390
   54MPD2    C1  838   1.351   2.462  11.987  0.6483 -0.1159 -0.4557
   54MPD2    C2  839   1.222   2.426  12.021 -0.7762  0.4898 -0.4481
   54MPD2    C3  840   1.119   2.451  11.928 -0.6791  0.1733 -0.2872
   54MPD2    C4  841   1.140   2.524  11.818 -0.6063  1.0673  0.7042
   54MPD2    C5  842   1.267   2.555  11.777  0.0040 -0.2330  0.4336
   54MPD2     H  843   1.213   2.384  12.120 -1.2827  2.3564  0.2813
   54MPD2    H1  844   1.061   2.549  11.748  0.3804  0.1350 -0.7564
   54MPD2    H2  845   1.475   2.574  11.854  0.1513  0.0797 -0.8085
   54MPD2    H3  846   1.276   2.602  11.680 -4.2465  0.2396  0.2522
   54MPD2     N  847   0.983   2.418  11.964  0.0280  0.2752  0.2116
   54MPD2    H5  848   0.911   2.455  11.903 -1.9048 -3.3616  0.2661
   54MPD2    N1  849   1.439   2.428  12.094  0.3177 -0.1676 -0.0799
   54MPD2    H7  850   1.404   2.371  12.170 -1.6543 -1.8456 -2.2483
   55TMC2    C1  851   2.328   0.500   0.173  0.2663 -0.8142  0.4073
   55TMC2    C2  852   2.423   0.587   0.223  0.0011  0.0551 -0.1555
   55TMC2    C3  853   2.547   0.542   0.252 -0.1793  0.0848  0.2423
   55TMC2    C4  854   2.348   0.363   0.169  0.4072 -0.5691  0.6129
   55TMC2    C5  855   2.469   0.318   0.211  0.6250 -0.2544 -0.1467
   55TMC2    C6  856   2.571   0.407   0.251 -0.5068  0.6042  0.0176
   55TMC2     C  857   2.191   0.545   0.166  0.6622  0.5990  0.4967
   55TMC2     O  858   2.100   0.462   0.183 -0.1457  0.6676 -0.1909
   55TMC2     H  859   2.399   0.692   0.225 -0.1427  0.0096  0.4261
   55TMC2    H1  860   2.279   0.292   0.124 -0.7727  1.6595 -1.0809
   55TMC2    H2  861   2.665   0.363   0.281 -0.9121 -0.1317  0.1969
   55TMC2    C7  862   2.493   0.184   0.255 -0.3208 -0.1747  0.1845
   55TMC2    C8  863   2.653   0.624   0.295 -0.3706  0.6220  0.1237
   55TMC2    O1  864   2.607   0.144   0.268 -0.1792  0.4345  0.4639
   55TMC2    O2  865   2.769   0.587   0.291  0.0676 -0.3845 -0.3206
   55TMC2    O5  866   2.607   0.741   0.350 -0.0383 -0.1469 -0.1838
   55TMC2    H5  867   2.511   0.733   0.367  0.1470 -1.0265  0.4152
   56MPD2     C  868   2.087   0.880   0.089  0.0898  0.1382 -0.6192
   56MPD2    C1  869   2.087   0.764   0.157 -0.6040  0.0523  0.7980
   56MPD2    C2  870   1.977   0.733   0.236 -0.8919 -0.2709  0.4190
   56MPD2    C3  871   1.867   0.821   0.244  0.6078  0.2770  0.1009
   56MPD2    C4  872   1.872   0.943   0.175 -0.1049  0.0488 -0.0622
   56MPD2    C5  873   1.988   0.970   0.101  0.1245 -0.1783 -0.1210
   56MPD2     H  874   1.964   0.630   0.266 -0.8115 -0.0374  1.2520
   56MPD2    H1  875   1.794   1.019   0.169  0.4348  0.5003 -1.4408
   56MPD2    H2  876   2.165   0.890   0.015  0.3564 -0.9634 -0.4944
   56MPD2    H3  877   1.982   1.056   0.035  1.3455  0.7417  0.9597
   56MPD2     N  878   1.745   0.776   0.308 -0.3773  0.1931  0.1012
   56MPD2    H5  879   1.744   0.678   0.335 -0.8915  0.4426  1.0215
   56MPD2    N1  880   2.188   0.676   0.134 -0.1650 -0.4093 -0.6326
   56MPD2    H7  881   2.269   0.722   0.094  0.4762 -0.8732  0.1364
   57TMC2    C1  882   1.651   0.719  14.028 -0.2785  0.8088 -0.0044
   57TMC2    C2  883   1.774   0.746  14.081  0.4529 -0.1174  0.6878
   57TMC2    C3  884   1.882   0.702  14.011  0.1140 -0.8968 -0.0091
   57TMC2    C4  885   1.635   0.647  13.917 -0.6094  0.0750  0.8812
   57TMC2    C5  886   1.746   0.609  13.845  0.2820  0.5103 -0.1839
   57TMC2    C6  887   1.873   0.642  13.891  0.2536 -0.3268  0.7063
   57TMC2     C  888   1.531   0.782  14.087  0.0496 -0.1594 -0.1053
   57TMC2     O  889   1.547   0.852  14.186 -0.5999  0.9347  0.3270
   57TMC2     H  890   1.778   0.814  14.165 -0.6613  1.0520 -0.2071
   57TMC2    H1  891   1.538   0.643  13.870  0.7230 -1.9143 -1.6745
   57TMC2    H2  892   1.960   0.622  13.829  2.1004  2.4690  2.4105
   57TMC2    C7  893   1.727   0.568  13.705 -1.4022  0.5490 -0.3188
   57TMC2    C8  894   2.017   0.747  14.055 -0.5605 -1.0879 -1.0040
   57TMC2    O1  895   1.613   0.567  13.655  0.6565  0.0434  0.1508
   57TMC2    O2  896   2.106   0.774  13.975  0.7699  0.3909 -0.3151
   57TMC2    O5  897   2.006   0.807  14.180  0.2442 -0.2248  0.1390
   57TMC2    H5  898   1.978   0.746  14.252 -1.5757 -1.0693 -1.2868
   58MPD2     C  899   1.020   0.816  14.145  0.9048  0.2080  0.6416
   58MPD2    C1  900   1.123   0.903  14.176 -0.1271  0.1858 -0.3845
   58MPD2    C2  901   1.256   0.867  14.152 -0.5132 -0.3979 -0.7791
   58MPD2    C3  902   1.290   0.748  14.091  0.6443  0.3840 -0.5044
   58MPD2    C4  903   1.188   0.660  14.071  0.2911 -0.3451 -0.0126
   58MPD2    C5  904   1.057   0.693  14.106 -0.0095 -0.2811 -0.2383
   58MPD2     H  905   1.339   0.931  14.178  0.1460 -2.2182  1.6010
   58MPD2    H1  906   1.208   0.558  14.040  2.0844  0.0224 -0.0412
   58MPD2    H2  907   0.915   0.838  14.164  0.7855 -0.8611  1.2388
   58MPD2    H3  908   0.977   0.623  14.082 -0.9192  0.7451 -0.2315
   58MPD2     N  909   1.419   0.715  14.052 -0.2347 -0.4358  0.2720
   58MPD2    H5  910   1.423   0.634  13.992 -0.7924  0.2408 -0.6738
   58MPD2    N1  911   1.101   1.038  14.217  0.1102 -0.4108 -0.1612
   58MPD2    H7  912   1.184   1.094  14.235 -1.3112  1.6208  0.0990
   59TMC2    C1  913   3.616   1.384  12.788  0.0022  0.4005 -0.4101
   59TMC2    C2  914   3.559   1.312  12.888  0.1470 -0.1057  0.1469
   59TMC2    C3  915   3.498   1.196  12.853 -0.1314 -0.1974 -0.0828
   59TMC2    C4  916   3.619   1.334  12.658  0.0652 -0.3081 -0.7359
   59TMC2    C5  917   3.546   1.221  12.627 -0.6977  0.0282  0.1155
   59TMC2    C6  918   3.485   1.150  12.727  0.3432 -0.1245  0.3379
   59TMC2     C  919   3.705   1.489  12.821 -0.0573  1.0054  0.3674
   59TMC2     O  920   3.723   1.570  12.733  0.3285 -0.3288 -0.6508
   59TMC2     H  921   3.559   1.363  12.984 -0.0176 -0.3045  0.2531
   59TMC2    H1  922   3.670   1.390  12.581 -0.4157 -1.0152 -1.5766
   59TMC2    H2  923   3.423   1.062  12.713 -0.3582  0.2556  1.0061
   59TMC2    C7  924   3.588   1.143  12.518 -0.0086 -0.1186 -0.5371
   59TMC2    C8  925   3.407   1.135  12.951  0.0554 -0.0313 -0.4179
   59TMC2    O1  926   3.529   1.036  12.501 -0.3430 -0.9692  0.1189
   59TMC2    O2  927   3.322   1.050  12.915  0.2354  0.1286 -0.3975
   59TMC2    O5  928   3.476   1.116  13.070 -0.6136  0.2558 -0.2595
   59TMC2    H5  929   3.548   1.182  13.079  2.1510 -2.6681 -0.9294
   60MPD2     C  930   3.874   1.692  12.952  0.4089 -0.4150 -0.0870
   60MPD2    C1  931   3.840   1.565  13.006  0.5695 -0.6560  0.5274
   60MPD2    C2  932   3.885   1.538  13.140  0.1517 -0.1053  0.6089
   60MPD2    C3  933   3.971   1.629  13.205 -0.2231 -0.4251 -0.3016
   60MPD2    C4  934   4.002   1.751  13.146  0.2967 -0.4269  0.3939
   60MPD2    C5  935   3.946   1.784  13.025 -0.1520  0.3049 -0.0559
   60MPD2     H  936   3.853   1.449  13.194  1.2413 -1.2593 -0.6359
   60MPD2    H1  937   4.058   1.819  13.211  0.7137  0.5034 -0.9397
   60MPD2    H2  938   3.844   1.719  12.851  0.4808 -2.3570 -0.6362
   60MPD2    H3  939   3.960   1.877  12.971  0.2821  0.2866  0.0233
   60MPD2     N  940   4.043   1.608  13.320  0.2437  0.0653 -0.1375
   60MPD2    H5  941   4.100   1.681  13.361  1.0250 -1.1153  0.8781
   60MPD2    N1  942   3.763   1.471  12.943  0.1379 -0.4580 -0.4782
   60MPD2    H7  943   3.745   1.384  12.991 -1.6542  0.1711 -0.0022
   61TMC2    C1  944   3.558   2.704  15.730 -0.6008 -0.7440 -0.0155
   61TMC2    C2  945   3.595   2.648  15.851 -0.1358 -0.9150  0.5810
   61TMC2    C3  946   3.550   2.710  15.965 -0.8117 -0.6524 -0.1435
   61TMC2    C4  947   3.485   2.824  15.722 -0.1018 -0.5648 -0.1808
   61TMC2    C5  948   3.449   2.874  15.842 -0.0043 -0.1818  0.0884
   61TMC2    C6  949   3.475   2.819  15.962  0.1347 -0.1442 -0.2442
   61TMC2     C  950   3.616   2.653  15.609  0.0799 -0.2236 -0.0201
   61TMC2     O  951   3.705   2.570  15.628  0.0405 -0.0489  0.0509
   61TMC2     H  952   3.659   2.561  15.860 -0.9975 -1.6479 -0.3698
   61TMC2    H1  953   3.471   2.885  15.634 -0.2160  1.7947  1.4893
   61TMC2    H2  954   3.456   2.875  16.053  0.2716  0.2338 -0.4543
   61TMC2    C7  955   3.378   3.004  15.839 -0.0309 -0.6469 -0.4634
   61TMC2    C8  956   3.650   2.705  16.071 -0.5975  0.1100  0.3888
   61TMC2    O1  957   3.385   3.071  15.738 -0.2534  0.2637  0.1703
   61TMC2    O2  958   3.685   2.805  16.135  0.4134  0.5672 -0.1395
   61TMC2    O5  959   3.679   2.580  16.107 -0.2868  0.2359 -0.3383
   61TMC2    H5  960   3.628   2.522  16.046 -2.6740  2.4409 -0.4494
   62MPD2     C  961   3.743   2.623  15.336  0.4549  0.6435  0.3423
   62MPD2    C1  962   3.638   2.704  15.362 -0.1920 -0.5253  0.0295
   62MPD2    C2  963   3.585   2.770  15.256  0.0763  0.2499  0.6103
   62MPD2    C3  964   3.640   2.757  15.125 -0.0889  0.2669  0.0081
   62MPD2    C4  965   3.755   2.687  15.112  0.0908 -0.2549 -0.5749
   62MPD2    C5  966   3.801   2.616  15.211  0.0690  0.9597  0.5307
   62MPD2     H  967   3.492   2.818  15.283 -1.4328 -1.3490 -1.6336
   62MPD2    H1  968   3.801   2.664  15.017 -1.1374  0.7651 -1.4089
   62MPD2    H2  969   3.789   2.555  15.406 -0.0474 -0.9141 -0.8295
   62MPD2    H3  970   3.884   2.546  15.209  0.4729  1.3997  2.0643
   62MPD2     N  971   3.573   2.819  15.015  0.2204  0.1966  0.1479
   62MPD2    H5  972   3.631   2.834  14.932  0.8059  0.5748  0.6237
   62MPD2    N1  973   3.585   2.719  15.492 -0.3435  0.3442 -0.3050
   62MPD2    H7  974   3.502   2.777  15.493  0.2914  1.2417  0.9727
   63TMC2    C1  975   3.048   2.605  10.925  0.0735 -0.0469  0.0476
   63TMC2    C2  976   3.174   2.579  10.970  0.2395  0.0314 -0.2830
   63TMC2    C3  977   3.275   2.652  10.906 -0.2010  0.2554 -0.5233
   63TMC2    C4  978   3.010   2.693  10.828  0.0559 -0.1151 -0.6979
   63TMC2    C5  979   3.110   2.767  10.777 -0.1910  0.6886  0.0189
   63TMC2    C6  980   3.240   2.746  10.812  0.0599 -0.5039 -0.4699
   63TMC2     C  981   2.941   2.566  11.010 -0.7426  0.1492  0.1322
   63TMC2     O  982   2.853   2.645  11.034 -0.3678  0.4572  0.2268
   63TMC2     H  983   3.193   2.495  11.036 -0.3554 -0.0740 -0.2453
   63TMC2    H1  984   2.905   2.714  10.807  0.3639  0.3822 -1.7410
   63TMC2    H2  985   3.325   2.784  10.757  0.9794 -2.2412 -0.2552
   63TMC2    C7  986   3.077   2.883  10.697  0.6946 -0.1700  0.4428
   63TMC2    C8  987   3.413   2.649  10.965 -0.2938  0.5131 -0.9864
   63TMC2    O1  988   2.956   2.899  10.669 -0.0912 -0.0563 -0.0680
   63TMC2    O2  989   3.489   2.728  10.912 -0.4353 -0.3803 -0.0978
   63TMC2    O5  990   3.394   2.644  11.102 -0.3174  0.4242 -0.6223
   63TMC2    H5  991   3.305   2.615  11.130  0.6802 -2.4621 -0.4118
   64MPD2     C  992   2.616   2.199  11.154 -0.2599  0.3458 -0.4464
   64MPD2    C1  993   2.724   2.140  11.083  0.1942 -0.1203  0.1167
   64MPD2    C2  994   2.830   2.221  11.049  0.2306  0.4067 -1.0037
   64MPD2    C3  995   2.824   2.357  11.069  0.7006 -0.2095 -0.6052
   64MPD2    C4  996   2.721   2.420  11.147  0.0006  0.5443 -0.3416
   64MPD2    C5  997   2.626   2.332  11.194  0.2129  0.2518 -0.2607
   64MPD2     H  998   2.915   2.194  10.988 -0.9615 -1.4741 -1.8398
   64MPD2    H1  999   2.716   2.519  11.189  2.1694 -0.3336  1.9731
   64MPD2    H2 1000   2.529   2.144  11.187 -0.6204  0.8044 -0.6288
   64MPD2    H3 1001   2.541   2.370  11.249 -0.6627 -0.0365 -1.4003
   64MPD2     N 1002   2.934   2.423  11.027 -0.1419 -0.3500 -0.0401
   64MPD2    H5 1003   3.013   2.364  11.002 -1.8848 -2.5573 -0.3896
   64MPD2    N1 1004   2.724   2.004  11.033  0.0405 -0.0137  0.0372
   64MPD2    H7 1005   2.810   1.978  10.986  0.3035  2.0424 -0.5926
   65TMC2    C1 1006   4.070   2.608  15.592 -0.0832 -0.4605 -0.1064
   65TMC2    C2 1007   4.159   2.573  15.487  1.0005  0.1806 -0.2624
   65TMC2    C3 1008   4.151   2.644  15.369  0.9318 -0.1881 -0.6893
   65TMC2    C4 1009   4.013   2.728  15.591  0.7273  0.0159  0.3970
   65TMC2    C5 1010   4.007   2.802  15.474  0.1139  0.2128 -0.4445
   65TMC2    C6 1011   4.065   2.749  15.360  0.4317  0.5796 -0.0472
   65TMC2     C 1012   4.050   2.531  15.710 -0.1021 -0.5734 -0.2663
   65TMC2     O 1013   4.004   2.583  15.809  0.3673  0.1129  0.6543
   65TMC2     H 1014   4.216   2.481  15.490  1.1928  0.3495  1.2226
   65TMC2    H1 1015   3.968   2.760  15.685 -0.3808 -0.1634 -0.0740
   65TMC2    H2 1016   4.071   2.807  15.268 -2.0225 -1.0144 -1.2106
   65TMC2    C7 1017   3.931   2.923  15.464  0.4698  0.3030 -0.1157
   65TMC2    C8 1018   4.179   2.574  15.241  0.0767  0.4637  0.3293
   65TMC2    O1 1019   3.942   2.968  15.350 -0.5539 -0.1360  0.6325
   65TMC2    O2 1020   4.125   2.603  15.136 -0.0249  0.6441 -0.4179
   65TMC2    O5 1021   4.304   2.518  15.249  1.0038 -0.5334 -0.0428
   65TMC2    H5 1022   4.348   2.549  15.331  1.0329  0.4242 -0.4236
   66MPD2     C 1023   3.956   2.313  15.904 -0.6432  0.6562 -0.5933
   66MPD2    C1 1024   3.997   2.293  15.772 -0.3747 -0.4729 -0.1434
   66MPD2    C2 1025   3.981   2.174  15.713  0.1499  0.5477  0.0271
   66MPD2    C3 1026   3.931   2.064  15.787  0.2822 -0.5861 -0.3038
   66MPD2    C4 1027   3.899   2.078  15.920  0.4785 -0.3519 -0.7583
   66MPD2    C5 1028   3.900   2.206  15.972  0.2131 -0.1159  0.8441
   66MPD2     H 1029   4.017   2.166  15.611 -0.9093 -0.3770 -0.2708
   66MPD2    H1 1030   3.849   2.012  15.990  1.1799 -2.1619 -1.9635
   66MPD2    H2 1031   3.970   2.409  15.953  0.3293  1.6866 -2.9029
   66MPD2    H3 1032   3.891   2.216  16.080  0.4353 -2.0700  1.0283
   66MPD2     N 1033   3.906   1.941  15.722  0.1797 -0.5275  0.1426
   66MPD2    H5 1034   3.876   1.862  15.778 -1.9567  0.4380  0.3832
   66MPD2    N1 1035   4.047   2.390  15.685 -0.6560 -0.3144 -0.4796
   66MPD2    H7 1036   4.047   2.367  15.586 -1.3940 -0.3515 -0.4738
   67TMC2    C1 1037   4.200   1.480  14.191 -0.5741 -0.2058  0.0435
   67TMC2    C2 1038   4.141   1.601  14.228  0.0077 -0.1641  0.3571
   67TMC2    C3 1039   4.204   1.669  14.328  0.2574  0.0850  0.5061
   67TMC2    C4 1040   4.294   1.415  14.264 -0.2024  0.9955 -0.5147
   67TMC2    C5 1041   4.336   1.483  14.385 -0.3234  0.0991  0.5032
   67TMC2    C6 1042   4.297   1.613  14.411 -0.4745 -0.3700 -0.7246
   67TMC2     C 1043   4.156   1.417  14.063 -0.1898  0.3510 -1.0056
   67TMC2     O 1044   4.220   1.316  14.028  0.5598 -0.1236 -0.1117
   67TMC2     H 1045   4.096   1.658  14.148  0.2065  0.8969  1.0101
   67TMC2    H1 1046   4.329   1.315  14.241  2.3566  1.4108  1.5532
   67TMC2    H2 1047   4.327   1.677  14.493 -1.4870  0.7383 -1.2142
   67TMC2    C7 1048   4.383   1.394  14.490  0.1494 -0.1527 -0.5394
   67TMC2    C8 1049   4.124   1.773  14.391 -0.5217  0.9612 -0.5388
   67TMC2    O1 1050   4.408   1.277  14.460 -0.1496 -0.3074 -0.1931
   67TMC2    O2 1051   4.157   1.827  14.498  0.0996  0.1093 -0.1750
   67TMC2    O5 1052   3.996   1.736  14.360  0.8610  0.0063  0.4815
   67TMC2    H5 1053   3.965   1.692  14.279  1.0257  2.1757 -0.7690
   68MPD2     C 1054   4.019   1.340  13.821 -0.5955 -0.0761 -0.3222
   68MPD2    C1 1055   3.955   1.406  13.922 -0.5926 -0.8136  0.4941
   68MPD2    C2 1056   3.819   1.409  13.920 -0.6895 -0.2255 -0.1262
   68MPD2    C3 1057   3.751   1.377  13.805  0.3866 -0.4284  0.5274
   68MPD2    C4 1058   3.817   1.333  13.698  0.0342 -0.0268  0.4018
   68MPD2    C5 1059   3.954   1.310  13.706 -0.1886  0.0294  0.2319
   68MPD2     H 1060   3.764   1.445  14.006 -1.3894 -0.2936 -0.5447
   68MPD2    H1 1061   3.785   1.298  13.601 -0.4777  2.1556 -0.2047
   68MPD2    H2 1062   4.125   1.317  13.817 -0.8092 -0.6999 -2.3004
   68MPD2    H3 1063   4.001   1.253  13.627 -0.9230 -0.2717  0.0066
   68MPD2     N 1064   3.609   1.395  13.784 -0.1115  0.6433  0.3884
   68MPD2    H5 1065   3.573   1.388  13.690 -0.1069 -1.5872  0.5500
   68MPD2    N1 1066   4.027   1.447  14.032 -0.0745  0.2633  0.7986
   68MPD2    H7 1067   3.984   1.489  14.113 -1.6666 -0.1877  0.1818
   69TMC2    C1 1068   1.389   2.774  12.815 -0.4186  0.5124  0.3581
   69TMC2    C2 1069   1.311   2.875  12.873 -0.4023  0.2024 -0.4985
   69TMC2    C3 1070   1.255   2.971  12.787 -0.1441  0.2067  0.0285
   69TMC2    C4 1071   1.406   2.760  12.680  0.5342  0.0070  0.3325
   69TMC2    C5 1072   1.345   2.852  12.599 -0.1698 -0.5001 -0.2523
   69TMC2    C6 1073   1.272   2.962  12.650  0.3663  0.0518 -0.2568
   69TMC2     C 1074   1.445   2.671  12.902  0.3613 -0.7017 -0.2099
   69TMC2     O 1075   1.392   2.661  13.015 -0.6200 -0.0352  0.2360
   69TMC2     H 1076   1.309   2.875  12.981  0.3126  2.9890 -0.4662
   69TMC2    H1 1077   1.478   2.697  12.629  0.6638  0.0210  0.4965
   69TMC2    H2 1078   1.230   3.038  12.586 -1.1667 -0.0080  0.6626
   69TMC2    C7 1079   1.378   2.858  12.460 -0.3862 -0.3856  0.0183
   69TMC2    C8 1080   1.202   3.091  12.846  0.6977  0.5170 -0.3134
   69TMC2    O1 1081   1.491   2.821  12.427 -0.3609 -0.1557  0.1150
   69TMC2    O2 1082   1.107   3.078  12.924 -0.6975  0.0716  0.1392
   69TMC2    O5 1083   1.221   3.189  12.748  0.3648 -0.5578 -0.5168
   69TMC2    H5 1084   1.307   3.171  12.705  1.3236  1.9404  0.3317
   70MPD2     C 1085   1.748   2.473  12.868  0.3274  0.0418 -0.2209
   70MPD2    C1 1086   1.616   2.501  12.898 -0.1348 -0.3496  0.0324
   70MPD2    C2 1087   1.539   2.421  12.980 -0.0890  0.2178  0.1739
   70MPD2    C3 1088   1.591   2.301  13.026 -0.2420  0.3140  1.0551
   70MPD2    C4 1089   1.727   2.268  12.993 -0.1832  0.0077 -0.4654
   70MPD2    C5 1090   1.801   2.353  12.916 -0.0602 -0.3398  0.6783
   70MPD2     H 1091   1.433   2.443  12.990 -0.3547 -1.3250  0.7548
   70MPD2    H1 1092   1.782   2.182  13.030  0.8157 -0.6670 -3.4973
   70MPD2    H2 1093   1.814   2.540  12.814  0.4520  2.2693  2.7109
   70MPD2    H3 1094   1.906   2.333  12.902 -0.1499  0.0842 -0.5262
   70MPD2     N 1095   1.519   2.213  13.115  0.0615 -1.0846 -0.7021
   70MPD2    H5 1096   1.548   2.118  13.136 -2.0450 -1.8359 -1.2137
   70MPD2    N1 1097   1.555   2.618  12.849  0.0871  0.4686  0.2421
   70MPD2    H7 1098   1.604   2.669  12.776  2.8468  1.1373  2.5354
   71TMC2    C1 1099   2.830   2.908   1.403 -0.2195  0.6418  0.1719
   71TMC2    C2 1100   2.944   2.921   1.475 -0.3279  0.3240  0.3139
   71TMC2    C3 1101   2.945   2.900   1.612 -0.6494 -0.0401  0.4595
   71TMC2    C4 1102   2.711   2.887   1.466 -0.3924 -0.4509 -0.5480
   71TMC2    C5 1103   2.715   2.859   1.606 -0.3291 -0.6470  0.2233
   71TMC2    C6 1104   2.833   2.861   1.678 -0.4564  0.0362 -0.3730
   71TMC2     C 1105   2.832   2.943   1.265 -0.4508  0.2901  0.0924
   71TMC2     O 1106   2.932   2.986   1.211  0.2522 -1.0136  0.0478
   71TMC2     H 1107   3.038   2.927   1.422  0.0271 -1.8264  0.6943
   71TMC2    H1 1108   2.620   2.907   1.410 -1.3756  0.0641  1.2396
   71TMC2    H2 1109   2.838   2.837   1.784 -1.2024 -2.0229 -0.8173
   71TMC2    C7 1110   2.591   2.896   1.674 -1.2153  0.6868 -0.2208
   71TMC2    C8 1111   3.074   2.881   1.674 -0.0634  0.2326 -0.1566
   71TMC2    O1 1112   2.600   2.904   1.798 -0.0592  0.2301  0.4089
   71TMC2    O2 1113   3.167   2.961   1.657 -0.2149 -0.6504  0.4286
   71TMC2    O5 1114   3.100   2.751   1.710  0.7718 -0.6905 -0.2257
   71TMC2    H5 1115   3.023   2.690   1.702 -0.1686  0.3026  1.3227
   72MPD2     C 1116   2.607   2.941   0.800  0.1314  0.2604  0.3360
   72MPD2    C1 1117   2.730   2.993   0.838 -0.3361  0.0192  0.3170
   72MPD2    C2 1118   2.766   2.994   0.976 -0.8787  0.3725 -0.0926
   72MPD2    C3 1119   2.679   2.932   1.069  1.0631  0.8034 -0.6047
   72MPD2    C4 1120   2.564   2.873   1.024 -0.1014  0.1228 -1.2135
   72MPD2    C5 1121   2.531   2.894   0.895  0.2699  0.1920 -0.0653
   72MPD2     H 1122   2.864   3.035   0.995 -0.7306  0.3155 -0.7393
   72MPD2    H1 1123   2.501   2.821   1.095  0.5131  0.8074 -0.1625
   72MPD2    H2 1124   2.573   2.930   0.698 -1.3204  0.5415  0.7998
   72MPD2    H3 1125   2.444   2.837   0.862 -0.5130  0.9711  0.6400
   72MPD2     N 1126   2.714   2.900   1.201  0.1186  0.1030  0.4635
   72MPD2    H5 1127   2.650   2.842   1.254  0.7753 -0.1452  0.9876
   72MPD2    N1 1128   2.816   3.046   0.742 -0.3945  0.8714  0.8168
   72MPD2    H7 1129   2.899   3.089   0.781 -0.0378  1.1879 -0.2839
   73TMC2    C1 1130   3.377   0.186  13.701  0.3187 -0.2019 -0.8825
   73TMC2    C2 1131   3.376   0.234  13.833 -0.2504  0.7100 -0.4226
   73TMC2    C3 1132   3.475   0.192  13.920  0.4031 -0.5274 -0.1350
   73TMC2    C4 1133   3.461   0.080  13.672  0.0276 -0.0238 -0.0523
   73TMC2    C5 1134   3.557   0.034  13.764  0.2900  0.4086  0.2697
   73TMC2    C6 1135   3.564   0.096  13.884  0.1328  0.0044  0.7141
   73TMC2     C 1136   3.404   0.288  13.606  0.0132 -0.0642 -0.3451
   73TMC2     O 1137   3.489   0.257  13.525 -0.2985  0.0961  0.1867
   73TMC2     H 1138   3.329   0.328  13.860  0.0505  0.2169  1.8825
   73TMC2    H1 1139   3.459   0.024  13.579 -1.4887  0.7507 -0.4804
   73TMC2    H2 1140   3.632   0.060  13.961  0.4768  2.4635  1.5799
   73TMC2    C7 1141   3.686   0.012  13.712  0.0031  0.0778  0.0312
   73TMC2    C8 1142   3.490   0.255  14.053 -0.0067  0.2998 -0.2117
   73TMC2    O1 1143   3.761   4.676  13.770  0.5928 -0.4742  0.0525
   73TMC2    O2 1144   3.598   0.271  14.109 -0.1233  0.1224  0.1185
   73TMC2    O5 1145   3.373   0.249  14.116 -0.1016 -0.0579  0.4773
   73TMC2    H5 1146   3.291   0.237  14.064 -0.0325  2.5237 -0.2097
   74MPD2     C 1147   3.383   0.767  13.408 -0.2166 -0.5007  0.0258
   74MPD2    C1 1148   3.487   0.668  13.399  0.2241 -0.7943 -0.9993
   74MPD2    C2 1149   3.469   0.551  13.469 -0.3621  0.3529  0.2692
   74MPD2    C3 1150   3.352   0.521  13.548  0.0621 -1.4128 -0.8046
   74MPD2    C4 1151   3.260   0.620  13.552 -0.1466 -0.2546 -0.2548
   74MPD2    C5 1152   3.268   0.737  13.478 -0.6874 -0.2802  0.0207
   74MPD2     H 1153   3.541   0.470  13.458  0.1443  1.0067 -1.2483
   74MPD2    H1 1154   3.172   0.601  13.614  0.4239  0.0415  0.6500
   74MPD2    H2 1155   3.384   0.862  13.356  2.2628 -1.0320 -0.8986
   74MPD2    H3 1156   3.190   0.810  13.493 -0.9108 -0.5631  0.2396
   74MPD2     N 1157   3.333   0.402  13.620  0.0703  0.5699 -0.5704
   74MPD2    H5 1158   3.257   0.407  13.686  0.7787 -0.5926  0.3443
   74MPD2    N1 1159   3.599   0.697  13.314  0.4263 -0.1154 -0.0288
   74MPD2    H7 1160   3.611   0.796  13.294 -1.8165  0.1220 -0.2644
   75TMC2    C1 1161   3.388   1.432  13.828 -0.2910 -0.4803 -0.0479
   75TMC2    C2 1162   3.284   1.373  13.898 -0.4056 -0.2228  0.6479
   75TMC2    C3 1163   3.159   1.368  13.840 -0.0718  0.1573 -0.4938
   75TMC2    C4 1164   3.361   1.496  13.711 -0.4474  0.5595  0.3025
   75TMC2    C5 1165   3.240   1.481  13.653 -0.1542  0.5218 -0.4058
   75TMC2    C6 1166   3.141   1.411  13.712 -0.0773 -0.0266 -0.3486
   75TMC2     C 1167   3.519   1.409  13.888  0.3078  0.3960  0.1074
   75TMC2     O 1168   3.529   1.387  14.013 -0.2381  0.1063 -1.0507
   75TMC2     H 1169   3.314   1.329  13.992  0.7325  0.4431  0.5958
   75TMC2    H1 1170   3.442   1.533  13.649 -1.2378  0.8376 -0.5791
   75TMC2    H2 1171   3.039   1.397  13.678 -0.3238  0.1017  0.3289
   75TMC2    C7 1172   3.206   1.559  13.538 -0.6410  0.1123 -0.2097
   75TMC2    C8 1173   3.049   1.299  13.900  0.1097 -0.0805 -0.1455
   75TMC2    O1 1174   3.105   1.524  13.483 -0.1494  0.0374 -0.9338
   75TMC2    O2 1175   2.969   1.239  13.835  0.3332  0.2780  0.0033
   75TMC2    O5 1176   3.007   1.393  13.988 -0.0958 -0.1916 -0.7811
   75TMC2    H5 1177   3.080   1.451  14.017  1.0774 -1.5971 -0.9500
   76TMC2    C1 1178   2.081   2.016  11.985  0.3402  0.1813 -0.6272
   76TMC2    C2 1179   1.972   1.940  11.965 -0.3415 -0.0918  0.5871
   76TMC2    C3 1180   1.961   1.848  12.064 -0.5967  0.1809  0.0084
   76TMC2    C4 1181   2.178   2.001  12.083 -0.7478  0.2145  0.1253
   76TMC2    C5 1182   2.169   1.889  12.158  0.3211  0.4320 -1.0258
   76TMC2    C6 1183   2.061   1.805  12.151  0.2336 -0.0458 -0.1528
   76TMC2     C 1184   2.078   2.147  11.909  0.6979  0.0821  0.2556
   76TMC2     O 1185   1.965   2.187  11.874  0.0499  0.3507 -0.4385
   76TMC2     H 1186   1.893   1.957  11.893 -0.9029 -1.7487  0.8106
   76TMC2    H1 1187   2.255   2.074  12.104  0.3396 -1.1155  0.7403
   76TMC2    H2 1188   2.055   1.722  12.220  0.9678  1.0395  1.2026
   76TMC2    C7 1189   2.279   1.843  12.234  0.6653 -0.0453  0.1023
   76TMC2    C8 1190   1.836   1.770  12.059  0.0120  0.4659  0.4184
   76TMC2    O1 1191   2.250   1.746  12.306 -0.0957  0.3708  0.5546
   76TMC2    O2 1192   1.762   1.768  11.959 -0.5362  0.4369 -0.4066
   76TMC2    O5 1193   1.796   1.781  12.186 -0.3143  0.1262  1.0406
   76TMC2    H5 1194   1.863   1.817  12.249  0.8863  0.0377 -0.1842
   77MPD2     C 1195   2.269   2.607  11.804  0.3364 -0.1133 -0.3577
   77MPD2    C1 1196   2.134   2.566  11.820 -0.0417  0.8361 -0.4909
   77MPD2    C2 1197   2.109   2.429  11.845 -0.3457 -0.0892  0.2614
   77MPD2    C3 1198   2.215   2.338  11.872 -0.5404 -0.4016  0.6177
   77MPD2    C4 1199   2.343   2.388  11.854  0.3469 -0.0449  0.1328
   77MPD2    C5 1200   2.370   2.519  11.822 -0.5827  0.7899  0.1188
   77MPD2     H 1201   2.003   2.412  11.862 -0.2381 -0.6869  0.3302
   77MPD2    H1 1202   2.427   2.321  11.867  0.6860 -0.1276 -2.4435
   77MPD2    H2 1203   2.299   2.708  11.778  0.8165 -0.2340 -0.2873
   77MPD2    H3 1204   2.474   2.543  11.805 -0.2523  0.2572  1.3776
   77MPD2     N 1205   2.198   2.206  11.896 -0.1395 -0.1921  0.1404
   77MPD2    H5 1206   2.282   2.154  11.919  1.2945  1.7344 -0.8220
   77MPD2    N1 1207   2.016   2.648  11.809 -0.1785 -0.0799 -0.0425
   77MPD2    H7 1208   1.923   2.611  11.824 -0.1871 -0.0158  0.0649
   78TMC2    C1 1209   3.016   3.534   1.718  0.5275 -0.2732  0.0759
   78TMC2    C2 1210   2.995   3.558   1.853 -0.5433  0.4761  0.2665
   78TMC2    C3 1211   3.107   3.578   1.930 -0.3490 -0.2584 -0.0980
   78TMC2    C4 1212   3.141   3.554   1.661 -0.1411 -0.3966  0.2841
   78TMC2    C5 1213   3.243   3.598   1.742 -0.3068 -0.3221  0.2866
   78TMC2    C6 1214   3.232   3.610   1.881 -0.0581  0.5934  0.3791
   78TMC2     C 1215   2.901   3.530   1.634  0.2289  0.0810 -0.2055
   78TMC2     O 1216   2.800   3.591   1.665 -0.7895  0.1010 -0.0044
   78TMC2     H 1217   2.896   3.553   1.896 -1.1749  1.4067 -1.0892
   78TMC2    H1 1218   3.153   3.555   1.554  0.5305  1.2408  0.3741
   78TMC2    H2 1219   3.316   3.623   1.948  0.2701  1.1771 -0.1442
   78TMC2    C7 1220   3.375   3.611   1.670 -0.3058 -0.5253 -0.4261
   78TMC2    C8 1221   3.102   3.577   2.070 -0.4589  0.0147 -0.5884
   78TMC2    O1 1222   3.370   3.550   1.563  0.4318 -0.4516  0.3626
   78TMC2    O2 1223   3.177   3.642   2.144  0.5800 -0.1050  0.1825
   78TMC2    O5 1224   3.022   3.476   2.110  0.4509  0.1616  0.4067
   78TMC2    H5 1225   2.963   3.439   2.042 -0.7023  1.3090  0.7844
   79MPD1     C 1226   2.666   3.349   1.205  0.1718  0.0244 -0.2718
   79MPD1    C1 1227   2.612   3.440   1.298  0.2694  0.1618 -0.2496
   79MPD1    C2 1228   2.703   3.484   1.399 -0.7944  0.6668 -0.1250
   79MPD1    C3 1229   2.839   3.438   1.406  0.3666 -0.8706 -0.2555
   79MPD1    C4 1230   2.886   3.360   1.309  0.2874 -0.0256 -0.1687
   79MPD1    C5 1231   2.799   3.316   1.208 -0.1220  0.2370 -0.2029
   79MPD1     H 1232   2.670   3.557   1.472 -0.7097 -0.1901  0.7733
   79MPD1    H1 1233   2.988   3.324   1.319  0.1395  0.0046  1.3594
   79MPD1    H2 1234   2.616   3.311   1.117  1.5114 -0.9577 -0.6030
   79MPD1    H3 1235   2.840   3.261   1.125 -0.5348 -2.2137  1.2298
   79MPD1     N 1236   2.924   3.460   1.516  0.1616  0.1564  0.6177
   79MPD1    H5 1237   3.014   3.413   1.518 -0.5975 -1.2782  0.8423
   79MPD1    N1 1238   2.485   3.492   1.275  0.2503 -0.8950 -0.6968
   79MPD1    H6 1239   2.436   3.513   1.362 -0.6058 -2.4410 -0.8126
   79MPD1    H7 1240   2.426   3.420   1.235 -1.0490 -0.4194  0.3863
   80TMC2    C1 1241   0.984   0.962  11.934  0.4314 -0.0923 -0.3099
   80TMC2    C2 1242   1.027   0.917  11.808  0.5818 -0.5656 -0.2247
   80TMC2    C3 1243   0.965   0.793  11.775  0.0245 -0.1377  0.3887
   80TMC2    C4 1244   0.889   0.904  12.009  0.4955 -0.0250  0.1852
   80TMC2    C5 1245   0.833   0.788  11.966  0.0409 -0.3950 -0.2772
   80TMC2    C6 1246   0.872   0.728  11.853 -0.2197 -0.1084  0.2363
   80TMC2     C 1247   1.014   1.105  11.944 -0.1818  0.0587  0.5844
   80TMC2     O 1248   1.081   1.153  11.853  0.4039 -0.3166 -0.4224
   80TMC2     H 1249   1.090   0.973  11.740  1.6215  0.2150  1.3809
   80TMC2    H1 1250   0.838   0.950  12.093  0.9559 -1.6218  1.3363
   80TMC2    H2 1251   0.827   0.635  11.821 -0.0144  0.2259 -1.0077
   80TMC2    C7 1252   0.742   0.721  12.052  0.1028  0.3735 -0.3784
   80TMC2    C8 1253   0.996   0.731  11.650  0.0424  0.3868  0.3306
   80TMC2    O1 1254   0.665   0.636  12.002 -0.4622  0.2461 -0.2877
   80TMC2    O2 1255   0.999   0.611  11.622  0.0592  0.1624  0.0725
   80TMC2    O5 1256   1.027   0.821  11.558  0.3469  0.1230 -0.6513
   80TMC2    H5 1257   0.998   0.914  11.567 -0.5129 -0.1891 -0.1906
   81MPD2     C 1258   0.996   1.395  12.013 -0.0828 -0.3095  0.9197
   81MPD2    C1 1259   0.973   1.293  12.103  0.0398 -0.2435 -0.1798
   81MPD2    C2 1260   0.943   1.323  12.235 -0.2132  0.1806  0.3130
   81MPD2    C3 1261   0.940   1.456  12.273  0.4680  0.0457  0.3106
   81MPD2    C4 1262   0.954   1.553  12.172  0.4198 -0.0830  0.2731
   81MPD2    C5 1263   0.988   1.522  12.045  0.7310 -1.5906 -0.6899
   81MPD2     H 1264   0.923   1.237  12.298 -0.8327 -0.2476 -0.4565
   81MPD2    H1 1265   0.933   1.656  12.194  0.4455  0.2268 -1.1695
   81MPD2    H2 1266   1.018   1.363  11.912 -0.0804  1.4652  0.3660
   81MPD2    H3 1267   0.994   1.595  11.965 -2.9314 -2.7762 -2.0408
   81MPD2     N 1268   0.901   1.490  12.407  0.1447 -0.7799  0.1861
   81MPD2    H5 1269   0.865   1.584  12.415  1.0283 -0.4258 -0.0171
   81MPD2    N1 1270   0.961   1.160  12.062  0.1777  0.8624 -0.0496
   81MPD2    H7 1271   0.929   1.092  12.130 -0.5336  1.7777  0.5387
   82TMC2    C1 1272   0.022   0.712  11.082  0.9228 -0.3136  0.0583
   82TMC2    C2 1273   0.146   0.657  11.052 -0.2264 -0.3706  0.6843
   82TMC2    C3 1274   0.209   0.567  11.138 -0.4586  0.3801 -1.1259
   82TMC2    C4 1275   4.694   0.675  11.194  0.1512  0.0471  0.5718
   82TMC2    C5 1276   0.016   0.573  11.264 -0.3057  0.6110 -0.3741
   82TMC2    C6 1277   0.139   0.521  11.240  0.6676  0.4192 -0.0213
   82TMC2     C 1278   4.709   0.815  10.991 -0.2826 -0.6251  0.3081
   82TMC2     O 1279   4.586   0.808  10.972  0.4755  0.4565 -0.0751
   82TMC2     H 1280   0.205   0.681  10.965 -1.0506 -1.1505 -0.0832
   82TMC2    H1 1281   4.598   0.716  11.223 -0.1660 -0.5239  0.3364
   82TMC2    H2 1282   0.197   0.458  11.306 -2.5196 -2.9966 -0.4801
   82TMC2    C7 1283   4.689   0.541  11.386 -0.2646  0.1800 -0.3762
   82TMC2    C8 1284   0.355   0.558  11.142  0.0392 -0.2667  0.0561
   82TMC2    O1 1285   4.616   0.624  11.432  0.2732 -0.6513  0.1361
   82TMC2    O2 1286   0.414   0.588  11.040 -0.5052 -0.0218  0.1314
   82TMC2    O5 1287   0.401   0.597  11.263 -0.4709  0.1810  0.3916
   82TMC2    H5 1288   0.334   0.585  11.334 -1.5276 -1.6920 -0.9233
   83MPD2     C 1289   0.039   1.286  10.791  0.2401 -0.0078  0.3958
   83MPD2    C1 1290   4.663   1.215  10.825  0.0574  0.3304 -0.2762
   83MPD2    C2 1291   4.669   1.084  10.865 -0.3303 -0.0465 -0.2651
   83MPD2    C3 1292   0.050   1.024  10.890  0.2791 -0.2717 -0.4464
   83MPD2    C4 1293   0.163   1.097  10.863  0.8431 -0.0610 -0.4429
   83MPD2    C5 1294   0.159   1.229  10.823 -0.5330  0.4824  0.3669
   83MPD2     H 1295   4.588   1.012  10.873 -1.5778  1.2465 -1.3078
   83MPD2    H1 1296   0.260   1.050  10.872  0.2347 -1.2357 -0.0400
   83MPD2    H2 1297   0.040   1.382  10.740  1.3049  0.7855  1.9440
   83MPD2    H3 1298   0.252   1.284  10.809 -0.0565 -0.3853  0.1217
   83MPD2     N 1299   0.068   0.897  10.946  0.2898  0.0959 -0.7450
   83MPD2    H5 1300   0.165   0.867  10.954  0.0065 -0.6528 -0.0526
   83MPD2    N1 1301   4.544   1.291  10.822 -0.5623  0.2627  0.8282
   83MPD2    H7 1302   4.548   1.378  10.769  2.1084 -0.3838 -0.0164
   84TMC2    C1 1303   0.754   0.832  11.201  0.0816  0.3367  0.4423
   84TMC2    C2 1304   0.707   0.813  11.330  0.3001 -0.2768  0.0118
   84TMC2    C3 1305   0.730   0.693  11.392  0.0288  0.5180 -0.3774
   84TMC2    C4 1306   0.823   0.730  11.136  0.3077  1.2715  0.2743
   84TMC2    C5 1307   0.854   0.617  11.214 -1.2962 -0.0935 -0.2932
   84TMC2    C6 1308   0.816   0.594  11.343 -0.7687  0.3410  0.2031
   84TMC2     C 1309   0.766   0.973  11.155 -0.2766  0.4959 -0.7271
   84TMC2     O 1310   0.719   1.057  11.235  1.0082 -0.1791 -0.1926
   84TMC2     H 1311   0.641   0.885  11.376  0.6879 -0.2167  0.4766
   84TMC2    H1 1312   0.852   0.722  11.032  1.3444 -3.5697  0.9052
   84TMC2    H2 1313   0.852   0.509  11.400  0.0731 -0.1389 -1.0541
   84TMC2    C7 1314   0.902   0.502  11.143  0.1054 -0.2039  0.2914
   84TMC2    C8 1315   0.695   0.678  11.535  0.0243 -0.7850 -0.3047
   84TMC2    O1 1316   0.880   0.393  11.193  0.3159  0.2483 -0.0380
   84TMC2    O2 1317   0.690   0.768  11.620 -0.4944  0.2417 -0.2321
   84TMC2    O5 1318   0.674   0.547  11.563 -0.1811 -0.4925  0.0740
   84TMC2    H5 1319   0.665   0.491  11.483  0.6116 -1.5471  0.7170
   85TMC2    C1 1320   1.466   3.473  15.859  0.7330  0.2710 -0.3425
   85TMC2    C2 1321   1.345   3.531  15.842  0.2128  0.1103  0.6747
   85TMC2    C3 1322   1.340   3.644  15.763 -0.4292  0.6446 -0.3595
   85TMC2    C4 1323   1.581   3.530  15.812 -0.2154  0.0386 -0.5976
   85TMC2    C5 1324   1.561   3.636  15.729 -0.1066  0.1206  0.6941
   85TMC2    C6 1325   1.451   3.705  15.707  0.5494  0.1245  0.4533
   85TMC2     C 1326   1.481   3.381  15.968  0.0568  0.7792 -0.3134
   85TMC2     O 1327   1.555   3.409  16.058 -0.8030  0.0246 -0.0231
   85TMC2     H 1328   1.257   3.475  15.872 -1.2710  2.4986  0.8547
   85TMC2    H1 1329   1.677   3.479  15.814  0.1399  0.7538  0.5748
   85TMC2    H2 1330   1.431   3.788  15.641  0.9342  0.3032  0.5653
   85TMC2    C7 1331   1.666   3.666  15.626 -0.2567  0.1758  0.4380
   85TMC2    C8 1332   1.216   3.729  15.770 -0.2467  0.2606 -0.2873
   85TMC2    O1 1333   1.765   3.590  15.624 -0.1065 -0.2013 -0.0664
   85TMC2    O2 1334   1.215   3.825  15.697 -0.0306 -0.1948 -0.3191
   85TMC2    O5 1335   1.175   3.729  15.900  0.0257 -0.4153  0.5690
   85TMC2    H5 1336   1.194   3.641  15.940  2.9072  0.0692  0.2443
   86MPD2     C 1337   1.233   3.059  16.292 -0.1182  0.1990 -0.3882
   86MPD2    C1 1338   1.207   3.021  16.160  0.2149 -0.3418  0.4509
   86MPD2    C2 1339   1.263   3.094  16.055  0.3964 -0.8137  0.0021
   86MPD2    C3 1340   1.347   3.201  16.077 -0.4710 -0.2203 -0.6747
   86MPD2    C4 1341   1.378   3.227  16.209  0.1162 -0.0735 -0.0355
   86MPD2    C5 1342   1.327   3.157  16.312  0.9316  0.1409 -0.3631
   86MPD2     H 1343   1.239   3.062  15.955 -0.7013 -2.6263  0.8339
   86MPD2    H1 1344   1.439   3.315  16.227  0.8682 -0.1462 -2.2513
   86MPD2    H2 1345   1.200   3.005  16.380  0.1548  2.0081  0.8104
   86MPD2    H3 1346   1.361   3.180  16.413 -0.2961  0.1798  0.0370
   86MPD2     N 1347   1.381   3.282  15.966 -0.3844  0.2804  0.0674
   86MPD2    H5 1348   1.332   3.267  15.879  0.3845 -0.9181 -0.1568
   86MPD2    N1 1349   1.130   2.909  16.129 -0.5853 -0.2005  0.1949
   86MPD2    H7 1350   1.119   2.882  16.032  0.0168  1.9483 -0.4754
   87TMC2    C1 1351   3.293   1.839   1.256 -0.2370 -0.5570 -0.2100
   87TMC2    C2 1352   3.390   1.835   1.348 -0.7550 -0.2380 -0.7004
   87TMC2    C3 1353   3.384   1.905   1.458 -0.3094  0.1390  0.3306
   87TMC2    C4 1354   3.190   1.929   1.267 -0.3056 -0.1459  0.1707
   87TMC2    C5 1355   3.181   1.993   1.385 -0.2351 -0.0216  0.0453
   87TMC2    C6 1356   3.274   1.979   1.481  0.4519 -0.0550  0.2381
   87TMC2     C 1357   3.323   1.782   1.127 -0.1120 -0.4802 -0.4687
   87TMC2     O 1358   3.444   1.769   1.097 -0.4663  0.6733  0.3099
   87TMC2     H 1359   3.488   1.794   1.331  0.5145  2.1091  0.9379
   87TMC2    H1 1360   3.140   1.956   1.175 -1.5332  0.6745  1.0855
   87TMC2    H2 1361   3.257   2.034   1.573  0.5696 -2.3402  1.6196
   87TMC2    C7 1362   3.107   2.118   1.370  0.7991  0.5123  0.5519
   87TMC2    C8 1363   3.466   1.869   1.564  0.2871 -0.4213 -0.1641
   87TMC2    O1 1364   3.011   2.114   1.295 -0.3902 -0.1213 -0.1365
   87TMC2    O2 1365   3.588   1.876   1.557  0.2095 -0.3908 -0.7398
   87TMC2    O5 1366   3.389   1.793   1.655 -0.3572 -0.1676  0.5016
   87TMC2    H5 1367   3.294   1.789   1.634 -0.6241 -2.5033  2.1885
   88MPD2     C 1368   3.205   2.466   1.450  0.5057 -0.0125  0.3608
   88MPD2    C1 1369   3.128   2.363   1.395  0.7589  0.2872  0.5127
   88MPD2    C2 1370   3.027   2.392   1.301 -0.0364 -0.1240 -0.1654
   88MPD2    C3 1371   3.005   2.521   1.267  0.2988 -0.8549  0.4017
   88MPD2    C4 1372   3.079   2.626   1.324  0.0927  1.0665  0.0804
   88MPD2    C5 1373   3.174   2.596   1.415 -0.1473  0.1876  0.2628
   88MPD2     H 1374   2.964   2.316   1.257 -1.8182  0.7229  0.8934
   88MPD2    H1 1375   3.074   2.728   1.290  0.7403  0.2376 -2.5351
   88MPD2    H2 1376   3.285   2.444   1.520  3.2343  0.7782 -2.5479
   88MPD2    H3 1377   3.243   2.673   1.450  0.5988  0.3233 -1.5078
   88MPD2     N 1378   2.926   2.558   1.152  0.0177  0.4191  0.3935
   88MPD2    H5 1379   2.937   2.650   1.110 -2.0428 -0.2364 -1.6517
   88MPD2    N1 1380   3.165   2.229   1.429  0.9530  0.2122  0.6619
   88MPD2    H7 1381   3.235   2.212   1.501  0.1435 -0.1142  1.3674
   89TMC2    C1 1382   3.975   0.525   1.151 -0.0342 -0.0448 -0.2583
   89TMC2    C2 1383   3.843   0.552   1.133 -0.2616 -0.8302 -0.1794
   89TMC2    C3 1384   3.811   0.635   1.029  0.0418 -0.2821 -0.5566
   89TMC2    C4 1385   4.075   0.571   1.074  0.2413  0.1642 -0.0457
   89TMC2    C5 1386   4.037   0.668   0.986 -0.1023  0.7813  0.4095
   89TMC2    C6 1387   3.907   0.698   0.956 -0.0852 -0.5239  0.8428
   89TMC2     C 1388   4.015   0.402   1.217 -0.1588  0.1477 -1.1875
   89TMC2     O 1389   4.124   0.362   1.188 -0.2629  0.1405 -0.1167
   89TMC2     H 1390   3.757   0.513   1.187 -1.9255 -0.0555 -2.2333
   89TMC2    H1 1391   4.176   0.547   1.104  1.2238  1.6860 -2.1149
   89TMC2    H2 1392   3.877   0.779   0.891 -1.1491 -0.5604  1.2932
   89TMC2    C7 1393   4.133   0.735   0.900 -0.3175  0.3996 -0.4108
   89TMC2    C8 1394   3.675   0.682   1.021  0.0893 -0.5037  0.5589
   89TMC2    O1 1395   4.089   0.774   0.792 -0.8024 -0.0153  0.5361
   89TMC2    O2 1396   3.612   0.724   1.121 -0.5337  0.0165 -0.0939
   89TMC2    O5 1397   3.654   0.721   0.896  0.5177 -0.0287  0.2470
   89TMC2    H5 1398   3.697   0.657   0.835 -0.5022 -0.7122  0.2598
   90MPD2     C 1399   3.825   4.667   1.301 -0.0546 -0.6391  0.3028
   90MPD2    C1 1400   3.747   0.014   1.363  0.0707 -0.0944  0.0307
   90MPD2    C2 1401   3.771   0.150   1.337  0.8004 -0.6854  0.3418
   90MPD2    C3 1402   3.886   0.199   1.275  0.0755  0.4597  0.3490
   90MPD2    C4 1403   3.983   0.108   1.237  0.0679  0.2278 -0.9253
   90MPD2    C5 1404   3.952   4.710   1.251  0.8400 -0.3227  0.5087
   90MPD2     H 1405   3.694   0.213   1.380  1.4124  0.1673  0.1793
   90MPD2    H1 1406   4.081   0.136   1.201  1.4207 -0.9649  1.8287
   90MPD2    H2 1407   3.819   4.559   1.312 -2.1433 -0.5779 -0.2421
   90MPD2    H3 1408   4.021   4.631   1.222  0.8567 -0.7845  1.8297
   90MPD2     N 1409   3.900   0.334   1.262  0.0072  1.0159 -0.0793
   90MPD2    H5 1410   3.826   0.391   1.301  1.4805  1.9084  1.4153
   90MPD2    N1 1411   3.641   4.703   1.447 -0.2518  0.0675 -0.3882
   90MPD2    H7 1412   3.630   4.602   1.447  0.4922 -0.0163 -0.2743
   91TMC2    C1 1413   1.287   4.373  16.703  0.2847  0.0895 -0.2091
   91TMC2    C2 1414   1.307   4.389  16.839  0.0717 -0.4859  0.0810
   91TMC2    C3 1415   1.245   4.313  16.926  0.3711 -0.3857 -0.7392
   91TMC2    C4 1416   1.179   4.302  16.663 -0.2864 -0.1442 -0.0861
   91TMC2    C5 1417   1.108   4.244  16.763 -0.0948  0.6065 -0.0194
   91TMC2    C6 1418   1.134   4.243  16.893  0.5021  0.2266  0.3584
   91TMC2     C 1419   1.387   4.400  16.601  0.0103  0.5860 -0.0294
   91TMC2     O 1420   1.352   4.379  16.486  0.2007  0.1868 -0.6678
   91TMC2     H 1421   1.380   4.459  16.879 -0.4780  0.2584 -0.2248
   91TMC2    H1 1422   1.166   4.278  16.558  2.1186 -3.0447  0.2935
   91TMC2    H2 1423   1.087   4.172  16.960  2.4915 -0.9781  0.4968
   91TMC2    C7 1424   0.979   4.199  16.735 -0.5229 -0.1980 -0.4785
   91TMC2    C8 1425   1.301   4.305  17.061  0.5717  0.5797 -0.4532
   91TMC2    O1 1426   0.919   4.131  16.819 -0.0306 -0.4154  0.3185
   91TMC2    O2 1427   1.372   4.380  17.122  0.3221  0.1663  0.0681
   91TMC2    O5 1428   1.293   4.179  17.108  0.6726 -0.0459  0.1291
   91TMC2    H5 1429   1.248   4.111  17.053  0.8798 -0.6351  0.6983
   92MPD2     C 1430   1.647   4.386  16.440  0.9164  0.5852  0.0161
   92MPD2    C1 1431   1.634   4.412  16.575 -0.4713  0.0155 -0.6176
   92MPD2    C2 1432   1.754   4.433  16.643  0.3867  0.4952  0.4696
   92MPD2    C3 1433   1.876   4.420  16.582 -0.2052  0.4858  0.2980
   92MPD2    C4 1434   1.885   4.397  16.447  0.1556  0.1828  0.3291
   92MPD2    C5 1435   1.769   4.383  16.382  0.0880 -0.0764  0.3299
   92MPD2     H 1436   1.747   4.451  16.750  0.4128  0.3569  0.4938
   92MPD2    H1 1437   1.978   4.383  16.393  1.0826  0.7742  1.7628
   92MPD2    H2 1438   1.569   4.362  16.370  0.5483 -0.4324  0.7800
   92MPD2    H3 1439   1.781   4.356  16.278  1.3616 -0.7797  0.6588
   92MPD2     N 1440   1.986   4.418  16.672 -0.3790  0.4389  0.1677
   92MPD2    H5 1441   1.984   4.452  16.767 -0.7636 -1.0304  0.6839
   92MPD2    N1 1442   1.517   4.405  16.653  0.3220 -0.5380 -0.0087
   92MPD2    H7 1443   1.528   4.421  16.752 -1.3830 -1.1875  0.2869
   93TMC2    C1 1444   3.464   4.343  13.287  0.9829  0.1009 -0.8760
   93TMC2    C2 1445   3.474   4.297  13.419 -0.2228  0.2703  0.2410
   93TMC2    C3 1446   3.582   4.345  13.490 -0.0980 -0.4538  0.4131
   93TMC2    C4 1447   3.561   4.432  13.227 -0.4397 -0.1759  0.3579
   93TMC2    C5 1448   3.665   4.462  13.308 -0.3427  0.2986 -0.1730
   93TMC2    C6 1449   3.683   4.418  13.431  0.2168 -0.3655 -0.7008
   93TMC2     C 1450   3.339   4.355  13.224  0.6963  0.1640  0.0059
   93TMC2     O 1451   3.329   4.413  13.116  0.3840  0.4180  0.1748
   93TMC2     H 1452   3.401   4.233  13.468 -2.3169  0.5084 -2.5576
   93TMC2    H1 1453   3.547   4.469  13.126  0.8375 -0.3478  0.1222
   93TMC2    H2 1454   3.764   4.449  13.495  0.1420 -0.2530 -0.6597
   93TMC2    C7 1455   3.779   4.544  13.259  0.1347 -0.2217 -0.3788
   93TMC2    C8 1456   3.604   4.298  13.622  0.0398 -0.5282 -0.5019
   93TMC2    O1 1457   3.890   4.510  13.301  0.3681  0.0047  0.1852
   93TMC2    O2 1458   3.710   4.303  13.685 -0.0243 -0.0026  0.0108
   93TMC2    O5 1459   3.487   4.264  13.682 -0.2156 -0.4457  0.0107
   93TMC2    H5 1460   3.399   4.298  13.656 -0.1695 -1.8697 -1.9264
   94MPD2     C 1461   3.053   4.450  13.208 -0.4083 -0.2833 -0.8108
   94MPD2    C1 1462   3.092   4.349  13.286 -0.1348  0.3048 -0.2524
   94MPD2    C2 1463   2.990   4.285  13.360 -0.0648 -0.3555  0.4758
   94MPD2    C3 1464   2.855   4.334  13.364  0.1032  0.7048  0.5988
   94MPD2    C4 1465   2.825   4.443  13.292  0.4187 -0.1100  0.8374
   94MPD2    C5 1466   2.927   4.508  13.224  0.7353 -0.5065  0.3649
   94MPD2     H 1467   3.017   4.204  13.427  1.1394  0.8033  1.3761
   94MPD2    H1 1468   2.732   4.498  13.303  0.1408 -0.5201  0.5643
   94MPD2    H2 1469   3.126   4.506  13.150  0.0089 -0.4344 -0.4314
   94MPD2    H3 1470   2.906   4.606  13.184  2.4460 -0.7889 -1.2193
   94MPD2     N 1471   2.751   4.261  13.423  0.4527  0.3829 -0.4184
   94MPD2    H5 1472   2.661   4.307  13.439  0.1532 -0.3861  0.1342
   94MPD2    N1 1473   3.233   4.306  13.301 -0.0651  0.8460 -0.7153
   94MPD2    H7 1474   3.258   4.246  13.379 -0.7860 -0.2033 -1.2931
   95TMC2    C1 1475   3.180   1.151  16.073 -0.3870 -0.2048  0.4584
   95TMC2    C2 1476   3.185   1.028  16.031 -0.4256  0.7650  1.3534
   95TMC2    C3 1477   3.129   0.931  16.105  0.2673 -0.1435  0.3469
   95TMC2    C4 1478   3.111   1.182  16.191 -0.4405 -1.1791  0.2881
   95TMC2    C5 1479   3.054   1.082  16.267 -0.4403 -0.6250 -0.8778
   95TMC2    C6 1480   3.065   0.951  16.225  0.1514  0.1881 -0.0400
   95TMC2     C 1481   3.237   1.258  15.987  0.8263 -0.0507 -0.0358
   95TMC2     O 1482   3.304   1.212  15.894 -0.1196 -0.3691  0.3894
   95TMC2     H 1483   3.238   0.995  15.942  0.2712 -2.6566  3.0563
   95TMC2    H1 1484   3.102   1.286  16.221 -1.4057 -0.6238 -1.9012
   95TMC2    H2 1485   2.999   0.874  16.262 -0.3269  1.2601  1.3544
   95TMC2    C7 1486   2.960   1.108  16.383  0.8214 -0.3941 -0.4049
   95TMC2    C8 1487   3.130   0.789  16.061  0.3651 -0.0883  0.0421
   95TMC2    O1 1488   2.905   1.013  16.441  0.1814  0.1654  0.9904
   95TMC2    O2 1489   3.085   0.703  16.138  0.3168  0.5094 -0.2781
   95TMC2    O5 1490   3.217   0.765  15.962  0.1747 -0.9069 -0.1555
   95TMC2    H5 1491   3.245   0.846  15.913 -1.8960 -0.2673 -0.2503
   96MPD2     C 1492   3.334   1.734  15.806  0.5749  0.9983  0.6130
   96MPD2    C1 1493   3.408   1.622  15.802 -0.3586 -0.1865  0.5065
   96MPD2    C2 1494   3.372   1.505  15.861 -0.2802 -0.8764  0.1702
   96MPD2    C3 1495   3.254   1.504  15.938  0.0328  0.5825 -0.0264
   96MPD2    C4 1496   3.174   1.618  15.937 -0.8847 -0.5942  0.1427
   96MPD2    C5 1497   3.217   1.733  15.879  0.0258  0.8659 -0.1141
   96MPD2     H 1498   3.446   1.427  15.875 -0.8260 -1.2698  0.8576
   96MPD2    H1 1499   3.079   1.627  15.988 -0.5139 -1.3262  0.9667
   96MPD2    H2 1500   3.364   1.828  15.761  1.6917 -0.1296 -0.9916
   96MPD2    H3 1501   3.159   1.824  15.881 -0.7427  0.3788 -0.2230
   96MPD2     N 1502   3.213   1.394  16.026 -0.1870  0.5422 -0.5425
   96MPD2    H5 1503   3.128   1.407  16.078  0.0587 -0.6011  0.1377
   96MPD2    N1 1504   3.532   1.644  15.732  0.3874 -0.4408 -0.3756
   96MPD2    H7 1505   3.552   1.743  15.720  1.4411 -0.7586 -1.2210
   97TMC2    C1 1506   0.884   3.484  17.552 -0.5762 -0.1907 -0.2349
   97TMC2    C2 1507   0.967   3.492  17.443  0.0566  0.0077 -0.0076
   97TMC2    C3 1508   1.044   3.597  17.428  0.2139 -0.2891 -1.2304
   97TMC2    C4 1509   0.874   3.585  17.648  0.3685  0.2069 -1.4054
   97TMC2    C5 1510   0.952   3.697  17.619  0.1744  0.1085 -0.4034
   97TMC2    C6 1511   1.042   3.706  17.512  0.4839 -0.1260  0.0318
   97TMC2     C 1512   0.797   3.376  17.562  0.7714 -0.1247  1.0130
   97TMC2     O 1513   0.717   3.397  17.648 -0.0551 -0.7227  0.0584
   97TMC2     H 1514   0.954   3.422  17.362 -3.0251  0.2307  0.2971
   97TMC2    H1 1515   0.828   3.564  17.743 -0.5656 -0.8009 -2.0731
   97TMC2    H2 1516   1.084   3.803  17.488  0.8825 -0.1370  0.6755
   97TMC2    C7 1517   0.925   3.829  17.682 -0.2582 -0.0637  1.0416
   97TMC2    C8 1518   1.108   3.633  17.301  0.5057  0.1068  0.4537
   97TMC2    O1 1519   1.017   3.913  17.669  0.1126  0.2132  0.1122
   97TMC2    O2 1520   1.070   3.573  17.207 -0.4610 -0.2853 -0.5944
   97TMC2    O5 1521   1.237   3.664  17.316 -0.2230 -0.2032  0.1561
   97TMC2    H5 1522   1.266   3.735  17.378  1.4813  0.4913 -1.4525
   98MPD2     C 1523   0.508   3.021  17.348  0.1295  0.3109 -0.0416
   98MPD2    C1 1524   0.474   3.139  17.410  0.6489 -0.5263 -0.9106
   98MPD2    C2 1525   0.576   3.213  17.463  1.0199  0.6511 -0.6327
   98MPD2    C3 1526   0.710   3.180  17.442 -0.5780 -0.8039 -0.3267
   98MPD2    C4 1527   0.736   3.068  17.366 -0.7898 -0.2526  0.6965
   98MPD2    C5 1528   0.633   2.993  17.321  0.3724  0.2556  0.2798
   98MPD2     H 1529   0.550   3.297  17.527  0.9028 -0.6026  0.9723
   98MPD2    H1 1530   0.840   3.039  17.356 -0.6459  0.9080 -1.0486
   98MPD2    H2 1531   0.429   2.956  17.313  0.2521 -0.2101  0.6401
   98MPD2    H3 1532   0.646   2.894  17.280  1.0797  0.1035  0.8856
   98MPD2     N 1533   0.813   3.268  17.478  0.2643  0.0042 -0.0456
   98MPD2    H5 1534   0.907   3.249  17.446  0.1606  0.1555 -0.4379
   98MPD2    N1 1535   0.340   3.180  17.417  1.0475 -0.3809  0.0461
   98MPD2    H7 1536   0.276   3.105  17.396 -2.0989  1.6444  2.3489
   99TMC2    C1 1537   3.387   1.159   1.540 -0.8358  0.0895  0.2088
   99TMC2    C2 1538   3.402   1.214   1.663 -0.2815  0.3865 -0.2381
   99TMC2    C3 1539   3.295   1.219   1.743 -0.6892  0.7775 -0.1689
   99TMC2    C4 1540   3.268   1.112   1.493 -0.0611  0.1334 -0.1138
   99TMC2    C5 1541   3.162   1.112   1.579 -0.8733 -0.0442  0.2354
   99TMC2    C6 1542   3.171   1.179   1.699 -0.6022  0.4403 -0.4155
   99TMC2     C 1543   3.487   1.193   1.443 -0.2927 -0.8243  0.3305
   99TMC2     O 1544   3.570   1.277   1.473  0.2592 -0.2078  0.1372
   99TMC2     H 1545   3.496   1.257   1.698  1.0460 -2.3684 -0.3845
   99TMC2    H1 1546   3.268   1.060   1.398 -0.2164  0.4382 -0.2800
   99TMC2    H2 1547   3.086   1.177   1.766  1.2338 -1.9268  1.8290
   99TMC2    C7 1548   3.024   1.118   1.522 -0.1216 -0.2856  0.3367
   99TMC2    C8 1549   3.304   1.233   1.888 -0.0355 -0.1153  0.1282
   99TMC2    O1 1550   2.936   1.187   1.567  0.3378 -0.4895  0.2789
   99TMC2    O2 1551   3.260   1.144   1.956 -0.2571 -0.2335 -0.1120
   99TMC2    O5 1552   3.411   1.310   1.912 -0.1280 -0.0096  0.1255
   99TMC2    H5 1553   3.426   1.386   1.851 -1.9531 -0.8997 -1.4444
  100MPD2     C 1554   3.685   1.195   1.220  0.6369  0.5429  0.2021
  100MPD2    C1 1555   3.567   1.123   1.212 -0.7086 -0.1576 -0.2655
  100MPD2    C2 1556   3.531   1.059   1.096  0.1153 -0.1209  0.2930
  100MPD2    C3 1557   3.617   1.060   0.990  0.1408 -0.3607 -0.4521
  100MPD2    C4 1558   3.739   1.127   0.994 -0.3051  0.3848 -0.3541
  100MPD2    C5 1559   3.768   1.186   1.108  0.6441 -0.0143  0.4919
  100MPD2     H 1560   3.436   1.008   1.087  0.0199 -0.1479  1.3627
  100MPD2    H1 1561   3.809   1.133   0.911 -0.4286  3.1817 -0.2738
  100MPD2    H2 1562   3.717   1.247   1.310 -0.8070 -1.2628  1.7444
  100MPD2    H3 1563   3.857   1.246   1.125  1.2418  0.0473 -2.8528
  100MPD2     N 1564   3.572   0.990   0.873  0.5039 -0.0990  0.2892
  100MPD2    H5 1565   3.490   0.933   0.888  0.4300  0.1072  0.6949
  100MPD2    N1 1566   3.479   1.118   1.325 -0.2225 -0.0985 -0.5751
  100MPD2    H7 1567   3.397   1.059   1.316 -0.0105 -0.6543  1.0295
  101TMC2    C1 1568   0.072   2.103  13.706  0.2105 -0.9642 -0.4080
  101TMC2    C2 1569   4.716   2.191  13.742  0.5741  0.1022  0.6678
  101TMC2    C3 1570   4.722   2.325  13.712 -0.2673 -0.9451 -0.3450
  101TMC2    C4 1571   0.175   2.151  13.622 -0.5927 -1.0152 -0.1988
  101TMC2    C5 1572   0.169   2.281  13.585 -0.1093  0.5605  0.0264
  101TMC2    C6 1573   0.071   2.372  13.629 -0.4432  0.2082 -0.1869
  101TMC2     C 1574   0.007   1.976  13.665  0.5102 -0.1840  0.7604
  101TMC2     O 1575   4.643   1.944  13.721  0.5803  0.0167  0.5394
  101TMC2     H 1576   4.627   2.161  13.797  0.2155 -0.8868 -0.4600
  101TMC2    H1 1577   0.253   2.086  13.585 -0.2984  0.6861 -2.5577
  101TMC2    H2 1578   0.074   2.479  13.612  0.1210 -0.0881 -1.9650
  101TMC2    C7 1579   0.254   2.328  13.483  0.1229 -0.1723  0.0234
  101TMC2    C8 1580   4.629   2.422  13.768  0.2201  0.3098  0.1674
  101TMC2    O1 1581   0.365   2.278  13.458 -0.0505  0.1208  0.0774
  101TMC2    O2 1582   4.606   2.435  13.885  0.0943 -0.3408 -0.3316
  101TMC2    O5 1583   4.535   2.424  13.666  0.2258  0.3524 -0.8463
  101TMC2    H5 1584   4.558   2.384  13.580  1.0590  1.1522 -0.9920
  102MPD2     C 1585   0.099   1.726  13.394 -0.2134 -0.0645 -0.2657
  102MPD2    C1 1586   0.032   1.781  13.506 -0.3960 -0.2287 -0.3161
  102MPD2    C2 1587   4.668   1.703  13.560 -0.8549  0.0605 -0.2469
  102MPD2    C3 1588   4.623   1.586  13.501 -0.2617 -0.4959  0.8081
  102MPD2    C4 1589   4.684   1.540  13.391  0.4103 -0.0935  0.6640
  102MPD2    C5 1590   0.055   1.605  13.339  0.2652 -0.1805  0.2593
  102MPD2     H 1591   4.630   1.735  13.656  2.1187 -1.4807  1.4586
  102MPD2    H1 1592   4.661   1.445  13.345 -0.6142  0.2131  0.5451
  102MPD2    H2 1593   0.186   1.771  13.348  0.6357 -1.7327 -0.2921
  102MPD2    H3 1594   0.104   1.556  13.256 -2.1250 -0.5951 -0.9134
  102MPD2     N 1595   4.528   1.506  13.574 -0.1221  0.3887  0.1952
  102MPD2    H5 1596   4.498   1.552  13.659  0.8780  0.2890  0.6009
  102MPD2    N1 1597   0.073   1.906  13.565  0.6895 -0.0513  0.4710
  102MPD2    H7 1598   0.157   1.951  13.530  2.3610 -1.4987  2.6081
  103TMC2    C1 1599   2.988   2.217  12.285 -0.2433 -0.6655  0.6395
  103TMC2    C2 1600   3.023   2.335  12.225  0.6524  0.2101  0.1232
  103TMC2    C3 1601   3.109   2.417  12.292 -0.0086  1.9329  0.4339
  103TMC2    C4 1602   3.027   2.192  12.413  0.4696  0.3972  0.4829
  103TMC2    C5 1603   3.112   2.272  12.472  0.0687  0.2183 -0.4079
  103TMC2    C6 1604   3.160   2.390  12.418  0.5139  0.2876  0.7543
  103TMC2     C 1605   2.879   2.146  12.227 -0.1102 -0.9709  0.4207
  103TMC2     O 1606   2.797   2.208  12.160 -0.3296  0.1352  0.2849
  103TMC2     H 1607   2.979   2.357  12.128  0.6394  0.2044  0.1277
  103TMC2    H1 1608   2.996   2.109  12.475  2.4708  0.0990  1.0801
  103TMC2    H2 1609   3.211   2.468  12.472  0.7438  0.3203  0.4908
  103TMC2    C7 1610   3.117   2.255  12.616 -0.2172  0.3862  0.0096
  103TMC2    C8 1611   3.144   2.535  12.216  0.5195 -0.1312  0.2053
  103TMC2    O1 1612   3.030   2.191  12.676  0.0987  0.0367 -0.5697
  103TMC2    O2 1613   3.059   2.620  12.185 -0.0665 -0.1691 -0.1526
  103TMC2    O5 1614   3.268   2.571  12.244 -0.1434 -0.0703  0.3667
  103TMC2    H5 1615   3.320   2.492  12.271  2.1616  1.5454  0.6258
  104MPD2     C 1616   2.774   1.846  12.387 -0.8360 -0.5329 -0.6995
  104MPD2    C1 1617   2.756   1.954  12.309 -0.0880  0.0643  0.0695
  104MPD2    C2 1618   2.624   1.977  12.256  0.3788  0.9282 -0.5204
  104MPD2    C3 1619   2.515   1.898  12.295  0.4375 -0.0411  0.1600
  104MPD2    C4 1620   2.536   1.791  12.379 -0.5324 -0.2811 -0.3278
  104MPD2    C5 1621   2.662   1.765  12.418 -0.3524  0.1588 -0.0295
  104MPD2     H 1622   2.600   2.060  12.192  1.4307  0.6436 -1.2722
  104MPD2    H1 1623   2.454   1.725  12.406  0.3305 -2.0706 -2.0989
  104MPD2    H2 1624   2.867   1.818  12.436 -0.6671  0.5193 -0.4129
  104MPD2    H3 1625   2.671   1.688  12.494  0.9037 -0.1224 -0.4639
  104MPD2     N 1626   2.393   1.920  12.229 -0.7700  0.1359  0.1159
  104MPD2    H5 1627   2.384   1.990  12.156  3.1547  2.1640  1.5660
  104MPD2    N1 1628   2.871   2.027  12.284  0.0913  0.2707  0.0785
  104MPD2    H7 1629   2.953   1.998  12.335 -0.8286  1.0811  2.0145
  105TMC2    C1 1630   3.705   1.582   0.298 -0.1846 -0.1095  0.4583
  105TMC2    C2 1631   3.702   1.709   0.255 -0.0020 -0.1545 -0.3429
  105TMC2    C3 1632   3.604   1.792   0.306  0.1857  0.0856  0.2919
  105TMC2    C4 1633   3.624   1.542   0.399 -0.2356  0.5933 -0.0082
  105TMC2    C5 1634   3.529   1.629   0.449 -0.2281  0.0051 -0.5923
  105TMC2    C6 1635   3.522   1.761   0.410 -0.4435 -0.1446 -0.2171
  105TMC2     C 1636   3.794   1.484   0.243  0.8721 -0.1278  0.4807
  105TMC2     O 1637   3.799   1.375   0.298  0.2471 -0.1903  0.3120
  105TMC2     H 1638   3.766   1.739   0.173  2.7302  2.3159  2.6770
  105TMC2    H1 1639   3.618   1.438   0.427  0.1158  0.4602 -0.4365
  105TMC2    H2 1640   3.472   1.842   0.462 -0.0048  1.2352 -1.9437
  105TMC2    C7 1641   3.428   1.568   0.524 -0.3925 -0.1215 -0.1669
  105TMC2    C8 1642   3.629   1.938   0.289  0.3594  0.2701 -0.6645
  105TMC2    O1 1643   3.392   1.454   0.498 -0.0716  0.2056  0.1355
  105TMC2    O2 1644   3.548   1.992   0.217 -0.4842  0.0032  0.1055
  105TMC2    O5 1645   3.765   1.943   0.283 -0.1344  0.0860  0.5696
  105TMC2    H5 1646   3.810   1.893   0.354 -1.6929 -1.7254  0.2526
  106MPD2     C 1647   4.155   1.324  17.674  0.0508 -0.4669 -0.3486
  106MPD2    C1 1648   4.067   1.406  17.609  0.0539 -0.4473  0.8158
  106MPD2    C2 1649   3.967   1.469  17.681 -0.1771 -0.1359  0.5186
  106MPD2    C3 1650   3.937   1.430   0.057  0.0467 -0.0618 -0.3804
  106MPD2    C4 1651   4.014   1.329   0.117 -0.6193  0.0547 -0.4834
  106MPD2    C5 1652   4.123   1.281   0.044 -0.1183 -0.3696  0.4435
  106MPD2     H 1653   3.915   1.547  17.626  1.1466  1.5966  1.7407
  106MPD2    H1 1654   3.998   1.298   0.220  1.4747 -0.4121 -0.3080
  106MPD2    H2 1655   4.230   1.265  17.622 -0.4442 -0.2507 -1.3067
  106MPD2    H3 1656   4.198   1.228   0.102 -2.8660 -2.3329  2.2223
  106MPD2     N 1657   3.846   1.519   0.119 -0.3690  0.4923  0.6038
  106MPD2    H5 1658   3.819   1.601   0.066  1.3886 -1.4066 -3.2678
  106MPD2    N1 1659   4.082   1.448  17.475 -0.0703  0.5628 -0.4022
  106MPD2    H7 1660   4.023   1.521  17.437  1.1554  0.7708 -1.8929
  107TMC2    C1 1661   0.642   1.742  11.101  0.0948  0.6507  0.3666
  107TMC2    C2 1662   0.732   1.811  11.180  0.1786  0.4841 -0.1047
  107TMC2    C3 1663   0.859   1.821  11.146 -0.0858 -0.3677  0.5230
  107TMC2    C4 1664   0.690   1.658  11.006 -0.6259  0.6678  0.7527
  107TMC2    C5 1665   0.817   1.681  10.966 -0.2653  0.3937 -0.2447
  107TMC2    C6 1666   0.904   1.762  11.033 -0.5930 -0.3054 -0.2010
  107TMC2     C 1667   0.502   1.738  11.138 -0.1475 -0.6967  0.6696
  107TMC2     O 1668   0.478   1.780  11.245 -0.3230 -0.0091 -0.0801
  107TMC2     H 1669   0.688   1.866  11.262 -2.0861  0.2648 -1.1792
  107TMC2    H1 1670   0.635   1.598  10.934 -1.4766 -0.2748  2.1771
  107TMC2    H2 1671   1.008   1.779  11.005 -0.1569 -1.1163  0.9243
  107TMC2    C7 1672   0.887   1.563  10.915  0.4480  0.2065  0.2141
  107TMC2    C8 1673   0.939   1.938  11.189  0.4513 -0.5728 -0.2725
  107TMC2    O1 1674   1.003   1.583  10.879  0.1883  0.0185  0.1049
  107TMC2    O2 1675   1.004   2.010  11.115 -0.1576 -0.0405 -0.2479
  107TMC2    O5 1676   0.917   1.967  11.319 -0.0392  0.6659  0.2307
  107TMC2    H5 1677   0.862   1.902  11.368 -1.2114  1.0765 -0.5447
  108MPD2     C 1678   0.206   1.674  10.936 -0.3080  0.8535 -0.5878
  108MPD2    C1 1679   0.277   1.694  11.053  0.0024  0.4154 -0.2394
  108MPD2    C2 1680   0.207   1.692  11.175 -0.0414  0.2570  0.1150
  108MPD2    C3 1681   0.073   1.667  11.181 -0.2599 -0.4335 -0.0447
  108MPD2    C4 1682   0.007   1.651  11.072  0.1894 -0.0340  0.2273
  108MPD2    C5 1683   0.071   1.659  10.948  0.1445  0.1799  0.5901
  108MPD2     H 1684   0.263   1.695  11.268 -1.4552  0.4519  0.9512
  108MPD2    H1 1685   4.639   1.632  11.075  0.1168 -0.0672 -3.4705
  108MPD2    H2 1686   0.256   1.654  10.842  0.4073  0.8810 -0.2050
  108MPD2    H3 1687   0.009   1.639  10.861 -0.4611  0.5354  0.9368
  108MPD2     N 1688   0.009   1.625  11.304 -0.2637 -0.5145 -0.3645
  108MPD2    H5 1689   4.647   1.616  11.306 -0.4575  1.9942  0.3167
  108MPD2    N1 1690   0.419   1.703  11.036 -0.2623 -0.2642  0.1918
  108MPD2    H7 1691   0.452   1.690  10.941 -0.1045  2.7821 -0.1736
  109TMC2    C1 1692   3.865   3.056   0.294  0.6599  1.0007 -0.4068
  109TMC2    C2 1693   3.768   2.963   0.258  0.6068  0.6635 -0.8253
  109TMC2    C3 1694   3.764   2.935   0.126  0.4685 -0.3271  0.3951
  109TMC2    C4 1695   3.947   3.109   0.204  0.1803 -0.1618  0.3846
  109TMC2    C5 1696   3.934   3.076   0.076  0.2822  0.0179 -0.4168
  109TMC2    C6 1697   3.843   2.983   0.032 -0.3134 -0.4771  0.5026
  109TMC2     C 1698   3.871   3.118   0.425  0.7511  0.2856 -0.4344
  109TMC2     O 1699   3.950   3.208   0.447 -0.2187 -0.3529  0.1551
  109TMC2     H 1700   3.693   2.923   0.325  0.6260  2.0430  0.0245
  109TMC2    H1 1701   4.020   3.185   0.228 -1.7808  2.0193 -0.5914
  109TMC2    H2 1702   3.836   2.961  17.680 -0.8681  2.1364 -0.0120
  109TMC2    C7 1703   4.049   3.109  17.746 -0.0030  0.1053  0.5939
  109TMC2    C8 1704   3.672   2.830   0.093  0.5299  0.4581  0.4969
  109TMC2    O1 1705   4.141   3.179   0.040  0.6356 -0.0189  0.3574
  109TMC2    O2 1706   3.636   2.745   0.172 -0.5735 -0.1426 -0.8684
  109TMC2    O5 1707   3.622   2.859  17.732 -0.5858  0.3947 -0.5793
  109TMC2    H5 1708   3.643   2.946  17.692  2.5559 -0.2663 -0.3707
  110MPD2     C 1709   3.763   3.103   0.941  0.2000  0.1099  0.0752
  110MPD2    C1 1710   3.809   3.207   0.863 -0.5915  0.0710  0.5487
  110MPD2    C2 1711   3.818   3.197   0.718  0.0693 -0.1070  0.0530
  110MPD2    C3 1712   3.784   3.075   0.665 -0.2059 -0.1236 -0.5615
  110MPD2    C4 1713   3.726   2.976   0.742  0.4191 -0.2791 -0.7452
  110MPD2    C5 1714   3.713   2.988   0.877  0.1766 -0.4686 -1.1217
  110MPD2     H 1715   3.861   3.278   0.660 -0.2426  0.4062  0.5402
  110MPD2    H1 1716   3.693   2.882   0.701 -1.3155 -0.8430  1.9201
  110MPD2    H2 1717   3.758   3.117   1.048 -1.2513 -2.8117  0.4121
  110MPD2    H3 1718   3.670   2.911   0.941  0.1320  1.2655  0.9459
  110MPD2     N 1719   3.805   3.040   0.522  0.2956  0.3299  0.3304
  110MPD2    H5 1720   3.761   2.952   0.498  0.7436  0.2316 -0.1345
  110MPD2    N1 1721   3.842   3.319   0.945  0.4110 -0.0959  0.2851
  110MPD2    H7 1722   3.843   3.309   1.046 -2.1141 -0.6670  0.2653
  111TMC2    C1 1723   0.272   2.650  11.865 -0.1549 -0.1442  0.6012
  111TMC2    C2 1724   0.176   2.554  11.875 -0.5673  0.1595 -0.4669
  111TMC2    C3 1725   0.177   2.475  11.991 -0.2436  0.0878 -0.9719
  111TMC2    C4 1726   0.350   2.685  11.971  0.1431 -0.1976 -0.9973
  111TMC2    C5 1727   0.349   2.597  12.078 -0.1563  0.2696 -0.2516
  111TMC2    C6 1728   0.256   2.504  12.096 -0.3465  0.3333 -0.0447
  111TMC2     C 1729   0.227   2.768  11.798 -0.0822 -0.2913  0.3717
  111TMC2     O 1730   0.223   2.761  11.676 -0.6627  0.0840 -0.5875
  111TMC2     H 1731   0.097   2.541  11.801 -2.1020 -1.2745  1.4153
  111TMC2    H1 1732   0.426   2.762  11.955 -0.1415  0.0760 -1.0247
  111TMC2    H2 1733   0.247   2.437  12.181  0.5028  0.5878  0.2475
  111TMC2    C7 1734   0.445   2.628  12.184  0.8818  0.2690 -0.2487
  111TMC2    C8 1735   0.062   2.391  12.029  1.2875 -0.5653 -0.8401
  111TMC2    O1 1736   0.404   2.613  12.299  0.2916  0.0698 -0.1533
  111TMC2    O2 1737   0.092   2.285  12.083 -0.0003  0.6211 -0.6592
  111TMC2    O5 1738   4.724   2.487  12.081  0.0891  0.5885  0.4879
  111TMC2    H5 1739   4.728   2.570  12.029 -0.8218 -0.3360 -1.0528
  112MPD2     C 1740   0.110   3.259  11.844 -0.8578 -1.1156 -0.3677
  112MPD2    C1 1741   0.147   3.185  11.736 -0.3792  0.0955  0.3397
  112MPD2    C2 1742   0.187   3.058  11.742  0.1390 -0.3088 -0.4694
  112MPD2    C3 1743   0.174   3.001  11.867  1.2076 -0.1592  0.1460
  112MPD2    C4 1744   0.144   3.074  11.983 -0.5966  0.0479 -0.0620
  112MPD2    C5 1745   0.106   3.204  11.969  0.1256  0.0965  0.1838
  112MPD2     H 1746   0.212   3.013  11.646  2.5190  0.6572 -0.3070
  112MPD2    H1 1747   0.143   3.036  12.084 -3.7219 -0.5051 -0.3181
  112MPD2    H2 1748   0.081   3.363  11.842  2.6526 -0.1117 -0.6120
  112MPD2    H3 1749   0.092   3.272  12.052 -1.2198 -0.3216  0.2945
  112MPD2     N 1750   0.208   2.871  11.891  0.2909  0.5931  0.4246
  112MPD2    H5 1751   0.200   2.836  11.986  1.2978 -1.0100 -0.0708
  112MPD2    N1 1752   0.150   3.239  11.605  0.1448 -0.4368 -0.1176
  112MPD2    H7 1753   0.179   3.179  11.528  0.4018 -0.9929  0.4037
  113TMC2    C1 1754   2.392   0.267   0.629 -0.1159 -0.3293 -0.1820
  113TMC2    C2 1755   2.258   0.295   0.616 -0.3713 -0.2249 -0.1728
  113TMC2    C3 1756   2.158   0.214   0.661 -0.1695  0.0950  0.3899
  113TMC2    C4 1757   2.422   0.140   0.677 -0.3472 -0.2099  0.1609
  113TMC2    C5 1758   2.319   0.065   0.726 -0.7432 -0.5281  0.5093
  113TMC2    C6 1759   2.186   0.101   0.725 -0.0311  0.2112  0.0552
  113TMC2     C 1760   2.486   0.376   0.615  0.2021  0.2529  0.3718
  113TMC2     O 1761   2.433   0.485   0.617 -0.3443 -0.0107 -0.1068
  113TMC2     H 1762   2.231   0.386   0.562  3.3308 -0.1379 -1.8828
  113TMC2    H1 1763   2.524   0.102   0.686 -1.0529 -1.5796  2.4468
  113TMC2    H2 1764   2.111   0.034   0.764  0.6125 -1.3224 -1.3532
  113TMC2    C7 1765   2.352   4.677   0.788 -0.1045 -0.4343  0.4721
  113TMC2    C8 1766   2.036   0.203   0.579  0.0849  0.1026 -0.1733
  113TMC2    O1 1767   2.450   4.620   0.750  0.0713 -0.1661  0.1937
  113TMC2    O2 1768   1.984   0.092   0.578 -0.0403  0.1101  0.5474
  113TMC2    O5 1769   2.012   0.300   0.483 -0.6461  0.2469 -0.0049
  113TMC2    H5 1770   2.043   0.384   0.524  0.9032 -0.0172 -0.6462
  114MPD2     C 1771   2.938   0.593   0.712 -0.0204 -0.0526 -0.2609
  114MPD2    C1 1772   2.810   0.648   0.717 -0.1622 -0.7838 -0.0533
  114MPD2    C2 1773   2.705   0.560   0.685 -0.8057  0.4473 -0.6515
  114MPD2    C3 1774   2.724   0.431   0.640 -0.0022 -0.6080 -0.0716
  114MPD2    C4 1775   2.854   0.393   0.620 -0.3083 -0.0736  0.2067
  114MPD2    C5 1776   2.956   0.467   0.657 -0.4605 -0.4388 -0.0959
  114MPD2     H 1777   2.606   0.599   0.703 -0.0198  1.8242  0.7546
  114MPD2    H1 1778   2.872   0.295   0.578 -1.8925  0.2580 -1.2620
  114MPD2    H2 1779   3.028   0.650   0.734  0.5577 -0.7267 -0.8824
  114MPD2    H3 1780   3.056   0.428   0.644 -0.4467 -0.9445  1.4509
  114MPD2     N 1781   2.621   0.334   0.619 -0.1834  0.1456  0.0613
  114MPD2    H5 1782   2.647   0.237   0.603 -1.2950 -0.1963  0.3384
  114MPD2    N1 1783   2.778   0.778   0.763 -0.3366  0.0300 -1.0220
  114MPD2    H7 1784   2.684   0.813   0.751 -0.6246  0.0021  1.1284
  115TMC2    C1 1785   3.177   3.263  17.214  0.3106  0.3499  0.6356
  115TMC2    C2 1786   3.316   3.245  17.202  0.4046  0.1885 -0.2629
  115TMC2    C3 1787   3.403   3.332  17.265 -0.9671 -0.1511 -0.2315
  115TMC2    C4 1788   3.130   3.382  17.253  0.8680 -0.5367  0.7520
  115TMC2    C5 1789   3.218   3.474  17.307 -0.2494  0.2441  0.3017
  115TMC2    C6 1790   3.350   3.443  17.322  0.1155 -0.2262 -0.2074
  115TMC2     C 1791   3.099   3.158  17.177  0.1276 -0.4381  0.4581
  115TMC2     O 1792   3.159   3.051  17.159  0.6202 -0.2016 -0.2204
  115TMC2     H 1793   3.359   3.152  17.165 -1.9640 -0.3461 -1.6949
  115TMC2    H1 1794   3.025   3.399  17.275  0.8611 -2.3987  2.1847
  115TMC2    H2 1795   3.417   3.511  17.373  0.3806  0.9601 -2.1432
  115TMC2    C7 1796   3.175   3.602  17.362  0.0613 -0.1268 -0.1446
  115TMC2    C8 1797   3.524   3.271  17.313 -0.7217 -0.5327  0.9033
  115TMC2    O1 1798   3.056   3.617  17.379 -0.0702 -0.6396 -0.4192
  115TMC2    O2 1799   3.538   3.149  17.330  0.4463 -0.2685 -0.2310
  115TMC2    O5 1800   3.619   3.373  17.333  0.4173  0.4666  0.4146
  115TMC2    H5 1801   3.588   3.461  17.304 -1.4858 -0.1100  0.7050
  116MPD2     C 1802   2.685   2.933  16.957 -0.3112 -0.1838 -0.5055
  116MPD2    C1 1803   2.816   2.897  16.963  0.0065  0.3055  0.9775
  116MPD2    C2 1804   2.909   2.967  17.037 -1.0089  0.8575 -0.1425
  116MPD2    C3 1805   2.870   3.084  17.102 -0.5158 -0.7063 -0.7563
  116MPD2    C4 1806   2.740   3.122  17.088  0.0006  0.1040 -0.0592
  116MPD2    C5 1807   2.648   3.050  17.017 -0.4838  0.0754 -0.0718
  116MPD2     H 1808   3.008   2.930  17.060 -0.2429  1.2447 -2.7968
  116MPD2    H1 1809   2.712   3.220  17.123 -1.1202  0.3496 -1.6431
  116MPD2    H2 1810   2.610   2.869  16.912 -1.2937  0.0319  0.8325
  116MPD2    H3 1811   2.543   3.074  17.007 -0.5392 -0.3618 -0.5059
  116MPD2     N 1812   2.961   3.178  17.157 -0.0691  0.5093 -0.6224
  116MPD2    H5 1813   2.920   3.268  17.181 -2.4238 -0.3295 -1.5515
  116MPD2    N1 1814   2.839   2.779  16.893 -0.0216 -0.0206 -0.7770
  116MPD2    H7 1815   2.759   2.725  16.860 -1.2517  2.3749 -1.7420
  117TMC2    C1 1816   2.949   4.499  14.069  0.7415 -0.1218  0.5098
  117TMC2    C2 1817   3.072   4.437  14.042  0.5097  0.5905  0.6636
  117TMC2    C3 1818   3.172   4.520  14.004 -0.4455 -0.2024 -0.0262
  117TMC2    C4 1819   2.937   4.629  14.087 -0.1382  0.6010 -0.3115
  117TMC2    C5 1820   3.044   4.709  14.058 -0.4380  0.0268 -0.4756
  117TMC2    C6 1821   3.161   4.656  14.007 -0.1279  0.5329 -0.2584
  117TMC2     C 1822   2.830   4.415  14.059  0.5801  0.1387 -0.1794
  117TMC2     O 1823   2.836   4.303  14.109  0.6044  0.1066  0.2786
  117TMC2     H 1824   3.087   4.331  14.026 -0.2358  0.8897 -2.0643
  117TMC2    H1 1825   2.843   4.663  14.128 -0.2589  0.9321 -0.8574
  117TMC2    H2 1826   3.247   4.718  13.986 -0.5599  1.3982  0.5184
  117TMC2    C7 1827   3.035   0.113  14.053  0.0199 -0.1329 -0.0860
  117TMC2    C8 1828   3.309   4.472  13.976 -0.8412 -0.4314  0.1288
  117TMC2    O1 1829   3.139   0.172  14.024 -0.8200  0.0064 -0.6102
  117TMC2    O2 1830   3.356   4.501  13.868 -0.2369 -0.0806 -0.0392
  117TMC2    O5 1831   3.378   4.500  14.091 -0.1544 -0.1599 -0.1193
  117TMC2    H5 1832   3.324   4.495  14.173 -1.0688  2.3923 -0.5717
  118MPD2     C 1833   2.759   0.337  14.135  0.4837  0.3421  0.5396
  118MPD2    C1 1834   2.889   0.310  14.101  0.6705  0.1180  0.1153
  118MPD2    C2 1835   2.974   0.411  14.057 -0.1923 -0.5879 -0.9069
  118MPD2    C3 1836   2.932   0.542  14.073 -0.2352 -0.4864  0.3129
  118MPD2    C4 1837   2.808   0.567  14.125  0.5468 -0.2119  0.3062
  118MPD2    C5 1838   2.725   0.470  14.157 -0.8562  0.1714 -0.2611
  118MPD2     H 1839   3.073   0.386  14.022  0.3277 -2.1428  1.7134
  118MPD2    H1 1840   2.785   0.672  14.141  0.3798 -0.4790  1.7872
  118MPD2    H2 1841   2.688   0.261  14.169  0.5471 -0.1359 -0.4127
  118MPD2    H3 1842   2.629   0.488  14.204 -0.8623  0.0981 -0.2442
  118MPD2     N 1843   3.017   0.659  14.039  1.1161 -0.0281 -0.2228
  118MPD2    H5 1844   2.985   0.754  14.054 -2.9257 -1.5249  0.5782
  118MPD2    N1 1845   2.918   0.166  14.097 -0.6215  0.4941  0.6136
  118MPD2    H7 1846   2.845   0.099  14.118  0.0194 -0.1702  0.7149
  119TMC2    C1 1847   1.131   1.044  13.784  0.2075 -0.1700  0.1731
  119TMC2    C2 1848   1.170   0.912  13.790  0.4500 -0.4771 -0.7949
  119TMC2    C3 1849   1.082   0.817  13.735 -0.8100 -0.4478  0.3608
  119TMC2    C4 1850   1.007   1.077  13.730  0.3438  0.2558  0.2421
  119TMC2    C5 1851   0.922   0.976  13.686  0.0010 -0.0737 -0.4139
  119TMC2    C6 1852   0.951   0.843  13.694 -0.6278  0.0465  0.5264
  119TMC2     C 1853   1.198   1.152  13.862  0.3914  0.4223  0.2026
  119TMC2     O 1854   1.133   1.259  13.864 -0.3686  0.1843  0.2800
  119TMC2     H 1855   1.269   0.882  13.821  0.8360 -0.4967 -2.0557
  119TMC2    H1 1856   0.985   1.182  13.723 -1.6008 -0.1046  1.1040
  119TMC2    H2 1857   0.902   0.765  13.636 -1.8267 -0.2145  1.8949
  119TMC2    C7 1858   0.781   1.012  13.683  0.5202  0.1066 -0.6024
  119TMC2    C8 1859   1.147   0.685  13.729  0.3399 -0.4534  0.2971
  119TMC2    O1 1860   0.756   1.123  13.635  0.1889  0.2679 -0.1503
  119TMC2    O2 1861   1.269   0.673  13.737  0.0199 -0.2032  0.2122
  119TMC2    O5 1862   1.053   0.594  13.770  0.7087  0.3957  0.2731
  119TMC2    H5 1863   0.960   0.624  13.782  0.4403 -0.5010  0.4724
  120MPD2     C 1864   1.512   1.323  14.225 -0.6523  0.3808  0.0463
  120MPD2    C1 1865   1.391   1.366  14.174 -0.1268  0.0676  0.5177
  120MPD2    C2 1866   1.338   1.314  14.053 -0.0873  0.0247  0.2195
  120MPD2    C3 1867   1.394   1.194  14.004 -0.0114  0.6195  0.5272
  120MPD2    C4 1868   1.512   1.149  14.057  0.7127  0.1018 -0.3687
  120MPD2    C5 1869   1.575   1.224  14.154  0.2469  0.0059  0.3004
  120MPD2     H 1870   1.247   1.356  14.013 -0.5849 -0.7362  0.5556
  120MPD2    H1 1871   1.562   1.057  14.032 -0.6793 -0.5506 -0.7432
  120MPD2    H2 1872   1.555   1.373  14.311 -0.8238  0.6207 -0.0049
  120MPD2    H3 1873   1.669   1.188  14.194  0.8747 -0.8288 -1.9103
  120MPD2     N 1874   1.324   1.112  13.912  0.3833  0.2070  0.5948
  120MPD2    H5 1875   1.359   1.021  13.885  0.6418  0.4292  0.1772
  120MPD2    N1 1876   1.331   1.467  14.258 -0.5533  0.1090  0.1996
  120MPD2    H7 1877   1.390   1.513  14.326 -0.8933  0.3672  0.3202
  121TMC2    C1 1878   2.984   3.065  14.297  0.2199 -0.4117 -0.4850
  121TMC2    C2 1879   3.103   3.021  14.347 -0.2587 -0.3475  0.0676
  121TMC2    C3 1880   3.124   2.887  14.341  0.0383 -0.7315  0.7761
  121TMC2    C4 1881   2.892   2.980  14.252 -0.4284 -0.0960 -0.0782
  121TMC2    C5 1882   2.902   2.848  14.272 -0.3462  0.3404 -0.3962
  121TMC2    C6 1883   3.023   2.795  14.300  0.0590 -0.5107 -0.7486
  121TMC2     C 1884   2.977   3.201  14.248  0.0012 -0.2911  0.1287
  121TMC2     O 1885   3.019   3.292  14.319 -0.3587  0.3037  0.2535
  121TMC2     H 1886   3.185   3.087  14.373  0.4095 -0.6076 -1.3738
  121TMC2    H1 1887   2.796   3.019  14.218 -0.2944  0.6208  0.3568
  121TMC2    H2 1888   3.032   2.688  14.311  0.0302 -0.5366 -0.9898
  121TMC2    C7 1889   2.814   2.755  14.209 -0.3933 -0.0107  0.1751
  121TMC2    C8 1890   3.254   2.836  14.360  0.1420  0.5437  0.4716
  121TMC2    O1 1891   2.871   2.663  14.157 -0.0234 -0.5494  0.0547
  121TMC2    O2 1892   3.338   2.902  14.419 -0.3114  0.5906  0.3371
  121TMC2    O5 1893   3.277   2.730  14.280  0.1452  1.0434  0.0073
  121TMC2    H5 1894   3.207   2.722  14.212  0.5514 -2.7376  0.0787
  122MPD2     C 1895   2.930   3.437  14.100 -0.1423  0.2630 -0.3173
  122MPD2    C1 1896   2.937   3.311  14.039 -0.9917 -0.0831  0.4872
  122MPD2    C2 1897   2.935   3.297  13.901  0.2201 -0.7062  0.4186
  122MPD2    C3 1898   2.925   3.417  13.822 -0.2492  0.4196 -0.1549
  122MPD2    C4 1899   2.930   3.534  13.883 -0.5358 -0.0249 -0.4599
  122MPD2    C5 1900   2.926   3.548  14.017 -0.1553 -0.2149 -0.4583
  122MPD2     H 1901   2.937   3.199  13.855  0.8224  0.0193 -1.1198
  122MPD2    H1 1902   2.909   3.625  13.827 -1.8747  0.0164  0.1112
  122MPD2    H2 1903   2.906   3.458  14.204 -0.2721 -1.0880 -0.0803
  122MPD2    H3 1904   2.909   3.643  14.066 -1.7708 -0.4977 -0.4566
  122MPD2     N 1905   2.902   3.423  13.682  0.3124 -0.5512 -0.0717
  122MPD2    H5 1906   2.885   3.514  13.640  1.8003 -0.0438  0.4118
  122MPD2    N1 1907   2.949   3.197  14.113 -0.5425  0.9892  0.1406
  122MPD2    H7 1908   2.939   3.108  14.064 -0.5246 -0.1209  2.1290
  123TMC2    C1 1909   1.580   1.135  10.276  0.2343  0.1310  0.3400
  123TMC2    C2 1910   1.669   1.221  10.332  0.0804 -0.0644 -0.2457
  123TMC2    C3 1911   1.673   1.343  10.280 -0.1523  0.9310  0.1966
  123TMC2    C4 1912   1.507   1.158  10.163  0.2709 -0.5681  0.3008
  123TMC2    C5 1913   1.518   1.281  10.110 -0.7295 -0.7660 -0.6857
  123TMC2    C6 1914   1.606   1.375  10.165  0.5763  0.0344 -0.1182
  123TMC2     C 1915   1.537   1.027  10.367 -0.0310  0.3822 -0.1222
  123TMC2     O 1916   1.619   0.969  10.434  0.0548 -0.4904 -0.1378
  123TMC2     H 1917   1.719   1.192  10.424  0.1915  1.1543  0.0835
  123TMC2    H1 1918   1.440   1.077  10.134  0.4948 -0.5111 -0.3710
  123TMC2    H2 1919   1.623   1.465  10.108  0.7269  0.2461  0.2664
  123TMC2    C7 1920   1.398   1.320  10.022  0.2555  0.1197 -0.3687
  123TMC2    C8 1921   1.800   1.419  10.287 -0.4113  0.4786  0.4073
  123TMC2    O1 1922   1.340   1.226   9.967  0.0908 -0.1368  0.2391
  123TMC2    O2 1923   1.879   1.404  10.192 -0.6358  0.3814 -0.1380
  123TMC2    O5 1924   1.830   1.415  10.422  0.1911  0.0055  0.0848
  123TMC2    H5 1925   1.747   1.408  10.473  0.9721 -0.3101  1.3196
  124MPD2     C 1926   1.169   0.820  10.660 -0.5970 -0.1001 -0.2516
  124MPD2    C1 1927   1.111   0.899  10.557  0.2231  0.3230 -0.2990
  124MPD2    C2 1928   1.188   0.968  10.467  0.6977 -0.4150 -0.2035
  124MPD2    C3 1929   1.326   0.966  10.477 -0.7785 -0.3762  0.2762
  124MPD2    C4 1930   1.385   0.886  10.581  0.0732 -0.1895  0.2285
  124MPD2    C5 1931   1.304   0.803  10.660 -0.3219  0.3715 -0.9858
  124MPD2     H 1932   1.150   1.031  10.387  1.2977  0.2850  0.0621
  124MPD2    H1 1933   1.493   0.878  10.592  0.6323  2.7689 -2.9762
  124MPD2    H2 1934   1.103   0.763  10.724 -3.1427  2.4751 -0.5575
  124MPD2    H3 1935   1.349   0.739  10.734  0.5805  1.4121 -0.6426
  124MPD2     N 1936   1.404   1.031  10.381 -0.0927  0.2373  0.9622
  124MPD2    H5 1937   1.353   1.096  10.322  0.4385  0.9046  1.2252
  124MPD2    N1 1938   0.974   0.902  10.551 -0.1446  0.2659 -0.3156
  124MPD2    H7 1939   0.925   0.848  10.622 -3.0272  1.4751 -1.3830
  125TMC2    C1 1940   1.525   3.947   9.815  0.3284  0.0672  0.1937
  125TMC2    C2 1941   1.549   3.864   9.712  0.6212 -0.1998 -0.2129
  125TMC2    C3 1942   1.646   3.772   9.739 -0.5792  0.2161 -0.0213
  125TMC2    C4 1943   1.612   3.963   9.921  0.1448 -0.0204 -0.3193
  125TMC2    C5 1944   1.715   3.879   9.931  0.0112  0.8872  0.6167
  125TMC2    C6 1945   1.727   3.771   9.847 -0.4889  0.2873  0.1997
  125TMC2     C 1946   1.415   4.037   9.792  0.6331 -0.5518  0.5960
  125TMC2     O 1947   1.382   4.057   9.679  0.4062 -0.2991 -0.4450
  125TMC2     H 1948   1.473   3.848   9.636 -2.2397 -1.6306  2.9002
  125TMC2    H1 1949   1.607   4.047   9.989  0.8929 -0.4967  0.3181
  125TMC2    H2 1950   1.803   3.696   9.864 -0.4374  0.3150  0.0871
  125TMC2    C7 1951   1.825   3.929  10.006 -0.0378 -0.4846 -0.6997
  125TMC2    C8 1952   1.663   3.667   9.639  0.0352  0.6168 -0.4453
  125TMC2    O1 1953   1.812   4.006  10.100  0.1836  0.1931  0.6123
  125TMC2    O2 1954   1.617   3.681   9.529 -0.0897  0.3272 -0.1140
  125TMC2    O5 1955   1.662   3.551   9.707 -0.0542 -0.1975 -0.2182
  125TMC2    H5 1956   1.664   3.562   9.804  0.3476 -1.6283 -0.0591
  126MPD1     C 1957   0.999   4.273   9.958 -0.4667  0.0608 -1.1620
  126MPD1    C1 1958   1.070   4.235  10.066 -0.2632  0.1537 -0.4844
  126MPD1    C2 1959   1.197   4.187  10.044 -0.2079  0.5798 -0.4920
  126MPD1    C3 1960   1.241   4.152   9.914 -0.5579 -0.0349  0.0107
  126MPD1    C4 1961   1.165   4.183   9.809 -0.0166 -0.0763 -0.4178
  126MPD1    C5 1962   1.046   4.240   9.833  0.4500 -0.4228  0.6712
  126MPD1     H 1963   1.262   4.153  10.125  0.8635  1.4893 -0.9599
  126MPD1    H1 1964   1.204   4.173   9.709  2.2489  0.2635  0.4346
  126MPD1    H2 1965   0.902   4.322   9.970  0.5535  1.9269 -0.5209
  126MPD1    H3 1966   0.988   4.276   9.748  1.5531 -2.2377 -0.8560
  126MPD1     N 1967   1.365   4.088   9.909  0.3662  0.5338  0.3932
  126MPD1    H5 1968   1.403   4.063  10.000  0.9120 -3.3456 -0.9082
  126MPD1    N1 1969   1.009   4.264  10.192 -0.4128 -0.7789  0.0501
  126MPD1    H6 1970   1.058   4.228  10.273 -0.6345 -1.1146  0.0297
  126MPD1    H7 1971   0.918   4.219  10.192 -0.9096  0.2191 -0.2652
  127TMC2    C1 1972   2.699   2.199  10.144 -0.1837  0.5060  0.1441
  127TMC2    C2 1973   2.739   2.144  10.268  0.7573 -0.3622 -0.4727
  127TMC2    C3 1974   2.660   2.048  10.324  0.3244  0.0479 -0.2176
  127TMC2    C4 1975   2.586   2.155  10.076  0.5603 -0.7130  0.1410
  127TMC2    C5 1976   2.512   2.056  10.139  0.4110  0.3304  0.3316
  127TMC2    C6 1977   2.550   2.005  10.257  0.5565  0.0853 -0.2233
  127TMC2     C 1978   2.807   2.268  10.067 -0.1048 -0.5356  0.3080
  127TMC2     O 1979   2.894   2.319  10.132  0.3139 -0.1078 -0.1020
  127TMC2     H 1980   2.830   2.177  10.317  2.0927 -2.0455 -1.7958
  127TMC2    H1 1981   2.554   2.206   9.985  0.8614 -1.5367 -0.4247
  127TMC2    H2 1982   2.504   1.917  10.300 -0.0610  0.0887 -0.8963
  127TMC2    C7 1983   2.416   1.995  10.047 -0.2548  0.2432 -0.6954
  127TMC2    C8 1984   2.680   2.026  10.468  0.4677 -0.4519  0.3396
  127TMC2    O1 1985   2.357   2.062   9.967  0.5841 -0.4007  0.9308
  127TMC2    O2 1986   2.788   2.000  10.524  0.3167 -0.1428 -0.7875
  127TMC2    O5 1987   2.561   2.049  10.527  0.4849  0.0582  0.4706
  127TMC2    H5 1988   2.504   2.093  10.460 -0.0129 -1.8235 -0.3284
  128MPD2     C 1989   2.781   2.361   9.712  0.2812 -0.3490  0.6147
  128MPD2    C1 1990   2.840   2.350   9.841  0.4281 -0.6810  0.0229
  128MPD2    C2 1991   2.956   2.424   9.858 -0.1358  0.0630 -0.9941
  128MPD2    C3 1992   3.006   2.508   9.767 -0.4090  0.2712  0.2096
  128MPD2    C4 1993   2.953   2.505   9.637 -0.0966 -0.6824 -0.1824
  128MPD2    C5 1994   2.838   2.430   9.611  0.4047  0.4259  0.4800
  128MPD2     H 1995   3.016   2.413   9.948  0.4721  0.9878 -1.2959
  128MPD2    H1 1996   3.000   2.569   9.564  0.6967 -2.2265 -1.0170
  128MPD2    H2 1997   2.701   2.294   9.685  1.3937 -0.8283 -1.4661
  128MPD2    H3 1998   2.794   2.420   9.512  2.5804 -2.4675 -0.2345
  128MPD2     N 1999   3.121   2.582   9.802  0.3089  0.5740 -0.1180
  128MPD2    H5 2000   3.169   2.575   9.891  0.9656 -1.0597 -0.6058
  128MPD2    N1 2001   2.775   2.275   9.936  1.1789 -0.1021 -0.0291
  128MPD2    H7 2002   2.683   2.239   9.916  0.7303  0.7943  0.4096
  129TMC2    C1 2003   0.562   2.818   1.671 -0.1119 -0.3936 -0.7131
  129TMC2    C2 2004   0.539   2.948   1.701  0.4113 -0.1881  0.1631
  129TMC2    C3 2005   0.417   3.003   1.659 -0.0193  0.0859 -0.0904
  129TMC2    C4 2006   0.457   2.727   1.646 -0.2404  0.1584  0.1434
  129TMC2    C5 2007   0.338   2.782   1.624  0.0978 -0.0709 -0.0608
  129TMC2    C6 2008   0.323   2.919   1.610  0.5369 -0.2314  0.4487
  129TMC2     C 2009   0.689   2.772   1.639  0.4121  0.0233  0.4174
  129TMC2     O 2010   0.713   2.648   1.652 -0.4843  0.1486 -0.5105
  129TMC2     H 2011   0.615   3.020   1.730  0.5489  0.3759 -1.6071
  129TMC2    H1 2012   0.484   2.627   1.613 -2.9601 -0.6873  0.5100
  129TMC2    H2 2013   0.225   2.957   1.584  0.9980  1.0485  0.5921
  129TMC2    C7 2014   0.222   2.699   1.596 -0.1491 -0.0314  0.0972
  129TMC2    C8 2015   0.378   3.140   1.684  0.3463 -0.2748  0.0283
  129TMC2    O1 2016   0.124   2.752   1.549 -0.1079 -1.0568 -0.1322
  129TMC2    O2 2017   0.452   3.238   1.664  0.1424  0.9549 -0.1694
  129TMC2    O5 2018   0.256   3.143   1.747  0.5495 -0.4113  0.3039
  129TMC2    H5 2019   0.234   3.052   1.777 -0.3293  1.1419  4.3123
  130MPD2     C 2020   0.973   2.746   1.578  0.1656  0.3843 -0.1882
  130MPD2    C1 2021   0.898   2.853   1.546 -0.6843  0.6310  0.0661
  130MPD2    C2 2022   0.961   2.955   1.476 -0.0370  0.1391 -0.6194
  130MPD2    C3 2023   1.094   2.942   1.429 -0.4878  0.7010  0.2575
  130MPD2    C4 2024   1.165   2.824   1.455 -0.1276 -0.1291 -0.4624
  130MPD2    C5 2025   1.107   2.731   1.536 -0.1321 -0.4591 -0.1287
  130MPD2     H 2026   0.904   3.043   1.452  0.6475  1.3306  2.1613
  130MPD2    H1 2027   1.262   2.808   1.411 -0.4162 -1.3373 -0.6645
  130MPD2    H2 2028   0.932   2.668   1.641 -3.8276  1.8962 -0.9147
  130MPD2    H3 2029   1.158   2.641   1.569  0.7918 -0.1422 -0.6929
  130MPD2     N 2030   1.144   3.047   1.347  0.8214 -0.3618  0.1513
  130MPD2    H5 2031   1.089   3.133   1.349 -1.1003 -1.6164  1.6620
  130MPD2    N1 2032   0.770   2.870   1.590  0.6182  0.2312  0.3545
  130MPD2    H7 2033   0.729   2.959   1.565 -0.2891 -0.6726 -1.4031
  131TMC2    C1 2034   0.356   1.839  10.083 -0.9288 -0.0619  0.2592
  131TMC2    C2 2035   0.293   1.946  10.027  0.1211 -1.1604  0.3022
  131TMC2    C3 2036   0.276   2.052  10.099  0.1252 -0.4992 -0.3423
  131TMC2    C4 2037   0.401   1.839  10.213 -0.3056 -0.1926  0.2243
  131TMC2    C5 2038   0.382   1.956  10.280 -0.1169  0.1421 -0.1193
  131TMC2    C6 2039   0.302   2.059  10.232  0.0237 -0.1940 -0.1168
  131TMC2     C 2040   0.302   1.711  10.043 -0.1121  0.5650  0.4103
  131TMC2     O 2041   0.193   1.720   9.996 -0.0982 -0.5182  0.2017
  131TMC2     H 2042   0.260   1.950   9.923 -1.3148 -0.2779  0.7939
  131TMC2    H1 2043   0.448   1.759  10.268 -0.5647  0.0656  0.8191
  131TMC2    H2 2044   0.280   2.154  10.281 -0.4310 -1.3994  2.0159
  131TMC2    C7 2045   0.504   1.994  10.347  1.0223  0.1025 -0.5952
  131TMC2    C8 2046   0.213   2.165  10.033  0.5506 -0.1570 -0.5364
  131TMC2    O1 2047   0.589   1.908  10.370  0.2339  0.5235  0.0486
  131TMC2    O2 2048   0.249   2.180   9.916 -0.7217  0.2241 -0.2400
  131TMC2    O5 2049   0.096   2.189  10.095  0.2895 -0.2491  0.2466
  131TMC2    H5 2050   0.083   2.136  10.177 -1.0958 -1.6053 -0.8345
  132MPD2     C 2051   0.232   1.418  10.020 -0.1296  0.2956 -0.1119
  132MPD2    C1 2052   0.344   1.469  10.082 -0.6170 -1.4488 -0.1507
  132MPD2    C2 2053   0.426   1.374  10.152 -0.7476  0.5558  0.8784
  132MPD2    C3 2054   0.398   1.239  10.148 -0.3211 -0.7393  0.1898
  132MPD2    C4 2055   0.293   1.201  10.074  0.3148 -0.4800  0.4396
  132MPD2    C5 2056   0.207   1.284  10.017  0.3330 -0.3344  0.6842
  132MPD2     H 2057   0.507   1.415  10.212  0.0484  0.0176  0.1587
  132MPD2    H1 2058   0.260   1.097  10.074 -1.8620  0.2192  1.9108
  132MPD2    H2 2059   0.162   1.484   9.969 -1.4212 -0.4717  0.6612
  132MPD2    H3 2060   0.114   1.255   9.970  1.4074 -0.2569 -1.4450
  132MPD2     N 2061   0.480   1.154  10.228  0.1469  0.0264  0.5825
  132MPD2    H5 2062   0.563   1.196  10.268  0.0209  0.1923  0.6694
  132MPD2    N1 2063   0.382   1.605  10.081  0.2026  0.6900  0.1197
  132MPD2    H7 2064   0.471   1.627  10.124  0.8810  1.8515 -1.9088
  133TMC2    C1 2065   4.023   3.438   9.386 -0.0234 -0.0069 -0.4333
  133TMC2    C2 2066   4.138   3.463   9.463  0.3136  0.1215 -0.3487
  133TMC2    C3 2067   4.183   3.600   9.459  0.3732 -0.2644  0.1177
  133TMC2    C4 2068   3.961   3.524   9.307  0.9270  0.1301  0.0446
  133TMC2    C5 2069   4.015   3.655   9.311  0.6606 -0.1320  0.0733
  133TMC2    C6 2070   4.122   3.694   9.381  0.3272 -0.5930  0.2032
  133TMC2     C 2071   3.998   3.294   9.371  0.3666  0.3537  0.6302
  133TMC2     O 2072   4.097   3.221   9.367 -0.0240 -0.4429  0.2992
  133TMC2     H 2073   4.191   3.378   9.506 -0.6114 -0.6047 -0.6714
  133TMC2    H1 2074   3.874   3.499   9.248  0.8254  1.2815 -0.2909
  133TMC2    H2 2075   4.164   3.793   9.395  1.3380 -0.9104 -0.5697
  133TMC2    C7 2076   3.935   3.765   9.265 -0.1090  0.2913 -0.5202
  133TMC2    C8 2077   4.312   3.640   9.506 -0.1856  0.9969 -0.3791
  133TMC2    O1 2078   3.944   3.873   9.320 -0.0758 -0.2919  0.2491
  133TMC2    O2 2079   4.373   3.719   9.437 -0.0854  0.0235  0.2423
  133TMC2    O5 2080   4.366   3.543   9.575 -0.0973  0.1171 -0.0179
  133TMC2    H5 2081   4.309   3.507   9.647 -0.6064 -1.1278 -1.0397
  134MPD2     C 2082   3.681   3.119   9.319  0.2983 -0.3511 -0.2745
  134MPD2    C1 2083   3.814   3.128   9.354 -0.4790  0.0690  1.1550
  134MPD2    C2 2084   3.893   3.016   9.366  0.5419 -0.2337  0.5560
  134MPD2    C3 2085   3.839   2.889   9.351  0.1603 -0.2456 -0.0958
  134MPD2    C4 2086   3.712   2.884   9.305  0.0647 -0.3329  0.1499
  134MPD2    C5 2087   3.634   2.997   9.285 -0.3915  0.2069 -0.4745
  134MPD2     H 2088   3.998   3.026   9.392  1.3609 -0.5374 -2.5354
  134MPD2    H1 2089   3.659   2.790   9.300  0.9652 -0.7834 -0.8770
  134MPD2    H2 2090   3.617   3.206   9.313  0.2966 -0.4233 -1.3126
  134MPD2    H3 2091   3.534   2.977   9.247 -0.5167  3.8390 -2.0060
  134MPD2     N 2092   3.901   2.770   9.386  0.1984 -0.6297  0.2719
  134MPD2    H5 2093   3.844   2.686   9.390  0.0111 -0.4436  1.7768
  134MPD2    N1 2094   3.863   3.261   9.371 -0.4773 -0.0835  0.0299
  134MPD2    H7 2095   3.796   3.337   9.364  1.2809  1.4223 -0.1843
  135TMC2    C1 2096   2.108   4.315   9.993  0.1813  0.4537  0.1175
  135TMC2    C2 2097   2.014   4.328   9.898  0.2649 -0.1116 -0.3161
  135TMC2    C3 2098   1.886   4.320   9.941  0.7127 -0.5654 -0.2362
  135TMC2    C4 2099   2.085   4.304  10.132  0.5181 -0.2658  0.6580
  135TMC2    C5 2100   1.954   4.299  10.170  0.4840  0.0798  1.2329
  135TMC2    C6 2101   1.854   4.293  10.077 -0.2453 -0.0078 -1.0703
  135TMC2     C 2102   2.242   4.282   9.962 -0.1465 -0.0100 -0.9080
  135TMC2     O 2103   2.333   4.347  10.012 -0.0194 -0.3899 -0.0618
  135TMC2     H 2104   2.041   4.333   9.793  2.1726 -2.8952  0.0517
  135TMC2    H1 2105   2.169   4.292  10.199 -0.4976 -0.9470  1.8230
  135TMC2    H2 2106   1.751   4.272  10.104 -0.4541  2.6725  0.1350
  135TMC2    C7 2107   1.926   4.267  10.307  0.4618  0.3970 -0.3894
  135TMC2    C8 2108   1.777   4.312   9.850 -0.3999 -0.2252 -0.5658
  135TMC2    O1 2109   2.001   4.326  10.385  0.9920  0.0874 -0.2687
  135TMC2    O2 2110   1.668   4.258   9.882  0.8903  0.1948  0.2575
  135TMC2    O5 2111   1.813   4.368   9.732  0.3648  0.1393  0.3026
  135TMC2    H5 2112   1.891   4.427   9.734  0.3438  0.0573  3.1624
  136MPD2     C 2113   2.467   4.192   9.791 -0.7168  0.0204 -0.1487
  136MPD2    C1 2114   2.340   4.150   9.779 -0.5461 -0.4244  0.0531
  136MPD2    C2 2115   2.310   4.064   9.675  0.2447 -0.3833 -0.0093
  136MPD2    C3 2116   2.405   4.024   9.586  0.5179  0.8108 -0.5750
  136MPD2    C4 2117   2.533   4.048   9.613 -0.7634  0.0429  0.5683
  136MPD2    C5 2118   2.567   4.134   9.715 -0.2305 -0.0674 -0.4811
  136MPD2     H 2119   2.208   4.031   9.660 -0.2089  0.6905  0.7561
  136MPD2    H1 2120   2.614   4.012   9.550 -0.7146  1.6425 -0.2734
  136MPD2    H2 2121   2.500   4.261   9.868 -2.5782  0.5038  0.2118
  136MPD2    H3 2122   2.664   4.183   9.716  0.3995 -1.3697  1.1621
  136MPD2     N 2123   2.383   3.934   9.479  0.2730 -0.1134  0.0511
  136MPD2    H5 2124   2.456   3.895   9.421  0.0411  1.9023 -1.5777
  136MPD2    N1 2125   2.232   4.192   9.854 -0.3667 -0.4437 -0.2599
  136MPD2    H7 2126   2.140   4.157   9.829  0.4453 -2.7005 -0.0840
  137TMC2    C1 2127   1.635   2.078   9.588  0.0888 -0.2479 -0.5855
  137TMC2    C2 2128   1.694   2.030   9.478  0.5844  0.0917 -0.0701
  137TMC2    C3 2129   1.629   2.059   9.361  0.6002  0.5195 -0.2542
  137TMC2    C4 2130   1.516   2.152   9.577 -0.0427 -0.3758  1.0404
  137TMC2    C5 2131   1.458   2.171   9.454  0.3381  0.4062  0.1099
  137TMC2    C6 2132   1.518   2.123   9.342  0.0742 -0.1079 -0.4325
  137TMC2     C 2133   1.719   2.116   9.691 -0.0070 -0.1664  0.4831
  137TMC2     O 2134   1.686   2.214   9.749  0.0322  0.2418 -0.1433
  137TMC2     H 2135   1.791   1.982   9.470  0.5119  0.0572 -0.7490
  137TMC2    H1 2136   1.461   2.186   9.665  0.7278  0.3154  1.2592
  137TMC2    H2 2137   1.476   2.142   9.244 -3.0648 -1.3134  0.6484
  137TMC2    C7 2138   1.319   2.208   9.435  0.6557 -0.8033 -0.6035
  137TMC2    C8 2139   1.692   2.011   9.241 -0.2001  0.0794  0.2291
  137TMC2    O1 2140   1.256   2.148   9.350  0.3370 -0.3110  0.1399
  137TMC2    O2 2141   1.774   1.920   9.244 -0.5298 -0.0114 -0.0083
  137TMC2    O5 2142   1.711   2.126   9.170 -0.0855  0.5378 -0.1311
  137TMC2    H5 2143   1.635   2.187   9.176 -0.2457  0.3987 -0.7812
  138MPD2     C 2144   1.887   1.907   9.937 -0.3842  0.4746  0.4009
  138MPD2    C1 2145   1.861   2.026   9.869 -0.7919  0.7221 -0.0495
  138MPD2    C2 2146   1.911   2.150   9.915 -0.0010 -0.4309 -0.1764
  138MPD2    C3 2147   1.972   2.145  10.041 -0.1073  0.3643 -0.2247
  138MPD2    C4 2148   1.981   2.025  10.112  0.0036 -0.4943 -0.5475
  138MPD2    C5 2149   1.940   1.909  10.057 -0.8883  0.4503  0.3945
  138MPD2     H 2150   1.894   2.236   9.852 -0.8581  0.3382  1.1233
  138MPD2    H1 2151   2.032   2.022  10.208  2.0481  2.1122 -1.5618
  138MPD2    H2 2152   1.853   1.807   9.913  0.0393  0.6305 -0.8947
  138MPD2    H3 2153   1.964   1.812  10.099  0.4925  0.0843 -1.2166
  138MPD2     N 2154   2.002   2.274  10.096  0.8803  0.3025 -0.3779
  138MPD2    H5 2155   1.988   2.363  10.049  3.8316 -0.2882 -2.3773
  138MPD2    N1 2156   1.797   2.010   9.749  0.0068 -0.1012 -0.3550
  138MPD2    H7 2157   1.785   1.914   9.720  0.2040  0.1029 -1.1073
  139TMC2    C1 2158   2.320   0.635  13.596 -0.4164  0.2296  0.3535
  139TMC2    C2 2159   2.321   0.593  13.470  0.0994  1.4065  0.8851
  139TMC2    C3 2160   2.223   0.635  13.389 -0.6450 -0.7464 -0.2464
  139TMC2    C4 2161   2.222   0.715  13.645  0.4503 -0.4893  0.8615
  139TMC2    C5 2162   2.117   0.755  13.561  0.2696  0.4310  0.9225
  139TMC2    C6 2163   2.121   0.723  13.428 -0.0009 -0.4346  0.4544
  139TMC2     C 2164   2.357   0.535  13.693 -0.7620 -0.3191 -0.0026
  139TMC2     O 2165   2.274   0.511  13.782 -0.0977 -0.7402  0.1488
  139TMC2     H 2166   2.388   0.518  13.431 -0.5077  0.0843  2.3823
  139TMC2    H1 2167   2.217   0.737  13.751 -2.3844  1.7043  0.2877
  139TMC2    H2 2168   2.053   0.762  13.353  0.7840  0.5556  0.2523
  139TMC2    C7 2169   2.031   0.864  13.602  0.0609  1.0271  0.1429
  139TMC2    C8 2170   2.233   0.618  13.239  0.1111  0.1723  1.0135
  139TMC2    O1 2171   1.935   0.887  13.530  0.1573  0.2020 -0.0066
  139TMC2    O2 2172   2.132   0.618  13.170 -0.8766  0.4557 -0.1019
  139TMC2    O5 2173   2.323   0.715  13.208  0.1862  0.8019  0.7292
  139TMC2    H5 2174   2.402   0.709  13.266  0.5463  1.3912  0.3027
  140MPD2     C 2175   2.465   0.303  13.836  0.1901 -0.0930 -0.0755
  140MPD2    C1 2176   2.528   0.358  13.725 -0.1334 -0.9040 -0.6009
  140MPD2    C2 2177   2.644   0.299  13.687 -0.4303  0.1373  0.0915
  140MPD2    C3 2178   2.712   0.202  13.761 -0.2335  0.0220 -0.0285
  140MPD2    C4 2179   2.648   0.156  13.877  0.5840  0.3773  0.2980
  140MPD2    C5 2180   2.529   0.207  13.906 -0.1240 -0.1030  0.1359
  140MPD2     H 2181   2.690   0.334  13.595 -0.3047 -0.2208  0.0184
  140MPD2    H1 2182   2.685   0.085  13.950  1.9936 -0.8362 -1.6111
  140MPD2    H2 2183   2.365   0.329  13.870  0.0220  0.3565 -0.9038
  140MPD2    H3 2184   2.478   0.171  13.995  1.8320  0.6645  1.5646
  140MPD2     N 2185   2.828   0.133  13.716 -0.3790  0.1286 -0.7372
  140MPD2    H5 2186   2.888   0.170  13.643  1.1510 -2.3823 -0.7598
  140MPD2    N1 2187   2.472   0.467  13.660 -0.1906  0.0405  0.2727
  140MPD2    H7 2188   2.526   0.504  13.582  0.5279 -0.8901  0.3183
  141TMC2    C1 2189   2.503   2.398  14.334 -0.8522  0.6996  0.5796
  141TMC2    C2 2190   2.364   2.393  14.354 -0.0051  0.0697 -0.2425
  141TMC2    C3 2191   2.294   2.475  14.434  0.5218 -0.0322 -0.7188
  141TMC2    C4 2192   2.570   2.516  14.382  0.0819 -0.5963  0.4852
  141TMC2    C5 2193   2.496   2.600  14.466 -0.2350  0.3004  0.3345
  141TMC2    C6 2194   2.365   2.576  14.495 -0.3474  0.3954 -0.0371
  141TMC2     C 2195   2.577   2.323  14.235 -0.5619  1.0102  0.1278
  141TMC2     O 2196   2.523   2.279  14.135  0.4833 -0.0566  0.2619
  141TMC2     H 2197   2.312   2.303  14.322 -1.0739 -0.5947  3.3848
  141TMC2    H1 2198   2.675   2.541  14.367 -0.3739  0.7718 -0.4316
  141TMC2    H2 2199   2.309   2.653  14.548 -1.4958  1.3754 -2.6670
  141TMC2    C7 2200   2.540   2.727  14.510  0.0465 -0.0716  0.1841
  141TMC2    C8 2201   2.150   2.479  14.426 -0.1128 -0.4605 -0.0111
  141TMC2    O1 2202   2.461   2.817  14.500 -0.5697  0.1348 -0.3766
  141TMC2    O2 2203   2.078   2.422  14.340  0.3054  0.3091  0.2352
  141TMC2    O5 2204   2.105   2.504  14.552 -0.6342 -0.1065 -0.2138
  141TMC2    H5 2205   2.177   2.533  14.612 -1.1523 -1.4169  1.0508
  142TMC2    C1 2206   0.714   0.998   9.906 -0.1516 -0.1105  0.3753
  142TMC2    C2 2207   0.588   1.048   9.872 -0.4031 -0.2553  0.6696
  142TMC2    C3 2208   0.571   1.167   9.800  0.6780 -0.0814 -0.0838
  142TMC2    C4 2209   0.828   1.068   9.871 -0.4048 -0.2432 -0.5089
  142TMC2    C5 2210   0.809   1.184   9.799  0.8824 -0.1425  0.0252
  142TMC2    C6 2211   0.685   1.233   9.768 -0.1037 -0.0820 -0.5428
  142TMC2     C 2212   0.721   0.876   9.989 -0.2722  0.4712  0.2928
  142TMC2     O 2213   0.638   0.788   9.964  0.7820  0.7290  0.4836
  142TMC2     H 2214   0.506   0.999   9.923 -0.8377  1.3906  1.5504
  142TMC2    H1 2215   0.929   1.055   9.909  0.2729  0.0558 -2.2377
  142TMC2    H2 2216   0.679   1.322   9.707  0.3165  0.6720  0.5143
  142TMC2    C7 2217   0.939   1.257   9.789  0.6789 -0.3795 -0.6653
  142TMC2    C8 2218   0.441   1.220   9.752  0.0093 -0.5951  0.3891
  142TMC2    O1 2219   1.045   1.190   9.782 -0.0339  0.6110 -0.7015
  142TMC2    O2 2220   0.413   1.336   9.731 -0.0280 -0.2172 -0.4285
  142TMC2    O5 2221   0.354   1.123   9.751 -0.1587  0.2670 -0.5131
  142TMC2    H5 2222   0.403   1.038   9.754 -0.8717 -0.1390 -0.2533
  143MPD2     C 2223   0.991   0.588  10.321 -0.2895 -0.8981  0.5611
  143MPD2    C1 2224   0.866   0.560  10.257 -0.3093 -0.4283 -0.0198
  143MPD2    C2 2225   0.811   0.650  10.170 -0.2736 -0.2467  0.0073
  143MPD2    C3 2226   0.883   0.760  10.137  0.3069 -0.5410 -0.3378
  143MPD2    C4 2227   1.005   0.791  10.202  0.1105 -0.3217 -0.0750
  143MPD2    C5 2228   1.062   0.703  10.284 -0.5606  0.4068 -0.2890
  143MPD2     H 2229   0.715   0.631  10.122 -0.9790 -0.7106  1.6136
  143MPD2    H1 2230   1.060   0.881  10.178 -0.9891  0.6640  1.1723
  143MPD2    H2 2231   1.039   0.511  10.381  1.4977  0.0533  0.3738
  143MPD2    H3 2232   1.161   0.714  10.327 -0.1775  0.5318 -1.2044
  143MPD2     N 2233   0.832   0.866  10.061  0.1462 -0.4292  0.7144
  143MPD2    H5 2234   0.881   0.955  10.070 -0.3654 -0.2136  1.3730
  143MPD2    N1 2235   0.799   0.442  10.288 -0.5405  0.8302  0.6198
  143MPD2    H7 2236   0.839   0.389  10.364  0.6000 -0.0251 -0.5577
  144TMC2    C1 2237   3.260   4.149   0.762  0.6234 -0.4730  0.3784
  144TMC2    C2 2238   3.358   4.065   0.724 -0.0863  0.2583 -1.2382
  144TMC2    C3 2239   3.489   4.110   0.711  0.3462 -0.3460 -0.1812
  144TMC2    C4 2240   3.285   4.283   0.783  0.2615  0.8917  0.8771
  144TMC2    C5 2241   3.415   4.324   0.753 -0.1395  1.0806 -0.3188
  144TMC2    C6 2242   3.521   4.240   0.724  0.3743 -0.1359 -0.2350
  144TMC2     C 2243   3.122   4.113   0.728  0.7359  0.4358  0.1336
  144TMC2     O 2244   3.117   4.015   0.661  0.0419 -0.2911 -0.0009
  144TMC2     H 2245   3.334   3.960   0.710  0.3473  0.0613 -0.5425
  144TMC2    H1 2246   3.197   4.346   0.781  0.3229  0.9902  1.3430
  144TMC2    H2 2247   3.620   4.280   0.707  1.0480 -2.5118 -1.8326
  144TMC2    C7 2248   3.448   4.468   0.731  0.1987  0.4792 -0.4251
  144TMC2    C8 2249   3.608   4.026   0.687 -0.2055  0.6904 -0.0669
  144TMC2    O1 2250   3.545   4.490   0.654  0.2021 -0.2200  0.0694
  144TMC2    O2 2251   3.719   4.067   0.732  0.0327 -0.2497  0.0857
  144TMC2    O5 2252   3.573   3.896   0.667  0.0679  0.3297 -0.1672
  144TMC2    H5 2253   3.500   3.883   0.603  2.0172  1.5939 -2.6897
  145MPD2     C 2254   2.624   4.232   0.687 -0.2989  0.2013  0.3349
  145MPD2    C1 2255   2.699   4.145   0.606 -0.0792 -0.2707  0.2705
  145MPD2    C2 2256   2.830   4.125   0.643 -0.5636 -0.0241 -0.2553
  145MPD2    C3 2257   2.881   4.188   0.756  0.4262 -0.0102 -0.5186
  145MPD2    C4 2258   2.802   4.266   0.838 -0.0917 -0.2804  0.7443
  145MPD2    C5 2259   2.670   4.285   0.804 -0.0163 -0.7561  0.1756
  145MPD2     H 2260   2.899   4.080   0.572 -1.1219 -1.0445 -0.1398
  145MPD2    H1 2261   2.843   4.306   0.930 -1.8456 -0.2515  1.5185
  145MPD2    H2 2262   2.519   4.240   0.664 -0.5077 -1.0181  0.8342
  145MPD2    H3 2263   2.599   4.335   0.868  0.2715  1.5445 -1.3102
  145MPD2     N 2264   3.022   4.187   0.793  0.2353 -0.3684  0.2070
  145MPD2    H5 2265   3.052   4.236   0.876 -1.9759 -1.1016  1.4439
  145MPD2    N1 2266   2.663   4.079   0.488 -0.4157  0.2050 -0.2982
  145MPD2    H7 2267   2.736   4.022   0.446 -2.7291 -2.5170 -0.6438
  146TMC2    C1 2268   0.592   3.099  12.488  0.1690  0.4786 -0.8213
  146TMC2    C2 2269   0.565   3.061  12.358 -0.2427 -0.1912  0.7902
  146TMC2    C3 2270   0.669   2.988  12.295 -0.2110 -0.6097 -0.1690
  146TMC2    C4 2271   0.700   3.050  12.556  0.5111  0.1382  0.2243
  146TMC2    C5 2272   0.800   2.980  12.486  0.4021 -0.3954  0.2167
  146TMC2    C6 2273   0.784   2.947  12.354  0.1264  0.8864 -0.1787
  146TMC2     C 2274   0.499   3.189  12.558 -0.3736 -0.0260 -0.4683
  146TMC2     O 2275   0.421   3.257  12.489 -0.2148 -0.2093 -0.1479
  146TMC2     H 2276   0.479   3.102  12.307  0.8534  1.6120  0.3915
  146TMC2    H1 2277   0.728   3.071  12.658  1.3455 -0.5140  0.1242
  146TMC2    H2 2278   0.847   2.871  12.310 -0.1876  0.0363  0.8417
  146TMC2    C7 2279   0.897   2.889  12.551 -0.3627  0.3766  0.5398
  146TMC2    C8 2280   0.667   2.965  12.152 -0.6633  0.0219 -0.3457
  146TMC2    O1 2281   1.001   2.871  12.492 -0.2608 -0.2844 -0.3271
  146TMC2    O2 2282   0.771   2.963  12.088  0.1404  0.1187  0.3551
  146TMC2    O5 2283   0.547   3.007  12.094  0.0826 -0.0380 -0.1445
  146TMC2    H5 2284   0.464   2.993  12.143 -0.0675  0.2619 -0.3161
  147MPD2     C 2285   1.070   2.608  12.931  0.2983 -0.5252 -0.1664
  147MPD2    C1 2286   0.974   2.684  12.984 -0.3226  0.5244 -0.1899
  147MPD2    C2 2287   0.901   2.768  12.903  0.1894 -0.4726  0.3354
  147MPD2    C3 2288   0.934   2.772  12.768 -0.7702 -0.2222  0.6209
  147MPD2    C4 2289   1.029   2.685  12.720  0.4185  0.1372 -0.3207
  147MPD2    C5 2290   1.099   2.598  12.802  0.1701  0.3517  0.0701
  147MPD2     H 2291   0.840   2.847  12.946  0.2246  0.3249 -1.1065
  147MPD2    H1 2292   1.063   2.695  12.617  2.6176  1.3992  0.5250
  147MPD2    H2 2293   1.128   2.543  12.996 -0.3289  0.5359  1.4631
  147MPD2    H3 2294   1.181   2.532  12.777 -0.0469 -0.1341  0.6544
  147MPD2     N 2295   0.863   2.855  12.681 -0.3648 -0.4676  0.2824
  147MPD2    H5 2296   0.783   2.902  12.722 -1.3294 -0.9991 -0.9954
  147MPD2    N1 2297   0.943   2.667  13.124 -0.3881  0.3318  0.2896
  147MPD2    H7 2298   1.000   2.602  13.176  2.4699 -0.4067 -3.7363
  148TMC2    C1 2299   0.190   2.501  10.452 -0.2424  0.1284  0.0842
  148TMC2    C2 2300   0.301   2.585  10.461 -0.3462  0.5484 -0.7533
  148TMC2    C3 2301   0.418   2.531  10.514 -0.4799  0.7190  0.2199
  148TMC2    C4 2302   0.185   2.375  10.504  0.1103  0.1753 -0.4432
  148TMC2    C5 2303   0.294   2.335  10.574 -0.2768 -0.3013  0.2373
  148TMC2    C6 2304   0.414   2.405  10.577 -0.3295  0.1468 -0.0759
  148TMC2     C 2305   0.076   2.551  10.365 -0.1657 -0.2794  0.6735
  148TMC2     O 2306   0.066   2.669  10.338 -0.3227 -0.4197 -0.0414
  148TMC2     H 2307   0.295   2.685  10.419  0.4589  0.1622 -1.7663
  148TMC2    H1 2308   0.086   2.338  10.527  0.8104 -1.8405 -0.6932
  148TMC2    H2 2309   0.500   2.360  10.626 -1.1837 -1.1309  0.2713
  148TMC2    C7 2310   0.281   2.190  10.599 -0.0721 -1.2021 -1.0659
  148TMC2    C8 2311   0.519   2.633  10.548  0.3288  0.6488 -0.3642
  148TMC2    O1 2312   0.199   2.139  10.527 -0.2797  0.2284 -0.0101
  148TMC2    O2 2313   0.534   2.737  10.489 -0.1959  0.2213  0.4677
  148TMC2    O5 2314   0.571   2.602  10.672  0.5335 -0.0385  0.2419
  148TMC2    H5 2315   0.527   2.526  10.716 -3.0953  1.4560 -0.7553
  149MPD2     C 2316   4.534   2.561  10.262 -0.3388 -0.1952 -0.0593
  149MPD2    C1 2317   4.608   2.446  10.282  0.0469 -0.7117 -0.3203
  149MPD2    C2 2318   4.544   2.323  10.265 -0.4063  0.1076  0.6220
  149MPD2    C3 2319   4.410   2.312  10.226  0.1879  0.1984 -0.6668
  149MPD2    C4 2320   4.343   2.429  10.201  0.3479 -0.0431 -0.0809
  149MPD2    C5 2321   4.401   2.545  10.217  0.1179 -0.4347  0.5493
  149MPD2     H 2322   4.608   2.236  10.278 -1.4525 -0.8825 -0.8929
  149MPD2    H1 2323   4.244   2.424  10.158  0.2381 -1.2088  0.3188
  149MPD2    H2 2324   4.582   2.658  10.265 -1.2643  0.2532  0.4505
  149MPD2    H3 2325   4.350   2.632  10.176 -0.7304 -0.8620  0.7055
  149MPD2     N 2326   4.353   2.186  10.215 -0.3744 -0.1933 -0.2511
  149MPD2    H5 2327   4.266   2.182  10.163 -2.7657  4.3331  3.3670
  149MPD2    N1 2328   0.002   2.445  10.327 -0.0444  0.1541  0.3405
  149MPD2    H7 2329   0.042   2.354  10.348  1.0822  0.4949 -0.3446
  150TMC2    C1 2330   2.463   1.472  12.272  0.5566 -0.1857 -0.4264
  150TMC2    C2 2331   2.467   1.540  12.154  0.1423  0.2019  0.1065
  150TMC2    C3 2332   2.585   1.532  12.087 -0.8306 -0.9019 -0.0120
  150TMC2    C4 2333   2.571   1.399  12.321  0.3507 -0.4842  0.3934
  150TMC2    C5 2334   2.690   1.404  12.253  0.1181 -0.8048 -0.2870
  150TMC2    C6 2335   2.697   1.475  12.134 -0.0126 -0.1108 -0.6945
  150TMC2     C 2336   2.330   1.447  12.327 -0.3201 -0.2282 -0.0006
  150TMC2     O 2337   2.315   1.413  12.446 -0.0966  0.0258  0.5390
  150TMC2     H 2338   2.383   1.597  12.116 -0.0414 -0.5222 -0.5957
  150TMC2    H1 2339   2.568   1.365  12.423  0.4633  3.3930  1.6938
  150TMC2    H2 2340   2.790   1.487  12.080  0.9057 -1.0617  0.6657
  150TMC2    C7 2341   2.814   1.390  12.317 -0.0127 -0.0134 -1.0414
  150TMC2    C8 2342   2.611   1.641  11.988 -0.5466  0.0393  0.3650
  150TMC2    O1 2343   2.903   1.458  12.271 -0.1977 -0.1140  0.6045
  150TMC2    O2 2344   2.543   1.740  11.997 -0.4831  0.1124 -0.2141
  150TMC2    O5 2345   2.653   1.580  11.879 -0.6451  0.6721 -0.2422
  150TMC2    H5 2346   2.711   1.502  11.890 -1.7490 -0.2451 -1.0268
  151MPD2     C 2347   1.822   1.437  12.272 -0.8965 -0.3159 -0.3002
  151MPD2    C1 2348   1.880   1.438  12.144 -0.5084 -0.3095 -0.8322
  151MPD2    C2 2349   2.017   1.466  12.131  1.2924  0.1924  0.1319
  151MPD2    C3 2350   2.097   1.464  12.247  0.0317  0.1976 -0.2368
  151MPD2    C4 2351   2.031   1.475  12.370  0.0619 -0.2571 -0.5101
  151MPD2    C5 2352   1.894   1.459  12.382  0.7875 -0.2201  0.4316
  151MPD2     H 2353   2.068   1.487  12.038 -0.2361 -0.8154 -0.9333
  151MPD2    H1 2354   2.089   1.487  12.460  0.4135  0.7601 -0.8714
  151MPD2    H2 2355   1.715   1.420  12.281 -0.6410 -1.4766  0.5135
  151MPD2    H3 2356   1.848   1.445  12.480 -0.8273  0.3443 -0.2362
  151MPD2     N 2357   2.233   1.453  12.228  0.0839  0.6018  0.0279
  151MPD2    H5 2358   2.270   1.447  12.134  1.5895 -0.4934  0.6890
  151MPD2    N1 2359   1.802   1.415  12.028  0.2349 -0.5709  0.2256
  151MPD2    H7 2360   1.705   1.389  12.043 -0.3730  0.5870 -1.7409
  152TMC2    C1 2361   1.807   1.096  12.540 -0.1557 -0.0782  0.4222
  152TMC2    C2 2362   1.877   1.067  12.425 -0.5123  0.0513 -0.3412
  152TMC2    C3 2363   2.003   1.114  12.410  0.5103  0.3015  0.7388
  152TMC2    C4 2364   1.876   1.162  12.641 -0.2851  0.1253  0.8599
  152TMC2    C5 2365   2.003   1.207  12.620 -0.6477  0.6857 -0.0901
  152TMC2    C6 2366   2.070   1.179  12.507  0.3934  0.4060  0.3164
  152TMC2     C 2367   1.703   1.002  12.583 -0.4339 -0.0150  0.5324
  152TMC2     O 2368   1.585   0.998  12.543  0.3420  0.4341  0.0272
  152TMC2     H 2369   1.831   1.012  12.343  0.8025 -1.5687  0.0144
  152TMC2    H1 2370   1.824   1.199  12.729 -1.3567 -1.3214  0.8328
  152TMC2    H2 2371   2.170   1.217  12.490  0.4940 -0.1490 -0.3267
  152TMC2    C7 2372   2.056   1.276  12.731  0.9286  0.4969  0.3878
  152TMC2    C8 2373   2.069   1.100  12.287  0.4261  0.2956  0.5057
  152TMC2    O1 2374   1.979   1.323  12.817 -0.0220 -0.1055 -0.2407
  152TMC2    O2 2375   2.002   1.086  12.183 -0.0834  0.4658 -0.0325
  152TMC2    O5 2376   2.197   1.065  12.310 -0.5347 -0.6561  0.0847
  152TMC2    H5 2377   2.223   1.055  12.404  0.2245 -0.2850 -0.0945
  153MPD2     C 2378   1.768   0.772  12.862 -0.4849 -0.1879  0.4312
  153MPD2    C1 2379   1.694   0.844  12.778 -0.2960 -0.2526  0.6194
  153MPD2    C2 2380   1.556   0.820  12.794  0.4120 -0.0480  0.3818
  153MPD2    C3 2381   1.504   0.734  12.888 -0.3161 -0.6613  0.3121
  153MPD2    C4 2382   1.585   0.664  12.972 -0.0816  0.4064 -0.0580
  153MPD2    C5 2383   1.715   0.690  12.954  0.5868 -0.8088 -0.2340
  153MPD2     H 2384   1.491   0.862  12.718  1.0235  1.2263  0.5571
  153MPD2    H1 2385   1.555   0.600  13.054  2.6523 -0.4415  0.2895
  153MPD2    H2 2386   1.876   0.777  12.859 -0.4454 -1.4340 -0.1747
  153MPD2    H3 2387   1.786   0.630  13.010  2.0862  0.7587 -0.4765
  153MPD2     N 2388   1.367   0.725  12.885  0.0858 -0.1996 -0.8492
  153MPD2    H5 2389   1.313   0.763  12.808 -0.2545  0.3592 -0.3304
  153MPD2    N1 2390   1.763   0.922  12.684 -0.0112 -0.0066  0.3799
  153MPD2    H7 2391   1.862   0.936  12.702  0.2777  0.5030 -1.6121
  154TMC2    C1 2392   3.331   1.340   0.195  0.6750 -0.1850 -0.1847
  154TMC2    C2 2393   3.336   1.256   0.303  0.2592 -0.4469  0.1399
  154TMC2    C3 2394   3.450   1.179   0.302 -0.0298 -0.8512 -0.2395
  154TMC2    C4 2395   3.421   1.353   0.090 -0.0991  0.1395 -0.1620
  154TMC2    C5 2396   3.521   1.270   0.100 -0.1621 -0.1819  0.4361
  154TMC2    C6 2397   3.533   1.182   0.200 -0.8189  0.0754  0.3499
  154TMC2     C 2398   3.229   1.444   0.203 -0.0677 -0.2897  0.1943
  154TMC2     O 2399   3.121   1.414   0.246  0.3221  0.2488  0.5624
  154TMC2     H 2400   3.255   1.255   0.374 -0.9842 -2.4003 -1.2940
  154TMC2    H1 2401   3.405   1.417   0.004 -1.4093 -0.4058 -0.3215
  154TMC2    H2 2402   3.623   1.122   0.199  0.6439  2.2502  0.7663
  154TMC2    C7 2403   3.601   1.240  17.734  0.4709 -0.3761  0.2080
  154TMC2    C8 2404   3.431   1.051   0.364 -0.2639  0.6098 -0.6480
  154TMC2    O1 2405   3.654   1.129  17.733  0.7535  0.0623  0.0219
  154TMC2    O2 2406   3.442   0.957   0.290 -0.0407 -0.3195  0.3374
  154TMC2    O5 2407   3.344   1.056   0.466 -0.1649  0.5883 -0.2083
  154TMC2    H5 2408   3.363   1.142   0.511 -0.3174 -0.2969  1.5346
  155MPD2     C 2409   3.256   1.807   0.113  0.1894 -0.4820 -0.0537
  155MPD2    C1 2410   3.194   1.687   0.145  0.5721  0.3792  0.1380
  155MPD2    C2 2411   3.061   1.678   0.168  0.5875 -0.3171  0.0092
  155MPD2    C3 2412   2.980   1.792   0.152  0.4407 -0.7115 -0.4152
  155MPD2    C4 2413   3.041   1.906   0.115  0.6136 -0.3145 -0.0481
  155MPD2    C5 2414   3.174   1.917   0.101 -0.2684  0.1222  0.1095
  155MPD2     H 2415   3.007   1.585   0.182 -0.0006  0.0123 -0.1052
  155MPD2    H1 2416   2.988   1.996   0.086  0.0096 -0.2206  1.3731
  155MPD2    H2 2417   3.362   1.800   0.091 -0.1160  1.0163 -1.9595
  155MPD2    H3 2418   3.210   2.017   0.082  1.8728 -0.5773  0.3839
  155MPD2     N 2419   2.839   1.784   0.162 -0.2016  0.1159 -0.1205
  155MPD2    H5 2420   2.806   1.696   0.201 -1.0373  0.5450  0.1359
  155MPD2    N1 2421   3.274   1.568   0.151  0.2616 -0.5030  0.1152
  155MPD2    H7 2422   3.371   1.573   0.123  0.1605 -1.3700 -0.3647
  156TMC2    C1 2423   2.225   3.461  11.979 -0.0995  0.5278  0.0781
  156TMC2    C2 2424   2.282   3.379  11.883 -0.6359 -0.4128 -0.0516
  156TMC2    C3 2425   2.321   3.437  11.767  0.3138 -0.5882 -0.2975
  156TMC2    C4 2426   2.213   3.597  11.958  0.2205  0.2337  0.1095
  156TMC2    C5 2427   2.253   3.655  11.840  0.3618 -0.0521  0.2441
  156TMC2    C6 2428   2.304   3.572  11.742 -0.8534  0.6788 -0.0718
  156TMC2     C 2429   2.177   3.398  12.104  0.0329  0.2837 -0.0329
  156TMC2     O 2430   2.248   3.306  12.144 -0.3723 -1.0557  0.5591
  156TMC2     H 2431   2.298   3.276  11.913 -1.6278 -0.1740  1.2814
  156TMC2    H1 2432   2.173   3.663  12.034  1.1142 -2.1150  2.5933
  156TMC2    H2 2433   2.336   3.621  11.651  0.1895  1.8864  0.9470
  156TMC2    C7 2434   2.189   3.776  11.804  0.7715  0.1487  0.3766
  156TMC2    C8 2435   2.445   3.393  11.700  0.3130  0.1895  0.0418
  156TMC2    O1 2436   2.230   3.879  11.854  0.1658 -0.3172 -0.0621
  156TMC2    O2 2437   2.526   3.469  11.639 -0.7845 -0.0453  0.1068
  156TMC2    O5 2438   2.466   3.265  11.723 -1.1753 -0.0747 -0.6651
  156TMC2    H5 2439   2.384   3.217  11.746 -1.3603  0.0330 -1.1078
  157MPD2     C 2440   1.837   3.427  12.243 -0.2271  0.3266 -0.1926
  157MPD2    C1 2441   1.971   3.402  12.248 -0.3579 -0.1936 -0.6587
  157MPD2    C2 2442   2.026   3.335  12.355 -0.5799 -0.2762  0.5398
  157MPD2    C3 2443   1.937   3.282  12.449  0.9254 -0.0551 -1.3350
  157MPD2    C4 2444   1.799   3.298  12.442  0.3350 -0.2270 -0.4907
  157MPD2    C5 2445   1.754   3.380  12.343  0.3003 -0.0478  0.0484
  157MPD2     H 2446   2.131   3.327  12.378 -0.7009 -0.4068  1.0550
  157MPD2    H1 2447   1.734   3.256  12.518 -2.2420  1.3175 -1.8075
  157MPD2    H2 2448   1.796   3.488  12.163 -2.3396  0.8542  1.2813
  157MPD2    H3 2449   1.650   3.408  12.338  0.6719  1.6263  1.3190
  157MPD2     N 2450   1.994   3.211  12.560  0.9394  0.1367  0.2609
  157MPD2    H5 2451   2.094   3.216  12.575  1.3232  2.2516 -2.9584
  157MPD2    N1 2452   2.055   3.457  12.149  0.6476 -0.1074 -0.3491
  157MPD2    H7 2453   2.008   3.521  12.085  0.2971  0.1194  0.1315
  158TMC2    C1 2454   2.639   2.263  13.053  0.5050 -0.1510 -0.2119
  158TMC2    C2 2455   2.641   2.395  13.016 -1.2364 -0.3240  0.3844
  158TMC2    C3 2456   2.552   2.434  12.921  0.1702  0.0181  0.2608
  158TMC2    C4 2457   2.530   2.184  13.024  0.1081  0.3345 -0.0838
  158TMC2    C5 2458   2.440   2.234  12.939  0.7163 -0.4772  0.1680
  158TMC2    C6 2459   2.452   2.352  12.874 -0.3539  0.0310 -0.0812
  158TMC2     C 2460   2.746   2.215  13.130 -0.6891  0.3485 -0.3786
  158TMC2     O 2461   2.862   2.237  13.104  0.2127  1.2400 -0.0749
  158TMC2     H 2462   2.730   2.455  13.032 -0.1408 -1.7931 -0.1344
  158TMC2    H1 2463   2.526   2.079  13.054 -0.3613  0.2563 -0.4318
  158TMC2    H2 2464   2.384   2.395  12.801 -1.2574 -1.8843 -0.3730
  158TMC2    C7 2465   2.331   2.155  12.893  0.4390 -0.0027 -0.5219
  158TMC2    C8 2466   2.541   2.578  12.896  0.0193  0.3035 -0.2785
  158TMC2    O1 2467   2.314   2.166  12.773 -0.4699 -0.0316  0.3226
  158TMC2    O2 2468   2.487   2.623  12.800  0.4412 -0.4121 -0.2985
  158TMC2    O5 2469   2.579   2.644  13.007  0.1678 -0.2066 -0.0482
  158TMC2    H5 2470   2.612   2.586  13.079  1.0506  2.0528  1.3400
  159MPD2     C 2471   2.891   1.960  13.548 -0.2665 -0.2793  0.0243
  159MPD2    C1 2472   2.772   2.026  13.578 -0.2629 -0.4450 -0.0485
  159MPD2    C2 2473   2.716   2.092  13.474 -0.3665 -0.6707 -0.4112
  159MPD2    C3 2474   2.776   2.097  13.349 -0.9456  0.2274  0.3196
  159MPD2    C4 2475   2.898   2.043  13.319 -0.6120 -0.1700  0.2222
  159MPD2    C5 2476   2.949   1.964  13.419 -0.6087 -0.6363 -0.5370
  159MPD2     H 2477   2.624   2.149  13.483  0.0102  0.1686 -1.9264
  159MPD2    H1 2478   2.955   2.061  13.228 -2.3206 -0.8284 -0.9759
  159MPD2    H2 2479   2.938   1.900  13.624 -0.2446  0.9163  0.9508
  159MPD2    H3 2480   3.044   1.914  13.400  0.6641  1.0532  1.3339
  159MPD2     N 2481   2.692   2.159  13.246 -0.4289  0.5068  0.2512
  159MPD2    H5 2482   2.594   2.174  13.267  0.0449  1.0274  2.1700
  159MPD2    N1 2483   2.720   2.027  13.707 -0.4035  0.2521  0.2203
  159MPD2    H7 2484   2.733   1.950  13.773 -0.4974 -2.3001 -2.7523
  160TMC2    C1 2485   0.801   0.637   1.522 -0.6180  0.5481  0.5239
  160TMC2    C2 2486   0.857   0.744   1.453 -0.7825  0.2776  0.2173
  160TMC2    C3 2487   0.984   0.776   1.486 -0.2163 -0.0253 -0.4975
  160TMC2    C4 2488   0.869   0.549   1.610 -0.2017 -0.6195 -0.2915
  160TMC2    C5 2489   1.001   0.590   1.633 -0.8770 -0.3910 -0.3148
  160TMC2    C6 2490   1.057   0.702   1.576  0.7052 -1.1493  0.0465
  160TMC2     C 2491   0.666   0.604   1.487  0.2708  0.4369  0.8213
  160TMC2     O 2492   0.626   0.492   1.480 -0.4511 -0.4731 -0.1296
  160TMC2     H 2493   0.809   0.804   1.376 -1.5596 -0.2412  0.2895
  160TMC2    H1 2494   0.826   0.459   1.651  1.2512 -0.9346  0.5522
  160TMC2    H2 2495   1.151   0.736   1.616 -0.2198  1.3988  0.0869
  160TMC2    C7 2496   1.086   0.534   1.738  0.6788 -0.4296  0.2112
  160TMC2    C8 2497   1.053   0.877   1.411  0.5148 -0.1237 -0.5482
  160TMC2    O1 2498   1.017   0.490   1.830 -1.1672  0.2513 -0.5466
  160TMC2    O2 2499   0.995   0.965   1.348  0.1399 -0.0114  0.8052
  160TMC2    O5 2500   1.169   0.815   1.383 -0.4977 -0.8636 -0.1557
  160TMC2    H5 2501   1.186   0.729   1.427 -2.8352 -1.2451 -0.0242
  161MPD2     C 2502   0.394   0.636   1.375 -0.5908  0.6619 -0.2725
  161MPD2    C1 2503   0.458   0.737   1.442  0.4253  0.2327  0.0064
  161MPD2    C2 2504   0.390   0.855   1.478  0.6234  0.5212 -0.3169
  161MPD2    C3 2505   0.255   0.872   1.438  0.0766  0.0488  0.4710
  161MPD2    C4 2506   0.194   0.771   1.371 -0.5162  0.1596  0.0892
  161MPD2    C5 2507   0.262   0.655   1.346  0.0407 -0.2551 -0.0325
  161MPD2     H 2508   0.447   0.923   1.541  3.0545 -0.9093 -0.9831
  161MPD2    H1 2509   0.088   0.773   1.346 -0.3872  0.5236 -0.4181
  161MPD2    H2 2510   0.446   0.544   1.351 -1.5160  0.4343 -1.4290
  161MPD2    H3 2511   0.204   0.578   1.298  0.7127 -1.3461  0.9006
  161MPD2     N 2512   0.175   0.986   1.467  0.3027 -0.3384  0.2188
  161MPD2    H5 2513   0.075   0.989   1.451  0.5010  0.6495 -0.8376
  161MPD2    N1 2514   0.597   0.726   1.472  0.0635 -0.2954  0.4251
  161MPD2    H7 2515   0.645   0.807   1.510 -0.7579  0.0945  0.6139
  162TMC2    C1 2516   4.334   3.108   0.406 -0.4174  0.5511  0.1089
  162TMC2    C2 2517   4.339   3.222   0.330  0.5653 -0.3251 -0.3485
  162TMC2    C3 2518   4.383   3.334   0.401  0.4224  0.4174  0.4774
  162TMC2    C4 2519   4.376   3.092   0.533 -0.5440  0.3043 -0.4129
  162TMC2    C5 2520   4.433   3.207   0.593  0.5771 -0.3908 -0.1375
  162TMC2    C6 2521   4.436   3.329   0.525  0.6614 -0.1189 -0.1575
  162TMC2     C 2522   4.278   2.986   0.350  0.2477  0.5193  0.0770
  162TMC2     O 2523   4.291   2.961   0.230 -0.4985  0.1447 -0.1254
  162TMC2     H 2524   4.288   3.238   0.236  0.2709 -0.6233 -0.2365
  162TMC2    H1 2525   4.386   2.994   0.579  0.6398 -0.5140 -2.3817
  162TMC2    H2 2526   4.486   3.411   0.576 -0.2591 -1.1341  2.3888
  162TMC2    C7 2527   4.497   3.196   0.721  0.2699 -0.0648 -0.5072
  162TMC2    C8 2528   4.328   3.465   0.354  0.5525 -0.4179 -0.3303
  162TMC2    O1 2529   4.575   3.288   0.754 -0.3764 -0.0573 -0.8180
  162TMC2    O2 2530   4.233   3.469   0.277  0.3914 -0.0100  0.1923
  162TMC2    O5 2531   4.401   3.573   0.404  0.2444 -0.4005 -0.4105
  162TMC2    H5 2532   4.487   3.541   0.441  1.5937  1.2528 -2.1335
  163MPD2     C 2533   3.984   2.570   0.383 -0.2298  0.1675  1.0315
  163MPD2    C1 2534   4.012   2.642   0.268 -0.4041  0.1658 -0.0804
  163MPD2    C2 2535   4.078   2.771   0.277  0.8885 -0.0325 -0.1093
  163MPD2    C3 2536   4.101   2.817   0.403  1.2166  0.4184 -0.1709
  163MPD2    C4 2537   4.040   2.767   0.512 -0.0668 -0.1574  0.2790
  163MPD2    C5 2538   3.997   2.640   0.503 -0.1630 -0.2163 -0.5590
  163MPD2     H 2539   4.105   2.826   0.188  0.7574 -0.7406 -0.5879
  163MPD2    H1 2540   4.046   2.810   0.611  0.2855  1.9642 -0.6811
  163MPD2    H2 2541   3.947   2.469   0.395 -0.1928 -0.1373 -1.3869
  163MPD2    H3 2542   3.961   2.600   0.597  1.0170 -0.0151 -0.0255
  163MPD2     N 2543   4.183   2.932   0.432 -0.6717 -0.2663 -0.2208
  163MPD2    H5 2544   4.177   2.973   0.525 -0.2806 -1.0307  0.1419
  163MPD2    N1 2545   3.987   2.577   0.147 -0.0629 -0.3149 -0.5782
  163MPD2    H7 2546   3.967   2.478   0.158 -1.2705 -0.1424 -1.2557
  164TMC2    C1 2547   0.922   2.527  10.901  0.4693 -0.0020  0.4287
  164TMC2    C2 2548   0.931   2.614  10.799  0.2517 -0.5601 -0.2633
  164TMC2    C3 2549   0.854   2.728  10.797  0.3522 -0.1346 -0.3780
  164TMC2    C4 2550   0.856   2.569  11.012  0.0201  0.0896  0.2449
  164TMC2    C5 2551   0.779   2.685  11.017  0.4440  0.0711  0.2234
  164TMC2    C6 2552   0.767   2.756  10.902  0.0534 -0.2046  0.2806
  164TMC2     C 2553   0.982   2.391  10.901 -0.4110  0.1719 -0.3332
  164TMC2     O 2554   0.925   2.312  10.974 -0.0786 -0.4437  0.2425
  164TMC2     H 2555   0.978   2.585  10.705 -0.4627  0.6806 -0.9958
  164TMC2    H1 2556   0.836   2.488  11.081 -0.0229 -1.3584 -1.4661
  164TMC2    H2 2557   0.699   2.841  10.904 -1.5918 -1.4962 -0.1859
  164TMC2    C7 2558   0.650   2.688  11.092  0.5012 -0.2889  0.4127
  164TMC2    C8 2559   0.831   2.796  10.667  0.4230 -0.2722  0.0132
  164TMC2    O1 2560   0.561   2.751  11.044  0.1514  0.0369  0.6106
  164TMC2    O2 2561   0.851   2.751  10.556 -0.8677  0.4370 -0.3161
  164TMC2    O5 2562   0.760   2.905  10.688  0.4282  0.3406  0.4971
  164TMC2    H5 2563   0.749   2.937  10.780  0.4952 -1.0452  0.9957
  165TMC2    C1 2564   1.122   0.178   1.096 -0.4496  0.3376 -0.3477
  165TMC2    C2 2565   1.089   0.302   1.145 -0.1641  0.1619  0.3700
  165TMC2    C3 2566   1.132   0.334   1.275  0.5000 -0.4911  0.0688
  165TMC2    C4 2567   1.189   0.088   1.174 -0.3142  0.2166  0.5736
  165TMC2    C5 2568   1.237   0.124   1.292 -0.4055  0.0880 -0.5737
  165TMC2    C6 2569   1.206   0.251   1.350  0.2711  0.2069 -0.3434
  165TMC2     C 2570   1.045   0.121   0.986  0.2227 -0.7179  0.2852
  165TMC2     O 2571   1.083   0.021   0.926  0.2028  0.1384  0.4092
  165TMC2     H 2572   1.031   0.379   1.095 -1.6170 -0.7913  0.5940
  165TMC2    H1 2573   1.207   4.727   1.135  1.8785 -0.0340  2.2287
  165TMC2    H2 2574   1.235   0.281   1.450 -0.3180  1.2870 -0.4929
  165TMC2    C7 2575   1.341   0.039   1.350 -1.0599  0.6004 -0.5132
  165TMC2    C8 2576   1.140   0.476   1.315  0.4667 -0.7915 -0.2360
  165TMC2    O1 2577   1.402   4.701   1.276 -0.2019  0.0571 -0.3262
  165TMC2    O2 2578   1.211   0.524   1.405  0.4091  0.3199 -0.5417
  165TMC2    O5 2579   1.045   0.545   1.252  0.0406 -0.3715  0.2578
  165TMC2    H5 2580   0.976   0.479   1.228 -1.9607  1.2198  1.5295
  166MPD2     C 2581   0.587   0.001   0.780  0.0703  0.1140 -1.0352
  166MPD2    C1 2582   0.696   4.656   0.809  0.2036  0.1625 -0.3978
  166MPD2    C2 2583   0.800   4.714   0.878 -0.2475 -0.0859 -0.4265
  166MPD2    C3 2584   0.802   0.109   0.917 -0.0630  0.1105 -0.2056
  166MPD2    C4 2585   0.687   0.180   0.908  0.5669 -0.5818 -0.8154
  166MPD2    C5 2586   0.576   0.125   0.843  0.6674 -0.3380  0.3385
  166MPD2     H 2587   0.893   4.660   0.893  0.6978  2.0285  1.2928
  166MPD2    H1 2588   0.679   0.285   0.934  0.8909 -1.0140  1.0001
  166MPD2    H2 2589   0.497   4.699   0.736 -0.9183 -0.3144  1.3852
  166MPD2    H3 2590   0.493   0.193   0.831 -0.2011 -1.4885 -0.1034
  166MPD2     N 2591   0.909   0.170   0.987  0.7808  0.3407 -0.1264
  166MPD2    H5 2592   0.878   0.257   1.030  3.6806  1.4175 -0.1763
  166MPD2    N1 2593   0.678   4.518   0.796  0.4185 -0.6818  0.1059
  166MPD2    H7 2594   0.579   4.497   0.781  0.3298 -0.0996 -0.1233
  167TMC2    C1 2595   4.613   2.286  12.706 -0.2903 -0.2040 -0.0097
  167TMC2    C2 2596   4.568   2.361  12.816 -0.3177 -0.7638  0.7576
  167TMC2    C3 2597   4.638   2.358  12.933 -0.3245  0.0693  0.6299
  167TMC2    C4 2598   4.730   2.212  12.714 -0.3119 -0.3081  0.3826
  167TMC2    C5 2599   0.056   2.207  12.840 -0.2839  0.1358 -0.0842
  167TMC2    C6 2600   0.009   2.279  12.945  1.0766 -0.4562 -0.0523
  167TMC2     C 2601   4.558   2.289  12.571 -0.0930 -0.4704 -0.3079
  167TMC2     O 2602   4.586   2.190  12.505 -0.1987 -0.0481 -0.2740
  167TMC2     H 2603   4.492   2.438  12.803 -1.1936 -1.5945  0.9739
  167TMC2    H1 2604   0.024   2.147  12.633  1.8316  0.2399  0.7990
  167TMC2    H2 2605   0.050   2.261  13.044 -1.0405  2.1553  1.2902
  167TMC2    C7 2606   0.157   2.104  12.866 -0.1556 -0.0906 -1.0557
  167TMC2    C8 2607   4.560   2.379  13.052  0.0485 -0.0468  0.4710
  167TMC2    O1 2608   0.162   2.064  12.983 -0.8417 -0.0564 -0.3843
  167TMC2    O2 2609   4.614   2.387  13.165 -0.0698 -0.2709  0.3256
  167TMC2    O5 2610   4.444   2.315  13.021  0.1498  0.2486  0.2203
  167TMC2    H5 2611   4.438   2.280  12.930  2.0378 -0.5203  0.4082
  168MPD2     C 2612   4.433   2.591  12.386 -0.1448  0.4127 -0.2814
  168MPD2    C1 2613   4.462   2.451  12.405 -0.1098 -0.3730  0.3937
  168MPD2    C2 2614   4.462   2.358  12.304 -0.4166 -0.0405 -0.1150
  168MPD2    C3 2615   4.449   2.394  12.169  0.7548 -0.2754  0.7976
  168MPD2    C4 2616   4.417   2.529  12.148  0.2401 -0.2452 -0.1921
  168MPD2    C5 2617   4.410   2.621  12.247 -0.1762  0.9924 -0.0523
  168MPD2     H 2618   4.468   2.253  12.330 -2.2610  0.8360  3.9367
  168MPD2    H1 2619   4.393   2.574  12.052 -1.2580  0.4143  0.4943
  168MPD2    H2 2620   4.429   2.663  12.467  2.2581 -0.1496  0.3348
  168MPD2    H3 2621   4.387   2.723  12.219  0.8494  0.9238 -1.1141
  168MPD2     N 2622   4.467   2.292  12.067  0.3555 -0.9631 -0.3139
  168MPD2    H5 2623   4.494   2.199  12.097  0.3072 -0.3887  1.4937
  168MPD2    N1 2624   4.502   2.409  12.537  0.0382  0.9369  0.3724
  168MPD2    H7 2625   4.507   2.488  12.600  0.5404  0.1759  1.2792
  169MPD1     C 2626   1.947   2.326   9.456 -0.0601 -0.2895 -0.5522
  169MPD1    C1 2627   2.003   2.331   9.585  0.4795  0.1544 -0.0771
  169MPD1    C2 2628   2.100   2.235   9.619  0.5655  0.0834  0.0079
  169MPD1    C3 2629   2.128   2.128   9.536  0.8609 -0.1037 -0.0542
  169MPD1    C4 2630   2.070   2.123   9.413 -0.0441  0.3736  0.0822
  169MPD1    C5 2631   1.989   2.226   9.373  0.1631 -0.7394  0.0597
  169MPD1     H 2632   2.151   2.244   9.714  0.2937 -1.8077  0.3293
  169MPD1    H1 2633   2.097   2.041   9.348 -2.0943 -1.2354  1.2447
  169MPD1    H2 2634   1.866   2.389   9.423  0.3266 -0.3380 -1.6101
  169MPD1    H3 2635   1.944   2.218   9.275 -0.4816  0.0120  0.2932
  169MPD1     N 2636   2.230   2.044   9.579 -0.2037  0.1315  0.5855
  169MPD1    H5 2637   2.263   2.068   9.672 -1.3644  0.5283  0.8957
  169MPD1    N1 2638   1.984   2.440   9.665  0.0494  0.2615 -0.0122
  169MPD1    H6 2639   1.995   2.440   9.767 -1.9132 -1.3609  0.2073
  169MPD1    H7 2640   1.908   2.501   9.638 -0.5533 -1.7044 -2.7061
  170MPD1     C 2641   1.336   4.336  12.768  0.2483 -0.3561  0.4366
  170MPD1    C1 2642   1.202   4.352  12.742 -0.2961  0.0968 -0.0796
  170MPD1    C2 2643   1.112   4.340  12.840  0.3246  0.0320 -1.0119
  170MPD1    C3 2644   1.150   4.315  12.971 -0.5300 -0.2471 -0.0421
  170MPD1    C4 2645   1.288   4.308  12.998 -0.9300  0.8457 -0.5889
  170MPD1    C5 2646   1.380   4.307  12.898 -0.8430  0.0389 -0.0980
  170MPD1     H 2647   1.006   4.357  12.825 -0.0179  0.6952  2.2622
  170MPD1    H1 2648   1.314   4.277  13.098 -2.2416 -1.2656 -0.8964
  170MPD1    H2 2649   1.406   4.347  12.686 -0.8466 -0.8772 -0.5571
  170MPD1    H3 2650   1.485   4.297  12.922 -1.1343 -0.2648  1.0590
  170MPD1     N 2651   1.042   4.305  13.067 -0.9879 -0.6697  0.4723
  170MPD1    H5 2652   0.943   4.302  13.046 -1.1055 -1.2969  1.1289
  170MPD1    N1 2653   1.158   4.363  12.607  0.4016 -0.3222  0.1991
  170MPD1    H6 2654   1.071   4.414  12.602  0.9546  0.6660  0.7241
  170MPD1    H7 2655   1.205   4.433  12.551  0.6540 -0.2110  0.5499
  171MPD1     C 2656   3.922   1.049  15.296 -0.0966 -0.0312  0.3195
  171MPD1    C1 2657   3.925   0.946  15.204 -0.4870 -0.3147  0.1950
  171MPD1    C2 2658   3.931   0.819  15.248  0.1572 -0.5588  0.0773
  171MPD1    C3 2659   3.931   0.791  15.390  0.1068 -0.9159 -0.1072
  171MPD1    C4 2660   3.926   0.903  15.479  0.0504 -0.0487 -0.3606
  171MPD1    C5 2661   3.924   1.025  15.429  0.5752 -1.2088 -0.6146
  171MPD1     H 2662   3.939   0.738  15.176  1.0683  0.9163 -1.4694
  171MPD1    H1 2663   3.917   0.895  15.586  0.8385  1.2012 -0.2036
  171MPD1    H2 2664   3.924   1.151  15.259  1.7341 -0.6420 -1.2283
  171MPD1    H3 2665   3.923   1.110  15.496  0.9213 -2.2538  0.7348
  171MPD1     N 2666   3.929   0.660  15.445 -0.0446 -0.4554 -0.0951
  171MPD1    H5 2667   3.921   0.653  15.546  0.7977 -0.9295 -0.0600
  171MPD1    N1 2668   3.906   0.977  15.064  0.7286  0.0255  1.0761
  171MPD1    H6 2669   3.921   1.075  15.039 -0.5750  0.2092  1.0486
  171MPD1    H7 2670   3.960   0.913  15.006 -0.3109  0.6258 -0.5549
  172MPD1     C 2671   3.896   3.634   0.345  0.0522 -0.4894 -0.2103
  172MPD1    C1 2672   3.959   3.738   0.416 -0.7255  0.8056  0.5104
  172MPD1    C2 2673   3.906   3.866   0.407  0.5099  0.7193  0.4692
  172MPD1    C3 2674   3.797   3.889   0.319  0.5567  0.5927 -0.5473
  172MPD1    C4 2675   3.740   3.784   0.249 -0.8781  1.1013  0.0204
  172MPD1    C5 2676   3.787   3.657   0.266  0.6542 -0.1360  0.5333
  172MPD1     H 2677   3.949   3.938   0.476  1.9946  0.3202 -0.0354
  172MPD1    H1 2678   3.654   3.802   0.185 -0.3446 -0.8593 -1.2544
  172MPD1    H2 2679   3.944   3.537   0.358 -1.7602 -1.1162  1.7334
  172MPD1    H3 2680   3.737   3.579   0.211 -0.9112  0.5961  0.9361
  172MPD1     N 2681   3.738   4.020   0.317  0.5105 -0.3750  0.4233
  172MPD1    H5 2682   3.648   4.020   0.271  0.6394 -1.0169  0.1673
  172MPD1    N1 2683   4.047   3.697   0.517 -0.0839  0.1536 -0.0579
  172MPD1    H6 2684   4.102   3.615   0.491 -0.6211 -0.0503 -0.5527
  172MPD1    H7 2685   4.116   3.770   0.536 -0.3526  0.8300 -1.6398
  173MPD1     C 2686   1.064   4.364  14.224 -0.0070  0.8759 -0.0437
  173MPD1    C1 2687   1.068   4.400  14.354 -0.0265 -0.2914 -0.5888
  173MPD1    C2 2688   0.951   4.392  14.427  0.2231 -1.0313 -0.4188
  173MPD1    C3 2689   0.829   4.372  14.368 -0.2855 -0.0420  1.2806
  173MPD1    C4 2690   0.824   4.353  14.235 -0.4345 -0.1472 -0.2944
  173MPD1    C5 2691   0.941   4.348  14.166  0.4400  0.3704 -0.8472
  173MPD1     H 2692   0.949   4.426  14.530  0.6513  0.1444 -0.7995
  173MPD1    H1 2693   0.734   4.341  14.176 -1.4596  2.9731  0.5896
  173MPD1    H2 2694   1.147   4.346  14.157  0.6682  0.7356  0.8357
  173MPD1    H3 2695   0.934   4.323  14.061 -1.6811 -0.5263 -0.4841
  173MPD1     N 2696   0.711   4.373  14.442 -0.2919  0.5027  0.4274
  173MPD1    H5 2697   0.713   4.403  14.539 -1.6884  2.4847 -0.1421
  173MPD1    N1 2698   1.194   4.409  14.416  0.4013  0.2755  0.1467
  173MPD1    H6 2699   1.185   4.478  14.490 -3.4598  0.7768 -0.7614
  173MPD1    H7 2700   1.266   4.448  14.356 -0.3034  0.6182 -0.4888
  174MPD1     C 2701   0.461   3.904  15.273  0.1757  0.0332  0.0181
  174MPD1    C1 2702   0.547   4.003  15.232 -0.8599  0.1172  0.4345
  174MPD1    C2 2703   0.531   4.068  15.113  0.8905  0.3222  0.9011
  174MPD1    C3 2704   0.425   4.026  15.029  0.0117 -0.4697  0.4330
  174MPD1    C4 2705   0.337   3.927  15.074  0.0038  0.6315 -0.1128
  174MPD1    C5 2706   0.364   3.864  15.191  0.7787 -0.3785  0.0881
  174MPD1     H 2707   0.586   4.161  15.098 -1.4846  1.1477 -2.5635
  174MPD1    H1 2708   0.255   3.897  15.010 -1.0858  1.6292  0.8159
  174MPD1    H2 2709   0.459   3.853  15.369  1.0558  0.2377  0.1447
  174MPD1    H3 2710   0.304   3.780  15.225 -0.6820  0.8370  0.5239
  174MPD1     N 2711   0.401   4.085  14.905 -0.2296  0.8737  1.0531
  174MPD1    H5 2712   0.320   4.050  14.855  0.6679  1.5248 -0.8630
  174MPD1    N1 2713   0.630   4.063  15.325  0.2379  0.1811 -0.3404
  174MPD1    H6 2714   0.719   4.108  15.301 -0.2249  0.0538 -2.2394
  174MPD1    H7 2715   0.648   3.990  15.394  0.2215  1.4412  0.9982
  175MPD1     C 2716   2.863   0.781  15.606  0.8409  0.7096 -0.0593
  175MPD1    C1 2717   2.745   0.750  15.664 -0.3906 -0.3403 -0.5441
  175MPD1    C2 2718   2.752   0.681  15.785  0.0528  0.3517  0.0457
  175MPD1    C3 2719   2.870   0.636  15.844  0.0982 -0.0126 -0.5381
  175MPD1    C4 2720   2.986   0.669  15.784  0.1312  0.3766  0.2327
  175MPD1    C5 2721   2.980   0.735  15.658 -0.4167  0.4678  0.3601
  175MPD1     H 2722   2.660   0.679  15.843 -0.8300  1.5629 -1.3070
  175MPD1    H1 2723   3.084   0.644  15.823  0.7671  0.3068 -1.4064
  175MPD1    H2 2724   2.863   0.828  15.508 -0.3175  1.3069  0.2249
  175MPD1    H3 2725   3.073   0.747  15.603  0.9610  1.5311  2.9323
  175MPD1     N 2726   2.876   0.573  15.971 -0.8599  0.6142 -0.1094
  175MPD1    H5 2727   2.970   0.550  16.003 -1.7877 -0.5095  1.8415
  175MPD1    N1 2728   2.626   0.808  15.616  0.3994 -0.1941  0.2257
  175MPD1    H6 2729   2.636   0.835  15.518 -0.4219  0.5860  0.3620
  175MPD1    H7 2730   2.545   0.747  15.613 -0.9671  1.5359  2.3071
  176MPD1     C 2731   4.718   2.408  16.222  0.6851  0.6412  0.7030
  176MPD1    C1 2732   0.009   2.538  16.198 -0.4883 -1.3417 -0.3676
  176MPD1    C2 2733   0.001   2.622  16.309  0.1605 -0.8316 -0.0132
  176MPD1    C3 2734   4.690   2.585  16.433 -0.0755 -0.1554  0.7979
  176MPD1    C4 2735   4.667   2.452  16.452 -0.4951 -0.2244 -0.3365
  176MPD1    C5 2736   4.681   2.372  16.347 -0.2142  0.0833 -0.2345
  176MPD1     H 2737   0.023   2.728  16.300  1.2154 -0.9736  0.9262
  176MPD1    H1 2738   4.637   2.408  16.546 -0.6045 -0.4000 -0.4545
  176MPD1    H2 2739   4.737   2.325  16.155  1.6845  0.2805  1.4401
  176MPD1    H3 2740   4.660   2.267  16.357 -2.0592  0.6564  2.0111
  176MPD1     N 2741   4.676   2.688  16.530 -0.1120  0.0662  0.5137
  176MPD1    H5 2742   4.688   2.785  16.502 -0.0418  0.6736  2.6602
  176MPD1    N1 2743   0.092   2.567  16.086 -0.5024 -1.2596  0.1540
  176MPD1    H6 2744   0.053   2.508  16.012  0.8943 -1.2158 -0.6282
  176MPD1    H7 2745   0.085   2.666  16.063  1.0181 -1.0696  0.4860
  177MPD1     C 2746   3.811   2.221  10.140  0.9527  0.0910  0.2968
  177MPD1    C1 2747   3.730   2.196  10.026  0.1619 -0.1092  0.5698
  177MPD1    C2 2748   3.649   2.300   9.979  0.2285 -0.0665 -0.9863
  177MPD1    C3 2749   3.653   2.432  10.038 -0.2948  0.3752 -0.3598
  177MPD1    C4 2750   3.736   2.450  10.142  0.0199 -0.1985 -0.4007
  177MPD1    C5 2751   3.805   2.344  10.189 -0.2370  0.0421  0.1329
  177MPD1     H 2752   3.571   2.286   9.905 -0.1361  1.2098 -0.8515
  177MPD1    H1 2753   3.751   2.543  10.196 -1.4148 -0.1375 -0.0943
  177MPD1    H2 2754   3.871   2.144  10.186 -1.9290 -0.9353  2.3146
  177MPD1    H3 2755   3.870   2.357  10.275  1.0516 -0.2551 -0.7882
  177MPD1     N 2756   3.567   2.529   9.978  0.0937 -0.1798 -0.1639
  177MPD1    H5 2757   3.501   2.488   9.913 -1.8004  1.3075  0.8430
  177MPD1    N1 2758   3.724   2.063   9.984  0.0235  0.0264  0.4051
  177MPD1    H6 2759   3.813   2.016  10.000 -0.6243 -1.2054  0.4003
  177MPD1    H7 2760   3.712   2.069   9.883 -2.5094 -0.9060  0.6564
  178MPD1     C 2761   0.737   3.969  17.287  1.0350  0.0631 -0.2122
  178MPD1    C1 2762   0.655   3.883  17.354  0.4776 -0.4907 -0.1701
  178MPD1    C2 2763   0.662   3.750  17.321 -0.2728 -0.4747  0.5993
  178MPD1    C3 2764   0.755   3.704  17.229 -0.8508 -0.3034 -0.8043
  178MPD1    C4 2765   0.854   3.786  17.183 -0.0924 -0.0072  0.5254
  178MPD1    C5 2766   0.841   3.917  17.210  0.1686  0.1009  0.2865
  178MPD1     H 2767   0.588   3.685  17.365 -1.7987  1.6973  1.2555
  178MPD1    H1 2768   0.924   3.755  17.106 -0.0515  1.1378  0.0909
  178MPD1    H2 2769   0.739   4.075  17.311  0.6069 -0.2925  1.3825
  178MPD1    H3 2770   0.918   3.987  17.179 -1.3443  1.9639  0.7710
  178MPD1     N 2771   0.754   3.573  17.173 -0.1084 -0.5316  0.1946
  178MPD1    H5 2772   0.840   3.559  17.122  0.0679  0.8481  0.1031
  178MPD1    N1 2773   0.554   3.924  17.442  1.0467  0.4233  0.2989
  178MPD1    H6 2774   0.575   4.006  17.499  2.0400 -0.1674  0.7699
  178MPD1    H7 2775   0.530   3.844  17.499  3.4212  0.3080  1.1314
  179MPD1     C 2776   0.682   1.064  15.357 -0.4045 -0.0345  0.3699
  179MPD1    C1 2777   0.677   1.093  15.499 -0.4027  0.5151 -0.1388
  179MPD1    C2 2778   0.559   1.134  15.555 -0.1893  0.4442  0.1432
  179MPD1    C3 2779   0.451   1.158  15.469 -0.1969  0.3731 -0.7553
  179MPD1    C4 2780   0.464   1.138  15.334 -0.0291  0.1172 -0.2383
  179MPD1    C5 2781   0.582   1.088  15.276 -0.1971 -0.3949  0.8015
  179MPD1     H 2782   0.562   1.141  15.663 -0.6338 -1.6327  0.3019
  179MPD1    H1 2783   0.390   1.168  15.260 -0.5472  0.1526  0.3012
  179MPD1    H2 2784   0.777   1.028  15.319 -0.2651  2.5317 -1.6779
  179MPD1    H3 2785   0.602   1.091  15.170 -1.0062 -1.3655  0.6260
  179MPD1     N 2786   0.322   1.191  15.522  0.3566 -0.4884 -0.1257
  179MPD1    H5 2787   0.239   1.171  15.466 -0.0396 -0.4444  0.4454
  179MPD1    N1 2788   0.778   1.075  15.591  0.4905 -0.1772  0.1961
  179MPD1    H6 2789   0.874   1.065  15.557 -0.3287 -1.3503 -1.7217
  179MPD1    H7 2790   0.771   1.147  15.662  1.5014  0.8838 -0.7874
  180MPD1     C 2791   1.454   3.364  14.685 -0.3300  0.8822  0.3358
  180MPD1    C1 2792   1.438   3.404  14.553 -0.3614  0.0858  0.0105
  180MPD1    C2 2793   1.311   3.404  14.501  0.0744 -0.6696 -0.3750
  180MPD1    C3 2794   1.205   3.335  14.568  0.0171  0.1462 -0.2890
  180MPD1    C4 2795   1.227   3.279  14.688 -0.5162  0.8614  0.0435
  180MPD1    C5 2796   1.348   3.300  14.751  0.1665  0.1721 -0.1335
  180MPD1     H 2797   1.302   3.444  14.401  2.1659  1.5863  0.3055
  180MPD1    H1 2798   1.151   3.224  14.742 -2.9022  2.9960 -1.1340
  180MPD1    H2 2799   1.547   3.391  14.733 -0.5401  1.2769  0.5299
  180MPD1    H3 2800   1.362   3.246  14.844 -0.4247  0.6067  0.2066
  180MPD1     N 2801   1.080   3.337  14.496  0.1199  0.0990  0.2710
  180MPD1    H5 2802   1.073   3.396  14.415 -1.0808 -0.8611 -0.3238
  180MPD1    N1 2803   1.541   3.469  14.495  0.5016 -0.2180  0.9067
  180MPD1    H6 2804   1.632   3.447  14.533  1.1111 -0.0564 -0.4682
  180MPD1    H7 2805   1.550   3.438  14.398  0.5769  0.6094  0.6489
  181MPD1     C 2806   2.202   4.610  10.334  0.0697  0.0579  0.5557
  181MPD1    C1 2807   2.219   4.703  10.428  0.4692  0.7148  0.2230
  181MPD1    C2 2808   2.333   0.041  10.436 -0.2700 -0.2402  0.2840
  181MPD1    C3 2809   2.420   0.037  10.327 -0.9369 -0.0260  0.0111
  181MPD1    C4 2810   2.384   4.699  10.217 -0.1483 -0.0737 -0.6543
  181MPD1    C5 2811   2.287   4.605  10.229 -0.8857 -0.5758  0.4220
  181MPD1     H 2812   2.347   0.105  10.522  0.5379 -1.8884  1.3748
  181MPD1    H1 2813   2.435   4.703  10.121  0.3420  0.8626 -0.3543
  181MPD1    H2 2814   2.124   4.535  10.327 -0.5840  0.9353 -1.6023
  181MPD1    H3 2815   2.259   4.543  10.144  1.3374  0.1588 -0.8561
  181MPD1     N 2816   2.536   0.111  10.317 -0.2675  0.3747  0.3079
  181MPD1    H5 2817   2.591   0.106  10.231 -1.5117  0.2875 -0.4845
  181MPD1    N1 2818   2.137   4.684  10.540 -0.6955 -0.1736 -0.1137
  181MPD1    H6 2819   2.118   0.031  10.591 -1.8557  0.4318 -1.5534
  181MPD1    H7 2820   2.051   4.649  10.499  0.0847 -1.3113 -0.7961
  182MPD1     C 2821   2.326   3.202   1.259 -0.1909 -0.5484  0.3576
  182MPD1    C1 2822   2.238   3.289   1.316 -0.1997  0.0359 -0.4933
  182MPD1    C2 2823   2.177   3.377   1.228 -0.6455  0.0596  0.6960
  182MPD1    C3 2824   2.194   3.374   1.094 -0.4185  0.1560 -0.2888
  182MPD1    C4 2825   2.281   3.282   1.038  0.3314 -0.7472  0.2677
  182MPD1    C5 2826   2.357   3.207   1.122  0.0252 -0.0529  0.1610
  182MPD1     H 2827   2.121   3.454   1.281 -1.7254  0.2309 -0.6796
  182MPD1    H1 2828   2.301   3.267   0.932 -0.5569  2.7933 -0.3693
  182MPD1    H2 2829   2.385   3.133   1.318 -0.8059  0.9062  2.6462
  182MPD1    H3 2830   2.427   3.134   1.083 -0.1929  0.8707 -1.9689
  182MPD1     N 2831   2.108   3.440   1.004 -0.3705  0.8734 -0.3017
  182MPD1    H5 2832   2.133   3.412   0.909  1.6849  0.3665  0.4041
  182MPD1    N1 2833   2.212   3.295   1.453 -0.0237 -0.4069  0.3040
  182MPD1    H6 2834   2.195   3.199   1.482  0.3652 -1.0601 -1.5928
  182MPD1    H7 2835   2.120   3.335   1.468  0.1742  0.1235  0.1130
  183MPD1     C 2836   2.781   3.671   8.881 -0.7195  0.7660  0.1922
  183MPD1    C1 2837   2.843   3.693   8.997 -0.5625  0.6417  0.1989
  183MPD1    C2 2838   2.853   3.824   9.036 -1.3600  0.2787 -0.2282
  183MPD1    C3 2839   2.800   3.927   8.960  0.4575  0.4499  0.0977
  183MPD1    C4 2840   2.726   3.902   8.842 -0.3202 -0.2676 -0.1008
  183MPD1    C5 2841   2.724   3.769   8.803  0.6539  0.2257  0.0841
  183MPD1     H 2842   2.901   3.853   9.129  0.6159 -2.2763 -0.4435
  183MPD1    H1 2843   2.694   3.977   8.771  1.4629 -0.2165 -0.8580
  183MPD1    H2 2844   2.781   3.568   8.847 -1.7927  1.6849 -2.6141
  183MPD1    H3 2845   2.697   3.738   8.703 -1.1384  0.2905  0.5499
  183MPD1     N 2846   2.826   4.060   9.000 -0.7808 -0.3128 -0.5783
  183MPD1    H5 2847   2.897   4.069   9.071 -2.3658  2.3479  0.6450
  183MPD1    N1 2848   2.908   3.595   9.069  0.5217  0.4964 -0.2297
  183MPD1    H6 2849   2.862   3.505   9.056  1.5685 -0.2361  1.1087
  183MPD1    H7 2850   2.917   3.622   9.167 -3.0934  0.3906  0.1442
  184MPD1     C 2851   2.466   2.384  10.535  0.4244 -0.1747  0.1984
  184MPD1    C1 2852   2.403   2.330  10.423  0.4669 -0.5184 -0.6110
  184MPD1    C2 2853   2.437   2.384  10.297 -0.3789 -0.0544  0.1320
  184MPD1    C3 2854   2.514   2.497  10.285  0.8650  0.4931 -0.2532
  184MPD1    C4 2855   2.574   2.552  10.398  0.9152  0.4952  0.5343
  184MPD1    C5 2856   2.557   2.486  10.520  0.9317 -0.3995 -0.0015
  184MPD1     H 2857   2.393   2.334  10.211 -1.7319 -0.0100  0.7932
  184MPD1    H1 2858   2.631   2.644  10.389 -0.1110  1.2053  1.1457
  184MPD1    H2 2859   2.440   2.349  10.635 -0.1355  1.6895  0.7052
  184MPD1    H3 2860   2.606   2.525  10.608 -0.3161  0.1246  0.4593
  184MPD1     N 2861   2.552   2.551  10.157  0.1592  0.0653  0.0451
  184MPD1    H5 2862   2.621   2.625  10.160 -0.5391  0.7589 -1.0661
  184MPD1    N1 2863   2.333   2.209  10.432 -0.6650  0.0697  0.0766
  184MPD1    H6 2864   2.258   2.198  10.364  0.7196  2.6288 -1.8687
  184MPD1    H7 2865   2.291   2.204  10.525 -1.0541 -0.5531 -0.1377
  185MPD1     C 2866   2.378   2.423   9.134  0.2543  0.0814 -0.3926
  185MPD1    C1 2867   2.506   2.419   9.182  0.0617 -0.6384  0.7752
  185MPD1    C2 2868   2.527   2.494   9.296  0.3245  0.4361  0.0898
  185MPD1    C3 2869   2.426   2.524   9.385 -0.0394 -0.1485  0.2004
  185MPD1    C4 2870   2.295   2.501   9.342 -0.1759 -0.3284 -0.3415
  185MPD1    C5 2871   2.277   2.454   9.216 -0.4330 -0.3225  0.6776
  185MPD1     H 2872   2.624   2.514   9.340  0.0906 -0.1736  0.8835
  185MPD1    H1 2873   2.206   2.521   9.402  1.0920  2.1165  0.7233
  185MPD1    H2 2874   2.346   2.403   9.033 -0.4527  0.7371 -0.2957
  185MPD1    H3 2875   2.175   2.448   9.181 -1.6808 -1.7834  4.5390
  185MPD1     N 2876   2.448   2.575   9.521  0.2204  0.3305 -0.5448
  185MPD1    H5 2877   2.374   2.564   9.589  1.3038 -0.3315  0.5460
  185MPD1    N1 2878   2.614   2.402   9.092  0.2202  0.4429  0.8192
  185MPD1    H6 2879   2.613   2.327   9.023  1.1833  1.5695 -0.4168
  185MPD1    H7 2880   2.700   2.382   9.141  0.3738  1.8872  1.1227
  186MPD1     C 2881   1.040   1.149  16.026 -0.1472 -0.1480 -0.6855
  186MPD1    C1 2882   1.112   1.252  15.966  0.7143  0.1640 -0.2941
  186MPD1    C2 2883   1.100   1.381  16.015  0.0867  0.3953  0.4558
  186MPD1    C3 2884   1.022   1.400  16.128  0.5122  0.0310  1.1230
  186MPD1    C4 2885   0.951   1.300  16.188 -0.3478 -1.3617  0.2277
  186MPD1    C5 2886   0.956   1.178  16.132 -0.1492  0.0232 -0.0351
  186MPD1     H 2887   1.142   1.469  15.967 -0.8366  0.2796 -0.5692
  186MPD1    H1 2888   0.889   1.318  16.275 -0.7054  1.6787 -0.6538
  186MPD1    H2 2889   1.047   1.045  15.998  0.0038 -0.0133 -1.1537
  186MPD1    H3 2890   0.897   1.094  16.169 -2.4079  1.0356 -1.3794
  186MPD1     N 2891   0.999   1.533  16.182 -0.4257 -0.1893  0.3433
  186MPD1    H5 2892   0.926   1.547  16.251 -0.8639 -0.2720 -0.0978
  186MPD1    N1 2893   1.194   1.222  15.855 -0.1444 -0.1790 -0.0058
  186MPD1    H6 2894   1.255   1.301  15.835  0.6478 -0.1484  2.5756
  186MPD1    H7 2895   1.241   1.132  15.857 -0.5248 -0.3825 -0.3160
  187MPD1     C 2896   4.072   4.238   0.110 -0.0704  0.1597  0.7930
  187MPD1    C1 2897   4.141   4.339   0.042  0.6793  0.0743  0.1222
  187MPD1    C2 2898   4.235   4.293  17.706  0.0840  0.1082 -0.2221
  187MPD1    C3 2899   4.277   4.155  17.708  0.0179 -0.3563  0.5023
  187MPD1    C4 2900   4.207   4.062   0.023  0.2537 -0.1111 -0.3627
  187MPD1    C5 2901   4.103   4.102   0.104  0.4380  0.0166  0.6062
  187MPD1     H 2902   4.282   4.366  17.641 -1.1354  0.5540 -0.6086
  187MPD1    H1 2903   4.235   3.957   0.018  0.1359 -0.1743  0.3852
  187MPD1    H2 2904   3.981   4.264   0.164 -0.5697 -1.7122  0.8427
  187MPD1    H3 2905   4.053   4.026   0.162 -0.3468  0.7445  0.8778
  187MPD1     N 2906   4.375   4.110  17.620 -0.4384 -0.1426  0.0376
  187MPD1    H5 2907   4.391   4.010  17.622  0.5873  0.0154 -0.2583
  187MPD1    N1 2908   4.081   4.466   0.041  0.2331 -0.0774  0.4882
  187MPD1    H6 2909   4.070   4.493   0.138 -2.4945 -2.1887  0.7380
  187MPD1    H7 2910   4.147   4.535   0.005  1.1782  0.2740  2.8918
  188MPD1     C 2911   0.633   3.903  10.626  0.7338 -0.6964 -0.8184
  188MPD1    C1 2912   0.499   3.878  10.658  0.4864  0.4193 -1.3431
  188MPD1    C2 2913   0.424   3.798  10.573  0.1183  0.3993 -0.3485
  188MPD1    C3 2914   0.466   3.765  10.448 -0.5839  0.2222 -0.2592
  188MPD1    C4 2915   0.589   3.809  10.407  0.0341  0.0464  0.0355
  188MPD1    C5 2916   0.671   3.866  10.499 -0.4132  0.1835 -0.4973
  188MPD1     H 2917   0.322   3.772  10.601  0.6215  1.8151  2.7783
  188MPD1    H1 2918   0.635   3.765  10.318  2.9953 -0.5120  1.8189
  188MPD1    H2 2919   0.700   3.970  10.679 -0.1413 -1.3533  1.1156
  188MPD1    H3 2920   0.777   3.884  10.483 -0.1448 -1.7567 -0.9714
  188MPD1     N 2921   0.398   3.677  10.357 -0.2948 -0.5920 -0.5206
  188MPD1    H5 2922   0.444   3.666  10.267  1.3001  1.5226  0.0468
  188MPD1    N1 2923   0.447   3.915  10.785  0.1376 -0.4164 -0.1609
  188MPD1    H6 2924   0.495   3.985  10.841  3.1516 -0.6814 -2.4559
  188MPD1    H7 2925   0.349   3.941  10.773 -0.2360 -1.8321 -0.2499
  189MPD1     C 2926   1.864   4.652   0.294  0.5026 -0.4110  0.2228
  189MPD1    C1 2927   1.814   4.534   0.239 -0.3125 -0.1069 -0.1738
  189MPD1    C2 2928   1.685   4.535   0.199 -0.5581  0.1259  0.4504
  189MPD1    C3 2929   1.596   4.636   0.239  0.8840  0.2717 -0.0195
  189MPD1    C4 2930   1.642   4.738   0.316  0.2873  0.9679  0.2196
  189MPD1    C5 2931   1.776   0.010   0.326  0.1256  0.1334 -0.9621
  189MPD1     H 2932   1.653   4.448   0.143  0.5038 -0.0978  0.1957
  189MPD1    H1 2933   1.581   0.080   0.353  2.3434  2.7467 -0.2655
  189MPD1    H2 2934   1.971   4.643   0.305  0.5947 -0.0640 -0.3779
  189MPD1    H3 2935   1.816   0.089   0.388  1.1716 -1.0397 -0.1517
  189MPD1     N 2936   1.463   4.648   0.204  0.2271 -0.6982  0.5161
  189MPD1    H5 2937   1.419   4.736   0.230 -0.3467 -0.8189 -0.0567
  189MPD1    N1 2938   1.906   4.433   0.210 -0.1857  0.5679  0.1111
  189MPD1    H6 2939   1.868   4.338   0.208  0.2267  0.3906  0.5164
  189MPD1    H7 2940   1.978   4.428   0.281 -0.4499 -2.5731  0.1803
  190MPD1     C 2941   0.006   3.295  15.423 -0.2112  0.0570 -0.2161
  190MPD1    C1 2942   0.026   3.297  15.558 -0.5225 -0.2337  0.0055
  190MPD1    C2 2943   0.126   3.219  15.622 -0.0575 -0.3026 -0.3708
  190MPD1    C3 2944   0.210   3.138  15.544  0.5968  0.8017  0.2078
  190MPD1    C4 2945   0.185   3.135  15.408 -0.0083  0.5526  0.0721
  190MPD1    C5 2946   0.086   3.215  15.351  0.8654 -0.2489 -0.2810
  190MPD1     H 2947   0.142   3.222  15.729  0.4303 -0.2088 -0.4444
  190MPD1    H1 2948   0.244   3.067  15.347 -1.3526  0.3788 -1.0385
  190MPD1    H2 2949   4.660   3.347  15.380  0.4674  0.1825 -1.4027
  190MPD1    H3 2950   0.079   3.212  15.242 -0.7422 -1.8470 -0.1244
  190MPD1     N 2951   0.314   3.063  15.610  0.5112 -0.0133 -0.2051
  190MPD1    H5 2952   0.340   3.093  15.704  0.7510 -2.8472  0.6277
  190MPD1    N1 2953   4.666   3.365  15.627 -0.1568  0.0885  0.0757
  190MPD1    H6 2954   4.614   3.437  15.577 -0.1229 -0.8814 -1.3647
  190MPD1    H7 2955   4.708   3.405  15.710 -2.4898  1.0572  0.7724
  191MPD1     C 2956   4.113   4.567  12.648  0.0916  0.0384 -0.6545
  191MPD1    C1 2957   4.223   4.555  12.565 -0.4275 -0.0696  0.5847
  191MPD1    C2 2958   4.292   4.671  12.535 -0.4753  0.4059 -0.5266
  191MPD1    C3 2959   4.252   0.058  12.580 -0.3662  0.1281  0.4217
  191MPD1    C4 2960   4.137   0.070  12.661  0.5892  0.8606  0.6615
  191MPD1    C5 2961   4.067   4.692  12.693  0.9498 -0.7290 -0.3791
  191MPD1     H 2962   4.387   4.662  12.483  0.7682  0.1039  1.8434
  191MPD1    H1 2963   4.099   0.165  12.698  0.5377  0.3508  1.9132
  191MPD1    H2 2964   4.063   4.475  12.677 -1.5936  1.6760  1.6476
  191MPD1    H3 2965   3.978   4.701  12.755  1.3454 -2.5544  0.4418
  191MPD1     N 2966   4.328   0.181  12.549  0.3846  0.2260  0.0336
  191MPD1    H5 2967   4.417   0.175  12.501  0.7634  1.8854  0.5185
  191MPD1    N1 2968   4.249   4.433  12.507  0.2533 -0.1408  0.7400
  191MPD1    H6 2969   4.174   4.390  12.454  1.1296 -0.1363 -0.5016
  191MPD1    H7 2970   4.322   4.439  12.437 -0.2775 -0.6931  0.1479
  192MPD1     C 2971   4.320   1.275  12.533 -0.2177  0.0752  0.3592
  192MPD1    C1 2972   4.277   1.187  12.628  0.3163  0.5516 -0.3286
  192MPD1    C2 2973   4.309   1.057  12.621  0.6470 -0.0523  0.4847
  192MPD1    C3 2974   4.391   1.010  12.519 -0.4608 -0.0831 -0.0469
  192MPD1    C4 2975   4.452   1.105  12.435  0.7978 -1.3072 -0.5410
  192MPD1    C5 2976   4.418   1.235  12.444 -0.2638  0.0000  0.1585
  192MPD1     H 2977   4.270   0.990  12.697  2.0154 -1.4483 -0.0513
  192MPD1    H1 2978   4.525   1.077  12.359  2.1663 -0.6301  0.5180
  192MPD1    H2 2979   4.294   1.380  12.541 -1.2386 -0.1856  0.4061
  192MPD1    H3 2980   4.473   1.306  12.382 -1.8614 -0.6347 -1.9916
  192MPD1     N 2981   4.419   0.873  12.488  0.4416  0.3738 -0.2633
  192MPD1    H5 2982   4.488   0.858  12.416 -0.2914  3.4253 -1.6125
  192MPD1    N1 2983   4.183   1.235  12.722  0.2378 -0.6365  0.0222
  192MPD1    H6 2984   4.188   1.331  12.756 -2.6226  0.0633 -1.5275
  192MPD1    H7 2985   4.176   1.167  12.797 -1.4165  1.5151  1.8286
  193MPD1     C 2986   3.869   0.045  17.419 -0.8367 -1.0578  0.1970
  193MPD1    C1 2987   4.005   0.061  17.420  0.6537 -0.2188 -0.1838
  193MPD1    C2 2988   4.070   0.144  17.334  0.4158  0.7039 -0.1581
  193MPD1    C3 2989   3.999   0.206  17.231 -0.1178 -0.6021  0.2110
  193MPD1    C4 2990   3.861   0.181  17.229 -0.4322 -0.1493 -0.0239
  193MPD1    C5 2991   3.794   0.104  17.322 -0.6078 -0.1994 -0.0138
  193MPD1     H 2992   4.177   0.157  17.343  0.3446  0.7381  0.6618
  193MPD1    H1 2993   3.803   0.227  17.149  2.2384  1.0402 -1.2781
  193MPD1    H2 2994   3.811   4.728  17.491 -0.6789  0.4733  1.5165
  193MPD1    H3 2995   3.687   0.089  17.322 -0.5676 -0.4821 -0.2938
  193MPD1     N 2996   4.056   0.279  17.124 -0.2825 -0.1917  0.1809
  193MPD1    H5 2997   3.989   0.323  17.062 -0.1095 -0.3914 -0.1483
  193MPD1    N1 2998   4.068   0.011  17.540 -0.2935 -0.3441 -0.1558
  193MPD1    H6 2999   4.167   0.004  17.520 -0.1541 -3.3216  1.5428
  193MPD1    H7 3000   4.032   4.655  17.555  3.3426 -1.7311 -0.0783
  194MPD1     C 3001   0.983   1.550   0.032  0.0554  0.2369 -0.4438
  194MPD1    C1 3002   1.018   1.432   0.105 -0.1442  0.1333 -0.2041
  194MPD1    C2 3003   1.158   1.414   0.134  0.3998  0.0552 -0.0832
  194MPD1    C3 3004   1.249   1.491   0.068 -0.0750  0.3597  0.2034
  194MPD1    C4 3005   1.208   1.582  17.733  0.6911  0.5117  0.2969
  194MPD1    C5 3006   1.077   1.622  17.716 -0.3221 -0.3123  0.3142
  194MPD1     H 3007   1.189   1.339   0.206 -0.6681  0.9028  1.2778
  194MPD1    H1 3008   1.279   1.647  17.683  1.1354 -0.1378  0.0944
  194MPD1    H2 3009   0.880   1.578   0.014 -0.1381 -0.4304 -0.3827
  194MPD1    H3 3010   1.051   1.700  17.645  0.3241 -2.0938 -1.8712
  194MPD1     N 3011   1.388   1.472   0.088 -0.1698  0.2551 -0.6809
  194MPD1    H5 3012   1.448   1.521   0.022 -0.2629  0.8559 -0.3065
  194MPD1    N1 3013   0.918   1.353   0.166 -0.2130 -0.5943  0.3311
  194MPD1    H6 3014   0.845   1.332   0.098 -3.1515 -1.5734  3.7810
  194MPD1    H7 3015   0.950   1.265   0.207  0.4329 -0.8618 -0.7567
  195MPD1     C 3016   3.659   4.223  17.705 -0.2126 -0.2429  1.0606
  195MPD1    C1 3017   3.593   4.138  17.626 -0.0765  0.2104  0.4586
  195MPD1    C2 3018   3.662   4.051  17.538  0.1122 -0.3282 -0.3449
  195MPD1    C3 3019   3.801   4.056  17.532 -0.2463  0.2211  0.4927
  195MPD1    C4 3020   3.869   4.155  17.601 -0.3390 -0.5254  0.1032
  195MPD1    C5 3021   3.798   4.237  17.689 -0.8830 -1.1471 -0.3097
  195MPD1     H 3022   3.608   3.974  17.484 -1.5256  0.8411 -0.3741
  195MPD1    H1 3023   3.977   4.161  17.595 -0.4557  0.6580 -0.9834
  195MPD1    H2 3024   3.601   4.281   0.023  1.9031  1.4771  1.3820
  195MPD1    H3 3025   3.841   4.309   0.004  0.0764  0.1407 -2.2713
  195MPD1     N 3026   3.888   3.967  17.463  0.1729  0.1136 -0.2720
  195MPD1    H5 3027   3.988   3.982  17.464 -0.1662  2.2804 -0.6736
  195MPD1    N1 3028   3.458   4.116  17.649  0.2607 -0.4167  0.6862
  195MPD1    H6 3029   3.403   4.066  17.580  0.3561  1.4778 -0.7588
  195MPD1    H7 3030   3.416   4.208  17.662 -1.0982 -0.8413 -0.7523
  196MPD1     C 3031   2.763   3.085  17.514  0.8703 -0.0830  0.3360
  196MPD1    C1 3032   2.856   3.177  17.547  0.3500  0.4906  0.3508
  196MPD1    C2 3033   2.928   3.161  17.655 -1.2217 -0.6543  0.1870
  196MPD1    C3 3034   2.906   3.055   0.002  0.2149  1.1637 -0.4423
  196MPD1    C4 3035   2.821   2.956  17.712  0.3143  0.1623 -0.0412
  196MPD1    C5 3036   2.751   2.974  17.589 -0.1267  0.3915 -0.1863
  196MPD1     H 3037   3.004   3.235  17.675 -1.3124 -0.5971  0.3219
  196MPD1    H1 3038   2.790   2.871   0.019  0.9408  1.1441  1.6531
  196MPD1    H2 3039   2.704   3.084  17.423  0.2289  0.8763  0.7394
  196MPD1    H3 3040   2.692   2.887  17.562  0.6127  0.5013 -2.1677
  196MPD1     N 3041   2.961   3.054   0.128  0.8418  0.3827 -0.4808
  196MPD1    H5 3042   2.909   2.988   0.185  1.5455 -0.3520 -0.6892
  196MPD1    N1 3043   2.878   3.287  17.463 -0.8614  0.2600  0.6116
  196MPD1    H6 3044   2.902   3.367  17.522  1.7485  0.7108 -1.0540
  196MPD1    H7 3045   2.793   3.307  17.411 -1.4808 -1.9316  0.8186
  197MPD1     C 3046   2.594   1.584  17.598  0.1662  0.9667  0.2832
  197MPD1    C1 3047   2.674   1.472  17.572  0.5817  0.5419 -0.1997
  197MPD1    C2 3048   2.750   1.457  17.453 -1.5285 -1.1009 -1.1231
  197MPD1    C3 3049   2.744   1.557  17.364  0.1788  0.0766 -0.3771
  197MPD1    C4 3050   2.673   1.671  17.395 -0.3170  0.0312 -0.1611
  197MPD1    C5 3051   2.597   1.683  17.507 -0.5104  0.1686 -0.0368
  197MPD1     H 3052   2.799   1.361  17.445 -0.4725 -0.7103  0.6188
  197MPD1    H1 3053   2.656   1.740  17.313 -0.5230 -1.3592 -1.2839
  197MPD1    H2 3054   2.518   1.583  17.676  0.7487  0.4409  0.8464
  197MPD1    H3 3055   2.535   1.772  17.511  1.4135  1.3923  2.7859
  197MPD1     N 3056   2.811   1.549  17.237 -0.8713 -0.1763  0.3488
  197MPD1    H5 3057   2.794   1.623  17.170 -1.1137  0.5286  1.1877
  197MPD1    N1 3058   2.656   1.362  17.660 -1.2466 -0.7329  0.5773
  197MPD1    H6 3059   2.607   1.375  17.748 -0.4394  3.1023  0.4829
  197MPD1    H7 3060   2.749   1.325  17.679  0.5104  1.7672 -3.1232
  198MPD1     C 3061   0.058   4.337  15.315 -0.9050 -1.2416 -0.3247
  198MPD1    C1 3062   0.178   4.262  15.309  0.0236  0.1015 -0.5909
  198MPD1    C2 3063   0.269   4.282  15.414  0.2494  0.2185 -0.1488
  198MPD1    C3 3064   0.233   4.345  15.530  0.8483  0.1420 -0.1753
  198MPD1    C4 3065   0.111   4.415  15.536 -0.1517  0.3360  0.9038
  198MPD1    C5 3066   0.032   4.409  15.427  0.3652  1.1208 -0.5439
  198MPD1     H 3067   0.364   4.231  15.402  0.3269  1.2254 -3.9738
  198MPD1    H1 3068   0.095   4.482  15.619  0.7998 -0.8154  2.0030
  198MPD1    H2 3069   4.727   4.330  15.232  0.1048  0.2031 -1.3029
  198MPD1    H3 3070   4.673   4.456  15.437  0.4121  1.0543  0.1972
  198MPD1     N 3071   0.327   4.350  15.637  0.7205 -0.0429  0.7651
  198MPD1    H5 3072   0.415   4.304  15.617  0.8082  1.6553 -2.6290
  198MPD1    N1 3073   0.215   4.197  15.184 -0.2189  0.6096 -0.9686
  198MPD1    H6 3074   0.135   4.169  15.128 -0.8113 -0.0760  0.2201
  198MPD1    H7 3075   0.279   4.118  15.192  0.8692  1.7329  1.3873
  199MPD1     C 3076   2.652   0.886  11.028  0.2526 -0.2578  0.1518
  199MPD1    C1 3077   2.667   0.999  10.956  0.3310  0.1628  0.5974
  199MPD1    C2 3078   2.693   0.987  10.818  0.2508 -0.3576 -0.7252
  199MPD1    C3 3079   2.670   0.867  10.748 -0.1588 -0.3108 -0.5164
  199MPD1    C4 3080   2.632   0.758  10.827 -0.1384  0.0973 -0.5057
  199MPD1    C5 3081   2.634   0.764  10.963  0.4250  0.2530  0.0189
  199MPD1     H 3082   2.725   1.078  10.770  0.3692 -0.6398 -1.1908
  199MPD1    H1 3083   2.615   0.664  10.775 -0.5681  1.8302 -3.5243
  199MPD1    H2 3084   2.637   0.884  11.136 -1.3091 -1.0844 -0.0763
  199MPD1    H3 3085   2.636   0.676  11.026 -2.7652 -0.3937 -0.7798
  199MPD1     N 3086   2.674   0.868  10.607  0.3074  0.7866  0.5671
  199MPD1    H5 3087   2.634   0.784  10.566 -0.7085  1.6800 -0.2800
  199MPD1    N1 3088   2.700   1.114  11.020 -0.0849  0.4644 -0.5155
  199MPD1    H6 3089   2.647   1.120  11.106 -0.8139 -0.5190 -0.9060
  199MPD1    H7 3090   2.686   1.195  10.960  0.1177  1.3260  0.6054
  200MPD1     C 3091   1.285   4.724  16.114  0.4055  0.7953 -0.0633
  200MPD1    C1 3092   1.216   4.677  16.004 -0.6248 -0.5292  0.2004
  200MPD1    C2 3093   1.257   4.707  15.875  0.2324  0.0890 -0.4442
  200MPD1    C3 3094   1.366   0.049  15.854  0.2482 -0.1755 -0.0381
  200MPD1    C4 3095   1.430   0.107  15.963  0.1878 -0.1733 -0.3956
  200MPD1    C5 3096   1.392   0.076  16.089 -0.4752 -0.5559  0.1689
  200MPD1     H 3097   1.207   4.673  15.786 -0.4320 -0.2397  0.0556
  200MPD1    H1 3098   1.516   0.172  15.947 -0.8454  1.7531  1.8823
  200MPD1    H2 3099   1.271   4.707  16.220 -1.0993  1.5971 -0.1313
  200MPD1    H3 3100   1.441   0.124  16.173  0.6427 -0.8244 -0.3276
  200MPD1     N 3101   1.392   0.087  15.718  0.2978  0.0026 -0.3819
  200MPD1    H5 3102   1.329   0.047  15.649 -0.4190 -0.1063  0.3477
  200MPD1    N1 3103   1.114   4.586  16.028  0.4223  0.0976 -0.1608
  200MPD1    H6 3104   1.087   4.600  16.126 -0.4413  0.4212 -0.4414
  200MPD1    H7 3105   1.030   4.587  15.970  0.1126  0.9910  0.2982
  201MPD1     C 3106   3.936   3.610  14.067 -0.3941 -0.0244 -0.9155
  201MPD1    C1 3107   3.989   3.736  14.060  0.3637 -0.0233  0.8291
  201MPD1    C2 3108   4.054   3.782  13.945  0.3022 -0.5013  0.5837
  201MPD1    C3 3109   4.069   3.692  13.839  0.2118  0.0969 -0.8902
  201MPD1    C4 3110   4.008   3.565  13.846 -0.1009  0.7378  0.5408
  201MPD1    C5 3111   3.949   3.526  13.958  0.3734  0.8371 -0.9284
  201MPD1     H 3112   4.099   3.880  13.941  0.7140 -0.8914 -3.9047
  201MPD1    H1 3113   4.018   3.495  13.764 -1.2845 -1.0916  1.9678
  201MPD1    H2 3114   3.871   3.577  14.147 -0.3177  0.2721 -0.7320
  201MPD1    H3 3115   3.914   3.425  13.978 -1.9199  1.6782 -0.7080
  201MPD1     N 3116   4.140   3.737  13.721 -0.1838 -0.0463 -0.7128
  201MPD1    H5 3117   4.197   3.819  13.740  1.0998 -1.3578  1.0831
  201MPD1    N1 3118   3.957   3.826  14.164  0.7747 -0.1745 -0.3016
  201MPD1    H6 3119   4.032   3.894  14.170 -0.1628  0.6397  2.1408
  201MPD1    H7 3120   3.948   3.785  14.257 -0.5296  0.1213 -0.2982
  202MPD1     C 3121   3.320   3.285   9.047  0.4683 -0.8815  0.2192
  202MPD1    C1 3122   3.247   3.401   9.090  0.8216 -0.1215 -0.1565
  202MPD1    C2 3123   3.324   3.504   9.145  0.0762 -0.3428  0.4625
  202MPD1    C3 3124   3.443   3.488   9.200  0.0713  0.1025  1.3670
  202MPD1    C4 3125   3.507   3.371   9.165  0.1954 -0.3823  0.5215
  202MPD1    C5 3126   3.445   3.270   9.092  0.1841 -0.3857  0.5966
  202MPD1     H 3127   3.257   3.587   9.169  1.0946  0.3761  0.8165
  202MPD1    H1 3128   3.609   3.360   9.199 -0.1509 -0.5527  1.4896
  202MPD1    H2 3129   3.276   3.210   8.983 -0.8663  0.4605 -0.4207
  202MPD1    H3 3130   3.499   3.180   9.064  0.3970 -0.3850  1.0100
  202MPD1     N 3131   3.490   3.590   9.285 -0.3011 -0.1707  1.0980
  202MPD1    H5 3132   3.433   3.674   9.295  0.7737  0.6087  0.7272
  202MPD1    N1 3133   3.133   3.431   9.006 -0.4556  0.1319  0.0156
  202MPD1    H6 3134   3.070   3.501   9.045 -0.1210  0.5302 -0.1551
  202MPD1    H7 3135   3.084   3.350   8.970 -1.6806  1.4414 -1.2726
  203MPD1     C 3136   2.079   4.327  12.062  0.3173 -0.4304 -0.2739
  203MPD1    C1 3137   2.056   4.192  12.043 -0.2843 -0.4839  0.3685
  203MPD1    C2 3138   2.140   4.100  12.111 -0.7166  0.0565  0.7837
  203MPD1    C3 3139   2.233   4.140  12.208 -0.2317 -0.1676 -0.0445
  203MPD1    C4 3140   2.241   4.275  12.228 -0.6504  0.3375  0.2854
  203MPD1    C5 3141   2.168   4.366  12.160 -0.1366 -0.2532 -0.2706
  203MPD1     H 3142   2.136   3.998  12.073  0.7159 -0.2610  1.4762
  203MPD1    H1 3143   2.309   4.314  12.304  1.2305  0.2699 -1.3627
  203MPD1    H2 3144   2.034   4.411  12.008 -1.3966 -1.5943 -0.6530
  203MPD1    H3 3145   2.190   4.472  12.168 -2.4881  0.2541 -0.4181
  203MPD1     N 3146   2.323   4.047  12.274 -0.0348  0.7273  0.7099
  203MPD1    H5 3147   2.325   3.949  12.247 -0.0361  1.1947 -0.9557
  203MPD1    N1 3148   1.979   4.143  11.940  0.1786 -0.1281 -0.3313
  203MPD1    H6 3149   1.942   4.050  11.959  3.3449 -1.0400  1.3775
  203MPD1    H7 3150   1.913   4.213  11.907  1.3665  0.6794 -0.9821
  204MPD1     C 3151   1.312   1.167  17.689  0.5167  0.2018  0.4404
  204MPD1    C1 3152   1.374   1.211  17.573 -0.2064 -0.7662 -0.1472
  204MPD1    C2 3153   1.491   1.139  17.537  0.2826 -0.4531  0.6866
  204MPD1    C3 3154   1.553   1.048  17.618 -0.6219 -0.1622  0.0532
  204MPD1    C4 3155   1.496   1.029  17.742  0.1452 -0.0580  0.0638
  204MPD1    C5 3156   1.369   1.078   0.022 -0.4252  0.0234 -0.6972
  204MPD1     H 3157   1.521   1.149  17.433  0.1732 -3.5276  0.3519
  204MPD1    H1 3158   1.537   0.974   0.073  0.2283  0.0234  0.0755
  204MPD1    H2 3159   1.217   1.211  17.717  0.6249  1.5744 -1.3506
  204MPD1    H3 3160   1.330   1.072   0.123 -0.6073 -0.7393 -0.8131
  204MPD1     N 3161   1.664   0.981  17.568 -1.0737  0.0527 -0.3906
  204MPD1    H5 3162   1.697   0.994  17.473 -2.0138 -0.4055 -0.7877
  204MPD1    N1 3163   1.313   1.285  17.468  0.3716  0.4586  0.6056
  204MPD1    H6 3164   1.230   1.337  17.496  0.2779 -0.1921  1.4929
  204MPD1    H7 3165   1.378   1.353  17.429  2.6193 -1.5589  0.8432
  205MPD1     C 3166   2.814   4.125  17.412 -0.1635  0.5698 -0.5457
  205MPD1    C1 3167   2.698   4.050  17.416 -0.4949  0.3165 -0.6925
  205MPD1    C2 3168   2.573   4.111  17.389 -0.1194 -0.1369  0.0426
  205MPD1    C3 3169   2.560   4.254  17.374  0.1219 -0.7607 -0.7035
  205MPD1    C4 3170   2.679   4.323  17.384 -0.3472 -0.4909  0.3564
  205MPD1    C5 3171   2.800   4.256  17.398 -0.2187 -0.5740 -0.4050
  205MPD1     H 3172   2.486   4.047  17.376 -0.0192 -0.1400 -0.6138
  205MPD1    H1 3173   2.692   4.430  17.381 -0.3271 -0.4843  0.6942
  205MPD1    H2 3174   2.914   4.085  17.430  0.1770  2.2145  1.2121
  205MPD1    H3 3175   2.889   4.318  17.405  0.2678 -1.6242  2.8361
  205MPD1     N 3176   2.438   4.322  17.357  0.1859  0.7092  0.3634
  205MPD1    H5 3177   2.448   4.422  17.342 -1.8714  0.9007  0.2020
  205MPD1    N1 3178   2.704   3.912  17.433 -0.1702 -0.4140  0.7538
  205MPD1    H6 3179   2.782   3.891  17.495 -0.0229  0.7050  0.9500
  205MPD1    H7 3180   2.616   3.876  17.468  0.1841 -0.8527  1.1919
  206MPD1     C 3181   1.500   2.273  17.325  0.1104 -0.3433  0.7691
  206MPD1    C1 3182   1.555   2.162  17.257  0.5259 -0.1205  0.7538
  206MPD1    C2 3183   1.599   2.179  17.123 -0.1161  0.4254 -0.3536
  206MPD1    C3 3184   1.579   2.302  17.064  0.0860  0.5675 -0.6854
  206MPD1    C4 3185   1.499   2.397  17.130 -0.9306  0.2267  0.5820
  206MPD1    C5 3186   1.467   2.389  17.263  0.5401  0.0924 -0.0526
  206MPD1     H 3187   1.653   2.094  17.084 -1.0705  0.3021 -1.3898
  206MPD1    H1 3188   1.476   2.488  17.076  0.7024  0.0888 -0.3439
  206MPD1    H2 3189   1.472   2.269  17.430 -1.4348  1.9446  0.4475
  206MPD1    H3 3190   1.408   2.462  17.318  0.3071  0.6273 -1.0171
  206MPD1     N 3191   1.615   2.337  16.929 -0.1193  0.0394  0.4905
  206MPD1    H5 3192   1.578   2.420  16.884 -1.1933  0.1544  1.5791
  206MPD1    N1 3193   1.603   2.055  17.333 -0.2618  0.0944  1.4857
  206MPD1    H6 3194   1.608   1.973  17.274  0.0744 -0.2410  1.9776
  206MPD1    H7 3195   1.544   2.027  17.410 -0.2565 -0.5033  1.2729
  207MPD1     C 3196   0.201   4.283  10.029  0.2084 -0.5179  0.0195
  207MPD1    C1 3197   0.315   4.322   9.975  0.0634 -0.5592  0.7857
  207MPD1    C2 3198   0.367   4.436  10.032 -0.0521 -1.1378  0.2155
  207MPD1    C3 3199   0.326   4.490  10.155  0.4770 -0.1991  0.6047
  207MPD1    C4 3200   0.221   4.430  10.216  0.0144 -0.5125 -0.5348
  207MPD1    C5 3201   0.152   4.327  10.148  0.3723  0.1683  0.2153
  207MPD1     H 3202   0.454   4.476   9.981  0.0386  0.1745  1.4079
  207MPD1    H1 3203   0.179   4.472  10.307  0.7349  0.6403 -0.7487
  207MPD1    H2 3204   0.142   4.205   9.983 -0.6749 -0.6709  1.3827
  207MPD1    H3 3205   0.052   4.297  10.178  0.5797 -0.3058  0.4308
  207MPD1     N 3206   0.387   4.602  10.211 -0.1835 -0.1354  0.2500
  207MPD1    H5 3207   0.374   4.625  10.309  3.4132  3.6452 -0.1009
  207MPD1    N1 3208   0.352   4.275   9.851 -0.4628  0.3868  0.1288
  207MPD1    H6 3209   0.450   4.285   9.827 -0.1535 -0.7899  0.9332
  207MPD1    H7 3210   0.322   4.180   9.832  1.4784 -0.3872  0.9455
  208MPD1     C 3211   2.325   2.948  17.199  0.6418 -0.6501 -0.6442
  208MPD1    C1 3212   2.340   2.967  17.338 -0.0238  0.2851 -0.1122
  208MPD1    C2 3213   2.255   3.045  17.410 -0.6011  0.1709 -0.5258
  208MPD1    C3 3214   2.157   3.121  17.341  0.3567 -0.1695 -0.4047
  208MPD1    C4 3215   2.140   3.103  17.206 -0.3001  0.0832  0.2183
  208MPD1    C5 3216   2.222   3.015  17.136  0.4579  0.2726 -0.0023
  208MPD1     H 3217   2.272   3.046  17.517 -1.7023 -1.7562 -0.3297
  208MPD1    H1 3218   2.074   3.171  17.154 -1.9042 -1.8013 -0.2064
  208MPD1    H2 3219   2.389   2.880  17.144  0.6422 -0.1634 -1.2505
  208MPD1    H3 3220   2.197   3.002  17.032  0.7418 -0.0298 -0.0316
  208MPD1     N 3221   2.083   3.218  17.417 -0.4044 -0.7069  0.4494
  208MPD1    H5 3222   2.106   3.220  17.516 -0.1507 -0.0894  0.3807
  208MPD1    N1 3223   2.459   2.914  17.392 -0.2597  0.0170 -0.5168
  208MPD1    H6 3224   2.449   2.884  17.488  0.1397  0.0075 -0.4792
  208MPD1    H7 3225   2.494   2.826  17.354 -0.8725  0.6193 -2.4980
  209MPD1     C 3226   0.462   4.377  11.850  0.0551  0.6135  0.3349
  209MPD1    C1 3227   0.390   4.463  11.766 -0.5055 -0.4476  0.3611
  209MPD1    C2 3228   0.474   4.535  11.678 -0.4622  0.7816  0.2647
  209MPD1    C3 3229   0.609   4.538  11.691  0.2811  0.5227  0.2518
  209MPD1    C4 3230   0.669   4.469  11.796 -0.6502  0.3918  0.3879
  209MPD1    C5 3231   0.594   4.393  11.872  0.0480  0.2650 -0.1428
  209MPD1     H 3232   0.438   4.588  11.591  0.9713  0.0454 -0.7750
  209MPD1    H1 3233   0.776   4.464  11.815 -0.6668  0.5897  0.5387
  209MPD1    H2 3234   0.421   4.300  11.914  1.3498  0.6751  1.2232
  209MPD1    H3 3235   0.649   4.333  11.943  0.8615 -1.5871 -2.3333
  209MPD1     N 3236   0.679   4.606  11.585 -0.2560 -0.3705  0.6700
  209MPD1    H5 3237   0.623   4.665  11.524 -1.3677 -0.9635  1.1059
  209MPD1    N1 3238   0.259   4.432  11.733 -0.1081  0.3361  0.2504
  209MPD1    H6 3239   0.212   4.406  11.819  0.0172 -1.0909 -0.1258
  209MPD1    H7 3240   0.210   4.517  11.704  0.3342  1.0848  1.7219
  210MPD1     C 3241   1.519   0.455  11.198  0.2215 -0.6099  0.1975
  210MPD1    C1 3242   1.537   0.332  11.259  0.4817 -0.5373 -0.5277
  210MPD1    C2 3243   1.416   0.261  11.290  0.9579 -0.3199 -0.3550
  210MPD1    C3 3244   1.289   0.312  11.276 -0.2524  0.3258  0.4425
  210MPD1    C4 3245   1.282   0.445  11.238 -0.1491  0.3148  0.0510
  210MPD1    C5 3246   1.396   0.508  11.190  0.1685 -0.2199  0.6250
  210MPD1     H 3247   1.430   0.156  11.316 -1.4672 -0.9518 -1.6238
  210MPD1    H1 3248   1.187   0.495  11.243 -1.2384 -1.5307 -2.4752
  210MPD1    H2 3249   1.601   0.506  11.147 -0.3685  1.9185  1.7418
  210MPD1    H3 3250   1.387   0.603  11.137 -0.9279 -0.4082  0.4750
  210MPD1     N 3251   1.172   0.242  11.301 -0.0195 -0.0819  0.0830
  210MPD1    H5 3252   1.086   0.289  11.276 -0.2937 -1.0893 -0.8590
  210MPD1    N1 3253   1.661   0.265  11.244  0.2129  0.2081  0.3848
  210MPD1    H6 3254   1.743   0.325  11.254 -0.5883  1.3534 -0.0075
  210MPD1    H7 3255   1.672   0.189  11.311  1.0121 -0.8665 -0.9558
  211MPD1     C 3256   2.437   3.652  16.993  0.2044  0.0772  0.2179
  211MPD1    C1 3257   2.386   3.688  16.872  0.1951 -0.4930 -0.2593
  211MPD1    C2 3258   2.362   3.822  16.852 -0.4556  0.1086  0.5642
  211MPD1    C3 3259   2.393   3.925  16.938  0.1852  0.2746 -0.3431
  211MPD1    C4 3260   2.457   3.885  17.056  0.3100  0.3505 -0.4895
  211MPD1    C5 3261   2.478   3.750  17.082 -0.4629 -0.2699 -0.4208
  211MPD1     H 3262   2.334   3.850  16.751  0.4322  1.2936  0.6427
  211MPD1    H1 3263   2.484   3.959  17.131 -3.4612 -1.0877  2.3094
  211MPD1    H2 3264   2.444   3.546  17.017 -1.4438  0.1974  1.2602
  211MPD1    H3 3265   2.535   3.711  17.166 -1.5338 -2.4350 -0.6944
  211MPD1     N 3266   2.354   4.057  16.911  0.2894 -0.3908  0.4433
  211MPD1    H5 3267   2.296   4.066  16.828  1.9485  0.3234 -0.6351
  211MPD1    N1 3268   2.304   3.595  16.801  0.0307 -0.3259  0.2500
  211MPD1    H6 3269   2.287   3.627  16.706 -0.6234 -1.2614  0.0471
  211MPD1    H7 3270   2.333   3.498  16.807  2.6886  0.5186  1.0962
  212MPD1     C 3271   1.317   2.995  16.625  0.4597  0.3948 -0.0229
  212MPD1    C1 3272   1.407   2.893  16.640  0.4103  0.5285 -0.6252
  212MPD1    C2 3273   1.364   2.770  16.693 -0.1101 -0.3458  0.1347
  212MPD1    C3 3274   1.236   2.740  16.723 -0.4212 -0.3812  0.1081
  212MPD1    C4 3275   1.147   2.841  16.714  0.4364 -0.0396  0.9003
  212MPD1    C5 3276   1.187   2.967  16.664 -0.3248 -0.3262  0.2821
  212MPD1     H 3277   1.433   2.693  16.724 -1.4945 -2.1081 -1.1637
  212MPD1    H1 3278   1.043   2.817  16.736  0.5815 -1.8814 -0.3974
  212MPD1    H2 3279   1.357   3.093  16.599  0.3262  0.3625 -0.3442
  212MPD1    H3 3280   1.112   3.043  16.648  0.0115 -0.3907 -1.5960
  212MPD1     N 3281   1.181   2.619  16.771  0.1557 -0.1839 -0.3277
  212MPD1    H5 3282   1.081   2.605  16.776 -0.0918  1.1361 -1.5300
  212MPD1    N1 3283   1.543   2.913  16.617  0.2980 -0.1370  0.3832
  212MPD1    H6 3284   1.554   2.973  16.536 -0.2662  0.8762  1.0555
  212MPD1    H7 3285   1.602   2.831  16.605  0.0153 -0.5165  1.5613
  213MPD1     C 3286   4.690   2.706  15.297 -0.4656 -0.1181 -0.8826
  213MPD1    C1 3287   4.717   2.824  15.360  0.2398  0.5032 -0.0765
  213MPD1    C2 3288   4.609   2.914  15.361  0.4920 -0.3465 -0.2227
  213MPD1    C3 3289   4.498   2.903  15.274 -0.7174 -0.9207 -0.5091
  213MPD1    C4 3290   4.480   2.782  15.211 -0.0490  0.0976  0.0512
  213MPD1    C5 3291   4.575   2.683  15.225  0.9697 -0.4904  0.0934
  213MPD1     H 3292   4.624   3.007  15.415 -1.1432 -0.3984  0.3127
  213MPD1    H1 3293   4.389   2.759  15.157  1.1143 -1.8062 -1.1178
  213MPD1    H2 3294   0.016   2.622  15.319 -1.4639 -0.8822 -0.8519
  213MPD1    H3 3295   4.546   2.585  15.189  1.9513 -1.7096  2.6733
  213MPD1     N 3296   4.419   3.010  15.250  0.5292 -0.0784 -0.3445
  213MPD1    H5 3297   4.445   3.101  15.287 -1.4095 -1.1536  3.6275
  213MPD1    N1 3298   0.063   2.828  15.462 -0.1495  0.3201  0.6890
  213MPD1    H6 3299   0.095   2.917  15.500 -1.2383  1.7907 -1.8441
  213MPD1    H7 3300   0.145   2.771  15.446 -1.2869 -1.1221  0.0292
  214MPD1     C 3301   3.428   3.222  15.100  0.3165  0.4155 -0.3543
  214MPD1    C1 3302   3.507   3.321  15.043  0.2223 -0.0776  0.3503
  214MPD1    C2 3303   3.644   3.325  15.072  0.2430  0.0254  0.5085
  214MPD1    C3 3304   3.709   3.232  15.151  0.8391 -0.0660  0.0079
  214MPD1    C4 3305   3.632   3.129  15.206 -0.4064  0.6144  0.5346
  214MPD1    C5 3306   3.497   3.135  15.189 -0.6410  0.4545  0.1584
  214MPD1     H 3307   3.704   3.396  15.016 -0.3901 -0.4108 -0.7208
  214MPD1    H1 3308   3.666   3.044  15.264  1.6227  1.5504  0.7114
  214MPD1    H2 3309   3.320   3.229  15.091  0.3754  1.3841 -0.3808
  214MPD1    H3 3310   3.433   3.054  15.222  1.3701 -0.1989  2.4231
  214MPD1     N 3311   3.848   3.227  15.164  0.9621  0.3525  0.6453
  214MPD1    H5 3312   3.892   3.145  15.204  2.0969  0.8183  0.3639
  214MPD1    N1 3313   3.452   3.434  14.981  0.1771 -0.4424 -0.0048
  214MPD1    H6 3314   3.523   3.469  14.916  0.2340 -0.0472  0.2678
  214MPD1    H7 3315   3.370   3.414  14.925  0.4767 -1.3936 -0.0995
  215MPD1     C 3316   3.606   0.175  10.927  0.3279  0.2487  0.0795
  215MPD1    C1 3317   3.690   0.270  10.970  0.3297  0.2320 -0.6271
  215MPD1    C2 3318   3.817   0.229  11.001  0.0981 -0.0311 -0.3389
  215MPD1    C3 3319   3.847   0.094  11.009 -0.3863  0.3509 -0.6613
  215MPD1    C4 3320   3.755   0.009  10.980 -0.6018  0.3087  0.6047
  215MPD1    C5 3321   3.632   0.041  10.944 -0.6589  0.7470  0.1493
  215MPD1     H 3322   3.890   0.305  11.026  0.4630 -0.4372 -0.1604
  215MPD1    H1 3323   3.773   4.641  10.985  1.9211  0.6024 -2.1478
  215MPD1    H2 3324   3.511   0.200  10.882  0.9522 -0.3701 -1.5628
  215MPD1    H3 3325   3.569   4.702  10.900 -0.4676  1.6101 -1.6663
  215MPD1     N 3326   3.982   0.056  11.009 -0.0898 -0.1983 -0.0915
  215MPD1    H5 3327   4.048   0.131  10.995  0.2243 -0.1997  1.3851
  215MPD1    N1 3328   3.663   0.409  10.952 -0.0975 -0.1708  0.2369
  215MPD1    H6 3329   3.565   0.434  10.955  0.2330  1.4989 -2.9215
  215MPD1    H7 3330   3.710   0.459  11.027 -0.9111  2.4865 -1.0304
  216MPD1     C 3331   4.609   1.220   0.755 -0.7497 -0.1130  0.2755
  216MPD1    C1 3332   4.715   1.245   0.835 -0.6860 -0.1548  0.3675
  216MPD1    C2 3333   0.102   1.256   0.778 -0.0676 -0.4007 -0.3402
  216MPD1    C3 3334   0.118   1.228   0.645  0.1616  0.1203  0.1244
  216MPD1    C4 3335   0.006   1.190   0.569 -0.6328  0.0290  0.7856
  216MPD1    C5 3336   4.622   1.190   0.624  0.1051  0.0093 -0.0759
  216MPD1     H 3337   0.187   1.281   0.840  0.7919 -1.3610 -1.1331
  216MPD1    H1 3338   0.012   1.175   0.462 -0.0353 -1.1447  0.9931
  216MPD1    H2 3339   4.505   1.210   0.785 -0.4732 -2.3877  0.5166
  216MPD1    H3 3340   4.533   1.177   0.563 -0.1361  1.8960 -0.1474
  216MPD1     N 3341   0.249   1.222   0.599  0.5488  0.1254  0.2557
  216MPD1    H5 3342   0.322   1.263   0.656 -0.1814 -0.1362  1.3908
  216MPD1    N1 3343   4.690   1.287   0.963  0.1612 -0.3530 -0.0702
  216MPD1    H6 3344   4.614   1.229   0.999  1.2435 -1.7079  0.0084
  216MPD1    H7 3345   0.031   1.271   1.025  0.5618 -2.7655 -1.2207
  217MPD1     C 3346   1.553   3.440   9.065 -0.4961 -0.5395 -0.3933
  217MPD1    C1 3347   1.669   3.359   9.054  0.7360  0.3302 -0.4311
  217MPD1    C2 3348   1.788   3.405   9.102  0.1616 -0.2612  0.0299
  217MPD1    C3 3349   1.810   3.543   9.123  0.3501  0.3195 -0.1023
  217MPD1    C4 3350   1.696   3.621   9.107 -0.2376 -0.1915  0.4957
  217MPD1    C5 3351   1.569   3.572   9.089  0.2446 -0.1382  0.8689
  217MPD1     H 3352   1.871   3.337   9.117 -1.5160 -2.0139  1.5496
  217MPD1    H1 3353   1.707   3.726   9.132  2.0081 -0.5089  0.9125
  217MPD1    H2 3354   1.456   3.391   9.061 -0.4977 -0.3299 -3.1004
  217MPD1    H3 3355   1.484   3.640   9.098  0.1054 -0.4489  1.9951
  217MPD1     N 3356   1.936   3.596   9.171 -0.0986  0.4153 -0.0410
  217MPD1    H5 3357   1.931   3.686   9.217  0.2766  1.4488 -2.0206
  217MPD1    N1 3358   1.655   3.218   9.019  0.1668 -0.1506 -0.7787
  217MPD1    H6 3359   1.578   3.185   8.961 -0.6014 -1.3454  0.9199
  217MPD1    H7 3360   1.739   3.171   8.987 -0.4357 -2.2866  0.7274
  218MPD1     C 3361   3.882   4.088  12.824 -0.2298  0.3275  0.5477
  218MPD1    C1 3362   3.896   4.184  12.729 -0.0292  0.2195 -0.2293
  218MPD1    C2 3363   4.011   4.196  12.667  0.2593 -0.6406  0.2751
  218MPD1    C3 3364   4.112   4.100  12.676  0.4718  0.3045 -0.3560
  218MPD1    C4 3365   4.090   3.991  12.756  0.7027 -0.4818 -0.4153
  218MPD1    C5 3366   3.985   3.992  12.843 -0.1921 -0.4393 -1.0206
  218MPD1     H 3367   4.027   4.280  12.599 -1.8451  0.3198  0.9622
  218MPD1    H1 3368   4.163   3.913  12.773  0.9762  0.6390  3.5288
  218MPD1    H2 3369   3.796   4.086  12.891  0.6303 -1.1815  1.6289
  218MPD1    H3 3370   3.971   3.911  12.915  1.2401  0.2151 -0.0229
  218MPD1     N 3371   4.241   4.131  12.618  0.5822 -1.0279 -0.0947
  218MPD1    H5 3372   4.255   4.211  12.559 -0.3028  0.0181  1.1054
  218MPD1    N1 3373   3.803   4.285  12.717  0.3828 -0.2133  0.4415
  218MPD1    H6 3374   3.819   4.339  12.633  1.9127 -1.1176  0.1381
  218MPD1    H7 3375   3.710   4.263  12.753 -0.0505 -1.1708 -1.2661
  219MPD1     C 3376   4.652   0.044  12.089  0.5629 -0.3603  0.0881
  219MPD1    C1 3377   4.533   4.729  12.132  0.7798 -0.2186 -0.3984
  219MPD1    C2 3378   4.534   4.611  12.207 -0.2024 -0.4299  0.9658
  219MPD1    C3 3379   4.652   4.538  12.218 -0.4569 -0.0615  0.1703
  219MPD1    C4 3380   0.030   4.594  12.176  0.4880 -0.1634 -0.5464
  219MPD1    C5 3381   0.039   4.711  12.103  0.6592  0.8105 -0.0741
  219MPD1     H 3382   4.440   4.575  12.247 -1.3383 -0.4488 -1.6889
  219MPD1    H1 3383   0.122   4.546  12.204  0.4022  0.9239  1.5986
  219MPD1    H2 3384   4.657   0.134  12.029 -1.6041 -1.3878 -1.6332
  219MPD1    H3 3385   0.129   0.014  12.059  0.6915  1.2213  0.3894
  219MPD1     N 3386   4.654   4.410  12.281  0.0025  0.4124  0.0149
  219MPD1    H5 3387   0.006   4.377  12.312 -1.1681 -1.9150  0.9713
  219MPD1    N1 3388   4.421   0.073  12.137 -0.5201 -0.7746  0.0031
  219MPD1    H6 3389   4.335   0.019  12.153 -0.2496 -0.8882  1.1029
  219MPD1    H7 3390   4.398   0.107  12.044 -0.9503  0.1939  0.4594
  220MPD1     C 3391   4.131   1.067   9.671 -0.2038 -0.0921 -0.0669
  220MPD1    C1 3392   4.238   0.997   9.726  0.1912 -0.8211 -0.9125
  220MPD1    C2 3393   4.210   0.873   9.777 -0.1736 -0.4732 -0.3535
  220MPD1    C3 3394   4.085   0.837   9.816 -0.8235 -0.2788 -0.1545
  220MPD1    C4 3395   3.980   0.923   9.780 -0.3466 -0.3728 -0.2258
  220MPD1    C5 3396   4.008   1.031   9.703 -0.2198 -0.0896  0.3644
  220MPD1     H 3397   4.296   0.811   9.799  0.1888  0.7473  1.6538
  220MPD1    H1 3398   3.875   0.909   9.803  0.2466 -0.9294  2.0756
  220MPD1    H2 3399   4.145   1.162   9.621 -2.0416 -0.4425 -1.2484
  220MPD1    H3 3400   3.928   1.097   9.672  1.0080  2.3271  2.3697
  220MPD1     N 3401   4.074   0.720   9.899 -0.7457 -0.6872 -0.1303
  220MPD1    H5 3402   4.157   0.664   9.915  1.7392  2.7625 -0.8947
  220MPD1    N1 3403   4.369   1.033   9.690  0.3922  0.3160  0.2363
  220MPD1    H6 3404   4.442   0.982   9.739 -0.6710 -1.4507 -0.0225
  220MPD1    H7 3405   4.388   1.133   9.681 -2.2058  0.8583  0.6008
  221MPD1     C 3406   1.688   4.362  15.149  0.1734 -0.4662 -0.3830
  221MPD1    C1 3407   1.774   4.470  15.182 -0.1728  0.4681 -1.0020
  221MPD1    C2 3408   1.838   4.460  15.302 -0.0000  0.5833 -0.3369
  221MPD1    C3 3409   1.827   4.346  15.385 -0.0511 -0.4809  0.5280
  221MPD1    C4 3410   1.743   4.245  15.347  0.1584  0.1874  0.1895
  221MPD1    C5 3411   1.676   4.250  15.230  0.5550 -0.4862 -0.1531
  221MPD1     H 3412   1.910   4.537  15.327 -0.0732 -0.0276  1.7755
  221MPD1    H1 3413   1.737   4.150  15.398 -2.2152 -0.1626 -0.7473
  221MPD1    H2 3414   1.618   4.353  15.066  0.5960 -2.2100 -0.5584
  221MPD1    H3 3415   1.604   4.173  15.204  0.4209 -0.5317  0.3563
  221MPD1     N 3416   1.898   4.323  15.503  0.3139  0.2156 -0.2205
  221MPD1    H5 3417   1.899   4.229  15.541  1.5867 -0.6610 -2.4278
  221MPD1    N1 3418   1.776   4.593  15.098  0.3613  0.2323 -0.9400
  221MPD1    H6 3419   1.846   4.660  15.128 -0.5603  1.3952 -1.4147
  221MPD1    H7 3420   1.787   4.574  14.999 -2.8238 -0.0879 -1.2425
  222MPD1     C 3421   0.766   3.123   0.808 -0.4354 -0.1443  0.0479
  222MPD1    C1 3422   0.648   3.199   0.779  0.3159  0.0955  0.0226
  222MPD1    C2 3423   0.580   3.164   0.666  0.0358 -1.3692 -0.0181
  222MPD1    C3 3424   0.615   3.061   0.581  0.2305  0.4411 -0.2990
  222MPD1    C4 3425   0.725   2.988   0.615 -0.0884  0.0774 -0.3555
  222MPD1    C5 3426   0.796   3.017   0.730  0.3473 -0.4652  0.3570
  222MPD1     H 3427   0.494   3.223   0.635  0.6589 -0.9909 -1.0451
  222MPD1    H1 3428   0.740   2.896   0.560 -0.1633  0.0545 -0.3388
  222MPD1    H2 3429   0.830   3.141   0.894 -0.5546  0.1855  0.0690
  222MPD1    H3 3430   0.880   2.954   0.755 -0.7220 -2.1084 -0.2202
  222MPD1     N 3431   0.556   3.032   0.456  0.0309 -0.7848  0.4588
  222MPD1    H5 3432   0.593   2.951   0.407 -2.4934 -1.9624  0.5421
  222MPD1    N1 3433   0.600   3.300   0.868  0.4986  0.2558 -1.1668
  222MPD1    H6 3434   0.530   3.362   0.826 -0.4714 -0.5330 -0.7165
  222MPD1    H7 3435   0.669   3.350   0.923  1.1323 -1.4820 -0.3944
  223MPD1     C 3436   4.547   3.432   0.066  0.0048  0.0199 -0.4923
  223MPD1    C1 3437   4.659   3.496   0.114  0.4634 -0.1076  0.2319
  223MPD1    C2 3438   0.039   3.419   0.101 -0.7371  0.6105  0.3040
  223MPD1    C3 3439   0.041   3.296   0.045 -0.4588  0.1781 -0.4156
  223MPD1    C4 3440   4.665   3.226   0.018  0.1956 -0.4384  0.2360
  223MPD1    C5 3441   4.554   3.305   0.018 -0.5854 -0.1954  0.1806
  223MPD1     H 3442   0.135   3.455   0.136 -1.2942  2.2364  0.1512
  223MPD1    H1 3443   4.664   3.124  17.733 -1.0465 -0.4022  0.1502
  223MPD1    H2 3444   4.460   3.496   0.077  0.1735 -0.0259  1.1849
  223MPD1    H3 3445   4.465   3.256  17.733 -0.6123 -0.0627  0.0707
  223MPD1     N 3446   0.162   3.233   0.046  0.7820 -0.5309 -0.5998
  223MPD1    H5 3447   0.240   3.270   0.099 -0.1029  0.5527 -0.0399
  223MPD1    N1 3448   4.660   3.627   0.181 -0.5226  0.2741 -1.0981
  223MPD1    H6 3449   4.592   3.689   0.139 -1.0385 -0.4563 -1.3395
  223MPD1    H7 3450   0.012   3.674   0.177 -0.4356  0.2476  0.5738
  224MPD1     C 3451   2.197   4.435   9.395  0.9559  0.1135 -0.2920
  224MPD1    C1 3452   2.268   4.336   9.343 -0.4120 -0.7255 -0.3496
  224MPD1    C2 3453   2.402   4.319   9.377 -0.4855  0.1053 -0.0998
  224MPD1    C3 3454   2.465   4.413   9.464  0.0930  0.5068 -0.3525
  224MPD1    C4 3455   2.387   4.511   9.516  0.6610 -0.1981  0.0233
  224MPD1    C5 3456   2.256   4.523   9.481 -0.7893 -0.4237 -0.0181
  224MPD1     H 3457   2.451   4.231   9.340 -2.1031 -1.0628  0.5255
  224MPD1    H1 3458   2.425   4.584   9.586 -0.6308 -0.9514  1.5227
  224MPD1    H2 3459   2.090   4.432   9.376  0.5437  0.1273  2.0095
  224MPD1    H3 3460   2.204   4.613   9.512  0.4020  0.0610  0.5689
  224MPD1     N 3461   2.599   4.398   9.515  0.1454 -0.7919 -0.0104
  224MPD1    H5 3462   2.613   4.443   9.605 -1.3865 -0.5612  0.1208
  224MPD1    N1 3463   2.204   4.243   9.257 -0.6839 -0.3224 -0.6631
  224MPD1    H6 3464   2.124   4.287   9.211 -1.8003 -0.7722  0.8460
  224MPD1    H7 3465   2.269   4.197   9.193  1.9279  0.4203  1.5250
  225MPD1     C 3466   4.234   1.005  12.155 -0.6038 -0.2647 -0.1608
  225MPD1    C1 3467   4.282   0.887  12.115 -0.7619  0.2157  0.7051
  225MPD1    C2 3468   4.217   0.771  12.165 -0.2464  0.5975  0.9557
  225MPD1    C3 3469   4.114   0.787  12.257  0.5916 -0.6851 -0.0298
  225MPD1    C4 3470   4.061   0.911  12.285  0.0684 -0.0115  0.3753
  225MPD1    C5 3471   4.127   1.018  12.238  0.5022  0.4787  0.5733
  225MPD1     H 3472   4.255   0.672  12.142 -0.7202  0.6759 -0.1520
  225MPD1    H1 3473   3.979   0.943  12.347 -1.1864  1.7783 -2.2104
  225MPD1    H2 3474   4.277   1.096  12.115  0.0944 -2.0244 -3.4196
  225MPD1    H3 3475   4.099   1.121  12.260  0.0913  0.2805  0.9612
  225MPD1     N 3476   4.043   0.684  12.307  0.1139  0.2415  0.1871
  225MPD1    H5 3477   3.982   0.700  12.387  1.8914  1.2799  1.3373
  225MPD1    N1 3478   4.388   0.882  12.029 -0.1381  0.5076  0.0667
  225MPD1    H6 3479   4.440   0.795  12.017 -1.7501 -0.1212 -2.6757
  225MPD1    H7 3480   4.440   0.968  12.038  0.7050 -0.0841  0.8555
  226MPD1     C 3481   2.998   0.495   9.655  1.1174  0.2354 -0.1842
  226MPD1    C1 3482   2.953   0.364   9.662 -0.2720 -0.0323 -0.4409
  226MPD1    C2 3483   2.814   0.341   9.653  0.6867  0.7288 -0.0035
  226MPD1    C3 3484   2.724   0.448   9.655  0.0063 -0.1180  0.9541
  226MPD1    C4 3485   2.771   0.576   9.673 -0.0152  1.1761 -0.5090
  226MPD1    C5 3486   2.909   0.595   9.662  0.2525  0.5923  0.3603
  226MPD1     H 3487   2.772   0.244   9.629 -2.1040  1.5566  1.5919
  226MPD1    H1 3488   2.708   0.662   9.690 -0.0746  0.8729  0.8351
  226MPD1    H2 3489   3.103   0.521   9.644  1.7769 -2.3310  0.1216
  226MPD1    H3 3490   2.942   0.698   9.670  0.7108  0.4914 -0.2405
  226MPD1     N 3491   2.586   0.414   9.647  0.0509 -0.3828 -0.3181
  226MPD1    H5 3492   2.550   0.320   9.639 -0.8234 -0.1598  0.9772
  226MPD1    N1 3493   3.054   0.271   9.646 -0.8942  0.2371 -0.5238
  226MPD1    H6 3494   3.028   0.195   9.710  1.5110  0.4711  0.7280
  226MPD1    H7 3495   3.146   0.297   9.680 -1.2051  0.0516  0.4647
  227MPD1     C 3496   1.912   0.666  10.304  0.7471  0.9275  0.1312
  227MPD1    C1 3497   2.032   0.719  10.270  0.8219 -0.5716 -0.0147
  227MPD1    C2 3498   2.088   0.683  10.151  0.0626  1.5890  0.4443
  227MPD1    C3 3499   2.023   0.587  10.069  0.2363  0.1552 -0.5776
  227MPD1    C4 3500   1.899   0.530  10.108 -0.0682 -0.1858  1.2227
  227MPD1    C5 3501   1.843   0.578  10.220 -0.0961 -0.3595  0.1021
  227MPD1     H 3502   2.185   0.726  10.128 -0.4132  1.7292 -1.3718
  227MPD1    H1 3503   1.837   0.458  10.056 -0.0047  1.1202 -0.6929
  227MPD1    H2 3504   1.853   0.702  10.388  1.9173 -1.0426  1.7909
  227MPD1    H3 3505   1.746   0.542  10.254 -0.6512  0.6645 -0.4074
  227MPD1     N 3506   2.081   0.556   9.943  0.1284 -0.2122 -0.5009
  227MPD1    H5 3507   2.168   0.600   9.918  0.5165 -0.0644  1.1346
  227MPD1    N1 3508   2.069   0.835  10.339 -0.1699 -0.0962 -0.2887
  227MPD1    H6 3509   2.169   0.851  10.330 -0.2229  0.3544 -0.0355
  227MPD1    H7 3510   2.061   0.821  10.439  1.7952 -0.3061 -0.1695
  228MPD1     C 3511   1.435   3.054  13.851  0.2113 -0.0895  0.0542
  228MPD1    C1 3512   1.410   2.921  13.882  0.6089 -0.3027 -0.0802
  228MPD1    C2 3513   1.310   2.867  13.805 -0.1559  0.2777  0.1603
  228MPD1    C3 3514   1.216   2.938  13.732  0.3880 -0.7638  0.9791
  228MPD1    C4 3515   1.230   3.073  13.714 -0.1654 -0.0120  0.1143
  228MPD1    C5 3516   1.344   3.125  13.775  0.1002 -0.3540  0.0054
  228MPD1     H 3517   1.307   2.759  13.807 -2.2611  0.3064 -1.0339
  228MPD1    H1 3518   1.164   3.134  13.653 -0.1841 -0.4727 -0.3259
  228MPD1    H2 3519   1.514   3.116  13.893  0.0800  0.4294 -0.4497
  228MPD1    H3 3520   1.366   3.230  13.762 -1.2114 -0.3481 -2.2177
  228MPD1     N 3521   1.122   2.855  13.657  0.5459  0.0204 -0.1844
  228MPD1    H5 3522   1.109   2.757  13.683 -0.5165 -0.2828 -1.8632
  228MPD1    N1 3523   1.500   2.840  13.957  0.7195 -0.2271  0.4966
  228MPD1    H6 3524   1.476   2.744  13.981 -2.0161  0.2670 -0.1718
  228MPD1    H7 3525   1.553   2.882  14.033  0.2757  1.6400 -0.2045
  229MPD1     C 3526   1.326   1.913  14.500 -0.1734  0.2186 -0.8164
  229MPD1    C1 3527   1.356   1.792  14.567 -0.6084 -0.0090  0.8753
  229MPD1    C2 3528   1.277   1.752  14.670  0.2816 -0.0401  0.4892
  229MPD1    C3 3529   1.156   1.819  14.695  0.1972  0.5493  0.0906
  229MPD1    C4 3530   1.135   1.951  14.642 -0.4334 -0.5804  0.0560
  229MPD1    C5 3531   1.223   1.991  14.542  0.1298 -0.3930 -0.7224
  229MPD1     H 3532   1.303   1.670  14.736  0.0213 -0.3343  0.2309
  229MPD1    H1 3533   1.060   2.018  14.682  1.1672  2.0272 -1.3578
  229MPD1    H2 3534   1.394   1.952  14.426  0.9254 -1.2474 -0.5786
  229MPD1    H3 3535   1.226   2.095  14.511  0.0024 -0.3461 -0.5763
  229MPD1     N 3536   1.058   1.763  14.782  0.0846 -0.2947  0.0214
  229MPD1    H5 3537   0.966   1.806  14.786 -0.2090 -1.0822  1.8490
  229MPD1    N1 3538   1.487   1.737  14.551  0.1691 -0.5528  0.7419
  229MPD1    H6 3539   1.516   1.734  14.453 -0.0878 -1.8620  0.7044
  229MPD1    H7 3540   1.500   1.638  14.570  0.3585 -0.9542 -1.4510
  230MPD1     C 3541   0.273   1.825  15.417  0.1429 -0.9861 -0.5669
  230MPD1    C1 3542   0.245   1.701  15.358  0.0116 -0.0757 -0.8102
  230MPD1    C2 3543   0.343   1.645  15.272 -0.3469  0.3192 -0.8748
  230MPD1    C3 3544   0.464   1.713  15.248  0.0932 -0.5305  0.4087
  230MPD1    C4 3545   0.481   1.841  15.301 -0.4071  0.0010  0.2000
  230MPD1    C5 3546   0.378   1.901  15.376 -0.5519 -0.8362  0.7151
  230MPD1     H 3547   0.311   1.555  15.220 -1.4168  0.9241 -1.2642
  230MPD1    H1 3548   0.573   1.899  15.291 -1.0707  0.6393 -2.0407
  230MPD1    H2 3549   0.207   1.869  15.490 -3.4177 -0.8567 -3.8363
  230MPD1    H3 3550   0.392   1.999  15.420  0.1487 -0.5611 -0.1087
  230MPD1     N 3551   0.555   1.646  15.162 -0.0825  0.4608  0.1932
  230MPD1    H5 3552   0.541   1.550  15.131 -0.0872  0.4473  0.2378
  230MPD1    N1 3553   0.111   1.645  15.357 -0.1411  0.0916  0.4226
  230MPD1    H6 3554   0.090   1.553  15.320 -0.7544  0.9698 -1.4095
  230MPD1    H7 3555   0.067   1.659  15.447 -2.4090 -2.3072 -0.3168
  231MPD1     C 3556   3.605   3.621  15.477 -0.0165 -0.1658  0.5819
  231MPD1    C1 3557   3.587   3.577  15.346 -0.1011  0.4761 -0.0835
  231MPD1    C2 3558   3.663   3.638  15.251 -1.0505  1.1921 -0.4991
  231MPD1    C3 3559   3.776   3.717  15.286  0.3579  0.1137 -0.7514
  231MPD1    C4 3560   3.795   3.751  15.414  0.2026 -0.2441  0.3538
  231MPD1    C5 3561   3.714   3.696  15.512 -0.7760  0.5625  0.2145
  231MPD1     H 3562   3.656   3.599  15.150  0.0610 -2.9735  1.0222
  231MPD1    H1 3563   3.871   3.815  15.459 -0.3287 -0.0891  1.0305
  231MPD1    H2 3564   3.533   3.600  15.555 -2.3233  1.6871 -1.0510
  231MPD1    H3 3565   3.723   3.728  15.615  0.8284 -1.1173  0.6008
  231MPD1     N 3566   3.864   3.747  15.182  0.0862  0.0474  0.7770
  231MPD1    H5 3567   3.844   3.709  15.090  0.8243 -1.3391  1.2033
  231MPD1    N1 3568   3.485   3.498  15.306 -0.3300  0.0626 -0.0473
  231MPD1    H6 3569   3.465   3.430  15.379 -0.0522 -1.5091 -1.4294
  231MPD1    H7 3570   3.494   3.448  15.218 -1.6131  1.7749 -1.1485
  232MPD1     C 3571   0.618   2.703   0.918  0.1910 -0.6014  0.1325
  232MPD1    C1 3572   0.677   2.604   0.999  0.0713 -0.2863 -0.4247
  232MPD1    C2 3573   0.608   2.483   0.985 -0.3327  0.1995 -0.4769
  232MPD1    C3 3574   0.480   2.468   0.923  0.5262 -0.0548  0.2190
  232MPD1    C4 3575   0.421   2.581   0.868  0.5625  0.2568 -0.6970
  232MPD1    C5 3576   0.500   2.687   0.860 -0.0244 -0.0488  0.1163
  232MPD1     H 3577   0.655   2.397   1.031 -1.1506 -0.0548 -0.1053
  232MPD1    H1 3578   0.326   2.585   0.817 -0.3863  0.2186  1.0735
  232MPD1    H2 3579   0.666   2.800   0.907 -2.5887  0.7853  0.1628
  232MPD1    H3 3580   0.466   2.772   0.801 -0.9892  0.6972  1.7513
  232MPD1     N 3581   0.425   2.332   0.917  0.3168 -0.2937 -0.0757
  232MPD1    H5 3582   0.496   2.260   0.926 -0.0113 -0.6062 -0.0106
  232MPD1    N1 3583   0.810   2.613   1.042  0.1166 -0.0984 -0.3033
  232MPD1    H6 3584   0.835   2.555   1.122  0.1957 -1.4764 -1.3302
  232MPD1    H7 3585   0.841   2.707   1.064 -0.3716  0.1928 -0.8962
  233MPD1     C 3586   0.841   3.940   0.363 -0.2836  0.5687 -0.0827
  233MPD1    C1 3587   0.900   3.819   0.412  0.2740  0.3964  0.0910
  233MPD1    C2 3588   0.995   3.830   0.513 -0.4942  0.2854  0.3660
  233MPD1    C3 3589   1.034   3.956   0.568  1.0236 -0.8893 -0.1564
  233MPD1    C4 3590   0.970   4.067   0.517 -0.3516  0.0825 -0.0642
  233MPD1    C5 3591   0.879   4.052   0.414 -0.4495 -0.0832 -0.8187
  233MPD1     H 3592   1.062   3.752   0.547  0.4258  1.0122  0.1894
  233MPD1    H1 3593   1.006   4.165   0.545 -0.6086 -0.1163  0.9548
  233MPD1    H2 3594   0.767   3.929   0.284 -2.4373  0.7724  1.9144
  233MPD1    H3 3595   0.826   4.138   0.376  0.5969 -0.5066 -3.2069
  233MPD1     N 3596   1.134   3.975   0.664  0.2979  0.3542 -0.0692
  233MPD1    H5 3597   1.152   4.068   0.702 -0.2151  0.0039  1.0393
  233MPD1    N1 3598   0.846   3.694   0.377 -0.0238 -1.0558  0.4720
  233MPD1    H6 3599   0.800   3.682   0.287  1.7770  1.2464 -0.7743
  233MPD1    H7 3600   0.917   3.623   0.391  0.2181 -1.3740 -2.3817
  234MPD1     C 3601   3.707   2.747   9.714  0.0739  0.3314 -0.3358
  234MPD1    C1 3602   3.763   2.869   9.731  0.2513 -0.0112 -0.9190
  234MPD1    C2 3603   3.701   2.980   9.672 -0.5745 -0.3081  0.1289
  234MPD1    C3 3604   3.576   2.964   9.608  0.1155  0.1016  0.4391
  234MPD1    C4 3605   3.527   2.839   9.586 -0.1526 -0.5560 -0.0222
  234MPD1    C5 3606   3.593   2.733   9.642 -0.4654 -0.7387  0.2963
  234MPD1     H 3607   3.740   3.079   9.695  1.3768 -1.0661 -0.0195
  234MPD1    H1 3608   3.433   2.813   9.537 -1.3316  1.3275  1.2597
  234MPD1    H2 3609   3.751   2.654   9.749 -0.5361  0.1903  0.0724
  234MPD1    H3 3610   3.554   2.633   9.625 -0.1632 -1.1596  2.0503
  234MPD1     N 3611   3.512   3.084   9.568  0.6295 -0.6508  0.1577
  234MPD1    H5 3612   3.557   3.171   9.593 -0.3996  0.1794 -0.8858
  234MPD1    N1 3613   3.893   2.887   9.777 -0.0743  0.4096  0.0193
  234MPD1    H6 3614   3.909   2.818   9.850 -0.4278  1.1007  0.7388
  234MPD1    H7 3615   3.903   2.976   9.825  1.0807  1.4525 -2.1005
  235MPD1     C 3616   0.265   0.206  10.441 -0.2019 -0.0346 -0.7104
  235MPD1    C1 3617   0.247   0.279  10.327  0.0855 -0.5646  0.2579
  235MPD1    C2 3618   0.311   0.401  10.318  0.2995  0.1474 -0.5770
  235MPD1    C3 3619   0.398   0.452  10.420  0.4383  0.0642 -0.3278
  235MPD1    C4 3620   0.393   0.377  10.542 -0.2828  0.3496  0.4403
  235MPD1    C5 3621   0.328   0.259  10.549  1.3180  0.0704 -0.1931
  235MPD1     H 3622   0.315   0.454  10.224  0.0578 -1.0669 -1.2832
  235MPD1    H1 3623   0.443   0.411  10.632  1.7715 -2.0300  0.1848
  235MPD1    H2 3624   0.227   0.112  10.478 -2.7689  1.6695  0.9898
  235MPD1    H3 3625   0.348   0.197  10.635 -0.0717  0.3775  0.3427
  235MPD1     N 3626   0.459   0.578  10.407  0.5247 -0.4523 -0.4579
  235MPD1    H5 3627   0.438   0.636  10.326 -1.1600 -0.4951 -0.0631
  235MPD1    N1 3628   0.178   0.220  10.222  0.0001  0.2068  0.4251
  235MPD1    H6 3629   0.143   0.294  10.161  1.5239  0.9004  0.3691
  235MPD1    H7 3630   0.098   0.164  10.250  0.2450 -0.4811 -0.2695
  236MPD1     C 3631   3.976   1.953   9.520 -0.1958 -0.2335  0.1448
  236MPD1    C1 3632   4.000   1.830   9.575  0.0823 -0.3575 -0.6974
  236MPD1    C2 3633   4.026   1.812   9.708 -0.4079 -0.6073 -0.5296
  236MPD1    C3 3634   4.036   1.921   9.783 -0.4194  0.3472 -0.0809
  236MPD1    C4 3635   4.031   2.045   9.726  0.3432 -0.3604 -0.1401
  236MPD1    C5 3636   4.006   2.063   9.590  0.3280 -0.1717  0.2836
  236MPD1     H 3637   4.029   1.713   9.752 -1.8092 -1.7906 -3.0583
  236MPD1    H1 3638   4.042   2.129   9.793  1.7535  0.7323 -1.7452
  236MPD1    H2 3639   3.950   1.951   9.415  3.1614 -1.3933 -0.6538
  236MPD1    H3 3640   4.001   2.163   9.548  2.9234  0.4014  1.3641
  236MPD1     N 3641   4.063   1.916   9.925 -0.4013 -0.3896 -0.7798
  236MPD1    H5 3642   4.077   2.008   9.965 -0.9139  1.2973 -4.5817
  236MPD1    N1 3643   3.973   1.723   9.485  0.9166  0.1340 -0.5857
  236MPD1    H6 3644   3.974   1.742   9.385  0.5904 -1.9406 -1.0049
  236MPD1    H7 3645   4.023   1.634   9.493  1.1841  0.2233 -1.2228
  237MPD1     C 3646   4.190   0.636  14.788 -0.3569  0.0064 -0.3059
  237MPD1    C1 3647   4.169   0.538  14.692  0.7619  0.4647  0.1668
  237MPD1    C2 3648   4.150   0.404  14.737 -0.4115 -0.1107 -0.7648
  237MPD1    C3 3649   4.133   0.376  14.876  0.2781  0.1441 -0.7495
  237MPD1    C4 3650   4.145   0.478  14.964 -0.5492  0.0095  0.0080
  237MPD1    C5 3651   4.181   0.606  14.921 -0.2101  0.4343  0.1955
  237MPD1     H 3652   4.151   0.321  14.667  0.4592 -0.4720 -0.3187
  237MPD1    H1 3653   4.129   0.463  15.070  0.6774 -0.8946  0.0611
  237MPD1    H2 3654   4.185   0.740  14.759  1.3489 -0.1648 -1.2235
  237MPD1    H3 3655   4.194   0.686  14.993  0.7174  0.7648 -0.3376
  237MPD1     N 3656   4.107   0.242  14.919 -0.6070  0.3254  0.5904
  237MPD1    H5 3657   4.079   0.235  15.016  2.1108  0.9622  1.4302
  237MPD1    N1 3658   4.190   0.554  14.552  0.0462 -0.3086  0.1740
  237MPD1    H6 3659   4.145   0.485  14.492 -0.0522  0.6728 -0.8674
  237MPD1    H7 3660   4.170   0.650  14.527  1.2521 -0.3008 -0.7737
  238MPD1     C 3661   0.881   3.734  15.662  0.0418 -0.7480 -0.8308
  238MPD1    C1 3662   0.884   3.820  15.552 -0.0226 -0.6056 -0.1910
  238MPD1    C2 3663   0.800   3.787  15.445 -0.7607  0.0911 -0.3544
  238MPD1    C3 3664   0.744   3.660  15.431 -0.2863 -0.1071  0.1750
  238MPD1    C4 3665   0.734   3.588  15.548  0.2651 -0.1003 -0.6725
  238MPD1    C5 3666   0.809   3.620  15.662  0.2268  0.5121 -0.4291
  238MPD1     H 3667   0.794   3.858  15.363 -2.8285  0.1948 -0.1333
  238MPD1    H1 3668   0.689   3.489  15.554  1.2376 -0.3990  1.7243
  238MPD1    H2 3669   0.929   3.755  15.756 -2.5564 -0.3814  0.4030
  238MPD1    H3 3670   0.823   3.553  15.746  1.2211  0.6012 -0.5326
  238MPD1     N 3671   0.679   3.614  15.304  0.3591 -0.1303 -0.5075
  238MPD1    H5 3672   0.631   3.525  15.311  0.4718 -0.0572  1.0224
  238MPD1    N1 3673   0.929   3.953  15.568 -0.2734 -0.2250 -0.4178
  238MPD1    H6 3674   1.018   3.957  15.616 -1.0993  0.6923  1.0195
  238MPD1    H7 3675   0.938   3.992  15.474  0.3877 -0.1998 -0.3457
  239MPD1     C 3676   1.207   0.176  14.566 -0.4902 -0.5066  0.8282
  239MPD1    C1 3677   1.234   0.086  14.470 -0.5090  0.1793 -0.2594
  239MPD1    C2 3678   1.126   0.025  14.421 -0.2430 -0.7196 -0.1443
  239MPD1    C3 3679   1.000   0.076  14.430 -0.0629  0.2248 -0.3331
  239MPD1    C4 3680   0.980   0.183  14.514 -0.2608 -0.0532  0.6657
  239MPD1    C5 3681   1.084   0.230  14.582 -0.1295 -0.5707  0.0889
  239MPD1     H 3682   1.142   4.671  14.368 -1.1430 -1.9766  1.7986
  239MPD1    H1 3683   0.885   0.233  14.534  0.3050  0.7363  1.3906
  239MPD1    H2 3684   1.283   0.203  14.639 -0.6234 -1.8582  1.4686
  239MPD1    H3 3685   1.070   0.309  14.655  2.0906  0.2916 -0.4429
  239MPD1     N 3686   0.900   0.016  14.359 -0.0265  0.2929  1.1198
  239MPD1    H5 3687   0.918   4.688  14.286 -1.5180 -1.3026  2.2129
  239MPD1    N1 3688   1.357   0.017  14.459 -0.4698  0.5307  0.4103
  239MPD1    H6 3689   1.382   4.716  14.369  0.6678 -0.7384  1.2881
  239MPD1    H7 3690   1.430   0.086  14.477 -0.1683  0.0195  1.1513
  240MPD1     C 3691   4.507   4.471  12.787 -0.1766  0.0281 -0.2551
  240MPD1    C1 3692   4.454   4.360  12.847  0.7729  0.0118 -0.5775
  240MPD1    C2 3693   4.541   4.275  12.909 -0.1943 -0.4505  0.1005
  240MPD1    C3 3694   4.677   4.300  12.908  0.1364  1.2550  0.0764
  240MPD1    C4 3695   4.731   4.411  12.846 -0.5520  0.5656 -0.0065
  240MPD1    C5 3696   4.645   4.491  12.777  0.2385  0.4699 -0.3385
  240MPD1     H 3697   4.504   4.185  12.955 -1.1940 -0.1335 -0.0984
  240MPD1    H1 3698   0.097   4.434  12.858 -0.1049 -1.4088 -0.1329
  240MPD1    H2 3699   4.443   4.549  12.747 -0.6117 -0.6219 -0.8307
  240MPD1    H3 3700   4.692   4.582  12.741 -1.6009  0.7729 -1.9661
  240MPD1     N 3701   0.010   4.192  12.966  0.0037  0.0849 -0.0712
  240MPD1    H5 3702   4.693   4.120  13.010 -0.5156  0.7351  0.3296
  240MPD1    N1 3703   4.316   4.352  12.859 -0.5665  0.6315  0.4044
  240MPD1    H6 3704   4.258   4.396  12.788 -1.2756  0.1599  0.6912
  240MPD1    H7 3705   4.293   4.256  12.882  0.2677 -0.4220 -3.1094
  241MPD1     C 3706   1.025   3.896  13.367  0.2545  0.0340 -0.1242
  241MPD1    C1 3707   0.992   3.944  13.241  0.5390  0.2170  0.0411
  241MPD1    C2 3708   0.858   3.957  13.204  0.4219 -0.1871 -0.0230
  241MPD1    C3 3709   0.759   3.930  13.298  0.7930  0.7961  0.0869
  241MPD1    C4 3710   0.796   3.873  13.420  0.7818  0.3189 -0.1785
  241MPD1    C5 3711   0.926   3.855  13.453  1.0204  0.6591 -0.0355
  241MPD1     H 3712   0.834   3.992  13.104 -0.3009 -1.1589 -0.1908
  241MPD1    H1 3713   0.734   3.841  13.504 -0.0860 -0.7033 -1.2082
  241MPD1    H2 3714   1.129   3.876  13.391  0.2890  0.2119 -0.1325
  241MPD1    H3 3715   0.950   3.792  13.538  0.1137 -1.5346 -1.3806
  241MPD1     N 3716   0.618   3.957  13.277 -0.3141  0.0938  0.5275
  241MPD1    H5 3717   0.562   3.948  13.361 -0.1205  0.9847  0.7455
  241MPD1    N1 3718   1.095   3.961  13.143 -0.2647 -0.5306 -0.1170
  241MPD1    H6 3719   1.095   4.054  13.102  2.1311 -1.6626 -2.6205
  241MPD1    H7 3720   1.187   3.953  13.185  0.0103  0.4062 -0.5361
  242MPD1     C 3721   0.755   3.204  15.435 -0.3816  0.4560 -0.4643
  242MPD1    C1 3722   0.638   3.191  15.365 -0.3578  0.8142  0.5097
  242MPD1    C2 3723   0.608   3.076  15.288  0.7946 -0.4622  0.2258
  242MPD1    C3 3724   0.704   2.979  15.280 -0.7821  0.4337  0.2380
  242MPD1    C4 3725   0.826   2.984  15.343 -0.0687 -0.3857  0.4705
  242MPD1    C5 3726   0.846   3.099  15.417 -0.5975 -0.0912 -0.5313
  242MPD1     H 3727   0.519   3.077  15.225  0.3542  0.6291  0.8551
  242MPD1    H1 3728   0.903   2.908  15.334  1.3366  1.2212 -1.0467
  242MPD1    H2 3729   0.776   3.289  15.498 -0.4081  0.5049 -0.5224
  242MPD1    H3 3730   0.942   3.121  15.461 -1.6578  2.2294  0.5911
  242MPD1     N 3731   0.682   2.857  15.210 -0.1343  0.7157  0.2894
  242MPD1    H5 3732   0.762   2.795  15.211  0.1106  1.0408  1.3951
  242MPD1    N1 3733   0.557   3.309  15.354  0.2153 -0.2439  0.1337
  242MPD1    H6 3734   0.468   3.295  15.306  0.0916 -1.2643  0.6641
  242MPD1    H7 3735   0.533   3.333  15.450 -0.4639  0.2902 -0.1707
  243MPD1     C 3736   0.796   1.351  17.530 -0.4250 -0.0280  0.5059
  243MPD1    C1 3737   0.786   1.245  17.623  0.4852 -0.6023  0.0508
  243MPD1    C2 3738   0.876   1.143  17.611  0.1273 -0.0326  0.7514
  243MPD1    C3 3739   0.970   1.130  17.510 -0.4272 -0.3455 -0.6232
  243MPD1    C4 3740   0.981   1.240  17.415 -0.3158  0.0548 -0.4046
  243MPD1    C5 3741   0.892   1.346  17.435  0.0294 -0.2852 -0.1984
  243MPD1     H 3742   0.874   1.065  17.687 -0.9808  0.1758  0.9365
  243MPD1    H1 3743   1.055   1.250  17.336  1.0185 -1.4767  0.6573
  243MPD1    H2 3744   0.735   1.440  17.537  2.3355  2.0391 -2.0869
  243MPD1    H3 3745   0.890   1.431  17.367  1.5975  2.2903  2.9749
  243MPD1     N 3746   1.049   1.012  17.500 -0.3499  0.4751  0.4011
  243MPD1    H5 3747   1.044   0.945  17.577 -0.1653 -1.5190 -1.3382
  243MPD1    N1 3748   0.703   1.248  17.729  0.3641  0.1739 -0.0868
  243MPD1    H6 3749   0.616   1.294  17.705  1.0080  1.1136 -0.6135
  243MPD1    H7 3750   0.680   1.154   0.007 -0.5443 -0.3139 -2.2837
  244MPD1     C 3751   1.548   0.389   0.310 -0.7944 -0.0145  0.4427
  244MPD1    C1 3752   1.646   0.461   0.249 -0.6887 -0.1467 -0.4516
  244MPD1    C2 3753   1.616   0.551   0.147 -0.9928  0.2518  0.5325
  244MPD1    C3 3754   1.487   0.560   0.095  0.0806  0.6455 -0.6654
  244MPD1    C4 3755   1.393   0.477   0.147  0.2218  0.0399  0.3383
  244MPD1    C5 3756   1.428   0.390   0.246 -0.1924 -0.0924 -0.0952
  244MPD1     H 3757   1.690   0.608   0.091 -1.4747 -0.3849 -0.7474
  244MPD1    H1 3758   1.288   0.476   0.120  0.0018 -0.5645  1.1961
  244MPD1    H2 3759   1.556   0.337   0.404 -0.5982 -0.9270 -0.0823
  244MPD1    H3 3760   1.357   0.321   0.290  1.2364 -0.8457  1.0170
  244MPD1     N 3761   1.453   0.655  17.746 -0.7581  0.0451 -0.5793
  244MPD1    H5 3762   1.532   0.700  17.700  0.5378  0.4098  1.9976
  244MPD1    N1 3763   1.771   0.462   0.308  0.0309 -0.3697 -0.2531
  244MPD1    H6 3764   1.795   0.372   0.349 -1.6135 -2.0680 -3.0077
  244MPD1    H7 3765   1.842   0.494   0.243  0.7494  0.7764  1.0929
  245MPD1     C 3766   3.069   1.280  13.040 -0.1844  0.2827 -0.4682
  245MPD1    C1 3767   3.126   1.312  13.160  0.1354 -0.3357  0.1231
  245MPD1    C2 3768   3.233   1.395  13.159  0.0651 -0.6090  0.6720
  245MPD1    C3 3769   3.282   1.468  13.049  0.4767  0.3138  0.2433
  245MPD1    C4 3770   3.220   1.429  12.927  0.6468 -0.1203  0.1351
  245MPD1    C5 3771   3.119   1.335  12.926  0.3039  0.2938 -0.8389
  245MPD1     H 3772   3.286   1.403  13.254 -2.5827  0.6280  2.0289
  245MPD1    H1 3773   3.249   1.482  12.837 -1.0875 -0.2613 -0.5089
  245MPD1    H2 3774   2.979   1.220  13.038 -0.1085  0.1891 -0.9118
  245MPD1    H3 3775   3.067   1.316  12.833  2.9368  0.1594 -2.2892
  245MPD1     N 3776   3.384   1.562  13.063  0.4789  0.1487 -0.6893
  245MPD1    H5 3777   3.406   1.587  13.159  2.0515  2.6776 -1.7078
  245MPD1    N1 3778   3.084   1.241  13.278 -0.1389  0.0328 -0.3648
  245MPD1    H6 3779   3.085   1.293  13.366 -1.1794 -1.7518  0.7064
  245MPD1    H7 3780   2.995   1.196  13.259 -1.0042  1.6422 -0.1505
  246MPD1     C 3781   3.522   3.926   9.019  0.3148 -0.4189  0.8793
  246MPD1    C1 3782   3.534   3.789   8.997 -0.7754  0.0355  0.2615
  246MPD1    C2 3783   3.646   3.730   9.046 -0.4905 -0.2280 -0.5205
  246MPD1    C3 3784   3.734   3.790   9.131  0.4476 -0.3396 -0.6525
  246MPD1    C4 3785   3.714   3.926   9.157  0.1316  0.0400  0.0457
  246MPD1    C5 3786   3.608   3.993   9.104 -0.4863 -0.3829 -0.2333
  246MPD1     H 3787   3.675   3.632   9.010  0.0894 -0.2272 -0.0526
  246MPD1    H1 3788   3.791   3.989   9.198  0.3829 -1.2152  1.4983
  246MPD1    H2 3789   3.448   3.981   8.962 -1.3365  0.1225  3.5598
  246MPD1    H3 3790   3.602   4.098   9.130 -0.5740 -0.3795 -0.2669
  246MPD1     N 3791   3.842   3.717   9.179 -0.2039 -0.0945 -0.1769
  246MPD1    H5 3792   3.854   3.627   9.134  1.2649  0.6957 -1.3567
  246MPD1    N1 3793   3.457   3.726   8.898  0.9883  0.1801  0.1416
  246MPD1    H6 3794   3.460   3.624   8.904 -0.8066  0.2132  1.4888
  246MPD1    H7 3795   3.361   3.759   8.887  1.1394  0.6864  0.3453
  247MPD1     C 3796   2.695   1.433  16.701 -0.5713 -0.1315  0.0443
  247MPD1    C1 3797   2.723   1.302  16.715  0.3885 -0.2443 -0.1486
  247MPD1    C2 3798   2.791   1.241  16.615  0.4985 -0.6959 -0.5546
  247MPD1    C3 3799   2.860   1.308  16.509 -0.4651  0.2797 -0.2577
  247MPD1    C4 3800   2.846   1.445  16.503  0.1082 -0.8344  0.0669
  247MPD1    C5 3801   2.755   1.503  16.592 -0.3411  0.0139  0.1969
  247MPD1     H 3802   2.816   1.136  16.616 -0.4860 -0.9303 -0.7569
  247MPD1    H1 3803   2.891   1.503  16.423 -0.3525 -0.0465  0.3781
  247MPD1    H2 3804   2.645   1.502  16.769 -0.3064  0.7133 -0.6148
  247MPD1    H3 3805   2.737   1.610  16.597  1.9513  0.4220 -0.0037
  247MPD1     N 3806   2.933   1.248  16.396  1.2290  0.8415 -0.4679
  247MPD1    H5 3807   2.979   1.318  16.339  1.3580  0.8144 -0.3970
  247MPD1    N1 3808   2.657   1.231  16.813  0.0574 -0.0758 -0.6339
  247MPD1    H6 3809   2.686   1.135  16.830 -1.1927 -0.0260  1.8345
  247MPD1    H7 3810   2.652   1.273  16.906  2.3928 -2.0017  0.3674
  248MPD1     C 3811   3.789   1.383  17.285 -0.3602 -0.0166 -0.0335
  248MPD1    C1 3812   3.704   1.480  17.329  0.2179  0.3343 -0.1125
  248MPD1    C2 3813   3.635   1.466  17.450  0.5182  0.5542 -0.3220
  248MPD1    C3 3814   3.654   1.348  17.522 -0.0319  0.0729  0.4430
  248MPD1    C4 3815   3.742   1.255  17.478  0.0075 -0.2629 -0.7730
  248MPD1    C5 3816   3.815   1.271  17.360  0.1427  0.6060 -0.1657
  248MPD1     H 3817   3.561   1.543  17.469  0.6135  0.1716  1.5602
  248MPD1    H1 3818   3.766   1.164  17.531 -2.9253  1.1584  2.9672
  248MPD1    H2 3819   3.849   1.396  17.196  1.1996 -4.5321  0.3159
  248MPD1    H3 3820   3.882   1.193  17.326  0.3094  0.7648 -0.2051
  248MPD1     N 3821   3.585   1.339  17.644  0.2105 -0.3869  0.6681
  248MPD1    H5 3822   3.542   1.422  17.682 -0.8832  0.2948 -2.1358
  248MPD1    N1 3823   3.672   1.589  17.245  0.2263  0.4625  0.8301
  248MPD1    H6 3824   3.633   1.673  17.288  0.7129  0.0892  2.0087
  248MPD1    H7 3825   3.754   1.624  17.196  0.4612  1.4366  1.9224
  249MPD1     C 3826   0.782   4.139  11.224 -0.1137  0.2364  0.2441
  249MPD1    C1 3827   0.846   4.263  11.239  0.4231  0.7580  0.5101
  249MPD1    C2 3828   0.893   4.326  11.129  0.3822 -0.0728  0.3185
  249MPD1    C3 3829   0.844   4.289  11.007  0.8599  0.5481  0.7869
  249MPD1    C4 3830   0.750   4.187  11.000  0.0822 -0.3252 -1.0742
  249MPD1    C5 3831   0.726   4.108  11.108 -0.5898 -0.4414 -0.5141
  249MPD1     H 3832   0.950   4.419  11.138  0.2688 -0.0373  0.6499
  249MPD1    H1 3833   0.714   4.165  10.900 -0.5333 -0.3111 -0.8587
  249MPD1    H2 3834   0.742   4.077  11.304 -0.6225  1.1499  0.6929
  249MPD1    H3 3835   0.654   4.028  11.096 -0.0716 -0.4421 -3.8809
  249MPD1     N 3836   0.880   4.372  10.900 -0.1780 -0.4297  0.3462
  249MPD1    H5 3837   0.960   4.429  10.924 -1.8026  2.5063 -1.1969
  249MPD1    N1 3838   0.902   4.293  11.363 -0.4212  0.1150 -0.1585
  249MPD1    H6 3839   0.938   4.385  11.386 -0.2407 -0.5332  2.2027
  249MPD1    H7 3840   0.828   4.267  11.429  0.8916 -0.7427  0.9852
  250MPD2     C 3841   2.500   4.247  13.154  0.0541 -0.5945 -0.5577
  250MPD2    C1 3842   2.418   4.346  13.097  0.3941 -0.7674  0.6200
  250MPD2    C2 3843   2.349   4.323  12.981 -0.2681  0.8626  0.5820
  250MPD2    C3 3844   2.365   4.200  12.916 -0.1748  0.2252  0.0881
  250MPD2    C4 3845   2.445   4.105  12.971  0.6189  1.2023 -0.7124
  250MPD2    C5 3846   2.506   4.128  13.089 -0.3970  0.4766  0.3784
  250MPD2     H 3847   2.276   4.393  12.942 -0.2031 -0.3257 -1.6324
  250MPD2    H1 3848   2.453   4.011  12.918  0.8036  0.3004  0.9043
  250MPD2    H2 3849   2.550   4.252  13.250  1.0263 -2.5877 -0.9495
  250MPD2    H3 3850   2.575   4.058  13.134 -3.1857 -1.8729  0.9709
  250MPD2     N 3851   2.294   4.160  12.792 -0.9009 -0.0460 -0.2215
  250MPD2    H5 3852   2.314   4.068  12.754  1.9425 -0.2956  1.8939
  250MPD2    N1 3853   2.411   4.471  13.166  0.3497  0.1928 -0.1936
  250MPD2    H7 3854   2.476   4.482  13.243 -0.8603  1.5323  0.6124
  251TMC3    C1 3855   2.351   4.687  13.230  0.6269 -0.1203 -0.4962
  251TMC3    C2 3856   2.265   0.054  13.248  0.2364  0.2419  0.7151
  251TMC3    C3 3857   2.304   0.173  13.298 -0.4893  0.0967  0.5803
  251TMC3    C4 3858   2.482   4.707  13.270 -0.1045  0.3420 -0.5908
  251TMC3    C5 3859   2.519   0.084  13.334 -0.1384  0.1183 -0.6451
  251TMC3    C6 3860   2.432   0.188  13.336  0.0341  0.5066  0.1940
  251TMC3     C 3861   2.320   4.571  13.146  0.0448  0.3391  0.1185
  251TMC3     O 3862   2.224   4.573  13.073 -0.4683 -0.2329 -0.0584
  251TMC3     H 3863   2.158   0.047  13.231  0.4840  1.1729 -1.1866
  251TMC3    H1 3864   2.556   4.631  13.250  0.1729  0.3814  0.2701
  251TMC3    H2 3865   2.454   0.283  13.382 -0.0065  0.4912  0.2447
  251TMC3    C7 3866   2.659   0.102  13.349 -0.4664  0.2408  0.2874
  251TMC3    C8 3867   2.211   0.245  13.385  0.3792  0.1928 -0.8416
  251TMC3    O1 3868   2.724   0.001  13.350  0.6026 -0.4386 -0.2134
  251TMC3    O2 3869   2.245   0.270  13.502 -0.2119 -0.0139  0.1885
  252TMC3    C1 3870   2.389   1.877   9.583 -0.1962 -0.2326  0.3327
  252TMC3    C2 3871   2.479   1.934   9.673 -0.2427 -0.4959  0.1468
  252TMC3    C3 3872   2.570   1.852   9.729 -0.2443  0.0715 -0.0036
  252TMC3    C4 3873   2.407   1.744   9.551 -0.5351  0.1884  0.4499
  252TMC3    C5 3874   2.496   1.663   9.611  0.0615 -0.5506 -0.3278
  252TMC3    C6 3875   2.579   1.720   9.707  0.1730 -0.5669 -0.2303
  252TMC3     C 3876   2.288   1.947   9.508  0.1960  0.9075 -0.4832
  252TMC3     O 3877   2.259   1.897   9.405 -0.0872 -0.8134 -0.1691
  252TMC3     H 3878   2.495   2.039   9.693 -2.0959 -0.1427 -0.2150
  252TMC3    H1 3879   2.346   1.704   9.472  1.3158  1.2264 -1.4886
  252TMC3    H2 3880   2.660   1.659   9.745  0.8663  0.0072 -0.8188
  252TMC3    C7 3881   2.485   1.520   9.591 -0.3561  0.0523  0.4505
  252TMC3    C8 3882   2.664   1.910   9.824  1.6242 -0.0556 -0.7330
  252TMC3    O1 3883   2.422   1.478   9.493 -0.4499 -0.1681  0.3443
  252TMC3    O2 3884   2.701   2.020   9.787 -0.0298 -0.2644  0.3829
  253MPD2     C 3885   3.097   0.226  14.976  0.1652  0.2042  0.0500
  253MPD2    C1 3886   2.976   0.289  14.988 -0.7675  0.5524  0.6106
  253MPD2    C2 3887   2.939   0.317  15.123 -0.3343 -0.7273  0.1760
  253MPD2    C3 3888   3.013   0.300  15.235 -0.1671  0.2657 -1.0685
  253MPD2    C4 3889   3.135   0.234  15.220  0.5826  0.6061  1.0243
  253MPD2    C5 3890   3.169   0.193  15.089 -0.3560  0.1231 -0.2730
  253MPD2     H 3891   2.847   0.372  15.138  0.5431  0.0845  2.5622
  253MPD2    H1 3892   3.197   0.231  15.309  0.4644 -0.4601  1.0749
  253MPD2    H2 3893   3.143   0.205  14.880  0.1876 -0.5628  0.2332
  253MPD2    H3 3894   3.269   0.158  15.066  0.2101  1.1145  0.7318
  253MPD2     N 3895   2.973   0.339  15.366 -0.2547 -0.0853 -0.4324
  253MPD2    H5 3896   3.036   0.300  15.436  1.2102 -1.1066 -2.3029
  253MPD2    N1 3897   2.891   0.325  14.879  0.0856 -0.2066 -0.1597
  253MPD2    H7 3898   2.803   0.373  14.894 -0.0330 -0.3981 -0.2413
  254TMC3    C1 3899   2.825   0.424  15.536 -0.1904 -0.4074 -0.9071
  254TMC3    C2 3900   2.692   0.444  15.552  1.0338  0.3114  0.4854
  254TMC3    C3 3901   2.634   0.401  15.664 -0.8107  0.1217 -1.0233
  254TMC3    C4 3902   2.899   0.353  15.631  0.6024 -0.2585 -0.7562
  254TMC3    C5 3903   2.833   0.307  15.746  0.2861 -0.9045 -0.2410
  254TMC3    C6 3904   2.703   0.343  15.770  0.4390  0.5034  0.6451
  254TMC3     C 3905   2.871   0.431  15.395 -0.3012  0.1472  0.2266
  254TMC3     O 3906   2.818   0.509  15.319 -0.5167  0.0448  0.2478
  254TMC3     H 3907   2.633   0.480  15.469 -0.9422 -1.3338  1.1831
  254TMC3    H1 3908   3.006   0.345  15.622  0.5578 -0.1079 -1.4185
  254TMC3    H2 3909   2.652   0.282  15.843 -2.1963  4.0984  1.7520
  254TMC3    C7 3910   2.902   0.256  15.860  0.5690  0.6909 -0.3185
  254TMC3    C8 3911   2.509   0.462  15.691  0.2367  0.4558  0.8743
  254TMC3    O1 3912   2.831   0.227  15.954  0.0906 -0.2691  0.3633
  254TMC3    O2 3913   2.446   0.511  15.600  0.2622  0.1779  0.1480
  255MPD2     C 3914   1.948   3.067  10.801  1.3776  0.4576 -0.5159
  255MPD2    C1 3915   1.935   3.108  10.672  0.0862  0.7484  1.1966
  255MPD2    C2 3916   1.985   3.023  10.577  0.1007 -0.9033  0.3924
  255MPD2    C3 3917   2.021   2.896  10.608 -0.6153  0.2813  0.0786
  255MPD2    C4 3918   2.031   2.862  10.740  0.3591  0.1039  0.2991
  255MPD2    C5 3919   1.997   2.947  10.839 -0.3773  0.2219 -0.4890
  255MPD2     H 3920   1.992   3.061  10.475 -1.2567  0.3622  0.7698
  255MPD2    H1 3921   2.067   2.764  10.768 -1.1644 -0.4208  0.3818
  255MPD2    H2 3922   1.933   3.139  10.881  0.0125 -0.1092 -0.2534
  255MPD2    H3 3923   2.005   2.922  10.945  0.2329 -0.6609 -0.7420
  255MPD2     N 3924   2.058   2.810  10.503 -0.0252 -0.2399  0.6674
  255MPD2    H5 3925   2.032   2.845  10.412 -0.1725  1.8787  1.5151
  255MPD2    N1 3926   1.877   3.234  10.637  0.7583 -0.0851  0.2229
  255MPD2    H7 3927   1.828   3.296  10.701 -2.4311 -3.1106  0.7187
  256TMC3    C1 3928   1.748   3.374  10.496  0.2164 -0.5560 -0.5283
  256TMC3    C2 3929   1.733   3.475  10.590  0.6025 -0.0505 -0.1282
  256TMC3    C3 3930   1.623   3.558  10.581  0.1079  0.2736  0.8451
  256TMC3    C4 3931   1.651   3.352  10.400 -0.7412  0.2162 -0.2222
  256TMC3    C5 3932   1.539   3.429  10.407  0.2781 -0.6176 -0.3638
  256TMC3    C6 3933   1.524   3.539  10.490 -0.2177  0.2583  0.1878
  256TMC3     C 3934   1.847   3.268  10.506 -0.6266 -0.3616 -0.3311
  256TMC3     O 3935   1.876   3.216  10.399  0.3866  0.0101 -0.4448
  256TMC3     H 3936   1.811   3.492  10.663  0.9507  1.4154 -0.8348
  256TMC3    H1 3937   1.659   3.278  10.322 -0.0843 -1.0049  1.0093
  256TMC3    H2 3938   1.451   3.613  10.459  2.9775  2.5396 -1.9535
  256TMC3    C7 3939   1.414   3.360  10.361  0.1460 -0.3100 -0.5552
  256TMC3    C8 3940   1.656   3.691  10.632  0.7765  0.4662 -0.2048
  256TMC3    O1 3941   1.435   3.276  10.272 -0.2915 -0.9624 -0.6441
  256TMC3    O2 3942   1.727   3.687  10.734  0.7488  0.4647  0.2054
  257MPD2     C 3943   0.288   4.660  12.945  0.0340  0.7272 -0.1210
  257MPD2    C1 3944   0.417   4.694  12.915 -0.0385  0.3746 -0.5051
  257MPD2    C2 3945   0.517   4.626  12.975  0.2783 -0.1130 -0.4696
  257MPD2    C3 3946   0.497   4.524  13.065  0.7394 -0.6230 -0.2168
  257MPD2    C4 3947   0.371   4.473  13.077 -0.5035  0.0480 -0.9970
  257MPD2    C5 3948   0.267   4.550  13.029  0.0228  0.0984 -0.7154
  257MPD2     H 3949   0.620   4.658  12.981  1.0155 -2.6785  0.4542
  257MPD2    H1 3950   0.342   4.383  13.129 -0.0483  1.6220  2.0005
  257MPD2    H2 3951   0.207   4.708  12.892  1.0185  0.9746 -1.3999
  257MPD2    H3 3952   0.163   4.523  13.041 -0.3999  0.7409 -2.9690
  257MPD2     N 3953   0.605   4.473  13.140  0.0973 -0.5327 -0.1653
  257MPD2    H5 3954   0.690   4.529  13.134 -0.9191  1.5120  3.8273
  257MPD2    N1 3955   0.435   0.036  12.796  0.0220 -0.8515 -0.2040
  257MPD2    H7 3956   0.351   0.086  12.771 -0.0777 -0.5824  0.6419
  258TMC3    C1 3957   0.720   4.360  13.316  0.1544  0.1345  0.4630
  258TMC3    C2 3958   0.827   4.358  13.235  0.4328  0.0999  0.4796
  258TMC3    C3 3959   0.940   4.300  13.278 -0.8485  0.2697 -0.1042
  258TMC3    C4 3960   0.727   4.306  13.440  0.2086 -0.6709  0.8348
  258TMC3    C5 3961   0.844   4.252  13.485  0.2265  0.0783 -0.3228
  258TMC3    C6 3962   0.952   4.251  13.408  0.9736 -0.3363  0.0581
  258TMC3     C 3963   0.594   4.393  13.259 -0.4507 -0.1028 -0.5818
  258TMC3     O 3964   0.494   4.339  13.305 -0.4105  0.1048  0.0529
  258TMC3     H 3965   0.821   4.413  13.141 -1.2055 -0.7587  0.0770
  258TMC3    H1 3966   0.635   4.301  13.497  0.0302 -1.0667  0.5087
  258TMC3    H2 3967   1.028   4.178  13.434 -0.3792 -1.9789 -0.5971
  258TMC3    C7 3968   0.855   4.166  13.605  0.0367 -0.0765 -0.4320
  258TMC3    C8 3969   1.063   4.289  13.195  0.5409  0.0626  0.5850
  258TMC3    O1 3970   0.742   4.144  13.641  0.0188  0.2964 -0.2863
  258TMC3    O2 3971   1.169   4.314  13.253 -0.0162 -0.0103  0.3673
  259MPD2     C 3972   4.036   1.105   0.613  0.3284  1.1851 -0.5578
  259MPD2    C1 3973   4.014   1.238   0.577  0.5557  1.3707  0.0987
  259MPD2    C2 3974   4.098   1.301   0.489  0.0385 -0.7186 -0.2370
  259MPD2    C3 3975   4.209   1.238   0.437  0.0536  0.7274 -0.0740
  259MPD2    C4 3976   4.226   1.102   0.472  0.3496 -0.0402 -0.4161
  259MPD2    C5 3977   4.144   1.040   0.564 -0.1887  0.6283  0.0754
  259MPD2     H 3978   4.081   1.407   0.473  0.1880 -0.7218 -0.4160
  259MPD2    H1 3979   4.320   1.057   0.444  1.3462  1.0045  1.1941
  259MPD2    H2 3980   3.970   1.050   0.679  0.0126  1.6257 -0.5051
  259MPD2    H3 3981   4.169   0.938   0.590  0.8585  0.1927 -2.6201
  259MPD2     N 3982   4.297   1.318   0.357  0.3601  0.1619 -0.0835
  259MPD2    H5 3983   4.277   1.417   0.347 -0.8743  0.0992  1.9275
  259MPD2    N1 3984   3.895   1.308   0.642  0.3296  0.6146  0.3796
  259MPD2    H7 3985   3.832   1.253   0.699  0.8370 -0.4280 -0.0650
  260TMC3    C1 3986   4.460   1.362   0.182  0.8591  0.1268 -0.7131
  260TMC3    C2 3987   4.488   1.486   0.229  0.1139  0.5630  0.1602
  260TMC3    C3 3988   4.555   1.570   0.140 -0.1549 -0.1059  0.4611
  260TMC3    C4 3989   4.487   1.323   0.056  0.7330 -0.0389 -0.0574
  260TMC3    C5 3990   4.545   1.418  17.726  0.5185  0.1393 -0.4507
  260TMC3    C6 3991   4.590   1.546   0.009 -0.7615  0.1318 -0.7001
  260TMC3     C 3992   4.398   1.264   0.272 -0.3416 -0.0152  0.4483
  260TMC3     O 3993   4.411   1.144   0.239  0.7380 -0.4074 -0.3416
  260TMC3     H 3994   4.469   1.509   0.333 -0.3561 -0.7281  0.3680
  260TMC3    H1 3995   4.465   1.222   0.023 -1.3487 -0.2583  2.0033
  260TMC3    H2 3996   4.629   1.619  17.692  1.7317  0.0189  0.5756
  260TMC3    C7 3997   4.557   1.369  17.589  0.7826  0.7081 -0.7798
  260TMC3    C8 3998   4.559   1.701   0.181  0.5294 -0.0598 -0.0374
  260TMC3    O1 3999   4.568   1.248  17.577  0.2058  0.7562 -0.4779
  260TMC3    O2 4000   4.524   1.790   0.103  0.5881 -0.2722  0.4547
  261MPD2     C 4001   1.617   4.573  12.655 -0.0544  0.6917  0.5145
  261MPD2    C1 4002   1.737   4.545  12.591  0.1811  0.3880  0.8768
  261MPD2    C2 4003   1.777   4.624  12.485 -0.3037 -0.3567  0.1547
  261MPD2    C3 4004   1.706   0.008  12.460  0.1052  0.7044 -1.3010
  261MPD2    C4 4005   1.584   0.032  12.527 -0.1440 -0.0895 -0.3069
  261MPD2    C5 4006   1.551   4.695  12.633 -0.3284 -0.2545 -0.2185
  261MPD2     H 4007   1.871   4.609  12.433 -0.6850 -0.0160 -0.6417
  261MPD2    H1 4008   1.516   0.111  12.497  0.6605  0.0180 -1.8946
  261MPD2    H2 4009   1.572   4.500  12.722  0.7173 -1.4549 -1.3265
  261MPD2    H3 4010   1.466   4.714  12.697  0.3438 -0.4224  0.7213
  261MPD2     N 4011   1.754   0.096  12.362  0.3917 -0.1902  0.5406
  261MPD2    H5 4012   1.847   0.077  12.328  0.7230  2.0029  0.2185
  261MPD2    N1 4013   1.812   4.424  12.602  0.1599 -0.0534 -0.0624
  261MPD2    H7 4014   1.888   4.410  12.536  1.7160  0.0372  1.7095
  262TMC3    C1 4015   1.787   0.290  12.233 -0.0346 -0.6675  0.3824
  262TMC3    C2 4016   1.732   0.395  12.169 -0.0349 -0.9917  0.0758
  262TMC3    C3 4017   1.810   0.461  12.083 -0.3570 -0.5379 -0.2450
  262TMC3    C4 4018   1.921   0.253  12.215 -0.7222 -0.1013  0.4851
  262TMC3    C5 4019   1.985   0.320  12.117  0.5497 -0.2248  0.0669
  262TMC3    C6 4020   1.939   0.427  12.044  0.6331 -0.1148  0.2672
  262TMC3     C 4021   1.695   0.209  12.301  0.1099 -0.6731  0.5123
  262TMC3     O 4022   1.580   0.253  12.312 -0.0721  0.3153  0.7204
  262TMC3     H 4023   1.626   0.418  12.181  0.3521  0.5205  0.7128
  262TMC3    H1 4024   1.972   0.173  12.267  2.9322  1.7565 -0.2110
  262TMC3    H2 4025   1.982   0.473  11.956 -0.6881  0.4999 -0.0636
  262TMC3    C7 4026   2.128   0.290  12.107  0.3282  0.3437  0.5640
  262TMC3    C8 4027   1.755   0.561  11.989  0.2511 -0.2821 -0.4071
  262TMC3    O1 4028   2.175   0.187  12.160 -0.3903  0.2798 -0.0457
  262TMC3    O2 4029   1.828   0.636  11.924  0.0448  0.2546  0.2075
  263MPD2     C 4030   2.363   3.761  11.394  0.1847  0.3295  0.0711
  263MPD2    C1 4031   2.477   3.796  11.329  0.0026  0.3077  0.6664
  263MPD2    C2 4032   2.475   3.910  11.245 -0.3925 -0.5559  0.0140
  263MPD2    C3 4033   2.373   4.000  11.241 -0.2161 -1.0121 -0.4139
  263MPD2    C4 4034   2.262   3.963  11.318 -0.1626 -0.3136  0.0133
  263MPD2    C5 4035   2.252   3.843  11.387  0.0432  1.2880 -0.8376
  263MPD2     H 4036   2.562   3.937  11.187 -1.5760  3.0220 -0.0885
  263MPD2    H1 4037   2.183   4.037  11.332 -0.4024 -0.6093  0.2283
  263MPD2    H2 4038   2.364   3.672  11.456 -0.5263 -0.0430 -0.4484
  263MPD2    H3 4039   2.160   3.816  11.436  1.5095  0.7254  1.6149
  263MPD2     N 4040   2.385   4.118  11.167 -0.0341  0.7034 -0.0057
  263MPD2    H5 4041   2.458   4.122  11.096  1.5095  0.4539  1.5792
  263MPD2    N1 4042   2.593   3.726  11.357  0.4374  0.3551  0.0217
  263MPD2    H7 4043   2.582   3.637  11.403  0.0188  0.1768 -0.4151
  264TMC3    C1 4044   2.358   4.329  11.100 -0.4510 -0.2152 -0.4371
  264TMC3    C2 4045   2.417   4.429  11.164  0.1141  0.1871  0.1697
  264TMC3    C3 4046   2.537   4.481  11.109  0.2261 -0.4249 -0.2025
  264TMC3    C4 4047   2.413   4.275  10.987 -0.4969  0.0951  0.8632
  264TMC3    C5 4048   2.518   4.335  10.919 -0.2984  0.2508  0.0473
  264TMC3    C6 4049   2.581   4.438  10.986  0.5154  0.1759  0.0056
  264TMC3     C 4050   2.308   4.227  11.189  0.0141  0.3330  0.2625
  264TMC3     O 4051   2.242   4.261  11.288 -0.2147 -0.1097  0.2693
  264TMC3     H 4052   2.367   4.481  11.245 -0.6508  1.2423 -0.9925
  264TMC3    H1 4053   2.361   4.193  10.939  0.7776 -1.0969  1.5155
  264TMC3    H2 4054   2.658   4.493  10.933 -1.0112  1.6816 -0.6740
  264TMC3    C7 4055   2.588   4.252  10.829  0.5154 -0.2263  0.0229
  264TMC3    C8 4056   2.626   4.571  11.180 -0.1505 -0.1434  0.3935
  264TMC3    O1 4057   2.558   4.133  10.846  0.7988  0.0966  0.4684
  264TMC3    O2 4058   2.715   4.621  11.112  0.1939 -0.5543  0.3061
  265MPD2     C 4059   4.127   4.595  15.508 -0.2177  0.6063 -0.4203
  265MPD2    C1 4060   4.114   4.671  15.393  0.2418  0.9369  0.8404
  265MPD2    C2 4061   4.179   4.634  15.275  0.2018  0.3388  0.2326
  265MPD2    C3 4062   4.256   4.517  15.281 -0.1398 -0.5135 -0.7345
  265MPD2    C4 4063   4.256   4.436  15.390 -0.4328 -0.2524 -0.6176
  265MPD2    C5 4064   4.197   4.479  15.507  0.4836 -0.4964 -0.4471
  265MPD2     H 4065   4.172   4.699  15.189 -0.2250 -1.8882 -1.4364
  265MPD2    H1 4066   4.318   4.348  15.400  1.1118  0.5449 -2.9524
  265MPD2    H2 4067   4.079   4.629  15.599 -2.3869 -2.5062 -0.3968
  265MPD2    H3 4068   4.191   4.418  15.596  0.9696 -0.9144 -0.6992
  265MPD2     N 4069   4.338   4.456  15.179 -0.0900 -0.2290 -0.1065
  265MPD2    H5 4070   4.401   4.380  15.203 -0.2534  0.0864  1.3249
  265MPD2    N1 4071   4.040   0.052  15.395  0.3448  0.4369 -0.2984
  265MPD2    H7 4072   4.065   0.126  15.330  1.0540 -0.7402 -1.3782
  266TMC3    C1 4073   3.920   0.209  15.515  0.1316 -0.6157 -0.5286
  266TMC3    C2 4074   3.843   0.230  15.624  0.6580  0.4754  0.3918
  266TMC3    C3 4075   3.794   0.357  15.644 -0.1153 -0.3890  0.6200
  266TMC3    C4 4076   3.946   0.311  15.424  0.1192  0.1588 -0.3042
  266TMC3    C5 4077   3.883   0.431  15.440 -0.2475 -0.5313  0.2905
  266TMC3    C6 4078   3.797   0.452  15.552  0.0670 -0.0876 -0.3508
  266TMC3     C 4079   3.936   0.071  15.479  0.1597 -0.2556 -0.6555
  266TMC3     O 4080   3.872   4.726  15.538 -0.5253  0.1476 -0.5696
  266TMC3     H 4081   3.832   0.152  15.698 -0.0576  0.7476  0.5652
  266TMC3    H1 4082   4.010   0.305  15.337 -1.1424  1.4227 -1.3120
  266TMC3    H2 4083   3.741   0.545  15.559  0.3450  0.0754 -0.3287
  266TMC3    C7 4084   3.932   0.545  15.372 -0.0579 -0.2130  0.1475
  266TMC3    C8 4085   3.720   0.385  15.759  0.6593  0.5020 -0.0316
  266TMC3    O1 4086   3.970   0.527  15.261 -0.1539 -0.0718 -0.2521
  266TMC3    O2 4087   3.628   0.464  15.740  0.4191 -0.2376  0.6827
  267MPD2     C 4088   1.087   1.443   0.935  0.4518 -0.0098 -0.0769
  267MPD2    C1 4089   1.096   1.309   0.916 -0.4057 -0.1831  0.2899
  267MPD2    C2 4090   1.012   1.254   0.816 -0.2685 -0.0792 -0.2513
  267MPD2    C3 4091   0.922   1.335   0.742  0.3021 -0.2383 -0.1499
  267MPD2    C4 4092   0.926   1.474   0.760  0.3514  0.5896  0.4028
  267MPD2    C5 4093   1.011   1.526   0.856 -0.1294  0.0181 -0.4949
  267MPD2     H 4094   1.010   1.146   0.805 -0.4095 -0.3225  2.1673
  267MPD2    H1 4095   0.852   1.537   0.712 -1.7798 -1.4915  0.9747
  267MPD2    H2 4096   1.140   1.500   1.010 -0.3373 -1.4344  1.5497
  267MPD2    H3 4097   1.004   1.634   0.871  0.8979  0.0341 -0.1203
  267MPD2     N 4098   0.827   1.271   0.661  0.1361  0.6015 -0.4665
  267MPD2    H5 4099   0.837   1.170   0.659 -0.4784  0.5421 -0.4362
  267MPD2    N1 4100   1.186   1.235   0.993  0.1010  0.0759  0.7783
  267MPD2    H7 4101   1.237   1.291   1.061 -1.1660 -0.9543  2.5531
  268TMC3    C1 4102   1.310   1.054   1.065 -0.0768 -0.2403  0.4273
  268TMC3    C2 4103   1.426   1.130   1.056  0.2878 -0.3618  1.1696
  268TMC3    C3 4104   1.538   1.084   1.117 -0.3526  0.3440  0.4789
  268TMC3    C4 4105   1.312   0.924   1.108 -0.2086  0.0326 -0.0674
  268TMC3    C5 4106   1.425   0.877   1.162  0.5048 -0.4576 -0.0639
  268TMC3    C6 4107   1.536   0.956   1.173  0.7103  0.2105 -0.2408
  268TMC3     C 4108   1.190   1.099   0.996 -0.0379 -0.0799  0.2729
  268TMC3     O 4109   1.118   1.014   0.951  0.8957  0.4688  0.2409
  268TMC3     H 4110   1.428   1.234   1.026 -1.2081 -1.1090 -1.5089
  268TMC3    H1 4111   1.231   0.858   1.079 -1.4697  0.7130  1.9579
  268TMC3    H2 4112   1.632   0.917   1.207 -0.5572 -1.7636  1.0466
  268TMC3    C7 4113   1.444   0.742   1.189 -0.0608  0.4250  0.0352
  268TMC3    C8 4114   1.662   1.118   1.058  0.3676  0.3426 -0.4908
  268TMC3    O1 4115   1.488   0.723   1.301  0.1404 -0.7948  0.2731
  268TMC3    O2 4116   1.763   1.079   1.115  0.1011  0.3011 -0.1271
  269MPD2     C 4117   2.799   0.960  15.128 -0.8410 -0.2891  0.3654
  269MPD2    C1 4118   2.696   0.955  15.218  0.2034  0.6563  0.7460
  269MPD2    C2 4119   2.666   1.057  15.301  0.2560 -1.0128 -0.1518
  269MPD2    C3 4120   2.737   1.172  15.291  0.4952 -0.0685  0.6269
  269MPD2    C4 4121   2.851   1.173  15.218 -1.0305 -0.2920  0.2027
  269MPD2    C5 4122   2.886   1.065  15.141 -0.4559 -1.5728 -0.7629
  269MPD2     H 4123   2.581   1.045  15.367  0.9136 -3.6080  0.2146
  269MPD2    H1 4124   2.911   1.264  15.211  1.7753 -2.0653  1.2666
  269MPD2    H2 4125   2.812   0.893  15.044 -1.3404  0.1291 -0.0395
  269MPD2    H3 4126   2.970   1.058  15.074 -1.7893 -1.8721 -2.4105
  269MPD2     N 4127   2.685   1.278  15.368 -0.2330  0.2407  0.4718
  269MPD2    H5 4128   2.593   1.277  15.411 -0.9062 -0.7529 -0.9948
  269MPD2    N1 4129   2.605   0.846  15.204 -0.4386 -0.8128 -0.9037
  269MPD2    H7 4130   2.641   0.774  15.142  0.8872 -0.4479 -0.5542
  270TMC3    C1 4131   2.399   0.721  15.218  0.2934  1.1018  0.4319
  270TMC3    C2 4132   2.267   0.740  15.234 -0.5563  0.5469  1.1605
  270TMC3    C3 4133   2.195   0.645  15.289 -0.4984  0.5374 -0.0188
  270TMC3    C4 4134   2.463   0.608  15.248 -1.2418 -0.0278 -0.4172
  270TMC3    C5 4135   2.386   0.510  15.308 -0.3134 -0.1119 -0.1268
  270TMC3    C6 4136   2.254   0.531  15.341 -0.1733  0.1452  0.3416
  270TMC3     C 4137   2.470   0.847  15.241  0.3590  0.8810  0.5633
  270TMC3     O 4138   2.405   0.943  15.285  0.5768  0.1792  0.4725
  270TMC3     H 4139   2.224   0.835  15.204  1.0838  0.6214 -1.0111
  270TMC3    H1 4140   2.571   0.598  15.239 -1.1467 -0.0679  0.7861
  270TMC3    H2 4141   2.198   0.461  15.402 -0.8920  0.9438  0.6009
  270TMC3    C7 4142   2.435   0.377  15.307  0.7290 -0.4855 -0.1106
  270TMC3    C8 4143   2.049   0.645  15.277 -0.1639  0.1361 -0.3010
  270TMC3    O1 4144   2.544   0.354  15.265  0.5133  0.6352 -0.3821
  270TMC3    O2 4145   1.999   0.759  15.278 -0.3431  0.3741  0.2356
  271MPD2     C 4146   1.765   4.524  13.785  0.1569 -0.1778 -0.1460
  271MPD2    C1 4147   1.704   4.617  13.874 -0.0549  0.0924  0.3959
  271MPD2    C2 4148   1.575   4.664  13.849  0.1142  0.2655 -0.3903
  271MPD2    C3 4149   1.507   4.623  13.733 -0.1848 -0.1391  0.6831
  271MPD2    C4 4150   1.571   4.540  13.645 -0.1991  0.3254  0.0541
  271MPD2    C5 4151   1.692   4.485  13.677  0.2454  0.5677  0.8300
  271MPD2     H 4152   1.533   0.003  13.912 -1.9792 -1.1271 -0.0409
  271MPD2    H1 4153   1.529   4.520  13.546 -0.8126  2.1402 -0.0432
  271MPD2    H2 4154   1.868   4.490  13.796 -0.5679 -2.2508  0.2530
  271MPD2    H3 4155   1.736   4.419  13.603 -1.7776 -1.0751  1.0631
  271MPD2     N 4156   1.379   4.671  13.706  0.0083  0.3758  0.2493
  271MPD2    H5 4157   1.345   4.664  13.611  2.5661  0.1437 -0.6560
  271MPD2    N1 4158   1.771   4.676  13.983  0.1413  0.2113 -0.0273
  271MPD2    H7 4159   1.715   0.005  14.034  1.3414  0.4437  0.9732
  272TMC3    C1 4160   1.929   4.709  14.153 -0.5194 -0.3594  0.1426
  272TMC3    C2 4161   2.054   4.717  14.191 -0.8848  0.0576  0.2826
  272TMC3    C3 4162   2.091   0.028  14.310  0.6835  0.0442 -0.6413
  272TMC3    C4 4163   1.831   0.029  14.231  0.2654  0.1642 -0.0362
  272TMC3    C5 4164   1.866   0.075  14.352 -0.0402  0.0053 -0.9719
  272TMC3    C6 4165   1.999   0.070  14.396 -0.0679 -0.1755 -0.9313
  272TMC3     C 4166   1.902   4.648  14.020  0.7277 -0.7667 -1.2444
  272TMC3     O 4167   1.992   4.594  13.955  0.2570  0.6440 -0.1704
  272TMC3     H 4168   2.132   4.673  14.130 -1.6144 -0.6774 -0.1277
  272TMC3    H1 4169   1.731   0.048  14.193  0.1757 -2.6135 -1.1321
  272TMC3    H2 4170   2.015   0.086  14.502  0.1635  1.5597 -1.2287
  272TMC3    C7 4171   1.762   0.128  14.436 -0.2463  0.3972  0.4066
  272TMC3    C8 4172   2.216   4.701  14.356 -0.6784 -0.3255  0.4784
  272TMC3    O1 4173   1.645   0.098  14.405  0.3168 -0.3747 -0.0334
  272TMC3    O2 4174   2.305   4.676  14.273 -0.3804 -0.1697 -0.0231
  273MPD2     C 4175   2.976   2.826  11.910  0.4844  0.0892  0.2554
  273MPD2    C1 4176   3.100   2.856  11.862 -0.2367 -0.0243 -0.0515
  273MPD2    C2 4177   3.115   2.862  11.725 -0.4530  0.0481 -1.2148
  273MPD2    C3 4178   3.006   2.851  11.637  0.3479  0.7890 -0.0401
  273MPD2    C4 4179   2.884   2.816  11.683  0.1724 -0.7183 -0.5224
  273MPD2    C5 4180   2.869   2.798  11.822  0.5342  0.4300 -0.9856
  273MPD2     H 4181   3.211   2.887  11.681 -0.1355 -1.1525 -1.1903
  273MPD2    H1 4182   2.810   2.785  11.610 -0.6825  0.4157 -0.1324
  273MPD2    H2 4183   2.950   2.819  12.015  0.0990 -0.5507  0.1189
  273MPD2    H3 4184   2.771   2.776  11.862  1.5891  0.8035  1.8599
  273MPD2     N 4185   3.013   2.859  11.498 -0.1344  0.3454  0.8849
  273MPD2    H5 4186   2.942   2.822  11.435 -0.0968  1.8299 -0.0286
  273MPD2    N1 4187   3.206   2.878  11.962 -0.5821  0.1917  0.0749
  273MPD2    H7 4188   3.174   2.869  12.058  0.6280 -0.3391  0.4248
  274TMC3    C1 4189   3.105   2.910  11.277 -0.1775  0.2250 -0.1421
  274TMC3    C2 4190   2.978   2.955  11.239 -0.0604 -0.5511 -0.0234
  274TMC3    C3 4191   2.974   3.026  11.119 -0.5274 -0.0565 -0.0319
  274TMC3    C4 4192   3.216   2.950  11.207 -0.4432  0.2481 -0.2365
  274TMC3    C5 4193   3.204   3.022  11.090  0.8722  0.1671  0.1772
  274TMC3    C6 4194   3.082   3.034  11.032 -1.0145  0.2344  0.5339
  274TMC3     C 4195   3.125   2.888  11.419 -0.9099 -0.0638  0.4490
  274TMC3     O 4196   3.239   2.905  11.467  0.0645 -0.2894  0.5755
  274TMC3     H 4197   2.893   2.909  11.289 -0.8880 -0.8021 -1.6394
  274TMC3    H1 4198   3.312   2.943  11.258 -1.5562 -0.2428  1.7915
  274TMC3    H2 4199   3.079   3.095  10.942  5.2647  2.6638  1.9754
  274TMC3    C7 4200   3.286   3.142  11.074 -0.3594 -0.3891  0.0004
  274TMC3    C8 4201   2.841   3.060  11.070  0.1563 -0.4519  0.3552
  274TMC3    O1 4202   3.232   3.243  11.031  0.0569  0.1198  0.6951
  274TMC3    O2 4203   2.742   3.016  11.129  0.1719  0.3442 -0.9153
  275MPD2     C 4204   2.978   1.577  14.422 -0.1035 -0.2167 -0.3246
  275MPD2    C1 4205   3.008   1.445  14.400  0.2257  0.0226  0.5806
  275MPD2    C2 4206   2.911   1.366  14.343  0.6342  0.1419  0.5577
  275MPD2    C3 4207   2.788   1.422  14.311 -0.0818 -0.5703  0.2556
  275MPD2    C4 4208   2.758   1.558  14.328  0.4038  0.0856  0.3811
  275MPD2    C5 4209   2.853   1.632  14.394 -0.6643 -0.2122  0.0535
  275MPD2     H 4210   2.929   1.259  14.332  0.0727 -0.0503  1.5893
  275MPD2    H1 4211   2.657   1.594  14.310  0.5766 -0.0334 -0.7797
  275MPD2    H2 4212   3.044   1.628  14.491  2.2645 -0.7294 -2.2146
  275MPD2    H3 4213   2.834   1.737  14.410  0.8107  0.5927 -3.4997
  275MPD2     N 4214   2.682   1.348  14.259 -0.3445  0.3674  0.6543
  275MPD2    H5 4215   2.599   1.397  14.228  0.3678  1.8787  1.1311
  275MPD2    N1 4216   3.128   1.383  14.443 -0.0266  0.4390 -0.6910
  275MPD2    H7 4217   3.139   1.288  14.408  1.1737  0.1562  0.4397
  276TMC3    C1 4218   3.348   1.359  14.545  0.4388 -0.0272  0.4141
  276TMC3    C2 4219   3.375   1.251  14.481  0.7689 -0.8767 -0.4034
  276TMC3    C3 4220   3.484   1.179  14.502  0.0683 -0.2926 -0.7348
  276TMC3    C4 4221   3.434   1.404  14.640 -0.0145 -0.2382 -0.4198
  276TMC3    C5 4222   3.544   1.328  14.669  0.2764  0.0240 -0.0784
  276TMC3    C6 4223   3.569   1.213  14.598  1.0039 -0.1206 -0.0858
  276TMC3     C 4224   3.236   1.443  14.505 -0.2195 -0.2151 -0.7216
  276TMC3     O 4225   3.249   1.560  14.545 -0.5117  0.5939 -0.4819
  276TMC3     H 4226   3.316   1.209  14.400 -0.1034  1.6594 -1.0829
  276TMC3    H1 4227   3.420   1.497  14.694 -1.1870 -0.6069 -0.0865
  276TMC3    H2 4228   3.660   1.156  14.609  0.9774 -0.4872 -1.7005
  276TMC3    C7 4229   3.624   1.373  14.786  0.7993 -0.2608 -0.6081
  276TMC3    C8 4230   3.506   1.047  14.434  0.4190  0.0041  0.8642
  276TMC3    O1 4231   3.585   1.466  14.856  0.0320 -0.2035  0.1459
  276TMC3    O2 4232   3.613   0.995  14.433 -0.4300 -0.3384  0.0938
  277MPD2     C 4233   0.151   0.590  12.516 -0.3870 -0.3297  1.0160
  277MPD2    C1 4234   0.055   0.647  12.594  0.0216  0.4115 -0.0311
  277MPD2    C2 4235   4.716   0.567  12.675 -0.5053  1.1161 -0.0311
  277MPD2    C3 4236   4.734   0.424  12.670  0.3004 -0.3738  0.0033
  277MPD2    C4 4237   0.088   0.366  12.585  0.2933  0.3398 -0.1619
  277MPD2    C5 4238   0.161   0.456  12.506  0.3766  0.1837  0.0652
  277MPD2     H 4239   4.635   0.609  12.734  0.3421  0.9217  1.2497
  277MPD2    H1 4240   0.099   0.261  12.560 -2.2498 -0.0109  0.1953
  277MPD2    H2 4241   0.225   0.648  12.462  0.6341 -1.9559  0.6908
  277MPD2    H3 4242   0.241   0.420  12.441 -0.0067 -3.2301  1.4848
  277MPD2     N 4243   4.665   0.342  12.768  0.0775 -0.4781  0.5838
  277MPD2    H5 4244   4.598   0.385  12.830 -0.1150  1.8279 -1.2323
  277MPD2    N1 4245   0.052   0.783  12.588  0.1000 -0.4583  0.3832
  277MPD2    H7 4246   0.100   0.827  12.510  0.5235 -2.3458 -0.4171
  278TMC3    C1 4247   4.605   0.157  12.888 -0.7230  0.0046  0.1563
  278TMC3    C2 4248   4.653   0.060  12.980  0.5103  0.0265  0.9867
  278TMC3    C3 4249   4.568   0.003  13.072 -0.6924 -0.6997 -0.1810
  278TMC3    C4 4250   4.470   0.178  12.885  0.0241  0.0962 -0.2218
  278TMC3    C5 4251   4.391   0.110  12.973  0.0684 -0.0474  1.0140
  278TMC3    C6 4252   4.433   0.035  13.079 -0.3782 -0.1877  0.1591
  278TMC3     C 4253   4.692   0.206  12.788 -0.1911  0.0362 -0.3954
  278TMC3     O 4254   0.051   0.142  12.760  0.2855  0.2201 -1.0288
  278TMC3     H 4255   0.017   0.027  12.981  0.5735  0.2493  1.7579
  278TMC3    H1 4256   4.429   0.238  12.804  1.7085  1.6426  0.0635
  278TMC3    H2 4257   4.365   4.733  13.153 -2.0059  0.8696 -0.7650
  278TMC3    C7 4258   4.253   0.151  12.976  0.9183 -0.2104 -0.1069
  278TMC3    C8 4259   4.635   4.652  13.163 -0.5424  0.0123 -0.2979
  278TMC3    O1 4260   4.230   0.256  12.921  0.3265  0.1514  0.0782
  278TMC3    O2 4261   0.014   4.655  13.185  0.2780 -0.0798 -0.2736
  279MPD2     C 4262   3.717   0.184   0.412  0.2115  1.0150  0.3137
  279MPD2    C1 4263   3.708   0.081   0.318 -0.4597 -0.2159 -0.5254
  279MPD2    C2 4264   3.685   0.120   0.186  0.4277  0.2271  0.2814
  279MPD2    C3 4265   3.658   0.250   0.154 -0.2397 -0.3206  0.6292
  279MPD2    C4 4266   3.670   0.353   0.250 -0.2213 -0.0980  0.6705
  279MPD2    C5 4267   3.697   0.317   0.378  0.3140 -0.4416  0.4255
  279MPD2     H 4268   3.673   0.048   0.106 -0.6678  3.7386 -2.7277
  279MPD2    H1 4269   3.649   0.454   0.218 -0.8306 -0.2721  0.5125
  279MPD2    H2 4270   3.744   0.163   0.515  0.6092  0.9337  0.1902
  279MPD2    H3 4271   3.709   0.391   0.456 -1.0557 -0.0724  0.2926
  279MPD2     N 4272   3.623   0.293   0.023 -0.5950 -0.0570  0.5621
  279MPD2    H5 4273   3.623   0.394   0.013  1.4543 -0.0380  0.7768
  279MPD2    N1 4274   3.717   4.690   0.361  0.1433 -0.4062  0.0851
  279MPD2    H7 4275   3.714   4.677   0.462 -2.5985  0.3252  0.0767
  280TMC3    C1 4276   3.678   4.466   0.344  0.4281 -0.5756  0.2951
  280TMC3    C2 4277   3.756   4.360   0.343  0.2910  0.0040 -0.3129
  280TMC3    C3 4278   3.694   4.237   0.346  0.8150  0.2255 -0.0655
  280TMC3    C4 4279   3.545   4.458   0.363 -0.3635  0.8830 -0.4348
  280TMC3    C5 4280   3.487   4.337   0.387  1.2550 -0.1934 -0.7254
  280TMC3    C6 4281   3.560   4.220   0.388  0.1566  0.0584  0.0027
  280TMC3     C 4282   3.738   4.583   0.285  0.0344  0.2063  0.1983
  280TMC3     O 4283   3.771   4.569   0.166  0.4696 -0.0369  0.2098
  280TMC3     H 4284   3.858   4.388   0.318 -0.3797  3.1305  0.5045
  280TMC3    H1 4285   3.488   4.545   0.333 -4.1989 -1.3399  0.4500
  280TMC3    H2 4286   3.524   4.121   0.411  1.0182  0.0721  1.3808
  280TMC3    C7 4287   3.348   4.330   0.408  0.5309 -0.0326  1.2148
  280TMC3    C8 4288   3.788   4.135   0.364 -0.4433 -0.2024 -0.0631
  280TMC3    O1 4289   3.305   4.229   0.459 -0.6194  0.3449 -0.1306
  280TMC3    O2 4290   3.899   4.169   0.403 -0.7860  0.1874  0.3307
  281TMC3    C1 4291   2.987   4.707  13.690 -0.5648 -0.1137 -0.7039
  281TMC3    C2 4292   3.047   0.044  13.591 -0.2572  0.3645  0.5610
  281TMC3    C3 4293   3.124   4.722  13.493  0.8092 -0.0803  0.0180
  281TMC3    C4 4294   3.011   4.571  13.702 -0.9594 -0.2721  0.9809
  281TMC3    C5 4295   3.099   4.521  13.611 -0.7313 -0.1290  0.4361
  281TMC3    C6 4296   3.160   4.587  13.512 -0.2769 -0.1551 -0.1627
  281TMC3     C 4297   2.871   0.014  13.766  0.2599 -0.3629 -0.7770
  281TMC3     O 4298   2.810   4.664  13.830  0.4432  0.1293  1.1191
  281TMC3     H 4299   3.030   0.151  13.589  0.6182  0.5314  1.9432
  281TMC3    H1 4300   2.967   4.510  13.780 -1.9165 -0.7672  0.0588
  281TMC3    H2 4301   3.220   4.533  13.440 -3.7675 -1.0721 -2.3518
  281TMC3    C7 4302   3.135   4.380  13.631 -0.0088 -0.6693  0.1183
  281TMC3    C8 4303   3.209   0.062  13.405 -0.1182 -0.1875  0.0401
  281TMC3    O1 4304   3.248   4.347  13.600 -0.4044 -0.4258 -0.1365
  281TMC3    O2 4305   3.315   0.012  13.396 -1.0302  0.3049 -0.6318
  282MPD2     C 4306   4.478   1.331  14.986 -0.1568  0.0409  0.7687
  282MPD2    C1 4307   4.457   1.467  14.970  0.0445 -0.2536 -0.2360
  282MPD2    C2 4308   4.439   1.508  14.837 -0.2726  0.5864  0.3201
  282MPD2    C3 4309   4.445   1.421  14.732 -0.6732 -0.4909  0.5028
  282MPD2    C4 4310   4.471   1.290  14.755  0.8250  0.2431 -0.3079
  282MPD2    C5 4311   4.480   1.248  14.882 -0.5054  0.5245  0.2455
  282MPD2     H 4312   4.427   1.615  14.821  0.9911  0.6343 -0.3573
  282MPD2    H1 4313   4.460   1.217  14.675 -0.2815 -0.4406  0.4752
  282MPD2    H2 4314   4.499   1.284  15.082  2.0611 -0.6505 -0.0615
  282MPD2    H3 4315   4.472   1.144  14.912  0.3270  0.0571 -1.1472
  282MPD2     N 4316   4.408   1.467  14.605 -0.1806  0.2226  0.1270
  282MPD2    H5 4317   4.382   1.565  14.607 -0.8760  0.0021  1.7675
  282MPD2    N1 4318   4.450   1.558  15.076  0.0266  0.6259 -0.5334
  282MPD2    H7 4319   4.406   1.645  15.049  1.2855  1.4671  0.1127
  283TMC3    C1 4320   4.432   1.642  15.290 -0.1356 -0.4009 -0.4782
  283TMC3    C2 4321   4.491   1.762  15.262 -0.0223  0.2957  0.5630
  283TMC3    C3 4322   4.490   1.858  15.367 -0.1396 -0.3942  0.1935
  283TMC3    C4 4323   4.397   1.610  15.424  0.3859  0.1775 -0.1077
  283TMC3    C5 4324   4.388   1.713  15.512  0.5257 -0.2136 -0.4624
  283TMC3    C6 4325   4.436   1.837  15.491 -0.0538  0.3500  0.0075
  283TMC3     C 4326   4.482   1.534  15.203  0.5030 -0.2093  0.0371
  283TMC3     O 4327   4.549   1.443  15.255  0.7936  0.2616  0.3245
  283TMC3     H 4328   4.550   1.770  15.172 -0.8555  0.1438 -0.0030
  283TMC3    H1 4329   4.363   1.507  15.434  2.4837 -0.6365 -1.3238
  283TMC3    H2 4330   4.457   1.899  15.578  1.2633  1.0565 -0.8168
  283TMC3    C7 4331   4.290   1.699  15.615  0.1129  0.2766 -0.3833
  283TMC3    C8 4332   4.603   1.940  15.380 -0.1813  0.3064 -0.3835
  283TMC3    O1 4333   4.243   1.802  15.657 -0.3234 -0.4163  0.1503
  283TMC3    O2 4334   4.672   1.918  15.481  0.3307 -0.0615 -0.1309
  284MPD2     C 4335   2.842   0.850  12.385  0.3408  0.0618  0.1808
  284MPD2    C1 4336   2.978   0.831  12.366  0.7123  0.3465  0.1190
  284MPD2    C2 4337   3.031   0.723  12.438 -0.1767 -0.2568  0.8728
  284MPD2    C3 4338   2.948   0.630  12.507  0.2601  0.8862 -0.4444
  284MPD2    C4 4339   2.818   0.655  12.516  0.1023 -0.3638 -0.2402
  284MPD2    C5 4340   2.760   0.765  12.458  0.0156  0.0657  0.0969
  284MPD2     H 4341   3.136   0.699  12.427 -0.4072 -0.7196 -0.2635
  284MPD2    H1 4342   2.754   0.584  12.566  0.8568  0.3399  1.7161
  284MPD2    H2 4343   2.793   0.932  12.334  0.2166 -0.7957 -1.0742
  284MPD2    H3 4344   2.654   0.784  12.452  0.2022  1.2493  0.5435
  284MPD2     N 4345   3.013   0.518  12.564 -0.1113  0.2336  0.4978
  284MPD2    H5 4346   3.114   0.522  12.549 -0.0358 -0.9086  0.7078
  284MPD2    N1 4347   3.054   0.924  12.289 -0.6595  0.2714  0.1760
  284MPD2    H7 4348   3.155   0.913  12.279 -0.4936  0.6789  1.4451
  285TMC3    C1 4349   3.088   1.102  12.121  0.7018 -0.0004  0.3821
  285TMC3    C2 4350   3.155   1.016  12.036  0.0857 -0.4254 -0.3490
  285TMC3    C3 4351   3.221   1.069  11.929  0.1060 -0.0829 -0.3857
  285TMC3    C4 4352   3.088   1.236  12.108  0.0964 -0.3129 -0.6288
  285TMC3    C5 4353   3.163   1.284  11.999 -0.2495  0.1356 -0.1341
  285TMC3    C6 4354   3.223   1.201  11.907  0.4422  0.7959  0.3451
  285TMC3     C 4355   3.004   1.043  12.227 -0.5658  0.3272 -0.1537
  285TMC3     O 4356   2.892   1.096  12.231 -0.0570  0.0689  0.3326
  285TMC3     H 4357   3.128   0.912  12.054  0.3923 -0.5092 -0.3658
  285TMC3    H1 4358   3.025   1.300  12.169 -1.1946 -3.3649  1.2182
  285TMC3    H2 4359   3.272   1.248  11.822 -0.0306 -0.6170 -0.6987
  285TMC3    C7 4360   3.182   1.426  11.976  0.4269 -0.3157  0.8145
  285TMC3    C8 4361   3.257   0.982  11.818  0.5149 -0.1670  0.3580
  285TMC3    O1 4362   3.256   1.461  11.885  0.4779 -0.1857  0.0747
  285TMC3    O2 4363   3.201   0.870  11.821 -0.0103  0.4796  0.2880
  286MPD2     C 4364   2.330   3.900   1.824  0.0467  0.2972  0.3156
  286MPD2    C1 4365   2.333   3.963   1.696  0.3275 -0.2395  0.0020
  286MPD2    C2 4366   2.434   3.939   1.609 -0.6269  0.4920  0.3344
  286MPD2    C3 4367   2.531   3.845   1.634 -0.1719  0.0012 -0.0681
  286MPD2    C4 4368   2.533   3.795   1.765  0.2688 -0.3020 -0.1853
  286MPD2    C5 4369   2.437   3.821   1.852 -0.0330 -0.4765  0.9245
  286MPD2     H 4370   2.438   3.994   1.516  0.5204 -0.3271 -0.1083
  286MPD2    H1 4371   2.597   3.714   1.800  0.7120  0.5175  0.9048
  286MPD2    H2 4372   2.254   3.920   1.899 -2.0386 -1.3604 -1.3469
  286MPD2    H3 4373   2.438   3.775   1.950  3.0370  0.6458  1.4130
  286MPD2     N 4374   2.637   3.804   1.552 -0.0649  0.0250  0.1907
  286MPD2    H5 4375   2.704   3.736   1.587  0.8242  1.1318  0.6571
  286MPD2    N1 4376   2.248   4.069   1.656  0.1975  0.3895  0.6287
  286MPD2    H7 4377   2.260   4.110   1.564 -0.9278 -1.8924 -0.5228
  287TMC3    C1 4378   2.762   3.817   1.346 -0.0570  0.1563 -0.1591
  287TMC3    C2 4379   2.771   3.819   1.216 -0.2925 -0.2080 -0.8313
  287TMC3    C3 4380   2.892   3.812   1.158 -0.1314  0.5317  0.1704
  287TMC3    C4 4381   2.873   3.805   1.431  0.0777 -0.6501  0.6988
  287TMC3    C5 4382   2.990   3.795   1.368  0.2626  0.6625  0.3826
  287TMC3    C6 4383   3.004   3.799   1.235 -0.2491 -0.4558 -0.2447
  287TMC3     C 4384   2.633   3.835   1.417  0.3365 -0.7911  0.0871
  287TMC3     O 4385   2.541   3.879   1.352  0.1941 -0.4223  0.5400
  287TMC3     H 4386   2.678   3.836   1.163 -0.7938 -0.4100 -0.0202
  287TMC3    H1 4387   2.877   3.827   1.537  0.4760  2.1706  0.1069
  287TMC3    H2 4388   3.105   3.778   1.202  0.2126 -2.8165  2.6988
  287TMC3    C7 4389   3.071   3.896   1.422 -0.0264  0.3226  0.9335
  287TMC3    C8 4390   2.888   3.763   1.021  0.4048  0.1026  0.1877
  287TMC3    O1 4391   3.018   3.983   1.488 -0.5299 -0.1043 -0.8669
  287TMC3    O2 4392   2.785   3.704   0.997  0.5279  0.3915 -0.8187
  288TMC3    C1 4393   0.444   4.207  14.704  0.4251 -0.0677 -0.4019
  288TMC3    C2 4394   0.312   4.188  14.670  0.8111  0.1134 -0.1507
  288TMC3    C3 4395   0.275   4.219  14.543  0.5504 -0.2297  0.4795
  288TMC3    C4 4396   0.537   4.265  14.619  0.2807  0.4608  0.1288
  288TMC3    C5 4397   0.489   4.310  14.501 -0.3185 -0.1142  0.3805
  288TMC3    C6 4398   0.361   4.279  14.460 -0.0200 -0.0881 -0.9491
  288TMC3     C 4399   0.493   4.161  14.833  0.2954 -0.6303 -0.1847
  288TMC3     O 4400   0.609   4.187  14.867 -0.1022  0.1661 -0.1936
  288TMC3     H 4401   0.241   4.139  14.737 -1.6515  0.3641 -2.5785
  288TMC3    H1 4402   0.630   4.297  14.665  0.5916 -0.9272  0.4675
  288TMC3    H2 4403   0.331   4.294  14.357 -0.1477  1.7417 -0.6418
  288TMC3    C7 4404   0.589   4.341  14.394 -0.5823 -0.9970  0.0833
  288TMC3    C8 4405   0.131   4.242  14.522  0.1008 -0.1102  0.4638
  288TMC3    O1 4406   0.547   4.308  14.283 -0.2422 -0.0727 -0.7758
  288TMC3    O2 4407   0.094   4.304  14.425 -0.3663  0.3358 -0.2652
  289MPD2     C 4408   0.201   4.025  13.743  0.1199  0.4544  0.2058
  289MPD2    C1 4409   0.128   3.972  13.646 -0.1057  0.7307  0.6756
  289MPD2    C2 4410   0.028   3.878  13.665 -0.2429  0.0664  0.0999
  289MPD2    C3 4411   0.000   3.841  13.799  0.1293  0.4869 -0.4275
  289MPD2    C4 4412   0.082   3.888  13.897  0.0153 -0.5761 -0.3974
  289MPD2    C5 4413   0.185   3.975  13.868 -0.0597 -0.8656 -0.8090
  289MPD2     H 4414   4.712   3.831  13.584  1.0201 -0.9860 -0.1368
  289MPD2    H1 4415   0.066   3.855  13.999  2.0254  1.8545  0.6957
  289MPD2    H2 4416   0.278   4.099  13.724  0.2645  0.3851  0.5249
  289MPD2    H3 4417   0.251   4.019  13.942  1.6098 -0.5587 -2.4714
  289MPD2     N 4418   4.641   3.747  13.834 -0.1578 -0.6885 -0.0440
  289MPD2    H5 4419   4.638   3.735  13.934  0.0572 -0.5156 -0.0184
  289MPD2    N1 4420   0.180   4.009  13.525 -0.2833  0.1254 -0.7568
  289MPD2    H7 4421   0.263   4.067  13.525 -1.2263  1.4618 -0.4710
  290TMC3    C1 4422   4.487   3.560  13.808  0.7970  0.3269 -0.3241
  290TMC3    C2 4423   4.437   3.593  13.932  0.3192 -0.2442  0.8190
  290TMC3    C3 4424   4.363   3.495  13.998 -0.6072 -0.0912  0.1674
  290TMC3    C4 4425   4.481   3.439  13.752  0.1242  0.9132  0.0938
  290TMC3    C5 4426   4.409   3.343  13.825  0.2933 -0.1799 -0.1575
  290TMC3    C6 4427   4.349   3.367  13.946 -0.5766 -0.7170  0.4954
  290TMC3     C 4428   4.579   3.658  13.744 -0.6205 -0.8523 -0.0146
  290TMC3     O 4429   4.583   3.650  13.621 -0.3282 -0.0279 -0.5178
  290TMC3     H 4430   4.467   3.690  13.971  2.6450 -0.3738 -0.5849
  290TMC3    H1 4431   4.526   3.417  13.656  1.9536  0.5271  1.0468
  290TMC3    H2 4432   4.289   3.291  13.994 -0.5125 -0.5344  0.8603
  290TMC3    C7 4433   4.351   3.243  13.743  0.1674 -0.5630  0.5055
  290TMC3    C8 4434   4.328   3.510  14.133 -0.3746 -0.4114  0.4403
  290TMC3    O1 4435   4.348   3.273  13.624  0.9361  0.1385  0.2852
  290TMC3    O2 4436   4.335   3.413  14.206  0.2578 -0.2697  0.3418
  291MPD2     C 4437   3.440   3.539  17.654 -1.1588 -0.0975  0.2521
  291MPD2    C1 4438   3.527   3.431  17.652  0.6701  0.2100 -0.3538
  291MPD2    C2 4439   3.659   3.459  17.655 -0.5131 -0.6762  0.9279
  291MPD2    C3 4440   3.707   3.586  17.678 -0.6635  0.9305  0.5453
  291MPD2    C4 4441   3.620   3.691  17.668 -0.4798  0.1193 -0.1675
  291MPD2    C5 4442   3.489   3.669  17.654  0.4433  0.4421  0.4445
  291MPD2     H 4443   3.722   3.371  17.649 -0.6462 -0.6360 -1.0596
  291MPD2    H1 4444   3.659   3.792  17.677  1.2223 -0.6531  1.1433
  291MPD2    H2 4445   3.332   3.535  17.640 -1.1471  0.6373 -0.0671
  291MPD2    H3 4446   3.414   3.747  17.642 -0.2183 -0.3093 -0.3077
  291MPD2     N 4447   3.845   3.616  17.660  0.4061  0.2732  0.1942
  291MPD2    H5 4448   3.875   3.712  17.673 -0.1840  0.2269  1.9085
  291MPD2    N1 4449   3.486   3.296  17.660  0.0872 -0.2461 -0.1899
  291MPD2    H7 4450   3.556   3.224  17.669  1.0324  0.7539  0.4684
  292TMC3    C1 4451   3.338   3.116  17.690  0.3642  0.0537 -0.3144
  292TMC3    C2 4452   3.396   3.083   0.058  0.5187  0.3980  0.4746
  292TMC3    C3 4453   3.355   2.975   0.127 -0.5354  0.5802  0.0552
  292TMC3    C4 4454   3.240   3.035  17.639 -0.2367  0.0454  0.5264
  292TMC3    C5 4455   3.221   2.915  17.698 -0.3637  0.4799  0.0771
  292TMC3    C6 4456   3.280   2.882   0.066 -0.6950 -0.5739 -0.3639
  292TMC3     C 4457   3.356   3.255  17.644  0.5541 -0.3031 -0.1560
  292TMC3     O 4458   3.258   3.314  17.608  0.6024  0.4480  0.3601
  292TMC3     H 4459   3.461   3.157   0.102  0.2376  0.3779  0.9289
  292TMC3    H1 4460   3.205   3.056  17.539  0.5891 -0.0673  0.2090
  292TMC3    H2 4461   3.268   2.782   0.108 -0.9163  0.1098  1.2209
  292TMC3    C7 4462   3.201   2.799  17.606  0.4217  0.3419  0.2819
  292TMC3    C8 4463   3.356   2.985   0.270  0.4549  0.3181  0.5592
  292TMC3    O1 4464   3.272   2.701  17.619  0.3391 -0.2496  0.2571
  292TMC3    O2 4465   3.427   3.077   0.311  0.2224  0.2447  0.6069
  293MPD2     C 4466   1.037   4.735  12.379 -0.0520 -0.1269  0.3575
  293MPD2    C1 4467   0.938   4.678  12.449 -0.0501  0.2641  0.3515
  293MPD2    C2 4468   0.944   4.662  12.586 -0.2575  0.9723 -0.7275
  293MPD2    C3 4469   1.056   4.705  12.656  0.0173  0.0497 -0.1772
  293MPD2    C4 4470   1.162   0.013  12.583 -0.4508  0.1512 -0.6419
  293MPD2    C5 4471   1.157   0.025  12.442  0.3990  0.5199  0.0134
  293MPD2     H 4472   0.858   4.626  12.641  0.1564 -1.3278 -1.5656
  293MPD2    H1 4473   1.259   0.035  12.625 -0.7018 -0.3371  0.1822
  293MPD2    H2 4474   1.036   0.007  12.271 -1.3246 -1.5530  0.2336
  293MPD2    H3 4475   1.245   0.062  12.391 -0.4531  0.5173 -1.4634
  293MPD2     N 4476   1.057   4.693  12.795 -0.0168  0.0878  0.5648
  293MPD2    H5 4477   0.969   4.673  12.843 -0.1362 -0.0615  0.2815
  293MPD2    N1 4478   0.827   4.636  12.369  0.2135 -0.1978  0.4461
  293MPD2    H7 4479   0.841   4.637  12.268  2.1275  1.8544  0.7307
  294TMC3    C1 4480   0.616   4.556  12.298  0.1665 -0.0307 -0.3071
  294TMC3    C2 4481   0.523   4.459  12.308 -0.5234  0.5315  0.2401
  294TMC3    C3 4482   0.423   4.457  12.217  0.1448  0.1948 -0.7235
  294TMC3    C4 4483   0.606   4.653  12.203 -0.9717 -0.1024 -0.3892
  294TMC3    C5 4484   0.500   4.650  12.118  0.0942  0.5163 -0.5307
  294TMC3    C6 4485   0.407   4.552  12.116  0.3422 -0.6504 -0.1946
  294TMC3     C 4486   0.711   4.571  12.409 -0.0423  0.3975  1.0594
  294TMC3     O 4487   0.670   4.539  12.522 -0.2689  0.1510  0.3358
  294TMC3     H 4488   0.551   4.387  12.384  1.7415  0.3407 -0.7942
  294TMC3    H1 4489   0.678   4.733  12.199 -0.9983 -0.0704 -0.2216
  294TMC3    H2 4490   0.329   4.545  12.041  0.1587 -2.2960  0.1558
  294TMC3    C7 4491   0.501   4.729  12.004 -0.0885 -0.2607  0.5189
  294TMC3    C8 4492   0.349   4.333  12.209 -0.2446 -0.1241  0.0794
  294TMC3    O1 4493   0.401   0.035  11.948  0.2479  0.5873  0.5645
  294TMC3    O2 4494   0.227   4.325  12.211  0.1461  0.4273  0.0128
  295MPD2     C 4495   1.659   3.120   0.487  0.5269 -0.0877  0.0430
  295MPD2    C1 4496   1.560   3.210   0.500  0.2010 -0.7041  0.0123
  295MPD2    C2 4497   1.519   3.241   0.628  0.0109 -0.0728  0.2621
  295MPD2    C3 4498   1.578   3.182   0.745 -0.4701  0.5269 -0.5923
  295MPD2    C4 4499   1.676   3.091   0.726 -0.3615  0.4544  0.0427
  295MPD2    C5 4500   1.720   3.066   0.598 -0.0999  0.2138  0.3736
  295MPD2     H 4501   1.441   3.317   0.636  0.0031 -0.0527 -0.0105
  295MPD2    H1 4502   1.714   3.036   0.811 -0.6986 -0.9486 -0.7107
  295MPD2    H2 4503   1.701   3.098   0.390 -1.3666 -1.3790 -0.4948
  295MPD2    H3 4504   1.799   2.994   0.579  1.4381  2.0520 -0.1665
  295MPD2     N 4505   1.524   3.202   0.873 -0.4065 -0.3695  0.1579
  295MPD2    H5 4506   1.565   3.156   0.954 -0.6390  2.8049  2.0819
  295MPD2    N1 4507   1.509   3.284   0.394 -0.3900 -0.2727 -0.7609
  295MPD2    H7 4508   1.463   3.370   0.420  1.5678  0.5031  0.1010
  296TMC3    C1 4509   1.387   3.297   1.046  0.4960  0.6059 -0.2042
  296TMC3    C2 4510   1.316   3.409   1.091 -0.1132  0.3551  0.3998
  296TMC3    C3 4511   1.254   3.401   1.210 -0.0818  0.0631 -0.5048
  296TMC3    C4 4512   1.382   3.178   1.117 -0.3915  0.4835  1.2642
  296TMC3    C5 4513   1.309   3.176   1.235 -0.6059 -0.6088 -0.3556
  296TMC3    C6 4514   1.247   3.287   1.286 -0.2201  0.2482 -0.5425
  296TMC3     C 4515   1.425   3.295   0.906  0.3541 -0.4326 -0.5153
  296TMC3     O 4516   1.386   3.389   0.836 -0.1148 -0.6721  0.0588
  296TMC3     H 4517   1.327   3.505   1.041  2.0905  1.0770  2.3305
  296TMC3    H1 4518   1.428   3.086   1.082 -1.1491  0.4382  0.3731
  296TMC3    H2 4519   1.189   3.282   1.377 -0.3173 -0.6911 -0.6570
  296TMC3    C7 4520   1.265   3.050   1.278  0.8249 -0.3915  0.3745
  296TMC3    C8 4521   1.184   3.520   1.256 -0.2255 -0.2134 -0.1187
  296TMC3    O1 4522   1.335   2.953   1.256  0.4265  0.8628 -0.5797
  296TMC3    O2 4523   1.163   3.538   1.376 -0.4750 -0.2836 -0.4555
  297MPD2     C 4524   3.306   0.558  16.566 -0.4412  0.7431 -0.0943
  297MPD2    C1 4525   3.272   0.591  16.435  0.0837 -0.0009  0.9042
  297MPD2    C2 4526   3.352   0.677  16.359  0.3681  0.5307 -0.0594
  297MPD2    C3 4527   3.458   0.743  16.421  0.4393  0.2836  0.3127
  297MPD2    C4 4528   3.484   0.715  16.554  0.4495  0.1695 -0.3216
  297MPD2    C5 4529   3.404   0.631  16.626  0.3663 -0.5188  0.1987
  297MPD2     H 4530   3.321   0.708  16.260  1.8705 -1.2223 -1.0600
  297MPD2    H1 4531   3.578   0.741  16.602 -0.2746 -0.0266  1.1985
  297MPD2    H2 4532   3.249   0.489  16.628  3.2958 -3.7384 -1.6381
  297MPD2    H3 4533   3.427   0.618  16.731 -2.1479 -1.7421  0.5886
  297MPD2     N 4534   3.540   0.833  16.349 -0.3629  0.3605 -0.1584
  297MPD2    H5 4535   3.515   0.844  16.252 -0.8949  2.8296  0.2700
  297MPD2    N1 4536   3.154   0.542  16.373 -0.4558  0.3121  0.3824
  297MPD2    H7 4537   3.125   0.583  16.285  1.3021 -0.5002 -0.5658
  298TMC3    C1 4538   2.950   0.434  16.359  0.7078 -0.8291 -0.3939
  298TMC3    C2 4539   2.938   0.469  16.229 -0.5195 -0.0192  0.1947
  298TMC3    C3 4540   2.808   0.471  16.177 -0.1568  0.1258 -0.3537
  298TMC3    C4 4541   2.848   0.404  16.440  0.6793 -0.4177  0.2324
  298TMC3    C5 4542   2.721   0.437  16.404  0.2128  0.5082  0.8457
  298TMC3    C6 4543   2.697   0.462  16.267 -0.2859  0.8331 -0.0594
  298TMC3     C 4544   3.074   0.446  16.427  0.2569  0.4356  0.5083
  298TMC3     O 4545   3.084   0.370  16.527  0.2151 -0.2549 -0.2488
  298TMC3     H 4546   3.027   0.472  16.167 -0.8627  2.1704 -0.1638
  298TMC3    H1 4547   2.868   0.379  16.544 -0.8804 -1.7019  0.2128
  298TMC3    H2 4548   2.597   0.444  16.231 -0.3035  1.4206 -0.3044
  298TMC3    C7 4549   2.636   0.513  16.498  0.8758 -0.1332  0.3718
  298TMC3    C8 4550   2.768   0.544  16.059  0.2810  0.5421 -0.4412
  298TMC3    O1 4551   2.660   0.490  16.619 -0.0569 -0.0666  0.9915
  298TMC3    O2 4552   2.646   0.546  16.045  0.1008  0.1683 -0.3607
  299MPD2     C 4553   4.200   0.893  10.311  1.0554 -0.1840  0.0335
  299MPD2    C1 4554   4.159   0.805  10.405  0.2874 -0.3393 -0.7508
  299MPD2    C2 4555   4.037   0.751  10.387  0.6624 -0.6370 -0.2503
  299MPD2    C3 4556   3.952   0.793  10.292  0.4454 -0.3417 -0.1695
  299MPD2    C4 4557   3.984   0.903  10.217  0.5775  0.9151 -0.1751
  299MPD2    C5 4558   4.110   0.953  10.226 -0.2565  0.0829  0.1560
  299MPD2     H 4559   3.999   0.675  10.455  1.6235  0.6894  1.7892
  299MPD2    H1 4560   3.913   0.952  10.151 -1.9653 -0.8159  1.2708
  299MPD2    H2 4561   4.304   0.917  10.297  0.9796  0.7491  0.9998
  299MPD2    H3 4562   4.142   1.039  10.168  2.0170 -0.5135  0.5435
  299MPD2     N 4563   3.830   0.727  10.265 -0.5259  0.2357  0.2655
  299MPD2    H5 4564   3.766   0.779  10.204 -0.7212 -1.8909 -1.3442
  299MPD2    N1 4565   4.264   0.753  10.490 -0.4908  0.0694 -0.2314
  299MPD2    H7 4566   4.356   0.791  10.472 -0.2195 -1.2004 -1.4552
  300TMC3    C1 4567   3.643   0.583  10.254  0.7498 -0.1933 -0.2043
  300TMC3    C2 4568   3.603   0.654  10.140  0.1458 -0.0346 -0.2347
  300TMC3    C3 4569   3.472   0.647  10.101 -0.0170 -0.4116 -1.1863
  300TMC3    C4 4570   3.566   0.492  10.320  0.6787 -0.1292  0.0665
  300TMC3    C5 4571   3.436   0.482  10.271  0.0242 -0.3358  0.3959
  300TMC3    C6 4572   3.398   0.551  10.162  0.2469 -0.1901  0.1318
  300TMC3     C 4573   3.772   0.614  10.316  0.0198 -0.1771  0.2786
  300TMC3     O 4574   3.829   0.531  10.383 -0.8347 -0.4548 -0.8161
  300TMC3     H 4575   3.674   0.723  10.094  1.5241 -1.0999  0.2931
  300TMC3    H1 4576   3.602   0.454  10.415  3.5608  0.3697 -0.8009
  300TMC3    H2 4577   3.295   0.539  10.132  0.0970 -0.5665  0.8176
  300TMC3    C7 4578   3.330   0.400  10.325  0.0182  0.2654  0.7507
  300TMC3    C8 4579   3.419   0.784  10.115 -0.6651  0.4687 -0.6665
  300TMC3    O1 4580   3.255   0.349  10.242 -0.1911 -0.6015  0.5038
  300TMC3    O2 4581   3.495   0.878  10.106 -0.2228  0.3078  0.5011
  301MPD2     C 4582   0.487   1.950   1.646  0.2365 -0.7061  0.0316
  301MPD2    C1 4583   0.394   1.938   1.548  0.0023 -0.5450 -0.0767
  301MPD2    C2 4584   0.342   1.811   1.529 -0.1309 -0.1835  0.0740
  301MPD2    C3 4585   0.363   1.708   1.613 -0.1814 -0.2821  0.3048
  301MPD2    C4 4586   0.462   1.721   1.710 -0.1962 -0.2296 -0.3828
  301MPD2    C5 4587   0.531   1.841   1.719  0.1111  0.2835 -0.3246
  301MPD2     H 4588   0.261   1.812   1.457 -0.6143 -3.3162  0.5805
  301MPD2    H1 4589   0.485   1.644   1.783 -0.2431  0.0755 -0.0504
  301MPD2    H2 4590   0.530   2.046   1.672 -0.3476 -0.4494  0.0487
  301MPD2    H3 4591   0.611   1.872   1.785 -0.8958  2.7181 -0.2476
  301MPD2     N 4592   0.286   1.586   1.608 -0.5070 -0.2346  0.0300
  301MPD2    H5 4593   0.310   1.510   1.670 -2.5551 -0.1073  0.9572
  301MPD2    N1 4594   0.338   2.043   1.477 -0.8473  0.3694  0.5826
  301MPD2    H7 4595   0.256   2.025   1.419  0.2107  0.1881 -0.8539
  302TMC3    C1 4596   0.106   1.436   1.543 -0.5168  0.8121 -0.5258
  302TMC3    C2 4597   0.191   1.329   1.549  0.1316 -0.1094  0.1720
  302TMC3    C3 4598   0.138   1.206   1.533  0.4020 -0.3898 -0.2857
  302TMC3    C4 4599   4.714   1.423   1.504  0.0677  0.0366  0.1441
  302TMC3    C5 4600   4.669   1.299   1.486  0.6344  0.0946  0.0823
  302TMC3    C6 4601   0.006   1.189   1.499 -0.2912 -0.9082 -0.4599
  302TMC3     C 4602   0.170   1.569   1.537  0.9999  0.3674  0.5330
  302TMC3     O 4603   0.101   1.651   1.471 -0.4793  0.3490  0.0178
  302TMC3     H 4604   0.295   1.352   1.571  0.0449  1.8811 -1.5569
  302TMC3    H1 4605   4.650   1.509   1.489  0.2820  0.4714  1.7357
  302TMC3    H2 4606   4.689   1.100   1.472 -0.0083 -1.4066  0.5932
  302TMC3    C7 4607   4.540   1.280   1.417 -0.0398  0.4054 -0.6434
  302TMC3    C8 4608   0.229   1.099   1.512  0.5002  0.5514 -0.1306
  302TMC3    O1 4609   4.485   1.177   1.455 -0.1667 -0.0251 -0.8531
  302TMC3    O2 4610   0.350   1.123   1.517 -0.2436  0.3329 -0.3325
  303MPD2     C 4611   2.076   0.198  10.954  0.6858  0.2938  0.1479
  303MPD2    C1 4612   1.973   0.134  10.897  0.4469  0.4474  0.2369
  303MPD2    C2 4613   1.936   0.169  10.767 -0.1924 -0.3301 -0.2294
  303MPD2    C3 4614   2.015   0.253  10.688  0.1707  0.9469  0.0220
  303MPD2    C4 4615   2.136   0.300  10.749  0.7227  0.1027 -0.7518
  303MPD2    C5 4616   2.161   0.278  10.882 -0.5434  0.5001  0.0539
  303MPD2     H 4617   1.840   0.134  10.731  0.2479 -1.9875  0.1843
  303MPD2    H1 4618   2.204   0.361  10.691  0.7611 -0.1814 -1.0053
  303MPD2    H2 4619   2.101   0.180  11.059 -2.2911  0.3507  0.8517
  303MPD2    H3 4620   2.247   0.305  10.943 -0.2524 -1.0120  0.3023
  303MPD2     N 4621   1.995   0.266  10.550 -0.0324 -0.1535  0.2649
  303MPD2    H5 4622   2.055   0.331  10.500  0.9303 -1.0807  0.2185
  303MPD2    N1 4623   1.905   0.040  10.972  0.1674 -0.1910 -0.2722
  303MPD2    H7 4624   1.925   0.024  11.070  0.7399 -1.2842 -0.5696
  304TMC3    C1 4625   1.780   4.594  11.016 -0.5488 -0.5089 -0.0254
  304TMC3    C2 4626   1.738   4.657  11.128  0.4715 -0.3013 -0.0180
  304TMC3    C3 4627   1.669   4.579  11.215  0.9562 -0.5520 -0.4462
  304TMC3    C4 4628   1.770   4.464  10.985  0.0681 -0.9251  0.4955
  304TMC3    C5 4629   1.733   4.389  11.089  0.4145 -0.3177  0.3553
  304TMC3    C6 4630   1.670   4.441  11.202  0.5170  0.5547  0.5188
  304TMC3     C 4631   1.838   4.675  10.915 -0.3117 -0.1190 -0.0813
  304TMC3     O 4632   1.845   4.634  10.800 -0.3609 -0.1388 -0.6902
  304TMC3     H 4633   1.749   0.025  11.143 -0.2445 -0.1107 -0.8875
  304TMC3    H1 4634   1.811   4.413  10.899  0.3777 -0.4138  0.3394
  304TMC3    H2 4635   1.617   4.385  11.278  1.4434  1.5316  1.8811
  304TMC3    C7 4636   1.687   4.257  11.048  0.1632 -0.0931  0.0951
  304TMC3    C8 4637   1.610   4.652  11.324 -0.0872 -0.7082 -0.6848
  304TMC3    O1 4638   1.667   4.236  10.927  0.0830  0.0339  0.7295
  304TMC3    O2 4639   1.691   4.731  11.374 -0.4659 -0.2828  0.1520
  305MPD2     C 4640   4.355   2.186  13.860  0.5587  0.0062  0.0144
  305MPD2    C1 4641   4.345   2.082  13.947 -0.0998 -0.0104  0.2217
  305MPD2    C2 4642   4.304   1.955  13.901  0.4957  0.9516 -0.2317
  305MPD2    C3 4643   4.256   1.946  13.767 -0.1907  0.3802 -0.7310
  305MPD2    C4 4644   4.251   2.056  13.687 -1.3028 -0.0426  0.0345
  305MPD2    C5 4645   4.309   2.167  13.731  0.4456  0.0623  0.0308
  305MPD2     H 4646   4.301   1.872  13.971  3.0989  0.3870 -0.7786
  305MPD2    H1 4647   4.212   2.053  13.586  0.3599  0.8555 -0.6237
  305MPD2    H2 4648   4.395   2.284  13.884  1.7175 -0.6399  0.7617
  305MPD2    H3 4649   4.299   2.258  13.672  1.6571  1.5244  2.0835
  305MPD2     N 4650   4.229   1.825  13.706 -0.8001 -0.2521  0.3704
  305MPD2    H5 4651   4.217   1.829  13.605  2.7487  0.5996 -0.0239
  305MPD2    N1 4652   4.396   2.103  14.079 -0.2640  0.1089  0.1599
  305MPD2    H7 4653   4.431   2.197  14.099  1.9195 -0.6387 -0.2010
  306TMC3    C1 4654   4.465   2.046  14.312 -0.4867 -0.4652  0.8303
  306TMC3    C2 4655   4.461   1.953  14.409  0.6797  0.1868 -1.0538
  306TMC3    C3 4656   4.545   1.975  14.518 -0.5384 -0.1278 -0.2931
  306TMC3    C4 4657   4.535   2.161  14.322  0.4813  0.3033 -0.2740
  306TMC3    C5 4658   4.613   2.181  14.429  0.9352  0.2529 -0.6322
  306TMC3    C6 4659   4.628   2.089  14.529  0.8353  0.0322  0.1558
  306TMC3     C 4660   4.391   2.015  14.186  0.9559  0.3952  0.0619
  306TMC3     O 4661   4.328   1.909  14.192 -0.7654 -0.3999 -0.9291
  306TMC3     H 4662   4.395   1.869  14.399  0.6855 -0.1464  1.6642
  306TMC3    H1 4663   4.550   2.219  14.232  1.3409 -0.1599 -0.4291
  306TMC3    H2 4664   4.704   2.104  14.605  1.1989 -1.0897  0.0108
  306TMC3    C7 4665   4.679   2.314  14.433 -0.6054 -0.1844  0.6596
  306TMC3    C8 4666   4.587   1.855  14.585 -0.0546 -0.0024 -0.1265
  306TMC3    O1 4667   4.628   2.400  14.363 -0.1297  0.7567 -0.7746
  306TMC3    O2 4668   4.559   1.751  14.531 -0.1606  0.3560 -0.9171
  307MPD2     C 4669   2.448   4.631   0.325  1.2497  0.0142  0.5914
  307MPD2    C1 4670   2.353   4.730   0.342 -0.1312  0.1075  0.2908
  307MPD2    C2 4671   2.233   4.700   0.403 -0.1003 -0.6361  0.1415
  307MPD2    C3 4672   2.204   4.572   0.443 -0.1038 -0.2499  0.8231
  307MPD2    C4 4673   2.299   4.473   0.415  0.1349 -0.7418 -0.1680
  307MPD2    C5 4674   2.420   4.502   0.349 -0.0523  0.2786  0.3414
  307MPD2     H 4675   2.162   0.043   0.405 -0.0270 -0.5826  0.4900
  307MPD2    H1 4676   2.277   4.367   0.425 -1.4759 -0.6099 -2.0986
  307MPD2    H2 4677   2.538   4.658   0.272  1.2219  1.1294  1.0969
  307MPD2    H3 4678   2.479   4.419   0.313  2.7423  2.8085 -0.9105
  307MPD2     N 4679   2.090   4.552   0.519 -0.2505 -0.0945  0.0380
  307MPD2    H5 4680   2.052   4.637   0.560  0.0660  1.1719 -2.2664
  307MPD2    N1 4681   2.372   0.125   0.290 -0.5527  0.2241 -0.2391
  307MPD2    H7 4682   2.287   0.179   0.288 -1.1636 -0.7065  1.0002
  308TMC3    C1 4683   1.691   4.452   0.599 -0.3591  0.1936  0.0525
  308TMC3    C2 4684   1.689   4.538   0.707  0.7110 -0.4104  0.0061
  308TMC3    C3 4685   1.810   4.568   0.764  0.5422  0.0110  0.2048
  308TMC3    C4 4686   1.807   4.392   0.551  0.4584  0.2654 -0.1058
  308TMC3    C5 4687   1.919   4.419   0.626  0.1764 -0.1780  0.3273
  308TMC3    C6 4688   1.925   4.504   0.731  0.3247  0.2497  0.4646
  308TMC3     C 4689   1.568   4.410   0.540  0.5150  1.0152  0.2571
  308TMC3     O 4690   1.565   4.298   0.493  0.7747  0.9078 -0.0393
  308TMC3     H 4691   1.601   4.583   0.751 -0.9856 -2.5866 -1.1575
  308TMC3    H1 4692   1.812   4.328   0.464  0.4191  0.6327 -0.3783
  308TMC3    H2 4693   2.025   4.516   0.770  0.8936  0.6286 -1.1278
  308TMC3    C7 4694   2.035   4.425   0.537 -0.1361 -0.0722  0.2606
  308TMC3    C8 4695   1.824   4.689   0.845 -0.7365 -0.8223 -0.4211
  308TMC3    O1 4696   2.055   4.325   0.471  0.2755  0.1398 -0.0180
  308TMC3    O2 4697   1.922   4.692   0.919  0.1428 -0.5580 -0.3436
  309MPD2     C 4698   1.225   0.417  17.456  0.2471 -0.0631  0.3483
  309MPD2    C1 4699   1.173   0.411  17.328 -0.3254 -0.2693 -0.3260
  309MPD2    C2 4700   1.030   0.405  17.313  0.6384 -0.5593  0.7855
  309MPD2    C3 4701   0.944   0.427  17.421  0.1596 -0.8221  0.2170
  309MPD2    C4 4702   1.002   0.439  17.546  0.1363  0.4237  0.5261
  309MPD2    C5 4703   1.138   0.427  17.561  0.5199  0.3185 -0.4158
  309MPD2     H 4704   0.980   0.401  17.217  0.6955 -1.1627  0.7796
  309MPD2    H1 4705   0.940   0.467  17.630  1.1789 -0.1053  1.4699
  309MPD2    H2 4706   1.328   0.408  17.488  0.7628  3.2473 -0.3471
  309MPD2    H3 4707   1.185   0.441  17.657 -1.7165 -0.1339  0.7392
  309MPD2     N 4708   0.799   0.435  17.413 -0.3073  0.1364 -0.3883
  309MPD2    H5 4709   0.749   0.447  17.501 -0.0874  2.1889 -0.5579
  309MPD2    N1 4710   1.252   0.387  17.218  0.3815  0.2546  1.2143
  309MPD2    H7 4711   1.198   0.387  17.132  1.2440  1.6749  0.6930
  310TMC3    C1 4712   1.450   0.368  17.089  0.1760  0.0076 -0.0781
  310TMC3    C2 4713   1.383   0.395  16.975  0.4846 -0.8512 -0.5046
  310TMC3    C3 4714   1.450   0.401  16.856 -0.6489 -0.2027  0.4634
  310TMC3    C4 4715   1.586   0.352  17.088  0.5905  0.9076 -0.0699
  310TMC3    C5 4716   1.649   0.364  16.967 -0.1314 -0.6927  0.0977
  310TMC3    C6 4717   1.584   0.378  16.845 -0.2959  0.1579 -0.3055
  310TMC3     C 4718   1.392   0.368  17.221 -0.1959 -0.4349  0.1519
  310TMC3     O 4719   1.462   0.348  17.323 -0.1524 -0.7020  0.3616
  310TMC3     H 4720   1.277   0.418  16.971  0.5897 -0.1505  0.8067
  310TMC3    H1 4721   1.629   0.303  17.174  0.2688 -0.0855 -0.4735
  310TMC3    H2 4722   1.640   0.402  16.756 -1.1209  0.0828 -0.8538
  310TMC3    C7 4723   1.773   0.293  16.959  0.1266  0.2881  0.0590
  310TMC3    C8 4724   1.375   0.401  16.735 -0.0027  0.5954  0.6691
  310TMC3    O1 4725   1.793   0.236  16.850 -0.4290  0.3502 -0.0745
  310TMC3    O2 4726   1.255   0.380  16.735  0.1971 -0.2040  0.3516
  311MPD2     C 4727   3.520   1.603  12.304 -0.0277 -0.5792 -0.2777
  311MPD2    C1 4728   3.558   1.650  12.435  0.7289  0.3641 -0.0037
  311MPD2    C2 4729   3.462   1.681  12.529  0.6935 -0.5932  0.0743
  311MPD2    C3 4730   3.327   1.659  12.498 -0.2010  0.1754  0.5729
  311MPD2    C4 4731   3.294   1.625  12.369  0.8171  0.7529 -0.1746
  311MPD2    C5 4732   3.385   1.594  12.277 -0.6026 -0.8375 -0.3094
  311MPD2     H 4733   3.479   1.737  12.619  0.4844  0.3927 -0.4987
  311MPD2    H1 4734   3.192   1.606  12.338  1.2771  0.9911 -1.8231
  311MPD2    H2 4735   3.594   1.586  12.226  2.6119 -1.0780  2.3416
  311MPD2    H3 4736   3.351   1.551  12.183 -1.9199 -0.3164 -0.0622
  311MPD2     N 4737   3.228   1.686  12.594  0.1869  0.0625 -0.3876
  311MPD2    H5 4738   3.260   1.708  12.687 -0.8026 -2.9366  0.6477
  311MPD2    N1 4739   3.696   1.680  12.462  0.0557 -0.2242 -0.2743
  311MPD2    H7 4740   3.712   1.695  12.562 -0.9251  0.0106 -0.1534
  312TMC3    C1 4741   3.010   1.680  12.683  0.3380 -0.1966 -0.3312
  312TMC3    C2 4742   2.897   1.608  12.668 -0.0089  0.8332 -0.3686
  312TMC3    C3 4743   2.816   1.586  12.773 -0.6028 -0.8348  0.0033
  312TMC3    C4 4744   3.065   1.706  12.808 -1.1170 -0.2802  0.5393
  312TMC3    C5 4745   2.975   1.691  12.912 -0.2317  0.4679  0.6088
  312TMC3    C6 4746   2.854   1.622  12.899  0.1546 -0.3142  0.3137
  312TMC3     C 4747   3.092   1.689  12.566 -0.3005 -0.1679 -0.5387
  312TMC3     O 4748   3.036   1.684  12.460 -0.0161  0.2301 -0.2065
  312TMC3     H 4749   2.875   1.582  12.565  0.7669  0.7434 -0.5150
  312TMC3    H1 4750   3.151   1.768  12.829  0.0527 -1.2416 -1.5024
  312TMC3    H2 4751   2.786   1.610  12.983 -1.1090  0.8856 -0.5382
  312TMC3    C7 4752   3.023   1.702  13.045 -0.0810  0.0965  0.0272
  312TMC3    C8 4753   2.685   1.526  12.752 -0.1456  0.0496  0.2279
  312TMC3    O1 4754   2.968   1.635  13.132  0.0263 -0.0069 -0.0896
  312TMC3    O2 4755   2.648   1.504  12.640 -0.3191 -1.1365  0.5770
  313MPD2     C 4756   2.872   1.103  11.878  0.6680  0.6958 -0.2613
  313MPD2    C1 4757   2.921   1.132  11.753 -0.4340  0.9501  0.2327
  313MPD2    C2 4758   2.933   1.028  11.660 -0.3108  0.0537 -0.1581
  313MPD2    C3 4759   2.893   0.902  11.692 -0.4523 -0.2920  0.1519
  313MPD2    C4 4760   2.852   0.880  11.821 -0.8761  0.4604 -0.6018
  313MPD2    C5 4761   2.839   0.981  11.915 -0.3175 -0.3269  0.0855
  313MPD2     H 4762   2.967   1.049  11.559 -5.3026 -0.2662 -1.8712
  313MPD2    H1 4763   2.809   0.785  11.850  1.2953 -0.6198 -0.9070
  313MPD2    H2 4764   2.863   1.179  11.954 -0.9627 -0.1331  0.3839
  313MPD2    H3 4765   2.796   0.974  12.014  0.9589 -1.3165  0.5775
  313MPD2     N 4766   2.896   0.801  11.593  0.5044 -0.1980 -0.0110
  313MPD2    H5 4767   2.950   0.813  11.508  0.7493 -1.8207 -0.0892
  313MPD2    N1 4768   2.959   1.262  11.708 -0.1930 -0.1625  0.1208
  313MPD2    H7 4769   3.008   1.266  11.618 -0.7523 -0.2850 -0.1867
  314TMC3    C1 4770   2.933   1.489  11.677 -0.0239  0.1694 -0.2728
  314TMC3    C2 4771   3.055   1.516  11.634  0.7799  0.1911 -0.5396
  314TMC3    C3 4772   3.077   1.596  11.527  0.1281  0.4022  0.2104
  314TMC3    C4 4773   2.824   1.539  11.615  0.0861 -0.1079  0.3183
  314TMC3    C5 4774   2.848   1.611  11.499 -0.5344 -0.5183  0.6674
  314TMC3    C6 4775   2.978   1.648  11.449  0.5890 -0.0061  0.1938
  314TMC3     C 4776   2.915   1.380  11.763 -0.7729 -0.5098 -0.4436
  314TMC3     O 4777   2.834   1.408  11.850 -0.0096 -0.3583  0.3347
  314TMC3     H 4778   3.129   1.469  11.697  1.4483  0.8415 -0.8407
  314TMC3    H1 4779   2.731   1.487  11.632  0.6047 -0.7433  1.2303
  314TMC3    H2 4780   2.994   1.713  11.364  0.2900  1.3483  1.1942
  314TMC3    C7 4781   2.749   1.572  11.392 -0.3634  0.7442  0.7202
  314TMC3    C8 4782   3.209   1.637  11.471 -0.7102  0.6181 -0.1907
  314TMC3    O1 4783   2.634   1.562  11.424 -0.3424 -0.0624  0.3712
  314TMC3    O2 4784   3.215   1.700  11.367  0.1244 -0.2446 -0.1444
  315MPD2     C 4785   2.238   4.445   0.012  0.0587 -0.2302  0.3119
  315MPD2    C1 4786   2.353   4.394  17.711 -0.2079 -0.3002 -0.2854
  315MPD2    C2 4787   2.459   4.479  17.669 -0.2051 -0.1454 -0.0820
  315MPD2    C3 4788   2.441   4.619  17.678 -0.1612  0.4154  1.1664
  315MPD2    C4 4789   2.323   4.672  17.737 -0.3396 -0.0112 -0.4179
  315MPD2    C5 4790   2.230   4.580   0.032 -0.0553 -0.3397  0.2319
  315MPD2     H 4791   2.551   4.443  17.623 -0.2497  0.8607 -0.9477
  315MPD2    H1 4792   2.309   0.035   0.018  0.4176 -0.1659  0.3650
  315MPD2    H2 4793   2.164   4.389   0.067 -0.0886  1.5659  1.9334
  315MPD2    H3 4794   2.140   4.620   0.078  0.6533  0.1479  1.2030
  315MPD2     N 4795   2.544   4.706  17.640  0.1611  0.2092  0.3587
  315MPD2    H5 4796   2.628   4.663  17.602 -1.0691 -3.0985  1.4043
  315MPD2    N1 4797   2.389   4.253  17.725 -0.0858 -0.0776 -0.0352
  315MPD2    H7 4798   2.487   4.234  17.708 -0.0583  0.8209 -0.9093
  316TMC3    C1 4799   2.682   0.154  17.688 -0.8390  0.1758  0.7076
  316TMC3    C2 4800   2.768   0.074   0.007 -0.6853  0.5942 -0.2239
  316TMC3    C3 4801   2.881   0.133   0.066 -0.0503 -0.2564 -0.3463
  316TMC3    C4 4802   2.704   0.293  17.676 -0.6016 -0.1122  0.0682
  316TMC3    C5 4803   2.814   0.349  17.741  0.5769 -0.5377 -1.1435
  316TMC3    C6 4804   2.899   0.270   0.062 -0.0170  0.4017  0.6047
  316TMC3     C 4805   2.549   0.104  17.672  0.1233  0.8636  0.1446
  316TMC3     O 4806   2.465   0.190  17.662  0.7357  0.3906 -0.3767
  316TMC3     H 4807   2.760   4.704   0.013 -2.9448  0.7489 -0.4877
  316TMC3    H1 4808   2.623   0.350  17.632  1.2696  1.5500 -1.2073
  316TMC3    H2 4809   2.991   0.313   0.101  0.0679  0.2053  0.6215
  316TMC3    C7 4810   2.833   0.488  17.727 -0.1142  0.3188  0.6018
  316TMC3    C8 4811   2.964   0.052   0.160  0.4769 -1.2304  0.7975
  316TMC3    O1 4812   2.923   0.536   0.041 -0.2281 -0.3693  0.0725
  316TMC3    O2 4813   3.078   0.091   0.187  0.2849  0.4739  0.2057
  317MPD2     C 4814   0.354   3.371  12.757 -0.4748  0.4447  0.3987
  317MPD2    C1 4815   0.426   3.256  12.789  0.1159  0.1103 -0.0584
  317MPD2    C2 4816   0.435   3.221  12.922  0.1247  0.0221  0.2695
  317MPD2    C3 4817   0.360   3.288  13.016  1.2877  0.8141 -0.1740
  317MPD2    C4 4818   0.292   3.407  12.984 -0.0365  0.0947 -0.1794
  317MPD2    C5 4819   0.297   3.452  12.853 -0.5508 -0.1510  0.2526
  317MPD2     H 4820   0.486   3.132  12.955 -1.5028 -0.9981  0.0046
  317MPD2    H1 4821   0.236   3.466  13.056  0.6107  2.0709 -1.2952
  317MPD2    H2 4822   0.351   3.420  12.660  0.3935 -1.6219 -0.6795
  317MPD2    H3 4823   0.245   3.539  12.815 -1.2570  0.1915  2.0235
  317MPD2     N 4824   0.375   3.257  13.152 -0.2286 -0.1756  0.0350
  317MPD2    H5 4825   0.415   3.166  13.174  0.3221  0.8090  3.2054
  317MPD2    N1 4826   0.504   3.180  12.696 -0.5379  0.0125  0.1073
  317MPD2    H7 4827   0.574   3.118  12.736 -1.0925 -1.1836 -0.7690
  318TMC3    C1 4828   0.352   3.245  13.384 -0.8656 -0.2481 -0.6056
  318TMC3    C2 4829   0.300   3.117  13.382 -0.5316  0.1775  0.9528
  318TMC3    C3 4830   0.321   3.042  13.494  0.3424 -0.0642 -0.2100
  318TMC3    C4 4831   0.418   3.291  13.489 -0.4499  0.0664 -0.0362
  318TMC3    C5 4832   0.443   3.221  13.598  0.1165  0.9640  0.1769
  318TMC3    C6 4833   0.396   3.091  13.601 -0.2631  0.4235  0.2110
  318TMC3     C 4834   0.336   3.329  13.267  0.2717  0.6504 -0.1041
  318TMC3     O 4835   0.313   3.446  13.290  0.0758 -0.0403  0.0944
  318TMC3     H 4836   0.257   3.088  13.286  2.2414 -1.7059  0.2951
  318TMC3    H1 4837   0.472   3.385  13.481 -1.7159  0.7552 -0.4028
  318TMC3    H2 4838   0.401   3.028  13.689 -1.5406 -1.1532 -0.8487
  318TMC3    C7 4839   0.555   3.258  13.683  0.5266  0.4623  0.1869
  318TMC3    C8 4840   0.236   2.928  13.517 -0.0005  0.4340  0.3023
  318TMC3    O1 4841   0.578   3.376  13.696  0.2196  0.0897 -0.2135
  318TMC3    O2 4842   0.215   2.889  13.633 -0.5772  0.5524 -0.3306
  319MPD2     C 4843   0.793   4.647  16.176 -0.6962  0.0259 -0.4040
  319MPD2    C1 4844   0.759   4.620  16.306 -1.1207  0.8252 -0.2948
  319MPD2    C2 4845   0.628   4.597  16.341  0.2769  0.7731  0.2977
  319MPD2    C3 4846   0.536   4.590  16.240  0.0654  0.0790  0.2257
  319MPD2    C4 4847   0.570   4.624  16.102  0.1056 -0.6258  0.5884
  319MPD2    C5 4848   0.702   4.644  16.082 -0.2256 -0.1906  0.3022
  319MPD2     H 4849   0.610   4.569  16.444  0.8732 -0.7309 -0.0141
  319MPD2    H1 4850   0.503   4.614  16.017  1.8454  2.5202 -1.1717
  319MPD2    H2 4851   0.896   4.665  16.148 -0.0570  0.6997  2.2945
  319MPD2    H3 4852   0.732   4.674  15.982  1.8771 -2.2249  0.3142
  319MPD2     N 4853   0.406   4.548  16.262 -0.4813  0.6861  0.3848
  319MPD2    H5 4854   0.343   4.537  16.183 -1.0437  0.1590  0.9129
  319MPD2    N1 4855   0.855   4.635  16.417  0.2693  0.3592 -0.1006
  319MPD2    H7 4856   0.817   4.615  16.508 -1.1077 -0.9795 -0.9795
  320TMC3    C1 4857   0.210   4.471  16.368 -0.0140  0.7579 -0.6074
  320TMC3    C2 4858   0.125   4.549  16.293 -0.5414 -0.0035  0.4111
  320TMC3    C3 4859   0.011   4.485  16.247  0.0587 -0.5330  0.3210
  320TMC3    C4 4860   0.192   4.336  16.368 -0.0727  0.0195  0.6243
  320TMC3    C5 4861   0.072   4.280  16.328  0.0059  0.2779  0.1403
  320TMC3    C6 4862   4.724   4.352  16.256  0.0564  0.0159  0.1125
  320TMC3     C 4863   0.356   4.507  16.382 -0.1007  0.5675  0.2852
  320TMC3     O 4864   0.411   4.491  16.492 -0.0477 -0.4053  0.0899
  320TMC3     H 4865   0.135   4.657  16.294 -1.4383  0.1058 -1.3097
  320TMC3    H1 4866   0.262   4.270  16.418 -0.8714 -2.1197 -1.0977
  320TMC3    H2 4867   4.635   4.313  16.210 -0.2927  0.0053  0.7928
  320TMC3    C7 4868   0.085   4.137  16.294  0.3177  0.5633 -0.1258
  320TMC3    C8 4869   4.683   4.570  16.148  0.2682  0.3270 -0.5069
  320TMC3    O1 4870   0.070   4.105  16.176 -0.6456  0.3923  0.2707
  320TMC3    O2 4871   0.002   4.674  16.115  0.6335  0.3769  0.3929
  321TMC3    C1 4872   1.079   4.640  16.519  0.0820 -0.2062  0.7179
  321TMC3    C2 4873   1.003   4.627  16.632  0.2371  0.4838  0.8707
  321TMC3    C3 4874   1.016   4.727  16.720  0.0214 -0.4474  0.4847
  321TMC3    C4 4875   1.184   4.731  16.501  0.3701 -0.0937  0.2220
  321TMC3    C5 4876   1.206   0.076  16.605 -0.5167  0.1199  0.0226
  321TMC3    C6 4877   1.108   0.086  16.704 -0.8760  0.5277  0.1816
  321TMC3     C 4878   0.996   4.634  16.398 -0.3463  0.4299  0.2606
  321TMC3     O 4879   1.060   4.651  16.296 -0.6389 -0.3176 -0.2951
  321TMC3     H 4880   0.923   4.556  16.650  0.3635 -0.4204 -2.1895
  321TMC3    H1 4881   1.241   0.004  16.410  0.2011  0.8573  0.2332
  321TMC3    H2 4882   1.117   0.169  16.774  0.5387 -1.0319  1.8389
  321TMC3    C7 4883   1.338   0.052  16.657 -0.1705 -0.0932  0.3265
  321TMC3    C8 4884   0.986   4.704  16.859  0.1619  0.7563 -0.1073
  321TMC3    O1 4885   1.423   0.012  16.584 -0.2443  0.2442  0.4469
  321TMC3    O2 4886   1.062   0.022  16.932  0.6758 -0.0908 -0.4507
  322MPD2     C 4887   0.282   1.166  12.966 -0.3162 -0.5128  0.4457
  322MPD2    C1 4888   0.233   1.095  13.072  0.1831  0.2817  0.0873
  322MPD2    C2 4889   0.215   0.958  13.056 -0.1464 -0.0949  1.0044
  322MPD2    C3 4890   0.250   0.890  12.940  0.0326 -0.5693 -0.3992
  322MPD2    C4 4891   0.292   0.965  12.830  0.5350 -0.2786  0.8810
  322MPD2    C5 4892   0.307   1.099  12.848 -0.7028  0.6049 -0.0790
  322MPD2     H 4893   0.163   0.906  13.135  1.3101 -1.6386  0.9585
  322MPD2    H1 4894   0.292   0.915  12.734  0.4090  3.4283 -1.0768
  322MPD2    H2 4895   0.286   1.274  12.963 -0.0076 -0.5703 -1.3039
  322MPD2    H3 4896   0.339   1.159  12.764  1.3596 -0.3234  0.0360
  322MPD2     N 4897   0.247   0.751  12.938 -0.5443 -0.1098  0.8108
  322MPD2    H5 4898   0.205   0.700  13.016 -1.4435  1.3353  1.2636
  322MPD2    N1 4899   0.195   1.147  13.197  0.1081  1.3655 -0.2396
  322MPD2    H7 4900   0.160   1.089  13.273  2.4899 -1.7067 -1.5039
  323TMC3    C1 4901   0.203   1.302  13.374 -0.3058 -0.4928  0.0947
  323TMC3    C2 4902   0.301   1.380  13.428 -0.5488 -0.0847  0.7259
  323TMC3    C3 4903   0.302   1.398  13.562  0.0900  0.3085 -0.4629
  323TMC3    C4 4904   0.092   1.266  13.444 -0.5612  0.0766  0.0459
  323TMC3    C5 4905   0.086   1.299  13.578 -0.0280 -0.1335 -0.1746
  323TMC3    C6 4906   0.196   1.355  13.639  0.1779  0.0617  0.7488
  323TMC3     C 4907   0.204   1.285  13.232  0.3379  0.4768  0.5664
  323TMC3     O 4908   0.263   1.374  13.170 -0.3164 -0.1545  0.1632
  323TMC3     H 4909   0.384   1.406  13.364 -1.5330 -0.5056 -0.7079
  323TMC3    H1 4910   0.006   1.214  13.404 -2.0068  2.1139  0.4545
  323TMC3    H2 4911   0.193   1.376  13.745 -0.8513 -1.1305  0.9650
  323TMC3    C7 4912   0.016   1.199  13.650 -0.9159  0.0822 -1.0606
  323TMC3    C8 4913   0.419   1.431  13.644  0.0121 -0.0647 -0.6089
  323TMC3    O1 4914   0.028   1.081  13.616  0.2591 -0.0505 -0.3038
  323TMC3    O2 4915   0.410   1.399  13.759 -0.4630  0.1778 -0.3528
  324MPD2     C 4916   1.122   2.389  14.774 -0.3512  0.2158  0.7823
  324MPD2    C1 4917   1.135   2.465  14.663  0.0805  0.8107  0.8863
  324MPD2    C2 4918   1.029   2.482  14.575  0.4555  0.1393  0.9801
  324MPD2    C3 4919   0.907   2.420  14.607 -0.4466 -0.5528 -0.5052
  324MPD2    C4 4920   0.896   2.347  14.723 -0.5250  0.0732  0.5477
  324MPD2    C5 4921   1.000   2.339  14.805  0.1649 -0.1806 -0.1980
  324MPD2     H 4922   1.045   2.526  14.477  0.7005 -0.6760  0.6517
  324MPD2    H1 4923   0.808   2.292  14.756 -2.1000  2.5649  0.4976
  324MPD2    H2 4924   1.204   2.385  14.845 -0.1486 -0.8773  0.4858
  324MPD2    H3 4925   0.994   2.278  14.895 -1.6318 -0.8440 -0.7769
  324MPD2     N 4926   0.788   2.446  14.529  0.0187 -0.6092  0.1260
  324MPD2    H5 4927   0.705   2.390  14.543  0.9348 -2.3423 -1.3151
  324MPD2    N1 4928   1.256   2.528  14.627 -0.1050 -0.3136  0.5129
  324MPD2    H7 4929   1.260   2.571  14.535 -1.5176 -0.8155  0.2158
  325TMC3    C1 4930   0.637   2.564  14.386  0.1545  0.1589 -0.3439
  325TMC3    C2 4931   0.559   2.450  14.374  0.0236 -0.3987 -0.0566
  325TMC3    C3 4932   0.437   2.457  14.320  0.2221  0.2129  0.0817
  325TMC3    C4 4933   0.595   2.685  14.343 -0.1380 -0.2329  0.1915
  325TMC3    C5 4934   0.469   2.688  14.282 -0.0913 -0.7621 -0.4057
  325TMC3    C6 4935   0.391   2.578  14.268  0.8640 -0.1551  0.5642
  325TMC3     C 4936   0.769   2.553  14.446  0.9615  0.2130 -0.5188
  325TMC3     O 4937   0.841   2.650  14.431  0.3811 -0.2880  0.1243
  325TMC3     H 4938   0.597   2.352  14.398  1.6928  0.7496  1.9959
  325TMC3    H1 4939   0.658   2.772  14.354 -1.2885  0.4656  1.3434
  325TMC3    H2 4940   0.287   2.588  14.240  1.6113  2.5084 -1.2773
  325TMC3    C7 4941   0.417   2.803  14.202 -0.8345 -0.0555 -0.9902
  325TMC3    C8 4942   0.391   2.332  14.260  0.6563  0.7686 -0.0312
  325TMC3    O1 4943   0.299   2.799  14.164 -0.3961  0.5608  0.0466
  325TMC3    O2 4944   0.463   2.235  14.277 -0.0774 -0.5717  0.3826
  326MPD2     C 4945   2.655   3.357  11.270 -0.1325  0.4979  0.0637
  326MPD2    C1 4946   2.605   3.407  11.153 -0.2566  0.0789 -0.4320
  326MPD2    C2 4947   2.699   3.452  11.055 -0.5041  0.4004  0.0750
  326MPD2    C3 4948   2.835   3.434  11.073 -0.5037  0.3684  0.6584
  326MPD2    C4 4949   2.877   3.365  11.184 -0.6105  0.1803 -0.0096
  326MPD2    C5 4950   2.786   3.331  11.284  0.5669 -0.0481  0.0937
  326MPD2     H 4951   2.650   3.495  10.968 -0.0980 -2.1556 -1.3983
  326MPD2    H1 4952   2.979   3.330  11.195 -0.0233  1.5339 -1.1619
  326MPD2    H2 4953   2.590   3.326  11.350 -0.0938 -0.9238 -0.4492
  326MPD2    H3 4954   2.825   3.307  11.382 -0.2638  1.1365  0.7233
  326MPD2     N 4955   2.936   3.482  10.980 -0.4846  0.7149  0.1536
  326MPD2    H5 4956   3.033   3.468  11.006 -0.3772 -2.4365 -1.9054
  326MPD2    N1 4957   2.466   3.435  11.133 -0.2555  0.0530  0.6376
  326MPD2    H7 4958   2.434   3.484  11.050  2.7207 -1.7994 -1.5627
  327TMC3    C1 4959   2.240   3.432  11.156 -0.0901  0.0575 -0.1398
  327TMC3    C2 4960   2.210   3.561  11.115  0.8209  0.3458 -0.3944
  327TMC3    C3 4961   2.163   3.581  10.988  0.4413 -0.0969  0.2100
  327TMC3    C4 4962   2.218   3.325  11.075  0.2906  0.5768  0.5022
  327TMC3    C5 4963   2.184   3.343  10.939 -0.2487  0.0659 -0.2908
  327TMC3    C6 4964   2.155   3.476  10.900  0.5645 -0.4594 -0.1829
  327TMC3     C 4965   2.367   3.419  11.224  0.1949 -0.8326  0.4687
  327TMC3     O 4966   2.364   3.370  11.334  0.4091  0.0800 -0.0237
  327TMC3     H 4967   2.242   3.647  11.172 -0.6590  0.2353  0.5989
  327TMC3    H1 4968   2.260   3.231  11.108 -2.2049  0.2013  2.5279
  327TMC3    H2 4969   2.139   3.499  10.795 -0.8007  0.0831  0.1528
  327TMC3    C7 4970   2.269   3.286  10.836 -0.2395  0.4115  0.0335
  327TMC3    C8 4971   2.129   3.710  10.932  0.4027  0.2124 -0.1584
  327TMC3    O1 4972   2.247   3.317  10.719  0.2838  0.4193 -0.2406
  327TMC3    O2 4973   2.139   3.731  10.814  0.1318  0.3144  0.2731
  328MPD2     C 4974   0.202   3.300  17.080  0.5722 -0.0974  0.3749
  328MPD2    C1 4975   0.133   3.270  16.971  0.1849  0.3194  0.2058
  328MPD2    C2 4976   0.066   3.373  16.903  0.9934 -0.1556  0.0192
  328MPD2    C3 4977   0.076   3.504  16.934  0.0940 -0.1486 -0.3490
  328MPD2    C4 4978   0.156   3.531  17.037  0.1419 -0.2371  0.2121
  328MPD2    C5 4979   0.219   3.434  17.118  0.0920  0.0129 -0.1422
  328MPD2     H 4980   0.004   3.344  16.819  0.2288 -0.4586  0.6843
  328MPD2    H1 4981   0.154   3.628  17.087 -0.6700  0.7656 -1.7471
  328MPD2    H2 4982   0.251   3.219  17.134  0.6837  0.8390  1.6814
  328MPD2    H3 4983   0.277   3.454  17.208  1.2653 -1.3655 -0.5982
  328MPD2     N 4984   4.732   3.604  16.887 -0.0175  0.1800  0.0445
  328MPD2    H5 4985   0.009   3.700  16.914  0.6235 -0.0957  0.6700
  328MPD2    N1 4986   0.107   3.131  16.934 -0.4532 -0.2649 -0.3057
  328MPD2    H7 4987   0.134   3.055  16.995 -2.2297 -0.4770  0.2028
  329TMC3    C1 4988   4.736   2.959  16.846  0.6084 -0.1910  0.6925
  329TMC3    C2 4989   4.650   2.947  16.956 -0.7249 -0.3648 -0.1711
  329TMC3    C3 4990   4.563   2.851  16.962  0.8761 -0.3934  0.0231
  329TMC3    C4 4991   4.707   2.888  16.728  0.1139  0.0382 -0.3012
  329TMC3    C5 4992   4.634   2.772  16.748 -0.3883 -1.1834  0.3316
  329TMC3    C6 4993   4.574   2.749  16.869 -0.5408  0.5844  0.1240
  329TMC3     C 4994   0.053   3.086  16.820  0.6293 -0.5577 -0.1334
  329TMC3     O 4995   0.031   3.141  16.711  0.0661 -0.3298  0.4340
  329TMC3     H 4996   4.658   3.007  17.046 -2.7278 -2.3312  1.3159
  329TMC3    H1 4997   0.016   2.921  16.637  1.0523  0.0618  0.1938
  329TMC3    H2 4998   4.510   2.663  16.886  0.4906 -0.0604  0.7031
  329TMC3    C7 4999   4.620   2.663  16.652  0.1809  0.1038  0.5514
  329TMC3    C8 5000   4.423   2.895  16.966  0.0892 -0.8277 -1.1626
  329TMC3    O1 5001   4.585   2.556  16.704  0.3920  0.2802  0.2029
  329TMC3    O2 5002   4.347   2.833  16.899  0.0555  0.3815  0.2428
  330TMC3    C1 5003   3.370   2.953   9.897 -0.0266 -0.1219  0.1597
  330TMC3    C2 5004   3.267   2.888   9.816  0.1265  0.2667 -0.0496
  330TMC3    C3 5005   3.266   2.754   9.809  0.7033  0.4033  0.5410
  330TMC3    C4 5006   3.466   2.876   9.957  0.2102  0.4166 -0.2794
  330TMC3    C5 5007   3.455   2.745   9.946  0.9081 -0.3636 -0.4360
  330TMC3    C6 5008   3.361   2.679   9.872  0.5654 -0.2591  0.3571
  330TMC3     C 5009   3.366   3.100   9.908  0.5567 -0.0450  0.3123
  330TMC3     O 5010   3.450   3.160   9.974 -0.0001  0.3533  0.4834
  330TMC3     H 5011   3.209   2.937   9.739 -1.0675 -2.2694 -0.7539
  330TMC3    H1 5012   3.543   2.924  10.017 -0.9107  3.3005 -1.1666
  330TMC3    H2 5013   3.358   2.571   9.857 -1.8999  0.1638 -2.1357
  330TMC3    C7 5014   3.549   2.659  10.020  0.8594 -0.0169  0.2504
  330TMC3    C8 5015   3.165   2.689   9.724  0.0126 -0.2898  0.2663
  330TMC3    O1 5016   3.627   2.719  10.096 -0.0469  0.0746  0.1739
  330TMC3    O2 5017   3.112   2.753   9.632  0.5042  0.6332  0.3583
  331MPD2     C 5018   0.580   1.145  13.211 -0.0010 -0.0730 -0.2348
  331MPD2    C1 5019   0.610   1.132  13.083 -0.6311 -0.2701  0.1146
  331MPD2    C2 5020   0.657   1.008  13.040  0.1728 -0.5407  0.2469
  331MPD2    C3 5021   0.677   0.902  13.125  0.1662  0.3188 -0.6041
  331MPD2    C4 5022   0.657   0.920  13.265 -0.2826  0.0347 -0.4213
  331MPD2    C5 5023   0.600   1.042  13.302  0.6665  0.0505  0.2180
  331MPD2     H 5024   0.690   0.997  12.938 -2.1031  0.8605 -0.6525
  331MPD2    H1 5025   0.682   0.833  13.325 -1.1818 -1.0092 -1.5558
  331MPD2    H2 5026   0.563   1.248  13.242 -1.6639 -0.1705 -0.8272
  331MPD2    H3 5027   0.570   1.073  13.401  0.8801  1.0875 -0.0403
  331MPD2     N 5028   0.762   0.795  13.072 -0.6832 -0.5033 -0.2977
  331MPD2    H5 5029   0.777   0.787  12.972 -1.1284 -0.7993 -0.3377
  331MPD2    N1 5030   0.609   1.244  12.996  0.2778 -0.1749  0.3760
  331MPD2    H7 5031   0.585   1.336  13.031  2.1858  0.4388  0.0512
  332TMC3    C1 5032   0.933   0.654  13.039  0.1467 -0.5809 -0.4364
  332TMC3    C2 5033   0.887   0.647  12.915 -0.0645  0.9033 -0.3594
  332TMC3    C3 5034   0.980   0.630  12.814 -0.6781  0.0673 -0.1548
  332TMC3    C4 5035   1.067   0.655  13.065 -0.2308  0.3369 -0.0800
  332TMC3    C5 5036   1.154   0.655  12.959 -0.3089  0.0339 -0.4420
  332TMC3    C6 5037   1.114   0.650  12.830 -0.1599 -0.0725 -0.2535
  332TMC3     C 5038   0.844   0.711  13.140 -0.0279  0.1969 -0.5644
  332TMC3     O 5039   0.874   0.706  13.258  0.7357 -0.1911 -0.8396
  332TMC3     H 5040   0.781   0.627  12.907 -0.0752  1.0454 -0.5751
  332TMC3    H1 5041   1.095   0.673  13.168  0.3672  0.4646 -0.2681
  332TMC3    H2 5042   1.178   0.619  12.748 -3.5059 -1.5956 -2.2555
  332TMC3    C7 5043   1.298   0.658  12.986  0.3089 -0.5154  0.5530
  332TMC3    C8 5044   0.932   0.625  12.673 -0.5754 -0.4390  0.2617
  332TMC3    O1 5045   1.335   0.628  13.100  0.2372  0.2779  0.0482
  332TMC3    O2 5046   1.018   0.653  12.592  0.4002  0.1966  0.0630
  333MPD2     C 5047   1.386   1.998  11.197  0.3554  0.7754 -0.1325
  333MPD2    C1 5048   1.402   1.927  11.087 -0.2851  0.1329 -0.1832
  333MPD2    C2 5049   1.345   1.799  11.075  0.4238 -0.3263  0.7297
  333MPD2    C3 5050   1.262   1.748  11.172  0.3462 -0.0291  0.0276
  333MPD2    C4 5051   1.237   1.829  11.285 -0.2997  0.0295 -0.6858
  333MPD2    C5 5052   1.309   1.950  11.297  0.5375 -0.1524  0.2106
  333MPD2     H 5053   1.356   1.744  10.982  1.7812 -1.6391  1.6757
  333MPD2    H1 5054   1.182   1.796  11.372 -0.5895  0.1074 -0.8393
  333MPD2    H2 5055   1.458   2.078  11.209  1.1216  0.1185 -0.3635
  333MPD2    H3 5056   1.308   2.000  11.393 -0.3648  2.7802 -1.3133
  333MPD2     N 5057   1.194   1.621  11.156  0.6637  0.1556 -0.3220
  333MPD2    H5 5058   1.234   1.556  11.089 -1.5395 -0.1205 -1.3467
  333MPD2    N1 5059   1.476   1.985  10.986 -0.8577 -0.2509 -0.2409
  333MPD2    H7 5060   1.488   2.084  11.004 -1.2588 -0.1784 -0.3757
  334TMC3    C1 5061   1.592   1.997  10.771 -0.6880  0.1769  0.5637
  334TMC3    C2 5062   1.686   1.929  10.701 -0.0179  0.4566 -0.0550
  334TMC3    C3 5063   1.730   1.993  10.589 -0.2181  0.5593  0.6551
  334TMC3    C4 5064   1.545   2.122  10.736  0.1330 -0.2023  0.0163
  334TMC3    C5 5065   1.589   2.182  10.619  0.0385 -0.2737  0.6509
  334TMC3    C6 5066   1.685   2.116  10.545 -0.3959  0.2912  1.2057
  334TMC3     C 5067   1.521   1.920  10.873  0.1157  0.1414 -0.2576
  334TMC3     O 5068   1.527   1.801  10.847  0.3835 -0.7123 -0.3578
  334TMC3     H 5069   1.723   1.832  10.732  1.8266  1.4923  1.0179
  334TMC3    H1 5070   1.462   2.174  10.782 -1.0511 -1.8991 -0.1707
  334TMC3    H2 5071   1.744   2.173  10.474 -0.9430 -0.6055  0.0270
  334TMC3    C7 5072   1.546   2.314  10.586 -0.6129  0.4121  0.2994
  334TMC3    C8 5073   1.817   1.916  10.505 -0.0896  0.4873 -0.6951
  334TMC3    O1 5074   1.469   2.361  10.663  0.0117 -0.2618  0.4614
  334TMC3    O2 5075   1.794   1.884  10.389  0.7398  0.0224 -0.4823
  335TMC3    C1 5076   0.686   3.360  17.105 -0.6286  0.1308  0.3035
  335TMC3    C2 5077   0.579   3.286  17.079  0.3128 -0.6549 -0.6272
  335TMC3    C3 5078   0.605   3.172  17.015 -0.5419 -0.1538 -0.1794
  335TMC3    C4 5079   0.818   3.327  17.073 -0.3369  0.0427 -0.0524
  335TMC3    C5 5080   0.836   3.214  16.998  0.1750  1.0613  0.1603
  335TMC3    C6 5081   0.730   3.130  16.975 -0.1185 -0.0161  0.2002
  335TMC3     C 5082   0.655   3.478  17.183  0.7029  0.0368  0.0946
  335TMC3     O 5083   0.545   3.487  17.238 -0.0763  0.0143  0.0293
  335TMC3     H 5084   0.479   3.308  17.115  1.0219  3.5241 -1.1986
  335TMC3    H1 5085   0.905   3.376  17.116  0.1734 -1.7216  0.9357
  335TMC3    H2 5086   0.746   3.043  16.913  0.0231 -1.3052  2.0482
  335TMC3    C7 5087   0.966   3.160  16.999 -0.3357  0.3902  0.7257
  335TMC3    C8 5088   0.500   3.096  16.963 -0.1483 -0.6654  0.1521
  335TMC3    O1 5089   1.049   3.228  16.943 -0.1991  0.0704  0.0321
  335TMC3    O2 5090   0.435   3.034  17.044  0.3017  0.3580 -0.0875
  336MPD2     C 5091   4.683   1.009  16.214 -0.1535  0.6342  0.4114
  336MPD2    C1 5092   0.012   0.977  16.092  0.0979  0.1670 -1.0626
  336MPD2    C2 5093   0.069   0.851  16.087 -0.5336  0.1421 -0.3312
  336MPD2    C3 5094   0.052   0.744  16.179  0.9404 -0.0969 -0.0718
  336MPD2    C4 5095   4.713   0.779  16.290  0.3181  0.3035  0.5929
  336MPD2    C5 5096   4.661   0.907  16.301  0.8773  0.6924 -0.3713
  336MPD2     H 5097   0.134   0.830  16.002  0.9048  2.0588  0.2902
  336MPD2    H1 5098   4.692   0.725  16.382  1.2694  2.2466  1.9562
  336MPD2    H2 5099   4.632   1.103  16.231 -0.0049  0.7588  0.1816
  336MPD2    H3 5100   4.607   0.934  16.391 -0.2309  1.4811 -1.2669
  336MPD2     N 5101   0.108   0.616  16.181 -0.4727  0.7170 -0.8871
  336MPD2    H5 5102   0.103   0.560  16.264  1.3484  2.6763  0.5623
  336MPD2    N1 5103   0.038   1.070  15.994  0.8184 -0.2031 -0.1677
  336MPD2    H7 5104   0.102   1.041  15.920 -0.9736  0.1900 -1.8838
  337TMC3    C1 5105   0.000   1.246  15.849  0.6779 -0.3063  0.4233
  337TMC3    C2 5106   4.642   1.258  15.751 -0.0679  0.2595 -0.1012
  337TMC3    C3 5107   4.675   1.257  15.619 -0.4252 -0.4080 -0.5414
  337TMC3    C4 5108   0.136   1.240  15.818  0.0997 -0.3006 -0.2681
  337TMC3    C5 5109   0.165   1.253  15.688 -0.1504 -0.0528  0.3499
  337TMC3    C6 5110   0.073   1.264  15.588 -0.9249  0.3799 -0.0586
  337TMC3     C 5111   4.703   1.191  15.971 -0.0210 -0.0782  0.3624
  337TMC3     O 5112   4.596   1.220  16.015  0.0347  0.4760 -0.1894
  337TMC3     H 5113   4.537   1.253  15.776  0.3274 -0.2337  1.4998
  337TMC3    H1 5114   0.211   1.235  15.896 -1.2477  2.4152  1.2287
  337TMC3    H2 5115   0.103   1.271  15.484  0.5107 -1.4888  0.2269
  337TMC3    C7 5116   0.308   1.234  15.648  0.0195  0.3580  0.1055
  337TMC3    C8 5117   4.568   1.265  15.531  0.0130 -0.5003 -0.0221
  337TMC3    O1 5118   0.387   1.275  15.733  0.1328  0.2111 -0.1040
  337TMC3    O2 5119   4.477   1.335  15.568  0.0432  0.2660 -0.0138
  338MPD2     C 5120   0.923   0.583   0.923  0.0213 -0.8812  0.2561
  338MPD2    C1 5121   0.802   0.537   0.868 -0.3038 -0.1412 -0.7770
  338MPD2    C2 5122   0.688   0.583   0.926 -0.0925 -0.3643  0.3445
  338MPD2    C3 5123   0.684   0.685   1.026 -0.2740  0.1365  0.6106
  338MPD2    C4 5124   0.810   0.727   1.079  0.5378 -0.3358 -0.0910
  338MPD2    C5 5125   0.925   0.685   1.015  0.0731  0.3875 -0.1238
  338MPD2     H 5126   0.589   0.553   0.892 -0.4457  0.9442  0.2206
  338MPD2    H1 5127   0.824   0.805   1.153  1.5070 -1.0569  0.4984
  338MPD2    H2 5128   1.017   0.561   0.874 -1.4632  0.2188 -3.0624
  338MPD2    H3 5129   1.020   0.733   1.035 -0.2186  0.1275  1.8936
  338MPD2     N 5130   0.562   0.741   1.072  0.2778 -1.3771 -0.2392
  338MPD2    H5 5131   0.478   0.693   1.041  1.0602 -1.7199 -1.8384
  338MPD2    N1 5132   0.791   0.445   0.759  0.5461  0.6178 -0.4509
  338MPD2    H7 5133   0.699   0.416   0.727  1.0351 -2.5264  0.9446
  339TMC3    C1 5134   0.414   0.917   1.110  0.7358  0.3709 -0.1546
  339TMC3    C2 5135   0.326   0.864   1.025 -0.1842  0.0618 -0.0585
  339TMC3    C3 5136   0.205   0.928   1.010  0.4343 -0.3450 -0.3773
  339TMC3    C4 5137   0.397   1.047   1.165 -0.2258 -0.2997 -0.0648
  339TMC3    C5 5138   0.277   1.109   1.138 -0.6171 -0.4791  0.2674
  339TMC3    C6 5139   0.175   1.052   1.070  0.3361  0.3575 -0.5692
  339TMC3     C 5140   0.546   0.863   1.131  0.0535  0.0120 -0.7838
  339TMC3     O 5141   0.634   0.940   1.171  0.4087  0.1912  0.2582
  339TMC3     H 5142   0.347   0.774   0.969 -0.5967  0.0052 -0.1226
  339TMC3    H1 5143   0.475   1.096   1.223  0.6468 -1.0028 -0.6453
  339TMC3    H2 5144   0.087   1.102   1.032  0.4132  1.2688  0.4864
  339TMC3    C7 5145   0.263   1.248   1.174 -0.5891 -0.2004 -0.3629
  339TMC3    C8 5146   0.118   0.880   0.911  0.4705 -0.4820  0.7879
  339TMC3    O1 5147   0.162   1.307   1.140 -0.3973  0.8008  0.1854
  339TMC3    O2 5148   0.171   0.817   0.821  0.3271 -0.2518  0.2636
  340MPD2     C 5149   1.003   3.109  10.542 -0.3408  0.2695  0.3989
  340MPD2    C1 5150   1.085   3.078  10.433  0.0425  0.5842  0.1697
  340MPD2    C2 5151   1.192   3.160  10.403 -1.0011 -0.9885 -0.7049
  340MPD2    C3 5152   1.221   3.273  10.481 -0.0455 -0.5695  0.0426
  340MPD2    C4 5153   1.135   3.303  10.582 -0.3150 -0.1507 -0.1264
  340MPD2    C5 5154   1.035   3.216  10.613 -0.7663 -0.8027 -0.4522
  340MPD2     H 5155   1.249   3.145  10.311 -2.2226 -0.2132 -1.5914
  340MPD2    H1 5156   1.148   3.386  10.650  1.1819  0.2666 -0.9216
  340MPD2    H2 5157   0.924   3.038  10.561 -0.4231  0.3997  0.5454
  340MPD2    H3 5158   0.969   3.242  10.696 -0.0151 -2.5380  0.6859
  340MPD2     N 5159   1.323   3.367  10.456  0.2201 -0.2253  0.5903
  340MPD2    H5 5160   1.340   3.444  10.519 -0.6614  1.5275 -1.3220
  340MPD2    N1 5161   1.046   2.970  10.354 -0.6357  0.5978 -0.0122
  340MPD2    H7 5162   0.955   2.927  10.369 -0.1647 -0.0725  0.9035
  341TMC3    C1 5163   1.035   2.822  10.163 -0.2264 -0.8036 -0.4653
  341TMC3    C2 5164   0.930   2.766  10.227  0.1631  0.3022  0.4349
  341TMC3    C3 5165   0.869   2.664  10.150  0.6274  0.2013  0.6399
  341TMC3    C4 5166   1.079   2.787  10.034  0.1733 -0.0458  0.0790
  341TMC3    C5 5167   1.003   2.699   9.964 -1.0467  0.1093 -0.2435
  341TMC3    C6 5168   0.895   2.636  10.019  0.6252  1.0297 -0.2753
  341TMC3     C 5169   1.110   2.925  10.237 -0.4356 -0.3853 -0.1718
  341TMC3     O 5170   1.215   2.966  10.181 -0.1290  0.3539 -0.4431
  341TMC3     H 5171   0.914   2.776  10.334 -0.8510 -0.6938  0.3750
  341TMC3    H1 5172   1.168   2.839   9.999 -0.3015  0.4527 -0.3748
  341TMC3    H2 5173   0.856   2.545   9.977 -2.2059  2.0475  0.1453
  341TMC3    C7 5174   1.053   2.655   9.831  0.4329 -0.0308 -0.8161
  341TMC3    C8 5175   0.780   2.574  10.211  0.1029  0.6617 -0.2243
  341TMC3    O1 5176   1.168   2.663   9.801  0.7789 -0.4541 -0.1740
  341TMC3    O2 5177   0.688   2.530  10.143  0.2558  0.0219 -0.0171
  342MPD2     C 5178   3.129   1.477  17.531 -0.1468 -0.2367  0.2436
  342MPD2    C1 5179   3.208   1.465  17.416 -0.2252  0.1527 -0.1861
  342MPD2    C2 5180   3.223   1.587  17.339 -0.0764 -0.4087  0.3184
  342MPD2    C3 5181   3.148   1.702  17.375  0.4339  0.4843  0.1125
  342MPD2    C4 5182   3.067   1.705  17.487 -0.0413  0.3022 -0.1930
  342MPD2    C5 5183   3.056   1.592  17.563  0.0766 -0.4211 -0.5284
  342MPD2     H 5184   3.278   1.578  17.245  1.0293  0.2450  0.9111
  342MPD2    H1 5185   3.010   1.795  17.508  0.5083  0.4217  0.7837
  342MPD2    H2 5186   3.119   1.407  17.613 -0.1578 -0.5989 -0.0684
  342MPD2    H3 5187   2.997   1.591  17.653 -0.5847  0.3758 -0.9544
  342MPD2     N 5188   3.162   1.823  17.306  0.2570 -0.1090 -0.0958
  342MPD2    H5 5189   3.105   1.898  17.344  1.3629  0.0139  1.3156
  342MPD2    N1 5190   3.278   1.350  17.379  0.6743  0.1887 -0.8174
  342MPD2    H7 5191   3.311   1.351  17.283  0.0394 -0.4271 -1.0480
  343TMC3    C1 5192   3.365   1.122  17.396 -0.2215  0.0005  0.0885
  343TMC3    C2 5193   3.437   1.143  17.275  0.2867  0.0867 -0.1916
  343TMC3    C3 5194   3.510   1.034  17.230 -0.0900  0.7989 -0.0067
  343TMC3    C4 5195   3.362   1.005  17.463  0.1502 -0.5416 -0.7485
  343TMC3    C5 5196   3.432   0.899  17.413  0.1804 -0.2371  0.4180
  343TMC3    C6 5197   3.501   0.910  17.301  0.5422  0.4204  0.0698
  343TMC3     C 5198   3.292   1.234  17.455  0.6368 -0.2770 -0.1447
  343TMC3     O 5199   3.242   1.205  17.563 -0.3551  0.3086  0.1091
  343TMC3     H 5200   3.448   1.240  17.228 -0.6812 -0.2003 -0.9909
  343TMC3    H1 5201   3.293   0.983  17.544 -0.2338  0.8082 -0.7151
  343TMC3    H2 5202   3.536   0.820  17.252  0.0629  0.2299  0.0720
  343TMC3    C7 5203   3.367   0.774  17.424 -0.1891 -0.1332  0.4181
  343TMC3    C8 5204   3.627   1.060  17.145  0.2824 -0.5053  0.1619
  343TMC3    O1 5205   3.344   0.705  17.325  0.0025 -0.6013  0.1370
  343TMC3    O2 5206   3.633   1.172  17.094  0.6569 -0.1770  0.6350
  344MPD2     C 5207   0.223   0.830  10.612 -0.1065 -0.3012  0.7513
  344MPD2    C1 5208   0.091   0.855  10.574  0.4072 -0.2074 -1.0029
  344MPD2    C2 5209   0.070   0.979  10.516  0.2098  0.3357 -0.9649
  344MPD2    C3 5210   0.166   1.080  10.502  0.0660  0.6128 -0.5638
  344MPD2    C4 5211   0.294   1.046  10.542  0.1797  0.2733  0.1441
  344MPD2    C5 5212   0.316   0.920  10.594 -0.4740 -0.0085  0.7359
  344MPD2     H 5213   4.706   1.009  10.503 -0.7192 -3.3011 -2.0939
  344MPD2    H1 5214   0.367   1.126  10.542  0.6448 -0.1556 -2.3982
  344MPD2    H2 5215   0.253   0.736  10.655 -2.0570  0.2549  3.3671
  344MPD2    H3 5216   0.412   0.889  10.634  0.8657  0.3063 -2.2796
  344MPD2     N 5217   0.143   1.213  10.457 -0.1008  0.3279 -0.6996
  344MPD2    H5 5218   0.221   1.278  10.463 -0.3151  0.3303  1.8163
  344MPD2    N1 5219   4.722   0.765  10.595 -0.6778  0.6703  0.0979
  344MPD2    H7 5220   4.629   0.799  10.572 -1.8446 -2.6822 -0.2266
  345TMC3    C1 5221   0.018   1.386  10.362  0.2021 -0.0832 -0.4189
  345TMC3    C2 5222   0.097   1.472  10.430 -0.0944 -0.5775 -0.2821
  345TMC3    C3 5223   0.093   1.608  10.380  0.4443  0.3390 -0.4884
  345TMC3    C4 5224   4.689   1.420  10.247 -0.0935  0.4595  0.1902
  345TMC3    C5 5225   4.694   1.551  10.204  0.0100 -0.2306  0.5097
  345TMC3    C6 5226   0.027   1.649  10.267  0.0895 -0.2170  0.0520
  345TMC3     C 5227   0.025   1.249  10.391 -0.4123 -0.6769  0.1194
  345TMC3     O 5228   4.667   1.177  10.367 -0.1449 -0.5375 -0.1459
  345TMC3     H 5229   0.136   1.455  10.530 -0.0448  1.4453  0.0390
  345TMC3    H1 5230   4.621   1.345  10.209  0.4245  0.5268 -0.8610
  345TMC3    H2 5231   0.033   1.751  10.231  1.8343  0.7254  3.0578
  345TMC3    C7 5232   4.613   1.592  10.089 -0.6980 -0.4597 -0.0646
  345TMC3    C8 5233   0.162   1.716  10.451  0.2927  1.1411  0.1930
  345TMC3    O1 5234   4.547   1.507  10.030  0.2856  0.2053  0.0740
  345TMC3    O2 5235   0.117   1.827  10.428  0.5887 -0.1943 -0.3901
  346MPD2     C 5236   0.030   3.074  14.521  0.4211 -0.1191  0.1376
  346MPD2    C1 5237   0.110   3.030  14.418  0.0898  1.1822 -0.0503
  346MPD2    C2 5238   0.236   3.080  14.406  0.1908  0.0452 -0.1210
  346MPD2    C3 5239   0.286   3.166  14.502  0.6292  0.1449 -0.1318
  346MPD2    C4 5240   0.212   3.205  14.609 -0.1860 -0.5515 -0.4439
  346MPD2    C5 5241   0.078   3.167  14.607  0.5427  0.5806 -0.5132
  346MPD2     H 5242   0.290   3.071  14.312  1.5638  0.4882  0.6176
  346MPD2    H1 5243   0.246   3.280  14.679 -1.5989  0.6895 -1.0783
  346MPD2    H2 5244   4.672   3.026  14.527 -0.7449  2.0179 -1.4701
  346MPD2    H3 5245   0.009   3.224  14.668 -0.3515 -2.4438  1.3233
  346MPD2     N 5246   0.417   3.210  14.482  0.6319  0.1059 -0.8180
  346MPD2    H5 5247   0.460   3.184  14.394  0.8122  1.2706 -1.0674
  346MPD2    N1 5248   0.057   2.956  14.310 -0.4502  0.2798 -0.2920
  346MPD2    H7 5249   0.122   2.927  14.238  0.1492 -1.8222  1.0946
  347TMC3    C1 5250   0.602   3.344  14.492 -0.2003  0.5208 -0.0890
  347TMC3    C2 5251   0.602   3.345  14.354  0.7972  0.4738 -0.2218
  347TMC3    C3 5252   0.722   3.343  14.282 -0.3612  0.0150  0.5308
  347TMC3    C4 5253   0.724   3.320  14.558  0.8851  0.5018 -0.0267
  347TMC3    C5 5254   0.845   3.328  14.481 -0.3392  0.1422 -0.2686
  347TMC3    C6 5255   0.846   3.342  14.340  0.0384 -0.3927  0.5532
  347TMC3     C 5256   0.490   3.293  14.562 -0.7901 -0.7017 -0.3582
  347TMC3     O 5257   0.476   3.326  14.681  0.5475 -0.2297  0.2121
  347TMC3     H 5258   0.512   3.375  14.301  1.9765  0.9496 -1.9416
  347TMC3    H1 5259   0.720   3.298  14.664 -2.0099  0.3453 -0.1863
  347TMC3    H2 5260   0.935   3.319  14.283  0.2562  0.2791  0.6152
  347TMC3    C7 5261   0.967   3.284  14.549 -0.0819  0.6788  0.0017
  347TMC3    C8 5262   0.739   3.388  14.145 -0.1972 -0.1857 -0.0613
  347TMC3    O1 5263   0.952   3.229  14.657  0.1583 -0.8602  0.1364
  347TMC3    O2 5264   0.826   3.478  14.135  0.2632 -0.0700  0.4858
  348MPD2     C 5265   4.056   2.119  11.968 -0.2931  0.2514  0.5576
  348MPD2    C1 5266   4.040   2.038  11.861  0.6302 -1.2290 -0.0689
  348MPD2    C2 5267   4.002   2.082  11.740 -1.1125 -0.4043  0.0233
  348MPD2    C3 5268   3.982   2.214  11.718 -0.2682  0.4320  1.0012
  348MPD2    C4 5269   3.977   2.301  11.830 -0.1730  0.1861 -0.0315
  348MPD2    C5 5270   4.009   2.253  11.953 -1.4058 -0.1994 -0.1056
  348MPD2     H 5271   3.997   2.020  11.651  0.4346 -1.5054  0.7094
  348MPD2    H1 5272   3.937   2.401  11.831 -3.2342 -1.0854  2.5178
  348MPD2    H2 5273   4.086   2.084  12.066  0.3946  1.2855  0.7087
  348MPD2    H3 5274   4.000   2.312  12.043  3.1362 -0.9246  0.8183
  348MPD2     N 5275   3.946   2.266  11.590  0.2399 -0.2574 -0.0500
  348MPD2    H5 5276   3.969   2.201  11.515 -0.2426 -1.3309  0.7288
  348MPD2    N1 5277   4.082   1.903  11.875 -0.0157 -0.0218 -0.1876
  348MPD2    H7 5278   4.085   1.842  11.794  0.0480 -2.2700  1.5200
  349TMC3    C1 5279   4.153   1.707  11.959 -0.7240  0.4546 -0.1381
  349TMC3    C2 5280   4.106   1.618  12.047  1.1333  0.1850 -0.6926
  349TMC3    C3 5281   4.083   1.488  11.997 -0.0565 -0.2339  0.0244
  349TMC3    C4 5282   4.185   1.680  11.827  0.3478 -0.6471 -0.4522
  349TMC3    C5 5283   4.143   1.556  11.777  0.1003 -0.1013  0.2140
  349TMC3    C6 5284   4.100   1.454  11.865  0.5299 -0.4818 -0.3071
  349TMC3     C 5285   4.133   1.845  11.991  0.0113  0.7533 -0.7909
  349TMC3     O 5286   4.141   1.875  12.112  0.1536 -0.4081  0.7739
  349TMC3     H 5287   4.085   1.643  12.150 -2.3666  2.0951 -1.8783
  349TMC3    H1 5288   4.231   1.760  11.770 -1.0475 -0.5844 -1.4958
  349TMC3    H2 5289   4.073   1.356  11.829 -0.9797  0.5579 -1.9936
  349TMC3    C7 5290   4.058   1.571  11.663 -0.9610 -0.0483 -0.1150
  349TMC3    C8 5291   4.040   1.400  12.100  0.4029 -0.0873 -0.2633
  349TMC3    O1 5292   3.945   1.523  11.655  0.3236  0.1098  0.0956
  349TMC3    O2 5293   4.054   1.421  12.218 -0.2103 -0.4402  0.1241
  350MPD2     C 5294   3.044   0.701  10.614 -0.8527 -0.8176 -0.0009
  350MPD2    C1 5295   2.968   0.583  10.633 -0.6876  0.3227  0.7520
  350MPD2    C2 5296   2.938   0.544  10.765 -0.0390  0.1772  0.8149
  350MPD2    C3 5297   2.977   0.616  10.879 -0.1612  0.6022  0.0036
  350MPD2    C4 5298   3.060   0.725  10.848  0.1860  0.8521 -0.1714
  350MPD2    C5 5299   3.092   0.761  10.726 -0.5947  0.4972  0.2754
  350MPD2     H 5300   2.869   0.461  10.782 -0.3073  0.2766  0.2358
  350MPD2    H1 5301   3.102   0.773  10.936  0.5469  0.5368 -0.1682
  350MPD2    H2 5302   3.054   0.732  10.510  0.9540 -0.8292  0.1681
  350MPD2    H3 5303   3.146   0.854  10.713  1.2718 -0.4375  1.2366
  350MPD2     N 5304   2.943   0.576  11.009  0.0763 -0.9303  0.0112
  350MPD2    H5 5305   2.902   0.483  11.013 -0.2993 -0.7378  0.6447
  350MPD2    N1 5306   2.907   0.513  10.530 -0.5074 -0.0641 -0.1528
  350MPD2    H7 5307   2.862   0.427  10.561  0.0331 -0.5824 -0.8031
  351TMC3    C1 5308   2.872   0.413  10.344 -0.3334  0.3706 -0.3630
  351TMC3    C2 5309   2.940   0.369  10.238 -0.0815 -0.0507  0.7542
  351TMC3    C3 5310   2.899   0.246  10.197 -0.1351 -0.7313 -0.9003
  351TMC3    C4 5311   2.767   0.350  10.405  0.2816 -0.6474 -0.2858
  351TMC3    C5 5312   2.737   0.225  10.369  0.3600  0.6011  0.0406
  351TMC3    C6 5313   2.802   0.171  10.264  0.1165 -0.6902 -0.5578
  351TMC3     C 5314   2.929   0.525  10.399  0.1659  0.1696 -1.2092
  351TMC3     O 5315   3.003   0.598  10.335 -0.6807 -0.1969  0.0007
  351TMC3     H 5316   3.023   0.421  10.191 -0.9044 -0.0860 -0.7393
  351TMC3    H1 5317   2.702   0.400  10.476 -0.7256  0.1350 -1.7427
  351TMC3    H2 5318   2.791   0.065  10.243  1.1865 -1.5608  3.3606
  351TMC3    C7 5319   2.600   0.182  10.415 -0.1857 -0.4320  0.5699
  351TMC3    C8 5320   2.960   0.176  10.089 -0.7486 -0.2460 -0.3406
  351TMC3    O1 5321   2.562   0.221  10.525  0.4466  0.7072  0.0383
  351TMC3    O2 5322   2.885   0.100  10.031 -0.0769 -0.2045  0.1120
  352MPD2     C 5323   0.631   3.011   1.148  0.6662 -0.2015 -0.1169
  352MPD2    C1 5324   0.502   2.982   1.114 -0.6295  0.5011 -0.2873
  352MPD2    C2 5325   0.435   2.869   1.170 -0.6037  0.3098 -0.3601
  352MPD2    C3 5326   0.508   2.782   1.250  0.5022  0.5434 -0.0684
  352MPD2    C4 5327   0.641   2.799   1.267  0.6773 -0.0685  0.9067
  352MPD2    C5 5328   0.704   2.918   1.219 -0.2717  0.2533  0.3000
  352MPD2     H 5329   0.329   2.860   1.149 -0.6610 -1.1492  0.6397
  352MPD2    H1 5330   0.709   2.731   1.317 -0.1246 -1.1390  0.5533
  352MPD2    H2 5331   0.679   3.104   1.118  0.1307 -0.4120 -1.6219
  352MPD2    H3 5332   0.807   2.932   1.249  0.9657  0.0946 -3.8924
  352MPD2     N 5333   0.454   2.651   1.280 -0.3186  0.4547 -0.5703
  352MPD2    H5 5334   0.519   2.576   1.301 -0.4441  0.7837  0.9498
  352MPD2    N1 5335   0.435   3.067   1.017  0.1653  0.1630 -0.5580
  352MPD2    H7 5336   0.494   3.143   0.984  1.0905 -0.3206 -0.0129
  353TMC3    C1 5337   0.303   2.466   1.264  0.0792  0.3893 -0.3515
  353TMC3    C2 5338   0.361   2.385   1.357  0.5343 -0.5965 -0.0423
  353TMC3    C3 5339   0.312   2.264   1.387 -0.1510  0.5045  0.4801
  353TMC3    C4 5340   0.202   2.419   1.192 -1.3024  0.6596  0.4879
  353TMC3    C5 5341   0.163   2.281   1.204  0.2786 -0.3941 -0.0283
  353TMC3    C6 5342   0.214   2.205   1.307 -0.3223 -0.0081 -0.3222
  353TMC3     C 5343   0.324   2.612   1.259 -0.2496  0.4045 -0.0066
  353TMC3     O 5344   0.222   2.674   1.256 -0.1321 -0.0153 -0.4698
  353TMC3     H 5345   0.440   2.420   1.423 -0.1327  2.1315 -0.6853
  353TMC3    H1 5346   0.155   2.482   1.117 -1.4948 -0.9949 -0.7983
  353TMC3    H2 5347   0.164   2.111   1.326  0.7409  0.5073  4.9831
  353TMC3    C7 5348   0.043   2.237   1.144  0.0525 -0.0863  0.1232
  353TMC3    C8 5349   0.391   2.170   1.464  0.2037  0.5430 -0.5285
  353TMC3    O1 5350   0.026   2.115   1.130 -0.3894 -0.6862 -0.6628
  353TMC3    O2 5351   0.496   2.216   1.512 -0.2675 -0.4404  0.2123
  354TMC3    C1 5352   2.879   3.350  13.466  0.4419  0.7020  0.3608
  354TMC3    C2 5353   2.784   3.441  13.446 -0.0219  0.7889  0.5005
  354TMC3    C3 5354   2.763   3.469  13.310  0.5508  0.0039 -0.1857
  354TMC3    C4 5355   2.945   3.277  13.371  0.3560 -0.0284  0.7674
  354TMC3    C5 5356   2.918   3.316  13.242  0.2045 -0.8103 -0.8269
  354TMC3    C6 5357   2.830   3.413  13.206 -0.5020  0.1169 -0.1908
  354TMC3     C 5358   2.903   3.311  13.603 -0.3538  0.1245 -0.6745
  354TMC3     O 5359   2.937   3.194  13.617  0.2366 -0.3736 -1.0668
  354TMC3     H 5360   2.736   3.492  13.528  1.4723  1.8767  0.7042
  354TMC3    H1 5361   3.026   3.208  13.392 -0.0040 -0.2568  1.4206
  354TMC3    H2 5362   2.811   3.441  13.103 -1.1266 -1.3389 -0.4720
  354TMC3    C7 5363   2.980   3.231  13.142 -0.0801  0.4900  0.5056
  354TMC3    C8 5364   2.742   3.609  13.297 -0.7928 -0.5742 -0.0651
  354TMC3    O1 5365   3.022   3.122  13.182  0.1571 -0.2868 -0.1687
  354TMC3    O2 5366   2.797   3.683  13.377  0.6484  0.0124  0.1474
  355MPD2     C 5367   2.773   3.993  11.593  0.1031  0.1111  0.4695
  355MPD2    C1 5368   2.819   4.086  11.500 -0.5654 -0.1283 -0.4864
  355MPD2    C2 5369   2.943   4.154  11.527  0.1635  0.0300  0.0320
  355MPD2    C3 5370   3.016   4.134  11.640 -0.0664 -0.1484  0.3765
  355MPD2    C4 5371   2.971   4.039  11.727 -0.0734  0.7904 -0.0106
  355MPD2    C5 5372   2.854   3.979  11.704  0.0346 -0.2654  0.3792
  355MPD2     H 5373   2.988   4.214  11.449 -1.4669  1.2593  0.0264
  355MPD2    H1 5374   3.029   4.014  11.814 -1.4035 -1.6913  0.1519
  355MPD2    H2 5375   2.681   3.937  11.589 -0.5787  1.1642  1.3483
  355MPD2    H3 5376   2.825   3.918  11.789 -0.4148  1.0636  1.1894
  355MPD2     N 5377   3.125   4.215  11.683 -0.8967  0.0742  0.2753
  355MPD2    H5 5378   3.152   4.211  11.781 -0.9913  0.9896  0.3396
  355MPD2    N1 5379   2.741   4.100  11.385  0.7503  0.3545  0.6700
  355MPD2    H7 5380   2.676   4.023  11.377 -0.1617  1.1415  0.5382
  356TMC3    C1 5381   3.301   4.375  11.667  0.5990  0.6898 -0.0933
  356TMC3    C2 5382   3.380   4.458  11.595  0.2136  0.3375 -0.5668
  356TMC3    C3 5383   3.442   4.563  11.648  0.4829  0.7593 -0.0301
  356TMC3    C4 5384   3.285   4.404  11.796 -0.3332  0.1363 -0.2039
  356TMC3    C5 5385   3.362   4.503  11.853  0.2316  0.0104 -0.6754
  356TMC3    C6 5386   3.436   4.590  11.784 -0.1916 -0.6025 -0.1683
  356TMC3     C 5387   3.210   4.281  11.599 -0.2351 -0.5880  0.4996
  356TMC3     O 5388   3.217   4.278  11.476 -0.1873  0.2025  0.5265
  356TMC3     H 5389   3.387   4.434  11.489 -0.5338  0.3546 -0.6147
  356TMC3    H1 5390   3.221   4.356  11.869  0.0632  1.1599  0.8240
  356TMC3    H2 5391   3.471   4.684  11.824 -0.8728 -0.5045  0.1974
  356TMC3    C7 5392   3.341   4.511  11.998 -0.1119  0.1955  0.0928
  356TMC3    C8 5393   3.528   4.640  11.561 -0.8670 -0.5841 -0.1197
  356TMC3    O1 5394   3.264   4.436  12.063  0.5140  0.3146  0.0985
  356TMC3    O2 5395   3.516   4.620  11.443 -0.5762  0.1452  0.2001
  357MPD2     C 5396   1.935   4.198   0.980 -0.3824  0.0513  0.2439
  357MPD2    C1 5397   1.835   4.120   0.919 -0.7447 -0.5778  0.1089
  357MPD2    C2 5398   1.702   4.168   0.914 -0.6563 -0.1000  0.9698
  357MPD2    C3 5399   1.669   4.286   0.961 -0.4988 -0.3176 -0.5418
  357MPD2    C4 5400   1.771   4.371   1.009 -0.3403  0.4296  0.2003
  357MPD2    C5 5401   1.899   4.322   1.027  0.1949  0.1698 -0.0766
  357MPD2     H 5402   1.626   4.103   0.871 -0.6375  0.2610  0.3956
  357MPD2    H1 5403   1.748   4.474   1.030 -1.1475  0.5427 -1.2607
  357MPD2    H2 5404   2.035   4.164   1.007 -0.2307  1.0664  0.9570
  357MPD2    H3 5405   1.981   4.383   1.063  0.5402 -0.4472  0.1887
  357MPD2     N 5406   1.531   4.338   0.965 -0.1765 -0.3972 -0.2286
  357MPD2    H5 5407   1.516   4.436   0.984 -0.8418 -0.7033  0.8226
  357MPD2    N1 5408   1.870   3.987   0.883  0.1266  0.4376  0.2254
  357MPD2    H7 5409   1.968   3.959   0.891 -0.3758 -1.4564 -0.3046
  358TMC3    C1 5410   1.879   3.787   0.792 -0.6850  0.4633  0.5985
  358TMC3    C2 5411   1.848   3.705   0.686  0.8986 -0.5470 -0.6856
  358TMC3    C3 5412   1.885   3.574   0.694  0.6460 -0.9365  0.2760
  358TMC3    C4 5413   1.942   3.739   0.906  0.1894  0.5715  0.3365
  358TMC3    C5 5414   1.979   3.606   0.906  0.3212 -0.9377  0.1373
  358TMC3    C6 5415   1.952   3.525   0.802  0.2640  0.3716  0.2976
  358TMC3     C 5416   1.793   3.900   0.810 -0.0997  0.3284  0.8723
  358TMC3     O 5417   1.696   3.923   0.739  0.1746 -0.0452 -0.0511
  358TMC3     H 5418   1.799   3.742   0.597  2.4192 -0.4897 -1.4851
  358TMC3    H1 5419   1.975   3.796   0.992 -1.3295 -0.2062  1.4439
  358TMC3    H2 5420   1.968   3.419   0.813  1.0932  0.0649 -3.9225
  358TMC3    C7 5421   2.028   3.548   1.031  0.1908 -0.3383 -0.4902
  358TMC3    C8 5422   1.849   3.488   0.581  0.2170 -0.1182  0.0591
  358TMC3    O1 5423   2.000   3.602   1.137  0.6046  0.0075 -0.1753
  358TMC3    O2 5424   1.770   3.538   0.499 -0.1614 -0.1528  0.2288
  359MPD2     C 5425   3.375   2.745  12.662  0.1827  0.7952  0.4212
  359MPD2    C1 5426   3.300   2.758  12.551  0.1797 -0.2955  1.2300
  359MPD2    C2 5427   3.164   2.724  12.556 -1.1700 -0.3267 -0.3754
  359MPD2    C3 5428   3.099   2.675  12.666 -0.2601 -0.0897  0.3807
  359MPD2    C4 5429   3.185   2.667  12.779 -0.3929 -0.1955 -0.3137
  359MPD2    C5 5430   3.312   2.714  12.775 -0.0266 -0.4144 -0.0030
  359MPD2     H 5431   3.107   2.740  12.466 -2.5162  1.5700  0.8110
  359MPD2    H1 5432   3.142   2.634  12.873 -0.6195 -1.6976 -0.9484
  359MPD2    H2 5433   3.480   2.771  12.665 -0.2292  2.9146 -3.2134
  359MPD2    H3 5434   3.376   2.712  12.863  0.7939  0.6740 -0.5658
  359MPD2     N 5435   2.968   2.616  12.670  0.1219  0.1895 -0.3132
  359MPD2    H5 5436   2.943   2.575  12.759  1.4907  1.6711  0.7569
  359MPD2    N1 5437   3.352   2.816  12.424 -0.6933 -0.4303 -0.6031
  359MPD2    H7 5438   3.285   2.850  12.357  0.7265  0.4484 -1.5625
  360TMC3    C1 5439   3.499   2.917  12.271  0.7984  0.1470  0.9910
  360TMC3    C2 5440   3.599   3.004  12.246 -0.5256  0.0211  0.3704
  360TMC3    C3 5441   3.618   3.048  12.121 -0.3205  0.3058 -0.6306
  360TMC3    C4 5442   3.412   2.879  12.170  0.4612  0.0299  0.1192
  360TMC3    C5 5443   3.431   2.928  12.043  0.0103  0.4685 -0.7704
  360TMC3    C6 5444   3.536   3.011  12.022  0.0279 -0.3886 -0.5596
  360TMC3     C 5445   3.484   2.866  12.408  0.0210  0.0835  0.5182
  360TMC3     O 5446   3.570   2.899  12.489 -0.2115 -0.9434  0.4777
  360TMC3     H 5447   3.683   3.023  12.311  0.5325 -2.4193 -0.2671
  360TMC3    H1 5448   3.337   2.804  12.192 -0.4299  1.2869  1.4064
  360TMC3    H2 5449   3.558   3.032  11.918  2.3518  0.3276  0.0944
  360TMC3    C7 5450   3.336   2.910  11.932  0.1756  0.3890  0.8088
  360TMC3    C8 5451   3.731   3.140  12.101  0.1463 -0.3778  0.1398
  360TMC3    O1 5452   3.378   2.959  11.828  0.0110  0.0756  0.0524
  360TMC3    O2 5453   3.758   3.223  12.189 -0.1067 -0.0748 -0.1420
  361MPD2     C 5454   4.565   2.097  16.616 -0.2128 -0.3343 -0.2133
  361MPD2    C1 5455   4.521   2.108  16.747 -0.1735 -0.2392  0.7622
  361MPD2    C2 5456   4.572   2.015  16.843 -0.4341  0.6216 -0.2154
  361MPD2    C3 5457   4.672   1.924  16.809 -0.2267 -0.6576  0.0535
  361MPD2    C4 5458   4.722   1.930  16.681  0.6257  0.7415  1.2364
  361MPD2    C5 5459   4.668   2.016  16.584 -0.7676  0.0060 -0.0717
  361MPD2     H 5460   4.546   2.025  16.948  0.9382 -1.1406  0.2942
  361MPD2    H1 5461   0.068   1.867  16.654 -0.5257 -0.0290 -0.5823
  361MPD2    H2 5462   4.525   2.164  16.541  1.5770  1.8198  0.7514
  361MPD2    H3 5463   4.708   2.027  16.484  0.1671 -1.4543  0.1419
  361MPD2     N 5464   4.734   1.832  16.901 -0.0058 -0.3635  0.0736
  361MPD2    H5 5465   0.063   1.774  16.854 -1.6108 -0.4373 -2.1387
  361MPD2    N1 5466   4.435   2.211  16.780 -0.1746  0.1745  0.7054
  361MPD2    H7 5467   4.401   2.262  16.700  0.5160  0.0233  0.3240
  362TMC3    C1 5468   4.335   2.394  16.892  0.1379 -0.0859 -0.2425
  362TMC3    C2 5469   4.250   2.428  16.998  0.3135  0.5754 -0.0488
  362TMC3    C3 5470   4.150   2.524  16.972  0.9025 -0.1017 -0.2268
  362TMC3    C4 5471   4.319   2.458  16.769  0.1721  0.3598  0.4809
  362TMC3    C5 5472   4.230   2.565  16.760  0.5631  0.0250  0.0644
  362TMC3    C6 5473   4.141   2.602  16.860  0.0041 -0.1077  0.4251
  362TMC3     C 5474   4.396   2.263  16.904 -0.1929  0.0022 -0.3580
  362TMC3     O 5475   4.406   2.208  17.014 -0.3031  0.2917  0.0598
  362TMC3     H 5476   4.228   2.355  17.075 -0.3260  0.7480 -0.0673
  362TMC3    H1 5477   4.376   2.445  16.678 -0.5947 -3.4845  0.5389
  362TMC3    H2 5478   4.071   2.684  16.853  1.0366  0.5504 -2.2542
  362TMC3    C7 5479   4.228   2.645  16.636  0.5572  0.0107 -0.6252
  362TMC3    C8 5480   4.050   2.541  17.073  0.1374  0.2382 -0.6850
  362TMC3    O1 5481   4.172   2.755  16.646 -0.2907  0.1063  0.6351
  362TMC3    O2 5482   4.089   2.507  17.183 -0.1222 -0.2272 -0.5509
  363TMC3    C1 5483   2.791   4.284   9.046 -0.1817 -0.6052  0.1417
  363TMC3    C2 5484   2.921   4.316   9.082 -0.2112  0.1635  0.8131
  363TMC3    C3 5485   2.952   4.437   9.132  0.1523 -0.0051 -0.1757
  363TMC3    C4 5486   2.694   4.381   9.069  0.1513  0.3505  0.0576
  363TMC3    C5 5487   2.732   4.507   9.110  0.1657  0.3249  0.5455
  363TMC3    C6 5488   2.863   4.539   9.144 -0.3150 -0.0298  0.7296
  363TMC3     C 5489   2.758   4.170   8.962  0.7881  0.0222 -0.1383
  363TMC3     O 5490   2.670   4.185   8.881  0.0190  0.0293  0.2650
  363TMC3     H 5491   3.000   4.245   9.063 -0.4995 -0.0952  0.5804
  363TMC3    H1 5492   2.590   4.355   9.058  0.6587 -1.6035 -0.1033
  363TMC3    H2 5493   2.901   4.637   9.171 -0.6416  0.6451 -1.2593
  363TMC3    C7 5494   2.631   4.596   9.154  0.1077  0.1882  0.5396
  363TMC3    C8 5495   3.088   4.455   9.190  1.2824 -0.8576  1.0876
  363TMC3    O1 5496   2.674   4.691   9.215 -0.1110  0.2432 -0.0478
  363TMC3    O2 5497   3.119   4.567   9.224 -0.0708 -0.0414  0.5964
  364MPD2     C 5498   2.028   4.217  10.977 -0.1949 -0.4969 -0.1229
  364MPD2    C1 5499   2.081   4.147  10.872  0.1235 -0.1509  0.1370
  364MPD2    C2 5500   2.099   4.012  10.888 -0.4275  0.1603  0.3570
  364MPD2    C3 5501   2.056   3.948  11.000 -0.2853  0.2662  0.2458
  364MPD2    C4 5502   2.000   4.019  11.102 -0.1074  0.5105  0.2653
  364MPD2    C5 5503   1.990   4.156  11.090 -0.2718  0.5773  0.4281
  364MPD2     H 5504   2.127   3.953  10.801  1.3848  0.6525  0.5966
  364MPD2    H1 5505   1.974   3.975  11.198 -2.3066  1.1891 -0.0317
  364MPD2    H2 5506   2.026   4.325  10.978 -0.4999 -0.4998 -0.4849
  364MPD2    H3 5507   1.968   4.215  11.178 -1.5801  1.1030 -0.2500
  364MPD2     N 5508   2.076   3.805  11.020  0.0706 -0.1013  0.3847
  364MPD2    H5 5509   2.055   3.773  11.114 -1.2565  0.5582  0.3099
  364MPD2    N1 5510   2.134   4.212  10.760  0.3704  0.2232 -0.9879
  364MPD2    H7 5511   2.121   4.313  10.756 -0.6215  0.2567  2.9359
  365TMC3    C1 5512   2.276   4.273  10.582 -0.1316  0.3325  0.0596
  365TMC3    C2 5513   2.346   4.244  10.466  0.3060  0.5247  0.6077
  365TMC3    C3 5514   2.439   4.330  10.422  0.0952  0.3439 -0.0911
  365TMC3    C4 5515   2.312   4.391  10.655  0.7833  0.3058 -0.2201
  365TMC3    C5 5516   2.414   4.469  10.608  0.3569  0.1742  0.2574
  365TMC3    C6 5517   2.475   4.440  10.490  0.1280 -1.0374  0.0562
  365TMC3     C 5518   2.208   4.162  10.656  0.6171  0.1425 -0.1970
  365TMC3     O 5519   2.228   4.047  10.616 -0.3292  0.4591 -0.3538
  365TMC3     H 5520   2.316   4.161  10.403  0.1155  1.4813 -0.5361
  365TMC3    H1 5521   2.275   4.404  10.756  2.3052 -0.6919  0.4543
  365TMC3    H2 5522   2.554   4.508  10.459 -0.0157 -1.2383 -0.7475
  365TMC3    C7 5523   2.453   4.588  10.672  0.6375 -0.6988  0.2296
  365TMC3    C8 5524   2.524   4.312  10.307 -0.0135 -0.2467 -0.2135
  365TMC3    O1 5525   2.574   4.612  10.677 -0.5984  0.0839 -0.2027
  365TMC3    O2 5526   2.589   4.409  10.261 -0.3031  0.0464  0.0858
  366MPD2     C 5527   4.413   0.703  15.398 -0.7217  0.5679 -0.1343
  366MPD2    C1 5528   4.534   0.638  15.383 -0.1787  1.0537  0.1471
  366MPD2    C2 5529   4.537   0.511  15.317 -0.1557  0.6719 -0.2163
  366MPD2    C3 5530   4.419   0.447  15.287 -0.8134 -0.2500 -0.6457
  366MPD2    C4 5531   4.297   0.508  15.312  0.5643  0.1246 -0.3074
  366MPD2    C5 5532   4.298   0.641  15.363 -0.1554  0.6118  0.2775
  366MPD2     H 5533   4.632   0.458  15.314 -1.5959 -2.0147  2.0542
  366MPD2    H1 5534   4.201   0.461  15.294  0.4506  0.3991 -0.4246
  366MPD2    H2 5535   4.407   0.796  15.453  0.2489 -0.1345  1.1554
  366MPD2    H3 5536   4.206   0.697  15.379 -0.1561  0.8030 -0.3879
  366MPD2     N 5537   4.432   0.319  15.230  0.1563 -0.2672  0.0499
  366MPD2    H5 5538   4.522   0.280  15.205  0.3335  0.2515 -0.1002
  366MPD2    N1 5539   4.661   0.688  15.418  0.6156  0.2522  0.5804
  366MPD2    H7 5540   0.008   0.640  15.392  0.7195  0.6508  0.1849
  367TMC3    C1 5541   0.085   0.829  15.514 -0.8166  0.3345  0.1471
  367TMC3    C2 5542   0.139   0.859  15.636  0.1852  0.6632  0.2660
  367TMC3    C3 5543   0.276   0.878  15.648  0.6227 -0.7797 -0.1469
  367TMC3    C4 5544   0.166   0.809  15.406 -0.7498  0.2909  0.2745
  367TMC3    C5 5545   0.298   0.811  15.427  0.9852 -0.2994 -0.2238
  367TMC3    C6 5546   0.360   0.851  15.545 -0.3917  0.2036  0.2151
  367TMC3     C 5547   4.682   0.793  15.504  0.2117 -0.9091  0.2403
  367TMC3     O 5548   4.602   0.858  15.575 -0.5518 -0.0034  0.6193
  367TMC3     H 5549   0.076   0.865  15.724  0.0353 -3.2154  0.4082
  367TMC3    H1 5550   0.132   0.809  15.303 -0.1060  1.7519  0.0659
  367TMC3    H2 5551   0.467   0.843  15.555 -0.3590 -1.4884 -1.4692
  367TMC3    C7 5552   0.382   0.743  15.329 -0.4578 -0.0927 -0.6262
  367TMC3    C8 5553   0.329   0.881  15.778  0.3895 -0.1794 -0.1848
  367TMC3    O1 5554   0.501   0.785  15.324  0.5844 -0.5580  0.2418
  367TMC3    O2 5555   0.292   0.977  15.846  0.4418 -0.2692  0.3581
  368MPD2     C 5556   1.602   1.454  13.190  0.1654 -0.6539 -0.8927
  368MPD2    C1 5557   1.603   1.585  13.157  0.0648 -0.2643  0.1945
  368MPD2    C2 5558   1.693   1.623  13.057  0.7139 -0.0354 -0.1664
  368MPD2    C3 5559   1.779   1.533  13.000  0.2287  0.5374 -0.4096
  368MPD2    C4 5560   1.788   1.408  13.055  0.1569 -1.0161 -0.6194
  368MPD2    C5 5561   1.695   1.365  13.147 -0.0582 -0.1306 -0.0490
  368MPD2     H 5562   1.679   1.724  13.020  0.9256  0.6528  1.6011
  368MPD2    H1 5563   1.864   1.338  13.023  0.7393 -0.9824  0.7166
  368MPD2    H2 5564   1.528   1.413  13.258  0.4599 -0.3947 -0.4176
  368MPD2    H3 5565   1.707   1.263  13.181 -0.2467  0.3101  1.3489
  368MPD2     N 5566   1.874   1.562  12.900 -0.1494  0.7705 -0.7702
  368MPD2    H5 5567   1.944   1.490  12.887  1.1880  2.0306 -0.5854
  368MPD2    N1 5568   1.522   1.671  13.226 -0.7281 -0.5513  0.2842
  368MPD2    H7 5569   1.450   1.631  13.284 -1.7302  2.4219  1.1041
  369TMC3    C1 5570   1.422   1.890  13.282  0.1313  0.8550 -0.3658
  369TMC3    C2 5571   1.450   2.022  13.268 -0.4949  0.2136 -0.8889
  369TMC3    C3 5572   1.347   2.108  13.230  0.7982 -0.4030 -0.2908
  369TMC3    C4 5573   1.294   1.844  13.266 -0.0652 -0.7814 -0.4901
  369TMC3    C5 5574   1.192   1.932  13.240 -0.8593  0.8387 -0.7522
  369TMC3    C6 5575   1.219   2.063  13.218 -1.0680  0.7749 -0.1550
  369TMC3     C 5576   1.533   1.808  13.226  0.3537 -0.3147  0.7898
  369TMC3     O 5577   1.619   1.882  13.181 -0.1081  0.4128  0.1883
  369TMC3     H 5578   1.549   2.058  13.293 -0.8181  2.5346 -2.9187
  369TMC3    H1 5579   1.274   1.738  13.263 -1.9139 -0.4850  1.3950
  369TMC3    H2 5580   1.141   2.136  13.196 -2.2569 -0.7080 -0.8789
  369TMC3    C7 5581   1.057   1.893  13.272  0.1851  0.9190  0.5804
  369TMC3    C8 5582   1.386   2.225  13.151 -0.1705 -0.3928  0.1458
  369TMC3    O1 5583   1.043   1.799  13.352  0.3628 -0.3377  0.4213
  369TMC3    O2 5584   1.307   2.316  13.139  0.2516  0.1542 -0.0822
  370TMC3    C1 5585   0.997   2.711  16.149  0.2274 -0.5521  0.2280
  370TMC3    C2 5586   0.903   2.641  16.218  0.8530  0.2206  0.1950
  370TMC3    C3 5587   0.875   2.511  16.187  0.9023 -0.3001  0.1380
  370TMC3    C4 5588   1.060   2.647  16.046 -0.2168  0.2713 -0.1335
  370TMC3    C5 5589   1.037   2.517  16.018  0.4382  0.3296 -0.5974
  370TMC3    C6 5590   0.948   2.448  16.091  0.4208  0.3668  0.4665
  370TMC3     C 5591   1.056   2.830  16.216  0.2539 -0.1439 -0.4923
  370TMC3     O 5592   1.044   2.833  16.336  0.2691  0.1523  0.0065
  370TMC3     H 5593   0.853   2.689  16.302 -1.8752 -0.8251 -0.8129
  370TMC3    H1 5594   1.134   2.701  15.987  1.8405  1.0954  3.2206
  370TMC3    H2 5595   0.921   2.346  16.066  0.0110  0.5751  0.0655
  370TMC3    C7 5596   1.117   2.451  15.918 -0.0993 -0.1701 -0.1523
  370TMC3    C8 5597   0.826   2.423  16.288 -0.6790 -0.8946  0.0003
  370TMC3    O1 5598   1.205   2.524  15.873  0.5487 -0.3617 -0.3226
  370TMC3    O2 5599   0.875   2.313  16.308 -0.2102  0.3096  0.3517
  371TMC3    C1 5600   2.670   1.490  15.466  1.4314 -0.0385  0.4330
  371TMC3    C2 5601   2.598   1.435  15.565  0.2927 -0.3522  0.1288
  371TMC3    C3 5602   2.527   1.523  15.652  0.5329  0.0051 -0.1412
  371TMC3    C4 5603   2.675   1.626  15.442  0.2815 -0.2882  0.3151
  371TMC3    C5 5604   2.620   1.708  15.533 -0.8980  0.5407 -0.3211
  371TMC3    C6 5605   2.533   1.657  15.635  0.0421 -0.2026 -0.6507
  371TMC3     C 5606   2.742   1.405  15.367  0.3916  0.2603 -0.4447
  371TMC3     O 5607   2.822   1.448  15.287 -0.2430 -0.2340  0.4477
  371TMC3     H 5608   2.594   1.329  15.588  0.9393 -0.2046  0.8923
  371TMC3    H1 5609   2.736   1.662  15.360 -1.3228 -1.1225 -1.2481
  371TMC3    H2 5610   2.481   1.732  15.694  1.8600  0.5560 -0.0263
  371TMC3    C7 5611   2.641   1.853  15.525 -0.2778 -0.1253  0.5788
  371TMC3    C8 5612   2.446   1.469  15.758  0.3385  0.5673  0.0334
  371TMC3    O1 5613   2.582   1.924  15.610 -0.1015 -0.0447 -0.3234
  371TMC3    O2 5614   2.469   1.351  15.777 -0.1380 -0.4683 -0.2836
  372MPD2     C 5615   2.064   2.060  12.873  0.2376  0.4818  0.7434
  372MPD2    C1 5616   2.154   2.010  12.973 -0.2703 -0.0104 -0.1328
  372MPD2    C2 5617   2.099   1.928  13.069 -0.2260 -0.2320  0.2865
  372MPD2    C3 5618   1.963   1.894  13.073  0.5522 -0.0080 -0.5427
  372MPD2    C4 5619   1.882   1.941  12.974 -0.4369  0.3491  0.3761
  372MPD2    C5 5620   1.933   2.033  12.883  0.0843 -0.8201  0.1800
  372MPD2     H 5621   2.162   1.898  13.152  2.0971  1.2213 -0.9454
  372MPD2    H1 5622   1.779   1.908  12.973  0.2165 -1.6266 -1.6706
  372MPD2    H2 5623   2.096   2.139  12.806 -0.7268  0.6711  0.5120
  372MPD2    H3 5624   1.868   2.070  12.806  1.0810 -0.7062 -0.6083
  372MPD2     N 5625   1.900   1.826  13.179 -0.0909  0.5485  0.0456
  372MPD2    H5 5626   1.799   1.833  13.177 -0.0718  0.4335 -1.2091
  372MPD2    N1 5627   2.282   2.072  12.990 -0.3740 -0.2187  0.6123
  372MPD2    H7 5628   2.327   2.072  13.081  0.7379 -1.2514  0.0657
  373TMC3    C1 5629   1.860   1.697  13.371  0.6836 -0.2864 -0.3472
  373TMC3    C2 5630   1.785   1.781  13.450 -0.4247  0.8446  0.0668
  373TMC3    C3 5631   1.717   1.720  13.552 -0.8904  0.1028  0.0894
  373TMC3    C4 5632   1.872   1.563  13.398 -0.0424  0.2746  0.1617
  373TMC3    C5 5633   1.802   1.507  13.498  0.2863  0.2120 -0.0426
  373TMC3    C6 5634   1.720   1.583  13.574  0.1679 -0.8789  0.1146
  373TMC3     C 5635   1.959   1.751  13.280  0.3734  0.1424 -0.9220
  373TMC3     O 5636   2.077   1.718  13.285  0.1610 -0.3523 -0.0333
  373TMC3     H 5637   1.798   1.889  13.441 -0.1035  0.7313 -0.7910
  373TMC3    H1 5638   1.927   1.506  13.323 -0.5737 -0.0120 -0.0077
  373TMC3    H2 5639   1.652   1.539  13.646  0.4786 -2.0803 -0.3339
  373TMC3    C7 5640   1.842   1.378  13.540 -0.1471 -0.1733 -0.1850
  373TMC3    C8 5641   1.698   1.787  13.681  0.7774  0.4850 -0.7896
  373TMC3    O1 5642   1.896   1.307  13.459 -0.8255  0.5449  0.0792
  373TMC3    O2 5643   1.618   1.734  13.758 -0.6329  0.2786 -1.0328
  374TMC3    C1 5644   2.578   2.608   9.927  0.0353  0.0338  0.2730
  374TMC3    C2 5645   2.650   2.713   9.969 -0.1740  0.0145  0.4285
  374TMC3    C3 5646   2.692   2.799   9.869 -0.0285 -0.6584  0.0965
  374TMC3    C4 5647   2.541   2.586   9.799  0.2240 -0.1629  0.5315
  374TMC3    C5 5648   2.579   2.676   9.701  0.7804  0.3154 -0.0688
  374TMC3    C6 5649   2.667   2.781   9.734 -0.1179 -0.3652 -0.3328
  374TMC3     C 5650   2.521   2.517  10.025  0.2231  0.4071 -0.0153
  374TMC3     O 5651   2.438   2.430   9.988  0.0202 -0.6162 -0.1010
  374TMC3     H 5652   2.669   2.738  10.073  0.4652  0.0447  0.3066
  374TMC3    H1 5653   2.472   2.506   9.775 -2.2656  2.7140 -1.8342
  374TMC3    H2 5654   2.683   2.862   9.665  0.8409 -0.7488 -0.5666
  374TMC3    C7 5655   2.569   2.642   9.557 -0.0094  0.1923  0.9696
  374TMC3    C8 5656   2.787   2.898   9.900  0.0692  0.0065 -0.3349
  374TMC3    O1 5657   2.650   2.688   9.482  0.6703 -0.3825 -0.1954
  374TMC3    O2 5658   2.781   2.997   9.829 -0.0580  0.0400 -0.0764
  375MPD2     C 5659   2.275   2.604  17.012  0.1087  0.5050 -0.4926
  375MPD2    C1 5660   2.243   2.699  16.919 -0.2278  0.1423 -0.5999
  375MPD2    C2 5661   2.326   2.744  16.821 -0.6612  0.4528 -0.3828
  375MPD2    C3 5662   2.443   2.676  16.805 -0.6484 -0.0740  0.0193
  375MPD2    C4 5663   2.473   2.568  16.889 -0.2662 -0.4108 -0.3212
  375MPD2    C5 5664   2.396   2.539  16.999  0.6747  0.1941 -0.0185
  375MPD2     H 5665   2.296   2.823  16.753 -1.2660  1.0256  0.5457
  375MPD2    H1 5666   2.558   2.503  16.870 -0.5457 -1.6007  2.6053
  375MPD2    H2 5667   2.208   2.574  17.092 -1.1297 -0.0113 -1.7146
  375MPD2    H3 5668   2.426   2.454  17.060  0.9681  1.3983  1.5097
  375MPD2     N 5669   2.539   2.697  16.705  0.1926  0.2429  0.2377
  375MPD2    H5 5670   2.621   2.638  16.696  0.7978  1.2802 -1.1257
  375MPD2    N1 5671   2.117   2.770  16.911  0.1304  0.5091 -0.4428
  375MPD2    H7 5672   2.110   2.838  16.836  0.0977 -0.2966 -1.1746
  376TMC3    C1 5673   2.631   2.806  16.513 -0.0858  0.4388  0.1445
  376TMC3    C2 5674   2.746   2.736  16.544  0.0202 -0.4853 -0.8076
  376TMC3    C3 5675   2.831   2.710  16.447 -0.1365 -0.3042  0.1044
  376TMC3    C4 5676   2.602   2.860  16.389 -0.6816  0.2645  0.2425
  376TMC3    C5 5677   2.695   2.832  16.294  0.4857  0.2365 -0.6459
  376TMC3    C6 5678   2.807   2.756  16.314 -0.4357  0.1116 -0.5896
  376TMC3     C 5679   2.515   2.787  16.596  0.0228 -0.2841  0.4918
  376TMC3     O 5680   2.421   2.859  16.572  0.4098  0.2351  0.1016
  376TMC3     H 5681   2.788   2.740  16.643  1.9232 -1.6426 -1.5692
  376TMC3    H1 5682   2.504   2.898  16.364 -0.5139  0.1817 -0.5297
  376TMC3    H2 5683   2.886   2.732  16.244  0.8512  1.9605  0.2093
  376TMC3    C7 5684   2.669   2.913  16.174 -0.1757  0.0206 -0.4829
  376TMC3    C8 5685   2.955   2.777  16.470 -0.3179 -0.7574 -0.1442
  376TMC3    O1 5686   2.586   3.007  16.181  0.3392  0.0608 -0.4104
  376TMC3    O2 5687   2.943   2.897  16.500  0.9045 -0.3031  0.1575
  377MPD2     C 5688   0.290   2.589  13.046 -0.0682 -0.2715  0.2114
  377MPD2    C1 5689   0.383   2.522  13.116  0.3728  0.1015  0.3425
  377MPD2    C2 5690   0.352   2.478  13.247  0.3476 -0.4690  0.0239
  377MPD2    C3 5691   0.222   2.485  13.295  0.5367  0.1935  0.8580
  377MPD2    C4 5692   0.128   2.543  13.213 -0.2353 -0.5942 -0.6599
  377MPD2    C5 5693   0.166   2.601  13.092  0.5810  0.5890 -0.8217
  377MPD2     H 5694   0.427   2.434  13.311  0.3997 -2.6469 -1.5220
  377MPD2    H1 5695   0.022   2.550  13.232  0.2246 -0.6332  2.0738
  377MPD2    H2 5696   0.315   2.639  12.953 -0.2343  1.7935  1.2608
  377MPD2    H3 5697   0.098   2.664  13.035  0.1619  0.5659 -0.3535
  377MPD2     N 5698   0.176   2.418  13.411  0.5439  0.3525 -0.3165
  377MPD2    H5 5699   0.077   2.427  13.431  0.3036 -1.4894 -0.6508
  377MPD2    N1 5700   0.513   2.514  13.060  0.2104 -0.1270 -0.4958
  377MPD2    H7 5701   0.536   2.583  12.989  1.5032 -1.5159 -1.4167
  378TMC3    C1 5702   0.772   2.452  12.775 -0.4334  0.3296 -0.6443
  378TMC3    C2 5703   0.697   2.492  12.884 -0.3507 -0.3381 -0.1724
  378TMC3    C3 5704   0.719   2.427  13.004 -0.1932  0.0705 -0.6196
  378TMC3    C4 5705   0.853   2.346  12.782 -0.4414 -0.3944 -0.8785
  378TMC3    C5 5706   0.873   2.287  12.900  0.0252 -0.9096 -0.2621
  378TMC3    C6 5707   0.806   2.321  13.013  0.5631 -0.1071 -0.0680
  378TMC3     C 5708   0.726   2.507  12.639 -0.6816  1.1823 -0.5264
  378TMC3     O 5709   0.617   2.556  12.628 -0.1421  0.4350  0.3285
  378TMC3     H 5710   0.649   2.589  12.874 -0.8016 -0.3494  2.0132
  378TMC3    H1 5711   0.895   2.306  12.690 -0.2171  0.5705 -1.2002
  378TMC3    H2 5712   0.848   2.286  13.107 -1.0096  0.7324  0.9702
  378TMC3    C7 5713   0.993   2.207  12.930  0.4904 -0.0856 -0.1851
  378TMC3    C8 5714   0.622   2.440  13.099 -0.3572  0.4606 -0.3095
  378TMC3    O1 5715   0.977   2.116  13.012 -0.4040  0.4009 -0.1082
  378TMC3    O2 5716   0.638   2.361  13.193 -0.2029 -0.1172  0.2904
  379MPD2     C 5717   1.351   0.478  16.226  0.2029  0.1424  0.2901
  379MPD2    C1 5718   1.257   0.416  16.308 -0.6626 -0.8905  0.6182
  379MPD2    C2 5719   1.281   0.400  16.443 -0.2518 -0.3537 -0.4168
  379MPD2    C3 5720   1.404   0.445  16.491  0.3516  0.1586  0.5173
  379MPD2    C4 5721   1.502   0.495  16.399 -0.1431 -0.1504  0.5893
  379MPD2    C5 5722   1.474   0.517  16.273  0.2934  0.0651  0.1769
  379MPD2     H 5723   1.200   0.360  16.503  0.2382  1.7392  1.6494
  379MPD2    H1 5724   1.600   0.522  16.437 -0.8832  0.9239  1.7641
  379MPD2    H2 5725   1.326   0.482  16.121 -1.0936 -0.9148  0.5739
  379MPD2    H3 5726   1.545   0.561  16.204  0.5786 -1.0943 -0.2784
  379MPD2     N 5727   1.451   0.425  16.625 -0.2037  0.3923 -0.2444
  379MPD2    H5 5728   1.542   0.460  16.651 -0.5946 -1.0140  3.0226
  379MPD2    N1 5729   1.136   0.373  16.255 -0.3107  0.2235  0.2471
  379MPD2    H7 5730   1.126   0.391  16.156 -0.6244  1.6367  0.5333
  380TMC3    C1 5731   0.950   0.247  16.222  0.5466  0.5234  0.1217
  380TMC3    C2 5732   0.992   0.247  16.090  0.1756  0.0287  0.4885
  380TMC3    C3 5733   0.894   0.226  16.000 -0.4038  0.4118  0.3750
  380TMC3    C4 5734   0.814   0.243  16.258 -0.2065  0.3590  0.7534
  380TMC3    C5 5735   0.724   0.247  16.158  0.3910  0.7787 -0.4941
  380TMC3    C6 5736   0.758   0.226  16.029 -0.4077 -0.2986  0.1274
  380TMC3     C 5737   1.035   0.302  16.319  0.5072  0.8180  0.3753
  380TMC3     O 5738   1.012   0.271  16.435 -0.3412 -0.3513  0.0886
  380TMC3     H 5739   1.095   0.222  16.064  0.1803  0.7412 -0.1689
  380TMC3    H1 5740   0.773   0.263  16.356  0.7223  0.7248  1.0582
  380TMC3    H2 5741   0.683   0.212  15.952  0.1731 -1.4544 -0.2127
  380TMC3    C7 5742   0.630   0.357  16.179 -0.0458  0.5556  0.2923
  380TMC3    C8 5743   0.925   0.214  15.856  0.3278 -0.5432 -0.5707
  380TMC3    O1 5744   0.594   0.383  16.289 -0.1330 -0.1969  0.3497
  380TMC3    O2 5745   0.839   0.166  15.786  0.2490 -0.1388  0.6504
  381TMC3    C1 5746   1.008   1.757  16.223 -0.7830 -0.1494 -0.8563
  381TMC3    C2 5747   1.088   1.871  16.215 -0.3334 -0.7267  0.3146
  381TMC3    C3 5748   1.072   1.967  16.311 -0.3723 -0.4548  0.0479
  381TMC3    C4 5749   0.906   1.754  16.317 -0.2854 -0.0288 -0.1743
  381TMC3    C5 5750   0.887   1.855  16.404  0.2720 -0.4725 -0.5218
  381TMC3    C6 5751   0.960   1.969  16.398  0.1973 -0.5078 -0.5211
  381TMC3     C 5752   1.061   1.645  16.146  0.4008  0.0473 -0.3089
  381TMC3     O 5753   1.156   1.667  16.069  0.8079 -0.2149  0.0456
  381TMC3     H 5754   1.166   1.884  16.142  0.0530 -0.8063  0.7114
  381TMC3    H1 5755   0.858   1.661  16.342  4.1874 -2.3342 -0.2221
  381TMC3    H2 5756   0.940   2.049  16.469 -0.8726 -0.4937 -0.8330
  381TMC3    C7 5757   0.842   1.822  16.538 -0.9402  0.1911 -0.8480
  381TMC3    C8 5758   1.175   2.069  16.311 -0.1250 -0.3206  0.1096
  381TMC3    O1 5759   0.865   1.718  16.592  0.3101 -0.0198  0.6636
  381TMC3    O2 5760   1.284   2.048  16.257  0.4994  0.3804 -0.2583
  382MPD2     C 5761   0.472   4.312  16.945 -0.4350  0.5354  0.7967
  382MPD2    C1 5762   0.411   4.399  17.032  0.1235 -0.2439  0.2397
  382MPD2    C2 5763   0.314   4.348  17.116 -0.7726 -0.1268 -0.0648
  382MPD2    C3 5764   0.287   4.207  17.121  0.3598 -0.0129 -0.0168
  382MPD2    C4 5765   0.361   4.121  17.042  0.3406 -0.0115  0.3200
  382MPD2    C5 5766   0.448   4.176  16.950 -0.3423 -0.1375 -0.2017
  382MPD2     H 5767   0.259   4.419  17.175  2.6218  2.6275 -0.2116
  382MPD2    H1 5768   0.331   4.017  17.036  0.4834  0.0182 -0.9928
  382MPD2    H2 5769   0.546   4.350  16.877  1.0705 -0.0216  2.1128
  382MPD2    H3 5770   0.497   4.106  16.883 -2.1811 -3.0368  1.4373
  382MPD2     N 5771   0.192   4.157  17.213  0.6245  0.1363  0.0507
  382MPD2    H5 5772   0.188   4.057  17.229 -1.2438 -0.1867 -2.3305
  382MPD2    N1 5773   0.419   4.535  17.036  0.4140  0.2368 -0.0309
  382MPD2    H7 5774   0.388   4.588  17.118  1.9356  0.6293  0.2878
  383TMC3    C1 5775   0.017   4.131  17.346  0.8534  0.3465  0.0446
  383TMC3    C2 5776   4.731   4.006  17.291 -0.2644  0.0206 -0.7785
  383TMC3    C3 5777   4.618   3.946  17.334  0.3344  0.0629 -0.6229
  383TMC3    C4 5778   4.676   4.179  17.450  0.0251 -0.5176 -0.3476
  383TMC3    C5 5779   4.564   4.110  17.485  0.4954  0.4019  0.0749
  383TMC3    C6 5780   4.533   3.991  17.433 -0.1521 -0.2448 -0.0826
  383TMC3     C 5781   0.101   4.225  17.285  0.0928  0.0925 -0.6848
  383TMC3     O 5782   0.066   4.343  17.290 -0.4006  0.1890  0.1087
  383TMC3     H 5783   0.054   3.956  17.218  1.0917  1.6232 -0.7240
  383TMC3    H1 5784   4.689   4.281  17.485 -0.8387 -0.7994  0.7862
  383TMC3    H2 5785   4.450   3.925  17.456 -0.2355  0.7779  2.5160
  383TMC3    C7 5786   4.467   4.189  17.557  0.6773  0.1838  0.1237
  383TMC3    C8 5787   4.589   3.809  17.285 -0.2600 -0.0398 -0.2161
  383TMC3    O1 5788   4.487   4.312  17.568 -0.0167  0.0018  0.0893
  383TMC3    O2 5789   4.692   3.758  17.233 -0.5608 -0.1125 -0.0300
  384MPD2     C 5790   1.980   0.737  12.207  0.1939 -0.6685  0.3979
  384MPD2    C1 5791   1.932   0.656  12.306 -0.0424 -0.2336  0.4770
  384MPD2    C2 5792   2.022   0.574  12.363  0.2427 -0.2587 -0.0690
  384MPD2    C3 5793   2.155   0.571  12.329  0.4317 -0.0697  0.3620
  384MPD2    C4 5794   2.209   0.669  12.251 -0.0644 -0.6045 -0.1547
  384MPD2    C5 5795   2.117   0.746  12.182 -0.7121 -0.1486 -0.0358
  384MPD2     H 5796   1.984   0.508  12.441 -0.8943  0.3104 -0.1314
  384MPD2    H1 5797   2.314   0.673  12.226  0.0054  1.5981  0.5382
  384MPD2    H2 5798   1.909   0.802  12.158  1.3223  0.4649  0.2722
  384MPD2    H3 5799   2.151   0.818  12.108 -0.6974 -0.7457 -0.6179
  384MPD2     N 5800   2.229   0.472  12.393  0.0369  0.3830  0.2597
  384MPD2    H5 5801   2.179   0.419  12.464  2.3436  1.0593  2.3865
  384MPD2    N1 5802   1.802   0.650  12.362 -0.5177 -0.9143  0.0278
  384MPD2    H7 5803   1.791   0.586  12.440  0.3470 -1.1201 -0.0219
  385TMC3    C1 5804   2.392   0.323  12.436  0.3665  0.8610 -0.7166
  385TMC3    C2 5805   2.416   0.209  12.366 -0.2540 -0.5743 -0.7392
  385TMC3    C3 5806   2.374   0.090  12.415 -0.5815 -0.5704 -0.1795
  385TMC3    C4 5807   2.312   0.311  12.552 -1.2422 -0.9631  0.7646
  385TMC3    C5 5808   2.256   0.192  12.594 -0.7238 -0.5220 -0.3148
  385TMC3    C6 5809   2.289   0.074  12.530 -0.5191  0.4623 -0.0114
  385TMC3     C 5810   2.362   0.442  12.365  0.5195  0.2583 -0.7600
  385TMC3     O 5811   2.449   0.488  12.291  0.1096 -0.0132 -0.3892
  385TMC3     H 5812   2.481   0.207  12.279  0.0071  1.4854 -0.5946
  385TMC3    H1 5813   2.282   0.389  12.621  0.4732  0.8446 -0.5318
  385TMC3    H2 5814   2.270   4.715  12.575  1.1104  0.1714  0.0651
  385TMC3    C7 5815   2.111   0.204  12.614  0.2206  0.0502  0.1813
  385TMC3    C8 5816   2.388   4.713  12.334  0.2510 -0.1060  0.4220
  385TMC3    O1 5817   2.061   0.302  12.559 -0.3102  0.1379 -1.0799
  385TMC3    O2 5818   2.409   4.609  12.391  0.5560  0.1508  0.0394
  386TMC3    C1 5819   1.884   2.832  11.754 -0.1669 -0.5003  0.8851
  386TMC3    C2 5820   1.850   2.916  11.653 -0.3241 -0.0796 -0.0698
  386TMC3    C3 5821   1.729   2.983  11.644 -0.5812  0.1630 -0.4975
  386TMC3    C4 5822   1.793   2.816  11.859 -0.1803  0.4893  0.0642
  386TMC3    C5 5823   1.673   2.886  11.846  0.2148  0.0073  0.6143
  386TMC3    C6 5824   1.640   2.968  11.744  1.2823  0.2101  0.2627
  386TMC3     C 5825   2.012   2.772  11.746 -0.6391 -0.3848  0.1337
  386TMC3     O 5826   2.098   2.818  11.670  0.1334 -0.4928  0.5255
  386TMC3     H 5827   1.909   2.904  11.563 -2.5628 -0.2983 -1.5003
  386TMC3    H1 5828   1.811   2.764  11.953  2.3783  1.2741  0.0143
  386TMC3    H2 5829   1.546   3.018  11.723  1.2048 -0.0954 -0.1171
  386TMC3    C7 5830   1.588   2.876  11.957 -0.0916 -0.3123  0.2442
  386TMC3    C8 5831   1.679   3.026  11.524 -0.6364 -0.2537 -0.1650
  386TMC3    O1 5832   1.645   2.864  12.064  0.2974  0.7279  0.8371
  386TMC3    O2 5833   1.566   2.999  11.492 -1.1166  0.0311 -0.1857
  387MPD2     C 5834   4.490   3.283   9.893  0.1768  0.3879  0.1812
  387MPD2    C1 5835   4.556   3.219   9.993 -0.5015  0.7736 -0.9703
  387MPD2    C2 5836   4.543   3.079  10.006  0.1124 -0.2307 -0.1232
  387MPD2    C3 5837   4.458   3.005   9.921  0.3015 -0.9200 -1.3392
  387MPD2    C4 5838   4.383   3.074   9.831  0.0334  0.3872 -0.1491
  387MPD2    C5 5839   4.398   3.209   9.816 -0.3467 -0.4154  0.1786
  387MPD2     H 5840   4.607   3.022  10.072  2.5358  1.9713 -0.5213
  387MPD2    H1 5841   4.310   3.023   9.769  0.6520  0.8541 -1.2628
  387MPD2    H2 5842   4.509   3.385   9.861  1.7439  0.6489  1.9820
  387MPD2    H3 5843   4.328   3.260   9.751  1.3683 -0.9262 -2.0915
  387MPD2     N 5844   4.472   2.866   9.937  0.6231  0.6790  0.0052
  387MPD2    H5 5845   4.550   2.839   9.996  1.3680 -0.9365 -1.7309
  387MPD2    N1 5846   4.661   3.276  10.076  0.0019  0.3875  0.3299
  387MPD2    H7 5847   4.706   3.216  10.144  0.2056  0.3886  0.1937
  388TMC3    C1 5848   0.083   3.441  10.124 -0.3649  0.4057 -1.0766
  388TMC3    C2 5849   0.106   3.549  10.203 -0.3180  0.1244  0.0265
  388TMC3    C3 5850   0.232   3.553  10.263 -0.2767  0.3488  0.1962
  388TMC3    C4 5851   0.167   3.334  10.101  0.7618 -0.4973  0.0499
  388TMC3    C5 5852   0.292   3.342  10.162  0.3135  0.1938  0.1032
  388TMC3    C6 5853   0.321   3.446  10.245 -0.0507  0.0513  0.0355
  388TMC3     C 5854   4.678   3.409  10.095  0.2518  0.4630  0.2811
  388TMC3     O 5855   4.599   3.502  10.063  0.5038  0.0239  0.0890
  388TMC3     H 5856   0.025   3.615  10.229 -2.1220 -1.3421 -1.9536
  388TMC3    H1 5857   0.143   3.273  10.015  0.9565 -2.9146  1.7307
  388TMC3    H2 5858   0.422   3.454  10.282  0.8804 -1.9657 -2.0911
  388TMC3    C7 5859   0.379   3.229  10.156  0.0834 -0.1358 -0.7269
  388TMC3    C8 5860   0.265   3.638  10.374 -0.0774 -0.2288  0.4602
  388TMC3    O1 5861   0.484   3.218  10.220  0.1843  0.8586  0.1331
  388TMC3    O2 5862   0.180   3.652  10.463 -0.0080  0.5908  0.4098
  389MPD2     C 5863   3.975   1.022  11.233  0.3512  0.6960  0.2745
  389MPD2    C1 5864   3.862   0.963  11.179  0.5219  0.3329  0.4278
  389MPD2    C2 5865   3.803   0.860  11.252  0.0571 -0.5395 -0.3450
  389MPD2    C3 5866   3.846   0.829  11.379 -0.4388 -0.5049  0.6503
  389MPD2    C4 5867   3.954   0.896  11.436 -0.0440 -0.5626  0.1411
  389MPD2    C5 5868   4.020   0.990  11.361 -0.6519 -0.0318 -0.8463
  389MPD2     H 5869   3.710   0.817  11.215  0.5434 -1.0929 -0.9099
  389MPD2    H1 5870   3.981   0.870  11.538 -1.0743 -0.4353  0.4478
  389MPD2    H2 5871   4.034   1.091  11.174  1.4985  0.0807  0.7044
  389MPD2    H3 5872   4.106   1.036  11.408 -1.3850 -1.0225  1.4463
  389MPD2     N 5873   3.779   0.735  11.464 -0.0530 -0.2644 -0.2495
  389MPD2    H5 5874   3.786   0.740  11.565 -1.4223  0.1486 -0.1699
  389MPD2    N1 5875   3.815   1.009  11.055  0.0262 -0.2119  0.2068
  389MPD2    H7 5876   3.857   1.092  11.016 -0.5315  0.9047  2.0066
  390TMC3    C1 5877   3.608   0.590  11.523 -0.3571  0.0651 -0.0121
  390TMC3    C2 5878   3.524   0.484  11.500 -0.7067 -0.0959 -0.3201
  390TMC3    C3 5879   3.447   0.441  11.602  0.5824  0.0229  0.3734
  390TMC3    C4 5880   3.593   0.662  11.637  0.7173 -0.0896  0.5215
  390TMC3    C5 5881   3.502   0.622  11.732 -0.3322  0.3265  0.2607
  390TMC3    C6 5882   3.433   0.505  11.716  0.8364 -0.2063  0.0010
  390TMC3     C 5883   3.685   0.646  11.416 -0.5411  0.2180 -0.8167
  390TMC3     O 5884   3.659   0.614  11.302 -0.1933 -0.1375 -0.4312
  390TMC3     H 5885   3.536   0.420  11.413  2.1453 -0.7263  0.5260
  390TMC3    H1 5886   3.629   0.763  11.655  0.1912  0.1476  0.2826
  390TMC3    H2 5887   3.339   0.489  11.768  0.2339 -0.2011 -1.0755
  390TMC3    C7 5888   3.516   0.678  11.862  0.9189  0.6540 -0.5462
  390TMC3    C8 5889   3.381   0.312  11.583 -0.3050  0.9029  0.5726
  390TMC3    O1 5890   3.589   0.776  11.863 -0.1459  0.1574  0.2946
  390TMC3    O2 5891   3.364   0.275  11.466 -0.2949 -0.9213  0.4447
  391MPD2     C 5892   3.559   2.130  11.034  0.5992 -0.1682  0.4572
  391MPD2    C1 5893   3.655   2.223  11.011 -0.7965 -0.5641  0.0126
  391MPD2    C2 5894   3.642   2.302  10.903  0.6204  0.3697  0.3245
  391MPD2    C3 5895   3.532   2.303  10.820 -0.0641 -0.2860  0.0973
  391MPD2    C4 5896   3.438   2.204  10.843  0.6556 -0.3874 -0.0075
  391MPD2    C5 5897   3.451   2.114  10.951 -0.2303  0.2785 -0.6104
  391MPD2     H 5898   3.722   2.371  10.880  0.7697 -0.5951 -2.0332
  391MPD2    H1 5899   3.346   2.194  10.787  0.1909  0.8644  0.5220
  391MPD2    H2 5900   3.574   2.069  11.122  1.0647 -0.8320 -0.0773
  391MPD2    H3 5901   3.378   2.036  10.965  1.3286 -0.9089  0.8111
  391MPD2     N 5902   3.531   2.414  10.728 -0.3037  0.6446  0.3860
  391MPD2    H5 5903   3.619   2.462  10.713 -0.1319  0.3975  0.5955
  391MPD2    N1 5904   3.753   2.234  11.107  0.2558 -0.3112  0.2707
  391MPD2    H7 5905   3.742   2.189  11.197 -0.3500  1.3735  1.0341
  392TMC3    C1 5906   3.453   2.542  10.540 -0.2195 -0.4331  0.3083
  392TMC3    C2 5907   3.340   2.599  10.472 -0.3382  1.6005  0.2295
  392TMC3    C3 5908   3.364   2.712  10.409  0.3978 -0.2625  0.3174
  392TMC3    C4 5909   3.576   2.599  10.540 -0.2693 -0.0507  0.1395
  392TMC3    C5 5910   3.594   2.705  10.452 -0.3684 -0.0558  0.0790
  392TMC3    C6 5911   3.493   2.756  10.375  0.1086 -0.6458 -0.5430
  392TMC3     C 5912   3.424   2.447  10.649 -0.1477  0.0177 -0.0375
  392TMC3     O 5913   3.308   2.422  10.660 -0.1519 -0.0866 -0.2562
  392TMC3     H 5914   3.240   2.570  10.502 -0.1046  0.9877  0.4189
  392TMC3    H1 5915   3.662   2.585  10.605 -1.2911  2.6495  2.0547
  392TMC3    H2 5916   3.513   2.841  10.310  1.4635 -0.8501 -0.3884
  392TMC3    C7 5917   3.711   2.786  10.457  0.9206  0.0473 -0.8529
  392TMC3    C8 5918   3.258   2.748  10.322 -0.2325  0.2109 -0.1641
  392TMC3    O1 5919   3.747   2.821  10.568 -0.1053  0.2724  0.1254
  392TMC3    O2 5920   3.174   2.661  10.301 -0.2039 -0.1193 -0.0078
  393TMC3    C1 5921   2.000   0.625  10.795 -0.7676 -0.0993 -0.2611
  393TMC3    C2 5922   1.896   0.567  10.734 -0.7177  0.3138  0.0133
  393TMC3    C3 5923   1.806   0.499  10.807  0.2481 -0.3753  0.9368
  393TMC3    C4 5924   2.024   0.613  10.931  0.0269 -0.2004 -0.3391
  393TMC3    C5 5925   1.934   0.535  10.996  0.7742 -0.1959 -0.5962
  393TMC3    C6 5926   1.824   0.474  10.940 -0.0864  0.2490  0.2541
  393TMC3     C 5927   2.089   0.711  10.717  0.4669 -0.4936 -1.0446
  393TMC3     O 5928   2.101   0.685  10.600  0.7666 -0.1420 -0.6215
  393TMC3     H 5929   1.893   0.572  10.625 -1.9270 -1.5459 -0.0301
  393TMC3    H1 5930   2.114   0.651  10.978  0.5464 -0.6160 -0.9898
  393TMC3    H2 5931   1.740   0.430  10.993 -0.7806  2.2399  0.8067
  393TMC3    C7 5932   1.963   0.497  11.136 -0.0614 -0.0568 -0.7882
  393TMC3    C8 5933   1.682   0.460  10.741 -0.6757 -0.3185  0.0864
  393TMC3    O1 5934   1.877   0.461  11.217  0.4692 -0.2195 -0.1211
  393TMC3    O2 5935   1.620   0.365  10.777 -0.1422 -0.3254 -0.1715
  394TMC3    C1 5936   3.676   1.044  10.874 -0.6550  0.2444 -0.0796
  394TMC3    C2 5937   3.543   1.072  10.839 -0.0325  0.4382 -0.0927
  394TMC3    C3 5938   3.527   1.135  10.722  0.4315 -0.5315  0.0917
  394TMC3    C4 5939   3.785   1.095  10.803  0.1016  0.3046 -0.3542
  394TMC3    C5 5940   3.758   1.163  10.686 -0.2177  0.3240 -0.7534
  394TMC3    C6 5941   3.631   1.189  10.647  0.0468 -0.5684 -0.5345
  394TMC3     C 5942   3.691   0.984  11.003 -0.2746 -0.4026 -0.0885
  394TMC3     O 5943   3.595   0.929  11.061  0.0278 -0.2831 -0.2032
  394TMC3     H 5944   3.459   1.036  10.896 -0.5430  1.6143 -0.0952
  394TMC3    H1 5945   3.891   1.092  10.829  0.2969  0.0476 -1.1793
  394TMC3    H2 5946   3.615   1.255  10.563 -1.1107  0.8313  0.7853
  394TMC3    C7 5947   3.866   1.218  10.604  0.3288  0.0809 -0.4916
  394TMC3    C8 5948   3.396   1.123  10.658 -0.3613  0.5277 -0.3982
  394TMC3    O1 5949   3.829   1.301  10.524  0.3048  0.0854 -0.2134
  394TMC3    O2 5950   3.301   1.106  10.730  0.6346  0.1944  0.1669
  395TMC3    C1 5951   3.421   2.954  14.899  0.4083  0.3794  0.4480
  395TMC3    C2 5952   3.299   2.972  14.837 -0.2219  0.1755 -0.0190
  395TMC3    C3 5953   3.289   3.051  14.729 -0.6464  0.0740  0.8868
  395TMC3    C4 5954   3.528   3.038  14.859 -0.5010  0.3625 -0.8699
  395TMC3    C5 5955   3.514   3.131  14.755 -0.7799 -0.2786  0.0918
  395TMC3    C6 5956   3.391   3.138  14.689  0.4524 -0.2937  0.1415
  395TMC3     C 5957   3.442   2.865  15.004  0.4800 -0.1351  0.4178
  395TMC3     O 5958   3.343   2.842  15.075  0.3267  0.3823 -0.1798
  395TMC3     H 5959   3.218   2.913  14.879 -0.0319  1.6043  2.3441
  395TMC3    H1 5960   3.613   3.046  14.925 -1.5887  1.6844  0.3787
  395TMC3    H2 5961   3.373   3.186  14.593  0.0444  0.9943  0.8577
  395TMC3    C7 5962   3.626   3.223  14.731 -0.1818 -0.5432 -0.0233
  395TMC3    C8 5963   3.155   3.080  14.685  0.2233  0.0608 -0.3900
  395TMC3    O1 5964   3.611   3.317  14.657  0.8770  0.0724  0.2166
  395TMC3    O2 5965   3.134   3.195  14.645  0.1329 -0.4652 -0.1651
  396MPD2     C 5966   2.740   4.012  16.845  0.4041 -0.5881  0.5069
  396MPD2    C1 5967   2.849   4.070  16.906 -0.3542  0.5882 -0.0096
  396MPD2    C2 5968   2.893   4.194  16.872  0.3972 -0.2897 -0.2042
  396MPD2    C3 5969   2.835   4.260  16.765  0.2189  0.2620 -0.1035
  396MPD2    C4 5970   2.727   4.202  16.707 -0.3434 -0.3384 -0.2655
  396MPD2    C5 5971   2.680   4.076  16.741  0.2088 -0.1942  0.7591
  396MPD2     H 5972   2.975   4.238  16.928 -0.9900  0.8180  0.9678
  396MPD2    H1 5973   2.672   4.262  16.635 -1.1266 -1.2076 -0.3891
  396MPD2    H2 5974   2.698   3.917  16.877  1.3283 -1.3787 -0.6212
  396MPD2    H3 5975   2.597   4.040  16.681 -1.0611  0.1922  2.2971
  396MPD2     N 5976   2.900   4.379  16.732  0.7702 -0.0901  0.2855
  396MPD2    H5 5977   2.977   4.403  16.793  0.5631  0.2859  0.4033
  396MPD2    N1 5978   2.898   3.990  17.009 -0.2777 -0.8821 -0.5960
  396MPD2    H7 5979   2.852   3.901  17.027  1.9413 -2.1139 -1.0400
  397TMC3    C1 5980   3.036   3.881  17.154 -0.0778  0.2758  0.6474
  397TMC3    C2 5981   3.115   3.822  17.058  0.3151 -0.1707 -0.1917
  397TMC3    C3 5982   3.078   3.717  16.980 -0.1186 -0.8989  0.4023
  397TMC3    C4 5983   2.921   3.808  17.180 -0.2339 -0.5617 -0.3274
  397TMC3    C5 5984   2.887   3.696  17.115 -0.0434 -0.5499  0.2249
  397TMC3    C6 5985   2.963   3.645  17.010 -0.0322  0.1211  0.2673
  397TMC3     C 5986   3.001   4.015  17.105  0.3129 -0.0250 -0.6662
  397TMC3     O 5987   3.090   4.105  17.099 -0.3804  0.7684 -0.6536
  397TMC3     H 5988   3.194   3.882  17.014  0.3828  0.7262  1.1135
  397TMC3    H1 5989   2.844   3.843  17.248 -0.4347  0.4222 -1.0650
  397TMC3    H2 5990   2.938   3.562  16.944 -2.8714  0.2420  1.1912
  397TMC3    C7 5991   2.801   3.594  17.182 -0.5407 -0.1960 -0.4372
  397TMC3    C8 5992   3.099   3.751  16.838  0.3207  0.6394 -0.4838
  397TMC3    O1 5993   2.778   3.487  17.127  0.5892  0.3601 -0.1795
  397TMC3    O2 5994   3.190   3.827  16.807  0.3439  0.2159 -0.4395
  398MPD2     C 5995   0.885   0.357   0.197  1.3048  0.7120 -0.6231
  398MPD2    C1 5996   1.002   0.302   0.245 -0.2970 -0.0014  0.7191
  398MPD2    C2 5997   1.096   0.380   0.304 -0.4406  1.1261  0.9598
  398MPD2    C3 5998   1.080   0.514   0.319 -0.0579 -0.2382 -0.1156
  398MPD2    C4 5999   0.959   0.569   0.280  0.1821  0.6910  0.0075
  398MPD2    C5 6000   0.861   0.490   0.218  0.1043  0.0787 -0.6082
  398MPD2     H 6001   1.179   0.329   0.352 -0.7404  1.0714  1.4194
  398MPD2    H1 6002   0.930   0.671   0.305  1.0323  1.3844 -1.8271
  398MPD2    H2 6003   0.801   0.307   0.150  1.0022 -0.0984  0.7762
  398MPD2    H3 6004   0.764   0.531   0.191 -0.2341  0.5017  1.2390
  398MPD2     N 6005   1.185   0.581   0.378  0.1923  0.1074  0.4488
  398MPD2    H5 6006   1.264   0.529   0.416 -1.5562 -1.8862  1.3758
  398MPD2    N1 6007   1.036   0.167   0.228 -0.3523 -0.3406 -0.2295
  398MPD2    H7 6008   1.112   0.129   0.284  0.0611 -0.4262 -0.8463
  399TMC3    C1 6009   1.048   4.697   0.116 -0.1216  0.3360 -0.0562
  399TMC3    C2 6010   1.186   4.696   0.137 -1.0122 -0.4004 -0.0954
  399TMC3    C3 6011   1.240   4.573   0.140  0.3650 -0.4729 -0.4068
  399TMC3    C4 6012   0.971   4.583   0.104 -0.6321  0.2341 -0.1530
  399TMC3    C5 6013   1.034   4.461   0.101 -0.5118 -0.3522 -0.1515
  399TMC3    C6 6014   1.170   4.458   0.115  0.4774  0.3362 -0.0108
  399TMC3     C 6015   0.974   0.082   0.139 -0.1232  0.2031  0.5016
  399TMC3     O 6016   0.868   0.100   0.081  0.4392 -0.3270 -0.9962
  399TMC3     H 6017   1.233   0.055   0.140  0.3787 -0.9875 -2.3977
  399TMC3    H1 6018   0.863   4.591   0.103 -0.7556 -1.9236 -2.9648
  399TMC3    H2 6019   1.216   4.361   0.104  0.6561  0.2143  1.7679
  399TMC3    C7 6020   0.972   4.338   0.060 -0.5207 -0.1098 -0.7957
  399TMC3    C8 6021   1.383   4.546   0.149  1.0698  0.9504 -0.9124
  399TMC3    O1 6022   1.048   4.253   0.019 -0.2326 -0.1435 -0.2995
  399TMC3    O2 6023   1.423   4.441   0.116  0.0937  1.1398  0.2433
  400TMC3    C1 6024   4.544   3.698  16.798 -0.0185 -0.0952  0.5390
  400TMC3    C2 6025   4.466   3.702  16.686 -0.5259  0.3940 -0.1937
  400TMC3    C3 6026   4.389   3.819  16.670 -0.2562  0.7760 -0.5355
  400TMC3    C4 6027   4.539   3.794  16.891  0.3758  0.5036  0.0392
  400TMC3    C5 6028   4.444   3.888  16.880  0.0699  0.0140  0.1445
  400TMC3    C6 6029   4.376   3.909  16.768 -0.2412  0.0773 -0.8428
  400TMC3     C 6030   4.618   3.578  16.814 -0.7826  0.4888  0.3248
  400TMC3     O 6031   4.580   3.481  16.751  0.5545 -1.2159 -0.0470
  400TMC3     H 6032   4.480   3.636  16.601 -0.9933 -1.4593  1.1775
  400TMC3    H1 6033   4.597   3.785  16.982  0.7439 -0.7870 -0.3319
  400TMC3    H2 6034   4.324   4.004  16.754 -0.3457  0.2224  0.4501
  400TMC3    C7 6035   4.456   4.002  16.975  0.2339 -0.4228 -0.6687
  400TMC3    C8 6036   4.282   3.826  16.572  0.0616  0.1167  0.2574
  400TMC3    O1 6037   4.568   4.023  17.013  0.4234 -0.1781  0.8409
  400TMC3    O2 6038   4.235   3.934  16.549  0.2340 -0.2607  0.5330
  401MPD2     C 6039   2.277   2.384   0.588 -0.3061  0.3206  0.0833
  401MPD2    C1 6040   2.414   2.363   0.570  0.3041 -0.4302 -0.3029
  401MPD2    C2 6041   2.453   2.265   0.477  0.1495 -0.3040  0.2153
  401MPD2    C3 6042   2.361   2.197   0.400  0.4321  0.3101  0.9718
  401MPD2    C4 6043   2.225   2.229   0.413  0.0987  0.1576  0.2048
  401MPD2    C5 6044   2.185   2.313   0.511  0.4542  0.6291 -0.2371
  401MPD2     H 6045   2.560   2.259   0.461  0.2466  1.6471  0.1001
  401MPD2    H1 6046   2.151   2.183   0.349  0.7863 -0.6770  0.0116
  401MPD2    H2 6047   2.241   2.454   0.663 -0.0814  1.6955 -1.0988
  401MPD2    H3 6048   2.078   2.325   0.518  0.3679  0.3833 -1.1444
  401MPD2     N 6049   2.405   2.100   0.305 -0.1153 -0.5601  0.4032
  401MPD2    H5 6050   2.506   2.088   0.300  0.1354  0.5684  2.4325
  401MPD2    N1 6051   2.517   2.427   0.641  0.3779 -0.0887  0.4441
  401MPD2    H7 6052   2.613   2.422   0.608  0.8914 -1.6850  2.1481
  402TMC3    C1 6053   2.397   1.898   0.196 -0.0249 -0.2213  0.0584
  402TMC3    C2 6054   2.361   1.776   0.244 -0.4491  0.4642  0.4769
  402TMC3    C3 6055   2.465   1.685   0.263  0.1563 -0.3182 -0.1916
  402TMC3    C4 6056   2.525   1.930   0.160 -0.0563 -0.0780 -0.2063
  402TMC3    C5 6057   2.622   1.833   0.162 -0.0624 -0.0898  0.0513
  402TMC3    C6 6058   2.593   1.706   0.207  0.2805  0.1789  0.2861
  402TMC3     C 6059   2.322   2.011   0.239  0.1484 -0.0862  0.2514
  402TMC3     O 6060   2.201   1.987   0.247  0.2668 -0.6196 -0.0918
  402TMC3     H 6061   2.268   1.761   0.297 -1.0261 -1.5032 -1.0693
  402TMC3    H1 6062   2.548   2.026   0.114 -3.5198  1.1869  0.6912
  402TMC3    H2 6063   2.674   1.634   0.215  0.2615 -0.0582 -1.6516
  402TMC3    C7 6064   2.756   1.886   0.149 -0.2339 -0.5765 -0.1054
  402TMC3    C8 6065   2.457   1.581   0.369 -0.5072  0.0502 -0.0382
  402TMC3    O1 6066   2.769   2.004   0.115 -0.1662  0.5492  0.2013
  402TMC3    O2 6067   2.558   1.520   0.387 -0.4070  0.4522 -0.3133
  403MPD2     C 6068   1.633   4.492  13.078 -0.6152 -0.1638 -0.0189
  403MPD2    C1 6069   1.573   4.556  13.184 -0.0754  0.8046  0.2265
  403MPD2    C2 6070   1.656   4.608  13.281 -0.2615  0.0650 -0.5417
  403MPD2    C3 6071   1.789   4.579  13.280 -0.2773  0.6378  0.7240
  403MPD2    C4 6072   1.852   4.510  13.177  0.2180 -0.1174  0.0696
  403MPD2    C5 6073   1.773   4.474  13.074 -0.3328  0.6389  0.5240
  403MPD2     H 6074   1.615   4.661  13.366  1.5602 -1.0720  1.0605
  403MPD2    H1 6075   1.958   4.488  13.169 -0.3225 -2.8578  0.3929
  403MPD2    H2 6076   1.571   4.466  12.993 -0.4083 -0.2382 -0.1485
  403MPD2    H3 6077   1.817   4.415  12.994  0.8974  0.8032  1.0990
  403MPD2     N 6078   1.866   4.627  13.387 -0.1690 -0.0988 -0.0347
  403MPD2    H5 6079   1.817   4.703  13.433 -0.3625  0.9472 -1.9544
  403MPD2    N1 6080   1.432   4.580  13.190 -0.4500 -0.1902 -0.4193
  403MPD2    H7 6081   1.373   4.569  13.108  2.7976 -1.4490 -2.5827
  404TMC3    C1 6082   1.249   4.718  13.232 -0.9055  0.0143  0.0455
  404TMC3    C2 6083   1.135   4.679  13.291  0.1284  0.2444 -0.7366
  404TMC3    C3 6084   1.025   4.648  13.212  0.1223 -0.8039 -0.4639
  404TMC3    C4 6085   1.253   4.733  13.094  0.1171  0.3954 -1.3591
  404TMC3    C5 6086   1.148   4.693  13.015  0.0868 -1.3311  0.5184
  404TMC3    C6 6087   1.036   4.642  13.074 -0.7151 -0.0156  0.1505
  404TMC3     C 6088   1.362   4.652  13.288  0.4251  0.0638 -0.6036
  404TMC3     O 6089   1.378   4.670  13.404 -0.3752  0.1039 -0.3524
  404TMC3     H 6090   1.130   4.670  13.399  1.3249 -0.6444 -0.7623
  404TMC3    H1 6091   1.340   0.036  13.047  0.5902 -2.1796 -2.7678
  404TMC3    H2 6092   0.949   4.635  13.009 -0.5729 -0.3909 -0.0017
  404TMC3    C7 6093   1.169   4.703  12.871 -0.0584 -0.1022  0.1798
  404TMC3    C8 6094   0.893   4.678  13.270  0.1219 -0.0482 -0.7241
  404TMC3    O1 6095   1.283   4.720  12.840 -0.6509  0.0146  0.1782
  404TMC3    O2 6096   0.800   4.670  13.192  0.0045 -0.2593 -0.7614
  405MPD2     C 6097   1.688   0.710  15.316  0.0847 -0.8643 -0.2697
  405MPD2    C1 6098   1.623   0.604  15.261  0.0564  0.5922  0.6448
  405MPD2    C2 6099   1.554   0.630  15.144 -0.5922 -0.5371  0.3938
  405MPD2    C3 6100   1.542   0.757  15.094  0.3307 -0.3558  0.0956
  405MPD2    C4 6101   1.603   0.863  15.158 -0.2587  0.7912 -0.1171
  405MPD2    C5 6102   1.686   0.836  15.259  0.0737 -0.4374  0.7314
  405MPD2     H 6103   1.504   0.551  15.089  0.4067  0.0248 -1.3109
  405MPD2    H1 6104   1.600   0.965  15.122  0.2385  0.5662 -0.8082
  405MPD2    H2 6105   1.740   0.700  15.411  1.6355 -0.7351 -1.1048
  405MPD2    H3 6106   1.737   0.920  15.304 -0.9613 -1.7801  4.3654
  405MPD2     N 6107   1.446   0.764  14.989  0.3373 -0.0616  0.0548
  405MPD2    H5 6108   1.411   0.682  14.940 -0.1065  0.6794 -0.8681
  405MPD2    N1 6109   1.631   0.477  15.322  0.1557  0.6222  0.2121
  405MPD2    H7 6110   1.683   0.455  15.407 -0.9355 -1.4324  0.3514
  406TMC3    C1 6111   1.121   0.889  14.682 -0.0237 -0.1490  0.9259
  406TMC3    C2 6112   1.041   0.786  14.721 -0.0379 -1.3918 -0.5728
  406TMC3    C3 6113   1.081   0.715  14.834 -0.0331  0.4889  0.1333
  406TMC3    C4 6114   1.238   0.922  14.752 -0.1766  0.0822 -0.3543
  406TMC3    C5 6115   1.267   0.855  14.863  0.3107  0.7319 -0.0895
  406TMC3    C6 6116   1.195   0.747  14.914 -0.7484 -0.3372 -0.2538
  406TMC3     C 6117   1.056   0.990  14.601 -0.8936 -0.3707 -0.1914
  406TMC3     O 6118   1.122   1.076  14.549 -0.7041  0.7596 -0.0378
  406TMC3     H 6119   0.968   0.748  14.651 -0.8006 -0.5651 -0.2373
  406TMC3    H1 6120   1.300   1.006  14.723  0.1558 -0.6487 -1.7353
  406TMC3    H2 6121   1.209   0.706  15.014  0.4055 -1.8343 -1.0218
  406TMC3    C7 6122   1.391   0.878  14.938 -0.1504  0.2695 -0.4830
  406TMC3    C8 6123   1.037   0.575  14.848 -0.6395  0.1748  0.0107
  406TMC3    O1 6124   1.424   0.994  14.960 -0.3046  0.5633 -0.4539
  406TMC3    O2 6125   0.925   0.537  14.821 -0.0924  1.0783  0.3732
  407MPD2     C 6126   4.051   2.556  10.075 -0.4475  0.8030 -0.3280
  407MPD2    C1 6127   4.079   2.644   9.971  0.4487 -0.8624 -0.3596
  407MPD2    C2 6128   4.117   2.767   9.989  0.3574  0.0619  0.1530
  407MPD2    C3 6129   4.147   2.818  10.117  0.7139  0.2613  0.3876
  407MPD2    C4 6130   4.125   2.737  10.222 -0.3185 -0.4162 -0.0911
  407MPD2    C5 6131   4.071   2.609  10.196  0.2386  0.1362  0.7347
  407MPD2     H 6132   4.119   2.845   9.913  1.3938  0.7549  0.8969
  407MPD2    H1 6133   4.133   2.769  10.325  0.4864  1.2428 -0.6718
  407MPD2    H2 6134   4.018   2.454  10.063 -1.9396  1.5517 -2.7032
  407MPD2    H3 6135   4.059   2.540  10.279  0.7412 -0.4462  0.3198
  407MPD2     N 6136   4.190   2.956  10.116  0.4265 -0.2927 -0.1899
  407MPD2    H5 6137   4.200   3.006  10.029  2.3694 -1.1588 -0.4732
  407MPD2    N1 6138   4.055   2.614   9.835 -0.3743  0.5299  0.4518
  407MPD2    H7 6139   4.072   2.687   9.767  0.1080 -0.0380 -0.0345
  408TMC3    C1 6140   4.025   2.482   9.637  0.0755 -0.5313 -0.2302
  408TMC3    C2 6141   4.113   2.393   9.589 -0.1737  0.7001 -0.2736
  408TMC3    C3 6142   4.194   2.437   9.480 -0.4602  0.1853  0.3043
  408TMC3    C4 6143   3.994   2.594   9.576  0.2757  0.1675  0.1009
  408TMC3    C5 6144   4.060   2.629   9.464  0.1295  0.6047 -0.3365
  408TMC3    C6 6145   4.167   2.551   9.417  0.7487 -0.3814  0.1590
  408TMC3     C 6146   4.027   2.489   9.783 -0.1274  0.8477 -0.0255
  408TMC3     O 6147   4.026   2.378   9.833 -0.3373 -0.0187 -0.0012
  408TMC3     H 6148   4.147   2.306   9.643 -1.0682 -0.0337 -0.8915
  408TMC3    H1 6149   3.924   2.663   9.623 -2.0396 -1.6558 -0.6388
  408TMC3    H2 6150   4.219   2.590   9.330 -3.4761  2.8803 -0.9056
  408TMC3    C7 6151   4.032   2.757   9.406 -0.0401  0.2995 -0.3055
  408TMC3    C8 6152   4.326   2.381   9.474 -0.4464  0.1143 -0.0335
  408TMC3    O1 6153   4.125   2.831   9.368 -0.4059  0.1783 -0.4292
  408TMC3    O2 6154   4.334   2.259   9.451 -0.2687 -0.4482  0.0412
  409MPD2     C 6155   3.218   3.390  16.623  0.4371 -0.3316  0.2026
  409MPD2    C1 6156   3.320   3.322  16.682 -0.1806  1.2226 -0.3087
  409MPD2    C2 6157   3.443   3.390  16.691 -0.0454 -0.5161  0.5864
  409MPD2    C3 6158   3.456   3.524  16.654  0.4324  0.1113 -0.0857
  409MPD2    C4 6159   3.346   3.585  16.592 -0.2928  0.3626  0.2156
  409MPD2    C5 6160   3.230   3.519  16.579 -0.0483 -0.7404  0.1393
  409MPD2     H 6161   3.526   3.345  16.744  0.3479 -0.3813  0.0730
  409MPD2    H1 6162   3.357   3.688  16.559  0.3271  0.9286  2.1816
  409MPD2    H2 6163   3.122   3.341  16.612 -0.5704  1.7780 -0.5506
  409MPD2    H3 6164   3.139   3.572  16.549  1.9166  0.1447 -4.3264
  409MPD2     N 6165   3.572   3.602  16.659 -0.2865 -0.5815 -0.2061
  409MPD2    H5 6166   3.575   3.697  16.624  3.1434 -2.2017 -4.3536
  409MPD2    N1 6167   3.307   3.186  16.723 -0.2866 -0.8010  0.6247
  409MPD2    H7 6168   3.394   3.143  16.754  0.3564  1.4701  1.9457
  410TMC3    C1 6169   3.785   3.676  16.736 -0.3540  0.3354 -0.4652
  410TMC3    C2 6170   3.913   3.643  16.774  0.0716  0.1212 -0.2906
  410TMC3    C3 6171   4.003   3.753  16.780 -0.2924  0.1410 -0.3951
  410TMC3    C4 6172   3.746   3.799  16.694  0.0958 -0.0046 -0.7286
  410TMC3    C5 6173   3.840   3.903  16.687  0.2052 -0.0284  0.1891
  410TMC3    C6 6174   3.967   3.882  16.734 -0.3896 -0.4685  0.5058
  410TMC3     C 6175   3.686   3.570  16.721  0.3383 -0.1801  0.6341
  410TMC3     O 6176   3.720   3.460  16.757  0.2425  0.2548  0.5051
  410TMC3     H 6177   3.937   3.547  16.816  1.5168 -0.2523 -1.9550
  410TMC3    H1 6178   3.642   3.827  16.678  0.5601  1.9693 -0.3054
  410TMC3    H2 6179   4.040   3.961  16.728 -0.5412 -0.3918 -0.3649
  410TMC3    C7 6180   3.818   3.980  16.568  0.4624 -0.5447  0.1304
  410TMC3    C8 6181   4.088   3.756  16.897  0.1143  0.2168  0.0390
  410TMC3    O1 6182   3.734   3.923  16.497  0.6209 -0.7866 -0.4258
  410TMC3    O2 6183   4.112   3.865  16.946 -0.2702  0.9371  0.0174
  411MPD2     C 6184   3.983   3.747  14.511 -0.2840  1.1949 -0.2451
  411MPD2    C1 6185   3.860   3.790  14.479 -0.7306 -0.0436 -0.6033
  411MPD2    C2 6186   3.768   3.708  14.419 -0.0846  0.3315  0.2925
  411MPD2    C3 6187   3.802   3.579  14.396 -0.3436  0.1020 -0.3442
  411MPD2    C4 6188   3.928   3.534  14.428 -0.1043  0.0850 -0.0246
  411MPD2    C5 6189   4.018   3.618  14.493 -0.2485 -0.0679  0.5710
  411MPD2     H 6190   3.671   3.750  14.395 -0.9579 -1.9930 -0.2680
  411MPD2    H1 6191   3.952   3.428  14.431  1.4612  0.4225 -0.7245
  411MPD2    H2 6192   4.054   3.818  14.552  0.1280  0.4396  0.3594
  411MPD2    H3 6193   4.113   3.572  14.514 -1.1032 -2.2857 -0.4955
  411MPD2     N 6194   3.720   3.482  14.341  0.0593 -0.2366  0.2299
  411MPD2    H5 6195   3.761   3.389  14.339 -1.5654 -0.9614  1.1381
  411MPD2    N1 6196   3.822   3.927  14.517  0.0837  0.7718 -0.0858
  411MPD2    H7 6197   3.731   3.961  14.489 -0.6763 -0.9938  0.2149
  412TMC3    C1 6198   3.523   3.384  14.260  0.0519  0.0157  0.0243
  412TMC3    C2 6199   3.414   3.403  14.180 -0.2925 -0.6539 -0.2329
  412TMC3    C3 6200   3.335   3.294  14.153  0.4984  0.0561  0.8635
  412TMC3    C4 6201   3.546   3.268  14.328  0.6902  0.1866  0.8989
  412TMC3    C5 6202   3.483   3.162  14.274  0.5672  0.9240  0.3424
  412TMC3    C6 6203   3.381   3.172  14.189 -0.3932  0.3216 -0.4405
  412TMC3     C 6204   3.597   3.506  14.286 -1.6752 -0.0677  0.1943
  412TMC3     O 6205   3.540   3.613  14.261  0.1128 -0.0076  0.1318
  412TMC3     H 6206   3.396   3.497  14.129 -2.3520 -1.3289 -0.7910
  412TMC3    H1 6207   3.630   3.267  14.397  1.0930 -3.1820  0.3753
  412TMC3    H2 6208   3.335   3.079  14.159 -0.9696 -0.4942  2.9600
  412TMC3    C7 6209   3.575   3.064  14.228  0.1732  0.2814  0.2039
  412TMC3    C8 6210   3.303   3.291  14.010  0.2772  0.3626 -0.2263
  412TMC3    O1 6211   3.648   3.011  14.314 -0.4997 -0.1812  0.0571
  412TMC3    O2 6212   3.333   3.177  13.972  0.2808 -0.4505  0.4102
  413MPD2     C 6213   0.860   2.382  15.524 -0.2550 -0.2127  0.7881
  413MPD2    C1 6214   0.888   2.355  15.392  0.5913  0.4413  0.8782
  413MPD2    C2 6215   0.979   2.255  15.358 -0.2597 -0.4055  0.5064
  413MPD2    C3 6216   1.038   2.183  15.460  0.0396 -0.1055  1.1095
  413MPD2    C4 6217   1.002   2.199  15.592  0.1568  0.0600  0.5474
  413MPD2    C5 6218   0.927   2.310  15.626  0.2486  0.6695  0.1976
  413MPD2     H 6219   1.022   2.249  15.259 -1.3478 -3.2030  0.2032
  413MPD2    H1 6220   1.056   2.146  15.669  0.9378 -0.4206 -0.3345
  413MPD2    H2 6221   0.792   2.461  15.555 -1.9092 -2.3547  2.5710
  413MPD2    H3 6222   0.896   2.324  15.729 -1.5079  2.5657 -0.5839
  413MPD2     N 6223   1.129   2.080  15.413  0.4061 -0.1633  0.0972
  413MPD2    H5 6224   1.137   2.066  15.313  2.6296 -0.7543  0.3567
  413MPD2    N1 6225   0.820   2.432  15.295  0.2484  0.5182 -0.0421
  413MPD2    H7 6226   0.780   2.518  15.333 -0.0754  0.8308 -1.0948
  414TMC3    C1 6227   1.306   1.928  15.437  0.3888  0.1010 -0.0453
  414TMC3    C2 6228   1.376   1.842  15.514 -1.0226  0.4475  0.0443
  414TMC3    C3 6229   1.489   1.783  15.462 -0.7540  0.6875 -0.1426
  414TMC3    C4 6230   1.348   1.963  15.313  0.0704 -0.2393 -0.2190
  414TMC3    C5 6231   1.446   1.881  15.255  0.2442  0.8487 -0.0298
  414TMC3    C6 6232   1.518   1.796  15.332  0.3897 -0.2186  1.0351
  414TMC3     C 6233   1.198   2.000  15.503 -0.1239  0.5072  0.0478
  414TMC3     O 6234   1.193   1.981  15.623  0.4024 -0.1988 -0.0024
  414TMC3     H 6235   1.329   1.805  15.604 -0.6457  1.8442  0.8252
  414TMC3    H1 6236   1.297   2.033  15.247 -1.9986 -1.7113 -0.1676
  414TMC3    H2 6237   1.613   1.762  15.293  0.5019  0.9410  0.2911
  414TMC3    C7 6238   1.520   1.936  15.149  0.2291  0.4399 -0.0055
  414TMC3    C8 6239   1.533   1.655  15.513  0.5540 -0.3877  0.5176
  414TMC3    O1 6240   1.640   1.954  15.159 -0.0253 -0.5919 -0.2568
  414TMC3    O2 6241   1.619   1.593  15.451 -0.6477  0.1125 -0.2044
  415TMC3    C1 6242   1.904   0.221  10.343 -0.6049 -0.2391 -0.0431
  415TMC3    C2 6243   2.037   0.222  10.295 -0.3338  0.6610  0.3915
  415TMC3    C3 6244   2.062   0.175  10.167 -0.2567 -0.8319 -0.2573
  415TMC3    C4 6245   1.803   0.167  10.264  0.0006  0.2579  0.5950
  415TMC3    C5 6246   1.831   0.128  10.139  0.1442  0.0037 -0.1296
  415TMC3    C6 6247   1.956   0.125  10.087  0.1597 -0.1133 -0.5549
  415TMC3     C 6248   1.888   0.208  10.483 -0.3519  0.1807 -0.4413
  415TMC3     O 6249   1.790   0.143  10.516 -0.9456  0.1318  0.5550
  415TMC3     H 6250   2.117   0.267  10.353 -0.0253  1.6185 -0.7795
  415TMC3    H1 6251   1.701   0.178  10.300  0.2364  0.1105  1.3015
  415TMC3    H2 6252   1.978   0.101   9.984  3.6203 -2.1204  0.6695
  415TMC3    C7 6253   1.750   0.018  10.090  0.1198  0.4143 -0.0964
  415TMC3    C8 6254   2.187   0.199  10.094 -0.1952 -0.4972 -0.3273
  415TMC3    O1 6255   1.744   0.001   9.966 -0.3142 -0.2115 -0.4153
  415TMC3    O2 6256   2.200   0.130   9.992 -0.0519  0.1324  0.2518
  416MPD2     C 6257   3.486   3.448  11.431  0.3277 -0.3836 -0.5107
  416MPD2    C1 6258   3.364   3.455  11.365 -0.5144  0.2112 -0.4331
  416MPD2    C2 6259   3.340   3.355  11.278 -0.4295 -0.4737  0.6100
  416MPD2    C3 6260   3.423   3.247  11.249  0.2998  0.3796  0.0431
  416MPD2    C4 6261   3.538   3.239  11.330  0.0524  0.0114  0.0267
  416MPD2    C5 6262   3.567   3.341  11.418  0.1540  0.0764  0.0971
  416MPD2     H 6263   3.245   3.365  11.228  1.3920  1.5360 -2.4777
  416MPD2    H1 6264   3.627   3.183  11.303 -0.2581 -0.7272  0.5406
  416MPD2    H2 6265   3.522   3.526  11.497  0.9899  0.3523 -1.7546
  416MPD2    H3 6266   3.666   3.349  11.461  0.9384 -0.2870 -1.6548
  416MPD2     N 6267   3.396   3.144  11.160 -0.0954 -0.1068 -0.0155
  416MPD2    H5 6268   3.453   3.060  11.164 -0.5521 -0.4030  0.3536
  416MPD2    N1 6269   3.267   3.543  11.409  0.4207  0.2034 -0.6210
  416MPD2    H7 6270   3.287   3.597  11.493 -0.4087 -0.7687  0.1876
  417TMC3    C1 6271   3.047   3.644  11.419 -0.6163  0.0276  0.2853
  417TMC3    C2 6272   3.020   3.588  11.539  0.1372  0.5069 -0.2153
  417TMC3    C3 6273   2.895   3.594  11.595  0.2445 -0.5515  0.4633
  417TMC3    C4 6274   2.941   3.683  11.345  0.1576 -0.2682  0.8070
  417TMC3    C5 6275   2.816   3.679  11.396  0.0087 -0.1859 -0.2365
  417TMC3    C6 6276   2.788   3.634  11.518  0.2165 -0.2288  0.1186
  417TMC3     C 6277   3.156   3.579  11.337 -0.1781 -0.1976  0.1737
  417TMC3     O 6278   3.132   3.563  11.218  0.2400  0.4067 -0.0221
  417TMC3     H 6279   3.100   3.543  11.598  1.9446  1.6811 -1.7608
  417TMC3    H1 6280   2.963   3.734  11.252  0.9543  1.0934  1.7391
  417TMC3    H2 6281   2.694   3.646  11.570 -0.3592 -0.2284 -0.9268
  417TMC3    C7 6282   2.718   3.755  11.315 -0.3832  0.3562 -0.4193
  417TMC3    C8 6283   2.883   3.605  11.738 -0.3094  0.4191 -0.2853
  417TMC3    O1 6284   2.759   3.847  11.245 -0.2662  0.1898  0.2715
  417TMC3    O2 6285   2.766   3.606  11.776 -0.5156  0.0145 -0.9113
  418TMC3    C1 6286   1.538   0.803   0.428 -0.0519 -0.0361  0.9904
  418TMC3    C2 6287   1.397   0.825   0.408 -0.0310 -0.1006 -0.8101
  418TMC3    C3 6288   1.313   0.744   0.474  0.3701 -0.6046  0.4437
  418TMC3    C4 6289   1.587   0.708   0.516 -0.2775  0.9195  0.8311
  418TMC3    C5 6290   1.490   0.631   0.572  0.0382 -0.5311 -0.4462
  418TMC3    C6 6291   1.356   0.640   0.546 -0.0286  0.8782 -0.1542
  418TMC3     C 6292   1.634   0.852   0.325  0.1891  0.3188  0.1299
  418TMC3     O 6293   1.612   0.971   0.294 -0.3872  0.3996  0.2170
  418TMC3     H 6294   1.353   0.904   0.348  1.7696  0.3923 -1.4812
  418TMC3    H1 6295   1.692   0.694   0.538 -0.7589 -4.2127 -0.1386
  418TMC3    H2 6296   1.286   0.584   0.607 -0.0565 -0.8911 -1.8388
  418TMC3    C7 6297   1.539   0.505   0.615 -0.2111 -0.5506  0.0814
  418TMC3    C8 6298   1.193   0.709   0.407  0.0352 -0.4812  0.3612
  418TMC3    O1 6299   1.453   0.415   0.611  0.6054 -0.1697 -0.0832
  418TMC3    O2 6300   1.125   0.810   0.374 -0.1284  0.2529  0.5769
  419MPD2     C 6301   0.996   3.287  12.360 -0.3883 -0.3780 -0.0456
  419MPD2    C1 6302   0.901   3.392  12.342  0.1750  0.3786  0.1389
  419MPD2    C2 6303   0.839   3.450  12.458  0.6750  0.7898  0.2870
  419MPD2    C3 6304   0.853   3.388  12.577 -0.3262 -0.0645 -0.2436
  419MPD2    C4 6305   0.941   3.285  12.594  0.4265 -0.9598  0.7863
  419MPD2    C5 6306   1.000   3.233  12.483  0.5481 -0.2254 -0.1735
  419MPD2     H 6307   0.774   3.536  12.445 -1.5822 -0.9183  0.1540
  419MPD2    H1 6308   0.956   3.227  12.684  0.3743 -0.8984  0.8340
  419MPD2    H2 6309   1.045   3.230  12.283  1.1988  1.6994 -0.5568
  419MPD2    H3 6310   1.070   3.151  12.489 -0.8290 -1.7001 -3.8726
  419MPD2     N 6311   0.770   3.435  12.678  0.5644 -0.4647  0.3600
  419MPD2    H5 6312   0.693   3.493  12.647  0.0546 -1.5522 -0.4399
  419MPD2    N1 6313   0.876   3.451  12.216  0.0894 -0.3282 -0.3198
  419MPD2    H7 6314   0.806   3.524  12.215  1.8371  1.3477  0.3584
  420TMC3    C1 6315   0.682   3.489  12.891 -0.1006 -0.0299  0.5425
  420TMC3    C2 6316   0.647   3.610  12.838 -0.0484  0.1191 -0.3671
  420TMC3    C3 6317   0.571   3.696  12.910 -0.2281 -0.4478  0.4670
  420TMC3    C4 6318   0.666   3.459  13.026  0.4168 -0.3022  0.0987
  420TMC3    C5 6319   0.604   3.552  13.096 -0.1873 -0.1866  0.0286
  420TMC3    C6 6320   0.550   3.665  13.039 -0.2066  1.0434  0.1266
  420TMC3     C 6321   0.767   3.402  12.811  0.6152 -1.1022  0.3520
  420TMC3     O 6322   0.838   3.317  12.863  0.1238 -0.1883 -0.1775
  420TMC3     H 6323   0.651   3.624  12.731  2.5472 -0.7288 -0.3815
  420TMC3    H1 6324   0.700   3.367  13.073  0.8492  0.0674  0.5024
  420TMC3    H2 6325   0.511   3.743  13.103  2.3659  2.5694 -0.1698
  420TMC3    C7 6326   0.634   3.552  13.241  0.3724  0.2980  0.9269
  420TMC3    C8 6327   0.496   3.800  12.844  1.4084  0.1687  0.2698
  420TMC3    O1 6328   0.567   3.630  13.305  0.2700  0.1762  0.2344
  420TMC3    O2 6329   0.385   3.816  12.904 -0.6777  0.5120  0.5062
  421TMC3    C1 6330   2.057   4.670  13.522  0.2536 -0.6049  0.1165
  421TMC3    C2 6331   1.980   0.029  13.583  0.0470  0.7939  0.1268
  421TMC3    C3 6332   2.035   0.095  13.686  0.0397  0.0466  0.9542
  421TMC3    C4 6333   2.180   4.638  13.564 -0.2925  0.8424 -0.3039
  421TMC3    C5 6334   2.232   4.718  13.663  0.6849  0.0320  0.0432
  421TMC3    C6 6335   2.159   0.070  13.733 -0.4325 -0.0254  0.5575
  421TMC3     C 6336   1.987   4.577  13.430 -0.0713  0.0993 -0.1421
  421TMC3     O 6337   2.051   4.480  13.388  0.0141 -0.7265  1.1138
  421TMC3     H 6338   1.871   0.025  13.584  0.0726  0.2570  0.9364
  421TMC3    H1 6339   2.235   4.551  13.527 -0.1497  1.3607 -1.3207
  421TMC3    H2 6340   2.197   0.129  13.815  0.0096 -1.2432  1.2173
  421TMC3    C7 6341   2.351   4.659  13.729  0.1877 -0.0228  0.6688
  421TMC3    C8 6342   1.951   0.171  13.769 -0.5056  0.9161  0.8426
  421TMC3    O1 6343   2.446   4.632  13.656  0.2804  0.0672  0.7483
  421TMC3    O2 6344   1.991   0.209  13.878  0.1083  0.0182 -0.0247
  422TMC3    C1 6345   4.153   1.711  12.506  0.4045  0.0843 -0.0722
  422TMC3    C2 6346   4.142   1.815  12.595  0.1570 -0.4837  0.0912
  422TMC3    C3 6347   4.018   1.849  12.639  0.2783 -0.2167  0.2479
  422TMC3    C4 6348   4.039   1.641  12.459 -0.3250  0.1658  0.2652
  422TMC3    C5 6349   3.917   1.690  12.497  0.0857 -0.1674 -0.3047
  422TMC3    C6 6350   3.899   1.804  12.582 -0.6136 -0.4732  0.7336
  422TMC3     C 6351   4.274   1.701  12.434 -0.2504  0.5893 -0.4437
  422TMC3     O 6352   4.362   1.785  12.459  0.1502 -0.1131 -0.0975
  422TMC3     H 6353   4.227   1.871  12.631  1.9512 -2.4108 -1.1578
  422TMC3    H1 6354   4.048   1.566  12.382 -1.0908 -0.3534  0.6836
  422TMC3    H2 6355   3.802   1.846  12.606 -1.5274 -1.4358 -1.2187
  422TMC3    C7 6356   3.811   1.657  12.398 -0.0972 -0.0535 -0.2063
  422TMC3    C8 6357   4.021   1.991  12.678 -0.0554  0.0783 -0.0937
  422TMC3    O1 6358   3.829   1.606  12.286 -0.7386  0.4806 -0.6124
  422TMC3    O2 6359   4.096   2.018  12.771 -0.0127  1.0090  0.0653
  423MPD2     C 6360   4.701   3.047   0.296  0.3573  0.3654  1.0144
  423MPD2    C1 6361   0.080   2.996   0.353  0.6484  0.3120 -0.4025
  423MPD2    C2 6362   0.124   2.876   0.314  0.1990  1.0618  0.1025
  423MPD2    C3 6363   0.076   2.817   0.203 -0.5475 -0.6787  0.3690
  423MPD2    C4 6364   4.696   2.866   0.149 -0.2660 -0.1868  1.0620
  423MPD2    C5 6365   4.643   2.983   0.193  0.5535 -0.1991  0.2891
  423MPD2     H 6366   0.203   2.825   0.367 -2.3282 -1.1823  1.7483
  423MPD2    H1 6367   4.656   2.814   0.063  1.2016 -0.9588  0.8427
  423MPD2    H2 6368   4.651   3.138   0.327  0.3821  0.7276 -0.0299
  423MPD2    H3 6369   4.557   3.032   0.149  1.0346 -0.0883 -0.5331
  423MPD2     N 6370   0.132   2.700   0.147  0.4136 -0.1446 -0.0971
  423MPD2    H5 6371   0.089   2.662   0.063 -1.1354  2.0511 -0.2903
  423MPD2    N1 6372   0.131   3.044   0.471  1.0763 -0.1061 -0.1289
  423MPD2    H7 6373   0.204   2.988   0.515  1.7566  1.4719  0.7868
  424TMC3    C1 6374   0.163   3.200   0.647 -0.4207  1.0607  0.2190
  424TMC3    C2 6375   0.235   3.108   0.720 -0.4625 -0.4514 -0.8690
  424TMC3    C3 6376   0.297   3.145   0.838  0.8663 -0.2721  0.1709
  424TMC3    C4 6377   0.137   3.322   0.696  0.4839 -0.7199 -0.5492
  424TMC3    C5 6378   0.177   3.351   0.825  0.6325 -0.3279 -0.0825
  424TMC3    C6 6379   0.271   3.269   0.888  0.2633 -0.0551 -0.1690
  424TMC3     C 6380   0.099   3.164   0.520 -0.0494 -0.5309 -0.0922
  424TMC3     O 6381   0.030   3.252   0.474  0.8130 -0.1358  0.6794
  424TMC3     H 6382   0.260   3.008   0.686 -1.2603 -1.0255  0.2100
  424TMC3    H1 6383   0.085   3.399   0.639  1.4692 -1.2223 -2.1204
  424TMC3    H2 6384   0.308   3.296   0.986  0.2862 -1.8999  0.3249
  424TMC3    C7 6385   0.126   3.469   0.896 -0.4513  0.4540 -0.3740
  424TMC3    C8 6386   0.324   3.039   0.940  0.1522 -0.3144  0.1763
  424TMC3    O1 6387   0.191   3.491   0.996  0.1459 -0.2860  0.5743
  424TMC3    O2 6388   0.265   2.930   0.935 -0.3553 -0.0265 -0.3663
  425MPD2     C 6389   4.036   2.076  16.960  0.3868 -0.2625  0.8887
  425MPD2    C1 6390   3.980   1.976  17.027 -0.9109  0.7374  0.0202
  425MPD2    C2 6391   3.851   1.981  17.066 -0.1403  0.5977  0.1965
  425MPD2    C3 6392   3.774   2.091  17.038 -0.6017 -0.7971  0.2825
  425MPD2    C4 6393   3.835   2.203  16.976 -0.0567 -0.7617 -0.0117
  425MPD2    C5 6394   3.967   2.192  16.939  0.1696 -0.0047  0.5906
  425MPD2     H 6395   3.797   1.896  17.107 -1.3945  0.7034 -1.2373
  425MPD2    H1 6396   3.781   2.295  16.956  1.1560 -0.1224 -0.3526
  425MPD2    H2 6397   4.136   2.083  16.919  0.8871  0.8611  2.2776
  425MPD2    H3 6398   4.028   2.276  16.906  0.5693 -0.3084  0.5517
  425MPD2     N 6399   3.638   2.088  17.072 -0.0411  0.0825 -0.8378
  425MPD2    H5 6400   3.616   2.003  17.122 -1.1131  1.4824  1.0679
  425MPD2    N1 6401   4.061   1.862  17.055 -0.0832 -0.2826  0.5483
  425MPD2    H7 6402   4.161   1.872  17.038 -0.2110  2.2323  1.2431
  426TMC3    C1 6403   4.125   1.651  17.136  0.5616  0.2481  0.5530
  426TMC3    C2 6404   4.160   1.590  17.020  1.0029  0.5478  0.0625
  426TMC3    C3 6405   4.188   1.457  17.027 -0.0898 -0.2168  0.2434
  426TMC3    C4 6406   4.116   1.578  17.254  0.7739  0.1642 -0.0446
  426TMC3    C5 6407   4.155   1.450  17.260  0.2008 -0.0624  0.3871
  426TMC3    C6 6408   4.188   1.385  17.146  0.1645 -0.4697 -0.4060
  426TMC3     C 6409   4.018   1.750  17.127  1.4345 -0.4810  0.5195
  426TMC3     O 6410   3.909   1.725  17.173 -0.4903  0.6264 -0.0823
  426TMC3     H 6411   4.167   1.644  16.926  0.5021  0.3976 -0.0601
  426TMC3    H1 6412   4.114   1.644  17.340  1.6633 -3.0302  2.4309
  426TMC3    H2 6413   4.211   1.279  17.146  0.4482 -0.4096 -0.2685
  426TMC3    C7 6414   4.158   1.375  17.383  0.2317 -0.6712 -0.0156
  426TMC3    C8 6415   4.211   1.385  16.903 -0.4663 -0.0338  0.0296
  426TMC3    O1 6416   4.202   1.261  17.385  0.0214  0.1907 -0.2290
  426TMC3    O2 6417   4.247   1.270  16.922 -0.4347  0.3979 -0.3324
  427MPD2     C 6418   2.713   3.855  15.362 -0.0012 -0.7462  0.5698
  427MPD2    C1 6419   2.811   3.948  15.393 -0.5597  0.2108  0.2347
  427MPD2    C2 6420   2.793   4.075  15.342 -0.1839  0.2366 -0.0938
  427MPD2    C3 6421   2.685   4.104  15.263 -0.0768  0.0074 -0.2045
  427MPD2    C4 6422   2.583   4.012  15.246  0.1057 -0.0690  0.2035
  427MPD2    C5 6423   2.599   3.889  15.292  0.5301  0.7254  0.3147
  427MPD2     H 6424   2.873   4.146  15.363  1.0776  0.0005 -4.0061
  427MPD2    H1 6425   2.488   4.029  15.197 -0.0624  1.1071  0.9513
  427MPD2    H2 6426   2.713   3.749  15.387 -1.0050  0.1898  4.6109
  427MPD2    H3 6427   2.519   3.816  15.290  1.2349 -0.0798  1.6365
  427MPD2     N 6428   2.643   4.233  15.225  0.4633  0.0405 -0.1483
  427MPD2    H5 6429   2.554   4.230  15.176  0.0187 -1.1052  0.7350
  427MPD2    N1 6430   2.923   3.909  15.473  0.4596 -0.5321  0.1072
  427MPD2    H7 6431   2.984   3.984  15.507 -1.1770  0.8069  0.0942
  428TMC3    C1 6432   3.080   3.777  15.597 -0.5058 -0.6276  0.2615
  428TMC3    C2 6433   3.095   3.675  15.684 -0.0476  0.9967  0.1280
  428TMC3    C3 6434   3.222   3.652  15.729  0.0328 -0.2668 -0.1793
  428TMC3    C4 6435   3.183   3.863  15.556  0.4948  1.0750  0.0943
  428TMC3    C5 6436   3.312   3.837  15.604 -0.2118 -0.6243  0.7902
  428TMC3    C6 6437   3.330   3.724  15.687  0.3574  0.0276  0.3189
  428TMC3     C 6438   2.947   3.782  15.535  0.0058  0.3124  0.4480
  428TMC3     O 6439   2.875   3.685  15.550  0.0614 -0.6118 -0.0407
  428TMC3     H 6440   3.007   3.615  15.705  0.7797  0.1637  1.2433
  428TMC3    H1 6441   3.180   3.934  15.474  0.2487  2.2876  1.1534
  428TMC3    H2 6442   3.421   3.712  15.744 -0.7043  3.3057  2.7190
  428TMC3    C7 6443   3.432   3.911  15.576 -0.2153  0.0187 -0.2068
  428TMC3    C8 6444   3.248   3.523  15.792 -0.1216  0.1531  0.5196
  428TMC3    O1 6445   3.514   3.913  15.670 -0.2567 -0.6534  0.4403
  428TMC3    O2 6446   3.354   3.471  15.767  0.0013 -0.8236  0.0204
  429MPD2     C 6447   3.159   3.884  17.466  0.4842 -0.4931 -0.2662
  429MPD2    C1 6448   3.254   3.838  17.376 -0.6821 -0.0974  0.0460
  429MPD2    C2 6449   3.340   3.924  17.318  0.5400 -0.1057 -0.2624
  429MPD2    C3 6450   3.346   4.054  17.348  0.7465 -0.1175  0.3954
  429MPD2    C4 6451   3.243   4.105  17.420  0.1678  0.5906  0.4657
  429MPD2    C5 6452   3.158   4.018  17.487  0.7754 -0.5848 -0.8825
  429MPD2     H 6453   3.414   3.889  17.246 -0.2228  1.1542 -1.6613
  429MPD2    H1 6454   3.233   4.209  17.451 -0.1917  0.4786  0.7182
  429MPD2    H2 6455   3.097   3.822  17.529  2.1391 -0.8240  1.0222
  429MPD2    H3 6456   3.081   4.053  17.555  0.3047 -0.6457 -1.3833
  429MPD2     N 6457   3.445   4.133  17.287 -0.8219 -0.3945 -0.1856
  429MPD2    H5 6458   3.511   4.079  17.232 -0.4803 -0.9329  0.7638
  429MPD2    N1 6459   3.271   3.699  17.343  0.1367  0.0979 -0.4885
  429MPD2    H7 6460   3.356   3.673  17.295  0.2667 -1.6205  0.6845
  430TMC3    C1 6461   3.566   4.323  17.239  0.8181  0.3057  0.1664
  430TMC3    C2 6462   3.566   4.458  17.206  0.6553 -0.1105 -0.3255
  430TMC3    C3 6463   3.688   4.520  17.203 -1.1046  0.0600 -0.9719
  430TMC3    C4 6464   3.683   4.258  17.272  0.3721 -0.1453  0.1052
  430TMC3    C5 6465   3.802   4.330  17.278  0.0770  0.7181  0.6357
  430TMC3    C6 6466   3.809   4.458  17.238 -0.5426 -0.4381  0.3603
  430TMC3     C 6467   3.449   4.271  17.295  0.4966 -0.2020 -0.1911
  430TMC3     O 6468   3.377   4.360  17.346  0.3841  0.2436 -0.2038
  430TMC3     H 6469   3.471   4.508  17.189 -0.9029 -2.5612  1.2218
  430TMC3    H1 6470   3.683   4.151  17.291  0.1861  0.0967  1.4443
  430TMC3    H2 6471   3.903   4.512  17.229 -0.4700 -0.6084  0.0786
  430TMC3    C7 6472   3.916   4.253  17.238  0.0660 -0.1721  0.7904
  430TMC3    C8 6473   3.717   4.606  17.090  0.3539  0.1519 -0.6118
  430TMC3    O1 6474   3.899   4.171  17.150 -0.3387  0.2359 -0.7709
  430TMC3    O2 6475   3.831   4.630  17.050  0.1658  0.0753 -0.0759
  431MPD2     C 6476   0.293   4.041  12.186  0.2649  0.4264  0.8214
  431MPD2    C1 6477   0.418   4.096  12.170  1.2165 -0.1080 -0.8002
  431MPD2    C2 6478   0.529   4.016  12.137  0.1991  0.0812  0.0419
  431MPD2    C3 6479   0.511   3.887  12.094 -0.7354 -0.4395  0.4727
  431MPD2    C4 6480   0.386   3.833  12.111 -0.2161  0.2334 -0.4277
  431MPD2    C5 6481   0.285   3.905  12.167  0.4297  0.3018 -0.3531
  431MPD2     H 6482   0.630   4.055  12.147 -0.0944  0.4280  1.7412
  431MPD2    H1 6483   0.374   3.728  12.087 -0.3202  0.7329 -2.5379
  431MPD2    H2 6484   0.207   4.092  12.227  0.2815 -0.1927  1.6306
  431MPD2    H3 6485   0.193   3.847  12.177  0.0611  0.7922 -0.9047
  431MPD2     N 6486   0.620   3.805  12.050  0.1007 -0.5044  0.2677
  431MPD2    H5 6487   0.591   3.714  12.016 -0.2828 -0.5873  0.8154
  431MPD2    N1 6488   0.446   4.232  12.191 -0.5948 -0.0979  0.1493
  431MPD2    H7 6489   0.543   4.263  12.193 -0.1224 -1.5309 -0.3043
  432TMC3    C1 6490   0.819   3.728  11.941 -0.0503  0.6626  0.6959
  432TMC3    C2 6491   0.927   3.765  11.856 -1.1089 -0.1168  0.0298
  432TMC3    C3 6492   1.028   3.674  11.848 -0.2050  0.2996  0.3475
  432TMC3    C4 6493   0.824   3.617  12.018 -0.2586  0.2383  0.0563
  432TMC3    C5 6494   0.925   3.522  12.000  0.3046  0.2000 -1.0947
  432TMC3    C6 6495   1.032   3.556  11.921  0.2376 -0.1276  0.4911
  432TMC3     C 6496   0.742   3.847  11.991  0.3604  0.0169 -0.7889
  432TMC3     O 6497   0.784   3.963  11.970 -0.1951 -0.0104  0.4012
  432TMC3     H 6498   0.919   3.850  11.790  2.5707  0.6557  0.5657
  432TMC3    H1 6499   0.730   3.587  12.065 -0.7039  1.5359 -0.0195
  432TMC3    H2 6500   1.118   3.491  11.916  1.2485  1.3695 -1.5045
  432TMC3    C7 6501   0.959   3.432  12.110 -0.3903 -0.3916 -0.1807
  432TMC3    C8 6502   1.149   3.727  11.790 -0.6542  0.2108  0.0284
  432TMC3    O1 6503   1.052   3.359  12.087 -0.2096 -0.2733 -0.3610
  432TMC3    O2 6504   1.154   3.734  11.665  0.4492 -0.2587 -0.3171
  433MPD2     C 6505   4.240   3.079  10.681  0.4349 -0.7641 -0.0642
  433MPD2    C1 6506   4.230   2.952  10.708 -0.5878 -0.0190 -0.3014
  433MPD2    C2 6507   4.236   2.917  10.844 -0.0654  0.1751 -0.0492
  433MPD2    C3 6508   4.254   3.009  10.942  0.4697  0.3260 -0.7050
  433MPD2    C4 6509   4.261   3.140  10.913 -0.4817  0.1397  0.6976
  433MPD2    C5 6510   4.252   3.178  10.782  0.3675  0.6619 -0.2949
  433MPD2     H 6511   4.228   2.813  10.876 -0.1551 -0.6061 -2.5749
  433MPD2    H1 6512   4.271   3.211  10.995 -1.4565  0.4302  0.5599
  433MPD2    H2 6513   4.237   3.103  10.575  0.8865 -0.3567  0.0169
  433MPD2    H3 6514   4.267   3.281  10.753 -0.3047  0.6887 -0.5266
  433MPD2     N 6515   4.269   2.961  11.077  0.2191  0.1714 -0.3102
  433MPD2    H5 6516   4.265   2.860  11.091  0.3305 -0.0495 -1.9305
  433MPD2    N1 6517   4.224   2.853  10.603 -0.3637  0.6442 -0.2385
  433MPD2    H7 6518   4.243   2.877  10.506  2.2560  0.0998  0.1306
  434TMC3    C1 6519   4.270   2.632  10.543 -0.0855  0.4328 -0.0050
  434TMC3    C2 6520   4.402   2.617  10.565  0.1342  0.2322  0.3917
  434TMC3    C3 6521   4.458   2.490  10.565 -0.8824  0.2564 -0.2209
  434TMC3    C4 6522   4.190   2.523  10.526  0.1924  0.2500  0.2753
  434TMC3    C5 6523   4.245   2.402  10.534 -0.3308  0.3533 -0.7670
  434TMC3    C6 6524   4.378   2.380  10.553  0.2429 -0.7082  0.0525
  434TMC3     C 6525   4.206   2.720  10.633 -0.2095  0.2748 -0.8488
  434TMC3     O 6526   4.160   2.660  10.734 -0.3007 -0.0625  0.0642
  434TMC3     H 6527   4.457   2.706  10.591  0.3192  0.3527 -0.4348
  434TMC3    H1 6528   4.084   2.540  10.513  0.2736  0.3548 -0.2351
  434TMC3    H2 6529   4.405   2.276  10.544  0.0601 -0.7649  0.1503
  434TMC3    C7 6530   4.168   2.292  10.469 -0.5522  0.5162  0.4131
  434TMC3    C8 6531   4.587   2.451  10.618  0.1276  0.1322 -0.4972
  434TMC3    O1 6532   4.064   2.322  10.415 -0.6667  0.5870 -0.6322
  434TMC3    O2 6533   4.613   2.331  10.618 -0.2126 -0.2840 -0.0302
  435MPD2     C 6534   1.076   2.643  15.413  0.1173  0.0289  0.1767
  435MPD2    C1 6535   1.056   2.682  15.549 -1.2888 -0.5757  0.0439
  435MPD2    C2 6536   1.166   2.679  15.632 -0.1295  0.0650  0.2071
  435MPD2    C3 6537   1.281   2.631  15.584  0.4977  0.0187 -0.4273
  435MPD2    C4 6538   1.297   2.580  15.459  0.0492  0.3045  0.1249
  435MPD2    C5 6539   1.196   2.584  15.375 -0.4405  0.1552  0.2322
  435MPD2     H 6540   1.152   2.705  15.736  1.4803 -0.0266  0.4497
  435MPD2    H1 6541   1.391   2.530  15.437 -0.0926 -0.3355  1.0077
  435MPD2    H2 6542   0.998   2.655  15.340  1.8908 -0.9012 -1.8789
  435MPD2    H3 6543   1.207   2.536  15.278 -1.5748 -1.7026  1.0195
  435MPD2     N 6544   1.381   2.607  15.675 -0.4051 -0.6979 -0.0130
  435MPD2    H5 6545   1.351   2.621  15.771  0.1309 -1.9126  0.3380
  435MPD2    N1 6546   0.938   2.730  15.603 -0.2040  0.1686 -0.5072
  435MPD2    H7 6547   0.944   2.772  15.695 -2.0784 -2.0032  0.6274
  436TMC3    C1 6548   0.640   2.895  15.803 -0.4758  0.0703 -0.5563
  436TMC3    C2 6549   0.725   2.797  15.749 -0.2375  0.2516 -0.0569
  436TMC3    C3 6550   0.700   2.770  15.617  0.0630  0.0858  0.7949
  436TMC3    C4 6551   0.534   2.953  15.748 -0.5860  0.5922 -0.1105
  436TMC3    C5 6552   0.506   2.913  15.622  0.2752  0.5589  0.1072
  436TMC3    C6 6553   0.591   2.824  15.559 -0.2073 -0.0565 -0.5306
  436TMC3     C 6554   0.689   2.943  15.931  0.0549 -0.0687 -0.2912
  436TMC3     O 6555   0.811   2.944  15.948  0.3006 -0.7564 -0.0310
  436TMC3     H 6556   0.808   2.760  15.808  0.4957  1.5494 -0.2735
  436TMC3    H1 6557   0.483   3.039  15.790 -1.6070 -0.2554  0.3751
  436TMC3    H2 6558   0.566   2.778  15.464 -0.7933 -1.0985  0.1194
  436TMC3    C7 6559   0.385   2.957  15.551 -0.0591  0.5516  0.3588
  436TMC3    C8 6560   0.819   2.730  15.534 -0.4833  0.5446  0.9267
  436TMC3    O1 6561   0.367   2.904  15.441 -0.2549 -0.2745  0.0447
  436TMC3    O2 6562   0.788   2.689  15.427 -0.0013  0.3190 -0.3663
  437TMC3    C1 6563   4.369   0.405  12.503  0.2343 -0.4284  0.2228
  437TMC3    C2 6564   4.362   0.525  12.567  0.1876 -0.3384  0.8321
  437TMC3    C3 6565   4.399   0.636  12.494  0.1370 -0.1893  0.3748
  437TMC3    C4 6566   4.387   0.396  12.368  0.2277 -0.0611 -1.1611
  437TMC3    C5 6567   4.419   0.509  12.302 -0.0208 -0.4230 -0.5312
  437TMC3    C6 6568   4.444   0.625  12.365 -0.0476 -0.2353 -0.3074
  437TMC3     C 6569   4.289   0.309  12.577 -0.0731 -0.5475  0.5109
  437TMC3     O 6570   4.188   0.350  12.630  0.4754  0.2028 -0.6375
  437TMC3     H 6571   4.338   0.531  12.672  0.5348 -0.8076  0.9363
  437TMC3    H1 6572   4.384   0.307  12.306 -3.2345 -0.4317 -0.5052
  437TMC3    H2 6573   4.478   0.707  12.303 -1.4128 -0.4443 -1.3105
  437TMC3    C7 6574   4.495   0.491  12.186  0.3022 -0.4469  0.3466
  437TMC3    C8 6575   4.354   0.767  12.551  0.1619 -0.5293 -0.1310
  437TMC3    O1 6576   4.502   0.578  12.104  0.0442 -0.0194  0.3808
  437TMC3    O2 6577   4.272   0.768  12.640  0.1478 -1.1297  0.0758
  438MPD2     C 6578   1.983   0.920  16.813  0.0260  0.0100 -0.3462
  438MPD2    C1 6579   2.046   0.810  16.877 -1.5236 -0.3880 -0.1337
  438MPD2    C2 6580   2.068   0.813  17.013  0.3096 -0.2286 -0.2456
  438MPD2    C3 6581   1.999   0.907  17.087  0.2529 -0.0406  0.2795
  438MPD2    C4 6582   1.939   1.014  17.025 -0.2999  0.1084 -0.6939
  438MPD2    C5 6583   1.929   1.021  16.889 -0.2158  0.0392  0.2127
  438MPD2     H 6584   2.124   0.727  17.051  2.4485  0.9044 -0.8235
  438MPD2    H1 6585   1.890   1.094  17.079 -0.0289 -1.3062  1.6270
  438MPD2    H2 6586   1.973   0.924  16.705 -1.4482  1.3712 -0.1507
  438MPD2    H3 6587   1.874   1.100  16.840  0.6016 -0.0837 -0.9108
  438MPD2     N 6588   2.001   0.908  17.229 -0.0992 -0.5509  0.9415
  438MPD2    H5 6589   1.951   0.984  17.274 -0.0490 -1.6758  2.8699
  438MPD2    N1 6590   2.106   0.711  16.804 -0.1370  0.2259 -0.1974
  438MPD2    H7 6591   2.179   0.656  16.850 -2.9450 -1.4879  2.1874
  439TMC3    C1 6592   2.160   0.562  16.633  0.1582 -0.5233 -0.1999
  439TMC3    C2 6593   2.168   0.552  16.496 -0.3702  0.0698  0.0503
  439TMC3    C3 6594   2.246   0.447  16.450  0.0919 -0.2292  0.0279
  439TMC3    C4 6595   2.215   0.475  16.726  0.0200 -0.2562  0.2383
  439TMC3    C5 6596   2.288   0.369  16.671 -0.1441 -0.9590  0.7164
  439TMC3    C6 6597   2.307   0.357  16.532  0.3442  0.4448 -0.3986
  439TMC3     C 6598   2.075   0.674  16.675 -0.3952 -0.3020 -0.5426
  439TMC3     O 6599   1.992   0.720  16.597 -0.0117 -0.4109  0.1031
  439TMC3     H 6600   2.126   0.617  16.420  1.0366  1.1975  0.2325
  439TMC3    H1 6601   2.199   0.491  16.832  0.9560 -0.9841  0.4971
  439TMC3    H2 6602   2.365   0.278  16.485  0.4011 -0.5873  1.4082
  439TMC3    C7 6603   2.370   0.288  16.756  0.2799  1.0476  0.3321
  439TMC3    C8 6604   2.261   0.418  16.308 -0.3272 -0.0700 -0.1906
  439TMC3    O1 6605   2.378   0.320  16.872 -0.1773  0.2234 -0.0618
  439TMC3    O2 6606   2.354   0.345  16.280  0.0778 -0.2278  0.2836
  440MPD2     C 6607   0.807   0.977  15.021 -0.0242  0.1250  0.3981
  440MPD2    C1 6608   0.910   1.073  15.029  0.8344 -0.6010 -0.2857
  440MPD2    C2 6609   1.026   1.050  15.099 -0.2842  0.4269 -0.2643
  440MPD2    C3 6610   1.039   0.932  15.170  0.9543 -0.1924 -0.5351
  440MPD2    C4 6611   0.935   0.844  15.166  0.4384 -0.0454 -0.4244
  440MPD2    C5 6612   0.822   0.863  15.091  0.2193 -0.2427  0.0217
  440MPD2     H 6613   1.102   1.127  15.110  0.3463 -0.0094 -1.4951
  440MPD2    H1 6614   0.944   0.755  15.227  1.1541 -1.2258 -2.2485
  440MPD2    H2 6615   0.713   0.992  14.970  0.9606 -1.6319 -1.9281
  440MPD2    H3 6616   0.743   0.789  15.095  0.4677 -0.4588  0.9669
  440MPD2     N 6617   1.153   0.899  15.245 -0.0262  0.4604  0.4421
  440MPD2    H5 6618   1.157   0.807  15.287  0.8756  0.1265 -0.3704
  440MPD2    N1 6619   0.898   1.202  14.969  0.6055 -0.5430 -0.2834
  440MPD2    H7 6620   0.980   1.262  14.960  0.1934  0.3796  2.1646
  441TMC3    C1 6621   1.341   0.913  15.378  0.1323  1.0119 -0.6114
  441TMC3    C2 6622   1.420   0.997  15.451 -0.3274 -0.2660 -0.6349
  441TMC3    C3 6623   1.511   0.947  15.546  0.0660  0.7985  0.2307
  441TMC3    C4 6624   1.335   0.781  15.404 -0.1191  0.0866 -0.2425
  441TMC3    C5 6625   1.411   0.740  15.516 -0.2061 -0.8506  0.7085
  441TMC3    C6 6626   1.500   0.817  15.579  0.0949  0.5495  0.0029
  441TMC3     C 6627   1.263   0.979  15.278 -0.3350  0.1610 -0.3792
  441TMC3     O 6628   1.274   1.100  15.255 -0.2230  0.0501  0.5241
  441TMC3     H 6629   1.413   1.098  15.413 -1.0971  0.6392  1.9115
  441TMC3    H1 6630   1.264   0.719  15.350 -0.3496  0.1428 -0.0010
  441TMC3    H2 6631   1.568   0.770  15.649  0.7306 -1.0907 -1.7320
  441TMC3    C7 6632   1.378   0.614  15.580  0.1525  0.0304 -0.2899
  441TMC3    C8 6633   1.553   1.036  15.657 -0.0677 -0.4605  0.2048
  441TMC3    O1 6634   1.406   0.597  15.700  0.1715  0.3442  0.8048
  441TMC3    O2 6635   1.568   0.980  15.763  0.1582  0.2920 -0.0683
  442MPD2     C 6636   3.860   1.545  16.843 -0.3125  0.9260  0.0151
  442MPD2    C1 6637   3.882   1.610  16.719 -0.8034  0.0578 -0.6956
  442MPD2    C2 6638   3.888   1.533  16.603 -0.7216 -0.1461  0.8667
  442MPD2    C3 6639   3.881   1.394  16.611  0.1747  1.2154 -0.5341
  442MPD2    C4 6640   3.852   1.330  16.735  0.1277 -0.3594 -0.2392
  442MPD2    C5 6641   3.838   1.413  16.848  0.3224 -0.6112 -0.1947
  442MPD2     H 6642   3.893   1.565  16.500 -0.2018  0.7152  1.1700
  442MPD2    H1 6643   3.847   1.223  16.746  0.9485 -0.3795 -0.0654
  442MPD2    H2 6644   3.841   1.598  16.935  0.3516  0.1855  0.5788
  442MPD2    H3 6645   3.799   1.374  16.941 -0.1283 -1.1169 -0.5981
  442MPD2     N 6646   3.883   1.302  16.507  0.7128  0.3359 -0.2007
  442MPD2    H5 6647   3.876   1.205  16.538  1.4218  0.6272  0.8559
  442MPD2    N1 6648   3.877   1.746  16.717  0.5250 -0.0647  0.1159
  442MPD2    H7 6649   3.857   1.790  16.806 -1.2036  1.1040 -0.8475
  443TMC3    C1 6650   3.845   1.967  16.646  0.0970 -0.2065  0.3391
  443TMC3    C2 6651   3.874   2.066  16.555  0.5267 -0.0844 -0.1344
  443TMC3    C3 6652   3.790   2.170  16.537 -0.2254 -0.1709 -0.5889
  443TMC3    C4 6653   3.725   1.969  16.715 -0.8916 -0.2383  0.0406
  443TMC3    C5 6654   3.634   2.062  16.682  0.5986  1.2732  0.8664
  443TMC3    C6 6655   3.667   2.171  16.606 -0.0582  0.1087  0.3198
  443TMC3     C 6656   3.897   1.831  16.613  0.0111 -0.6420  0.1947
  443TMC3     O 6657   3.943   1.810  16.503 -0.4289 -0.5276  0.3348
  443TMC3     H 6658   3.971   2.057  16.506  0.2836 -1.8789 -0.2781
  443TMC3    H1 6659   3.694   1.886  16.778  2.2338 -1.6113 -0.2422
  443TMC3    H2 6660   3.604   2.257  16.585  1.6857  1.1024 -0.8108
  443TMC3    C7 6661   3.493   2.028  16.697 -0.7115 -0.9001 -0.2776
  443TMC3    C8 6662   3.844   2.298  16.485 -0.0095  0.3506 -0.1521
  443TMC3    O1 6663   3.459   1.914  16.661 -0.5113  0.1462  0.5827
  443TMC3    O2 6664   3.947   2.346  16.539 -0.7649 -0.5158  0.3399
  444MPD2     C 6665   3.885   1.077  17.015  0.0888 -0.0101  0.2820
  444MPD2    C1 6666   3.840   0.961  17.079 -0.1594  0.4779 -0.4776
  444MPD2    C2 6667   3.912   0.841  17.052  0.1801 -0.1050  0.1235
  444MPD2    C3 6668   4.027   0.840  16.977 -0.2804 -0.1477 -0.8249
  444MPD2    C4 6669   4.072   0.960  16.925  0.0098  0.0310 -0.7395
  444MPD2    C5 6670   3.992   1.070  16.937 -0.2632 -0.3631 -0.5173
  444MPD2     H 6671   3.873   0.743  17.078 -1.0595 -0.0528 -1.5683
  444MPD2    H1 6672   4.163   0.965  16.866  0.9279 -0.8001  0.6188
  444MPD2    H2 6673   3.839   1.175  17.028  2.1852  0.9138  0.6980
  444MPD2    H3 6674   4.025   1.163  16.893  0.8229 -1.1805 -1.4261
  444MPD2     N 6675   4.077   0.713  16.944  0.4178 -0.1457  0.2308
  444MPD2    H5 6676   4.016   0.636  16.973 -0.7418  2.1913  4.0721
  444MPD2    N1 6677   3.718   0.955  17.142  0.2506  0.3811  0.5063
  444MPD2    H7 6678   3.697   0.866  17.187 -0.0470 -0.4593 -1.3222
  445TMC3    C1 6679   4.220   0.552  16.870  0.5045  0.1385 -0.3828
  445TMC3    C2 6680   4.166   0.472  16.969 -0.1081  0.4107  0.7059
  445TMC3    C3 6681   4.230   0.352  16.988 -0.5933  0.0438  0.3976
  445TMC3    C4 6682   4.321   0.508  16.788  0.2699 -0.6615  0.1121
  445TMC3    C5 6683   4.384   0.388  16.817  0.0685 -0.7454  0.1416
  445TMC3    C6 6684   4.341   0.314  16.920  0.5437 -0.3611  0.1533
  445TMC3     C 6685   4.184   0.690  16.858 -0.7081  0.1255 -0.1846
  445TMC3     O 6686   4.250   0.766  16.792  0.0282  0.3701 -0.3001
  445TMC3     H 6687   4.087   0.490  17.041  0.0194  0.3182  0.8687
  445TMC3    H1 6688   4.342   0.570  16.702  2.0668 -0.1629  0.8996
  445TMC3    H2 6689   4.383   0.214  16.923 -1.8111 -1.4370 -3.8037
  445TMC3    C7 6690   4.484   0.334  16.734  0.0063 -0.3123 -0.0585
  445TMC3    C8 6691   4.187   0.271  17.094 -0.0789  0.1610 -0.1683
  445TMC3    O1 6692   4.500   0.398  16.630 -0.0595  0.0299  0.1945
  445TMC3    O2 6693   4.277   0.201  17.146 -0.1403  0.2831 -0.1460
  446MPD2     C 6694   4.291   2.011  10.909  0.9282  0.0631  0.4472
  446MPD2    C1 6695   4.197   2.105  10.910  0.2884 -0.1071  0.9223
  446MPD2    C2 6696   4.233   2.240  10.911  0.2662 -0.7523 -0.2473
  446MPD2    C3 6697   4.371   2.274  10.925  0.1122  0.2697  0.1225
  446MPD2    C4 6698   4.461   2.170  10.913 -0.3677 -0.2498  0.0275
  446MPD2    C5 6699   4.422   2.040  10.898  0.4212 -0.1517 -0.4120
  446MPD2     H 6700   4.151   2.310  10.912  0.2793 -0.7199 -1.2385
  446MPD2    H1 6701   4.568   2.179  10.905  0.0499 -2.6658  2.9192
  446MPD2    H2 6702   4.262   1.907  10.907 -0.4708  0.4873 -2.0229
  446MPD2    H3 6703   4.494   1.960  10.901  1.3279  0.6550 -0.9271
  446MPD2     N 6704   4.419   2.404  10.959  0.1277 -0.2925  0.8767
  446MPD2    H5 6705   4.359   2.485  10.944  2.9432  2.0685  2.4137
  446MPD2    N1 6706   4.059   2.077  10.905  0.2665  0.1805  0.3318
  446MPD2    H7 6707   3.994   2.154  10.895 -1.9638 -1.8911 -1.1521
  447TMC3    C1 6708   4.590   2.559  11.046  0.2034  0.3418 -0.3315
  447TMC3    C2 6709   4.546   2.660  10.958 -0.6561 -0.7548  0.3441
  447TMC3    C3 6710   4.608   2.783  10.973 -1.0460  0.4029  0.4204
  447TMC3    C4 6711   4.678   2.575  11.148 -0.4285  0.1719  0.4947
  447TMC3    C5 6712   4.736   2.697  11.153  0.7185 -0.3003  0.0716
  447TMC3    C6 6713   4.704   2.803  11.073  0.2963  0.4762 -0.6211
  447TMC3     C 6714   4.544   2.423  11.023  0.2856 -0.5675 -0.4768
  447TMC3     O 6715   4.605   2.333  11.088  1.2300 -0.4176 -0.3419
  447TMC3     H 6716   4.474   2.635  10.881  1.5862 -2.7632 -1.1016
  447TMC3    H1 6717   4.695   2.502  11.226 -0.2341 -0.6264 -0.2876
  447TMC3    H2 6718   0.021   2.895  11.084  2.1365 -0.7137 -0.0490
  447TMC3    C7 6719   0.133   2.703  11.195  0.3776  0.4356 -0.8238
  447TMC3    C8 6720   4.589   2.878  10.868  0.1289  0.2360  0.2481
  447TMC3    O1 6721   0.200   2.790  11.149  0.3424 -0.1404 -0.0218
  447TMC3    O2 6722   4.560   2.835  10.760 -0.1481  0.8145 -0.0523
  448TMC3    C1 6723   1.596   1.384   0.160  0.1339  0.1021  0.0155
  448TMC3    C2 6724   1.651   1.389   0.033  0.3194 -0.0754 -0.0157
  448TMC3    C3 6725   1.784   1.361   0.032  0.5407 -0.7392 -0.1785
  448TMC3    C4 6726   1.662   1.330   0.266  0.6756  0.1223 -0.2343
  448TMC3    C5 6727   1.802   1.317   0.262 -0.4821  0.0494  0.7105
  448TMC3    C6 6728   1.864   1.330   0.143 -0.1044 -0.1802  0.9204
  448TMC3     C 6729   1.452   1.384   0.167  0.0071 -0.2521  0.0859
  448TMC3     O 6730   1.394   1.310   0.251  0.3276 -0.5447 -0.0846
  448TMC3     H 6731   1.585   1.397  17.700 -0.0778  0.9267  0.3853
  448TMC3    H1 6732   1.607   1.313   0.358 -0.9263  0.2390 -1.1635
  448TMC3    H2 6733   1.969   1.305   0.130 -0.1673 -0.2530  0.5553
  448TMC3    C7 6734   1.877   1.272   0.377  0.3379 -0.9322  0.4229
  448TMC3    C8 6735   1.855   1.333  17.654  0.7019  0.6424 -0.6942
  448TMC3    O1 6736   2.001   1.267   0.374 -0.2701 -0.6682  0.1182
  448TMC3    O2 6737   1.967   1.281  17.654  0.7515  0.2634  0.2668
  449MPD2     C 6738   4.083   0.188  13.421 -0.3281 -0.1617 -0.0140
  449MPD2    C1 6739   3.976   0.268  13.393  0.3907 -0.5296  1.1760
  449MPD2    C2 6740   3.857   0.229  13.459 -0.6673  0.0705  0.9566
  449MPD2    C3 6741   3.842   0.118  13.544 -0.8826  0.0402 -0.0097
  449MPD2    C4 6742   3.955   0.036  13.553  0.0576  0.3992 -0.4534
  449MPD2    C5 6743   4.070   0.066  13.489 -1.2513 -0.3460 -0.1934
  449MPD2     H 6744   3.775   0.298  13.448 -0.1116  0.7148  0.8441
  449MPD2    H1 6745   3.955   4.684  13.613 -2.5608  1.1224  0.6468
  449MPD2    H2 6746   4.174   0.204  13.365  0.2440  0.6822  1.1638
  449MPD2    H3 6747   4.159   0.005  13.499 -0.6193  0.1925 -2.6375
  449MPD2     N 6748   3.711   0.099  13.604 -0.1679 -0.0724  0.0650
  449MPD2    H5 6749   3.634   0.157  13.571 -1.2042 -1.3916  0.1633
  449MPD2    N1 6750   3.963   0.375  13.300 -0.6208  0.2458  1.1167
  449MPD2    H7 6751   3.869   0.415  13.296 -0.8239 -0.2775  0.6018
  450TMC3    C1 6752   4.010   0.553  13.149 -0.5772 -0.5175 -0.4147
  450TMC3    C2 6753   4.075   0.675  13.151  0.0089 -0.7300  1.0990
  450TMC3    C3 6754   4.004   0.784  13.193 -0.2339 -0.1990 -1.0620
  450TMC3    C4 6755   3.874   0.543  13.148  0.0570 -0.1755  0.5840
  450TMC3    C5 6756   3.807   0.647  13.204 -0.1098  0.1554  0.1248
  450TMC3    C6 6757   3.871   0.768  13.234 -0.3681 -0.2571  0.4735
  450TMC3     C 6758   4.067   0.449  13.237  0.1955 -0.2732 -0.2993
  450TMC3     O 6759   4.187   0.441  13.255  0.1141 -0.4532  0.1995
  450TMC3     H 6760   4.179   0.674  13.121  0.0161  3.0319  1.0585
  450TMC3    H1 6761   3.820   0.451  13.125  0.1390 -0.4933  1.6606
  450TMC3    H2 6762   3.825   0.843  13.297 -1.4496 -1.1869  0.7869
  450TMC3    C7 6763   3.689   0.601  13.278 -0.4809 -0.1108 -0.0786
  450TMC3    C8 6764   4.057   0.924  13.202  0.1722  0.3984 -0.5910
  450TMC3    O1 6765   3.680   0.477  13.282  0.8017  0.5242  0.2718
  450TMC3    O2 6766   4.003   1.002  13.279 -0.2498  0.5464  0.5612
  451MPD2     C 6767   0.116   4.050   0.004 -0.5228  0.5597 -0.3047
  451MPD2    C1 6768   4.734   3.991   0.031  0.2246 -0.0288  0.0989
  451MPD2    C2 6769   4.718   3.874  17.713 -0.2040 -0.8413 -0.1895
  451MPD2    C3 6770   0.071   3.824  17.621  0.4529 -0.1570 -0.5309
  451MPD2    C4 6771   0.189   3.890  17.592 -0.4571  0.1102 -0.2444
  451MPD2    C5 6772   0.206   4.006  17.663 -0.3783  0.1211 -0.8610
  451MPD2     H 6773   4.621   3.827  17.724  0.4303 -2.8408 -3.1737
  451MPD2    H1 6774   0.269   3.857  17.528 -0.5464 -1.4716  0.4545
  451MPD2    H2 6775   0.152   4.141   0.050  2.5786  0.2660 -2.1769
  451MPD2    H3 6776   0.292   4.070  17.647  0.5454 -0.4602  1.8829
  451MPD2     N 6777   0.048   3.702  17.551  0.2820 -0.4929 -0.4153
  451MPD2    H5 6778   0.123   3.676  17.488  0.2921  1.6480 -1.3065
  451MPD2    N1 6779   4.642   4.036   0.137  0.4540 -0.0271 -0.4929
  451MPD2    H7 6780   4.671   4.119   0.188 -1.1513  0.7381 -0.8513
  452TMC3    C1 6781   4.719   3.501  17.478 -0.0036  0.3849 -0.1336
  452TMC3    C2 6782   4.624   3.415  17.436 -0.5399  0.9281 -0.0841
  452TMC3    C3 6783   4.663   3.294  17.390  0.1990 -0.6536 -0.8262
  452TMC3    C4 6784   0.113   3.459  17.482 -0.2872  0.2726 -0.1741
  452TMC3    C5 6785   0.145   3.334  17.447 -0.4651 -0.7192  0.2432
  452TMC3    C6 6786   0.053   3.247  17.394 -0.3786  0.0640  0.4755
  452TMC3     C 6787   4.685   3.616  17.553  0.1800  0.4728  0.7602
  452TMC3     O 6788   4.565   3.632  17.586 -0.1548 -0.2252  0.2993
  452TMC3     H 6789   4.523   3.452  17.429 -0.5719  1.0079  0.8964
  452TMC3    H1 6790   0.186   3.526  17.525 -1.4409  1.4789 -0.1079
  452TMC3    H2 6791   0.070   3.144  17.367  1.2958  0.1977  0.9954
  452TMC3    C7 6792   0.293   3.305  17.458  0.5579 -0.0386 -0.6518
  452TMC3    C8 6793   4.556   3.204  17.349  0.2632  0.3392 -0.0996
  452TMC3    O1 6794   0.363   3.401  17.483 -0.0421 -0.5743 -0.5196
  452TMC3    O2 6795   4.581   3.113  17.273 -0.0769 -0.2028  0.5479
  453TMC3    C1 6796   1.741   1.373  11.800 -0.2430 -0.2767  0.9778
  453TMC3    C2 6797   1.653   1.273  11.838 -0.6567  0.2183 -0.5425
  453TMC3    C3 6798   1.568   1.229  11.743  0.1189 -0.0845  0.8676
  453TMC3    C4 6799   1.742   1.423  11.670  0.1855 -0.4763  0.0531
  453TMC3    C5 6800   1.659   1.361  11.575  0.5513 -0.1882 -0.1476
  453TMC3    C6 6801   1.566   1.269  11.611  0.0900  0.3385  0.1515
  453TMC3     C 6802   1.842   1.418  11.893 -0.4229 -0.3970 -0.9878
  453TMC3     O 6803   1.941   1.471  11.838 -0.2900  0.0382  0.3636
  453TMC3     H 6804   1.650   1.213  11.928  0.2686 -0.3814 -0.9145
  453TMC3    H1 6805   1.810   1.503  11.643  0.2481 -0.5891 -0.1180
  453TMC3    H2 6806   1.495   1.226  11.541  1.0412 -1.5057  0.3046
  453TMC3    C7 6807   1.663   1.400  11.437  0.2470 -0.0212  0.1132
  453TMC3    C8 6808   1.484   1.110  11.763  0.4181 -0.2770  0.4813
  453TMC3    O1 6809   1.652   1.318  11.349 -0.4448 -0.1057 -0.3296
  453TMC3    O2 6810   1.368   1.117  11.728 -0.3573  0.3579  1.1837
  454MPD2     C 6811   4.638   0.262  16.116  0.1606  0.3705  0.5815
  454MPD2    C1 6812   4.581   0.387  16.075  0.3530 -0.2622 -0.1469
  454MPD2    C2 6813   4.494   0.452  16.162  0.2939 -0.7225 -0.4458
  454MPD2    C3 6814   4.476   0.404  16.288 -0.0418 -0.2862  0.0089
  454MPD2    C4 6815   4.521   0.279  16.327  0.0099  0.2644  0.4286
  454MPD2    C5 6816   4.597   0.211  16.233  0.6649  0.0327  0.0386
  454MPD2     H 6817   4.434   0.533  16.123  1.7163  0.7382  0.3982
  454MPD2    H1 6818   4.498   0.238  16.425  0.5567 -2.6571 -0.6594
  454MPD2    H2 6819   4.693   0.191  16.055 -0.3657 -0.1022  0.6576
  454MPD2    H3 6820   4.641   0.119  16.270 -1.3311 -0.2985  1.5666
  454MPD2     N 6821   4.392   0.475  16.377 -0.5113  0.0748  0.2439
  454MPD2    H5 6822   4.366   0.429  16.463 -2.7474  0.1339 -0.4056
  454MPD2    N1 6823   4.594   0.440  15.949 -0.2298  0.2057 -0.5833
  454MPD2    H7 6824   4.555   0.533  15.934  1.0541  1.0654  1.3396
  455TMC3    C1 6825   4.244   0.653  16.443  0.3421  1.2233 -0.0117
  455TMC3    C2 6826   4.247   0.782  16.486  0.4796  0.1374  0.5080
  455TMC3    C3 6827   4.127   0.834  16.518  0.1941  0.6605  0.0775
  455TMC3    C4 6828   4.128   0.575  16.427  0.3092  0.4466 -0.6595
  455TMC3    C5 6829   4.020   0.632  16.481  0.0073 -0.1929  0.1859
  455TMC3    C6 6830   4.009   0.765  16.523 -0.2892 -0.1911  0.3583
  455TMC3     C 6831   4.363   0.612  16.368 -0.8510 -0.1604  0.3731
  455TMC3     O 6832   4.398   0.693  16.283 -0.1506  0.0090 -0.7449
  455TMC3     H 6833   4.332   0.848  16.493  1.3665 -0.7662 -1.9310
  455TMC3    H1 6834   4.145   0.468  16.420  0.3385  0.5012 -1.4238
  455TMC3    H2 6835   3.919   0.805  16.568 -1.2020  0.0018 -1.6711
  455TMC3    C7 6836   3.897   0.588  16.440  0.7008  0.1685 -0.0702
  455TMC3    C8 6837   4.098   0.980  16.537  0.5504  0.0225  0.8183
  455TMC3    O1 6838   3.798   0.605  16.507  0.0599  0.1342  0.9957
  455TMC3    O2 6839   4.005   1.013  16.607 -0.1690 -0.4994 -0.4012
  456MPD2     C 6840   2.392   0.768  16.382 -0.2081 -0.8213  0.3973
  456MPD2    C1 6841   2.472   0.705  16.470 -0.6943  0.3483 -0.2894
  456MPD2    C2 6842   2.468   0.746  16.602 -0.7569  0.9962 -0.2494
  456MPD2    C3 6843   2.385   0.845  16.648 -0.9153  0.0623  0.3443
  456MPD2    C4 6844   2.302   0.896  16.556  0.3260 -0.4099 -0.2317
  456MPD2    C5 6845   2.298   0.860  16.427  0.3093  0.3072  0.7778
  456MPD2     H 6846   2.540   0.699  16.667 -0.5742  0.8189 -0.5799
  456MPD2    H1 6847   2.229   0.970  16.585 -1.6261 -1.7907 -1.6786
  456MPD2    H2 6848   2.397   0.748  16.275 -0.4157 -0.8466  0.3925
  456MPD2    H3 6849   2.223   0.898  16.357 -0.5654 -2.9410 -0.0283
  456MPD2     N 6850   2.395   0.879  16.783  0.3448 -0.4855 -0.0369
  456MPD2    H5 6851   2.459   0.821  16.837  1.2230  0.1715 -0.3748
  456MPD2    N1 6852   2.553   0.599  16.425  0.4538  0.3245 -0.7608
  456MPD2    H7 6853   2.555   0.591  16.324 -0.1991  0.1109 -0.7556
  457TMC3    C1 6854   2.364   1.005  16.981 -0.1159 -0.4901  0.2240
  457TMC3    C2 6855   2.272   1.081  17.043  0.6200 -0.2211 -0.1017
  457TMC3    C3 6856   2.286   1.104  17.180  0.0212 -0.0377 -0.8873
  457TMC3    C4 6857   2.444   0.927  17.056 -0.0117  0.1948  0.6218
  457TMC3    C5 6858   2.440   0.936  17.194  0.3664 -0.0100  0.3306
  457TMC3    C6 6859   2.370   1.033  17.257  0.6762 -0.3883  0.1637
  457TMC3     C 6860   2.345   0.997  16.837  0.1156  0.1218  0.3695
  457TMC3     O 6861   2.298   1.095  16.775 -0.0020 -0.1505 -0.4705
  457TMC3     H 6862   2.192   1.125  16.984  1.7450  0.1220 -1.3887
  457TMC3    H1 6863   2.517   0.857  17.016 -2.3496 -0.7586 -1.9486
  457TMC3    H2 6864   2.356   1.034  17.364  3.5515  1.6206  0.5078
  457TMC3    C7 6865   2.522   0.859  17.281  0.2946  0.2130  0.0925
  457TMC3    C8 6866   2.176   1.169  17.258 -0.2491 -0.1604 -0.8257
  457TMC3    O1 6867   2.558   0.752  17.238  0.5716 -0.8084  0.6947
  457TMC3    O2 6868   2.153   1.137  17.376  0.3556 -0.0132  0.7127
  458MPD2     C 6869   0.235   0.400  12.060  0.1073  0.4339 -0.3941
  458MPD2    C1 6870   0.210   0.329  12.173 -0.5493 -0.1651 -0.1839
  458MPD2    C2 6871   0.079   0.306  12.213 -0.1028 -0.1374 -0.3176
  458MPD2    C3 6872   4.718   0.385  12.149 -0.0781 -0.0943 -0.5566
  458MPD2    C4 6873   0.016   0.460  12.036  0.4874 -0.8003  0.1795
  458MPD2    C5 6874   0.137   0.446  11.982 -0.4515 -0.5389 -0.3057
  458MPD2     H 6875   0.046   0.253  12.302 -1.1585 -1.8703 -1.7215
  458MPD2    H1 6876   4.679   0.516  11.982  1.2398 -0.8770 -0.9674
  458MPD2    H2 6877   0.338   0.398  12.027  0.0049 -1.0250 -0.6488
  458MPD2    H3 6878   0.164   0.503  11.893  0.0122  0.6581  0.5922
  458MPD2     N 6879   4.591   0.397  12.215 -0.4992 -0.4832 -0.6259
  458MPD2    H5 6880   4.574   0.336  12.295 -0.6241 -0.6318 -0.7636
  458MPD2    N1 6881   0.322   0.271  12.233 -0.1694  0.2120  0.3038
  458MPD2    H7 6882   0.405   0.307  12.189 -0.7495  0.9046 -0.2213
  459TMC3    C1 6883   0.441   0.169  12.405  0.7921  0.3918  0.0168
  459TMC3    C2 6884   0.562   0.215  12.352 -0.4895  0.4510  0.2255
  459TMC3    C3 6885   0.670   0.215  12.436 -0.0941 -0.0421 -0.2072
  459TMC3    C4 6886   0.426   0.123  12.539 -0.2749  0.3450 -0.3931
  459TMC3    C5 6887   0.540   0.131  12.613 -0.3739 -0.2853  0.4980
  459TMC3    C6 6888   0.654   0.186  12.567 -0.5428 -0.4145  0.3633
  459TMC3     C 6889   0.317   0.181  12.334 -0.6572  0.2090 -0.2218
  459TMC3     O 6890   0.220   0.131  12.380  0.1046 -0.3925 -0.0876
  459TMC3     H 6891   0.574   0.253  12.251  1.7160 -3.3507 -0.9411
  459TMC3    H1 6892   0.336   0.072  12.572  1.2912 -1.6114  0.8608
  459TMC3    H2 6893   0.739   0.187  12.635 -1.0249  0.5768  0.9444
  459TMC3    C7 6894   0.557   0.062  12.741 -0.0793  0.0067  0.1870
  459TMC3    C8 6895   0.802   0.262  12.393 -0.0871 -0.0345 -0.5760
  459TMC3    O1 6896   0.669   0.021  12.771 -0.0001 -0.3403  0.9537
  459TMC3    O2 6897   0.887   0.283  12.480 -0.3637  0.3091 -0.9347
  460MPD2     C 6898   4.691   3.236  10.885 -0.4512 -0.3117  0.0351
  460MPD2    C1 6899   4.647   3.118  10.828  0.0598 -0.6083  0.5980
  460MPD2    C2 6900   4.597   3.125  10.702 -0.2115 -0.0704  0.3143
  460MPD2    C3 6901   4.582   3.242  10.630 -0.4964 -0.0361  0.5224
  460MPD2    C4 6902   4.624   3.360  10.694  0.3838  0.2695 -0.0865
  460MPD2    C5 6903   4.677   3.350  10.817  0.1802  0.0827 -0.6122
  460MPD2     H 6904   4.559   3.036  10.652  0.7076 -0.1711 -0.2002
  460MPD2    H1 6905   4.620   3.461  10.654 -0.2470  0.1761 -0.2579
  460MPD2    H2 6906   4.729   3.241  10.986  1.4943 -0.2283 -0.6885
  460MPD2    H3 6907   4.716   3.439  10.864 -2.0963  0.8458 -0.1338
  460MPD2     N 6908   4.514   3.236  10.507  0.3410 -0.0102 -0.0785
  460MPD2    H5 6909   4.477   3.147  10.476 -0.0610 -0.4556  1.6847
  460MPD2    N1 6910   4.635   3.001  10.908 -0.3794  0.0525 -0.3676
  460MPD2    H7 6911   4.659   3.002  11.007 -1.9517  1.0302  0.0059
  461TMC3    C1 6912   4.430   3.305  10.294 -0.5996  0.6838  0.0304
  461TMC3    C2 6913   4.393   3.175  10.274  0.5462  0.2162 -0.3364
  461TMC3    C3 6914   4.285   3.149  10.204 -0.2368  0.9869  0.3262
  461TMC3    C4 6915   4.355   3.403  10.243 -0.3069 -0.3475  0.4030
  461TMC3    C5 6916   4.249   3.375  10.167 -0.3367  0.8532  0.4275
  461TMC3    C6 6917   4.202   3.250  10.156  0.3263 -0.2503 -1.0356
  461TMC3     C 6918   4.493   3.346  10.420  0.6851  0.1764  0.2790
  461TMC3     O 6919   4.521   3.462  10.434 -0.1517 -0.3636  0.3152
  461TMC3     H 6920   4.449   3.092  10.314 -0.6688 -0.1970  0.5043
  461TMC3    H1 6921   4.382   3.504  10.274  0.5758 -0.7882  1.0634
  461TMC3    H2 6922   4.108   3.218  10.113  0.5356 -0.8712 -1.0377
  461TMC3    C7 6923   4.173   3.476  10.098  0.0579 -0.6884  0.3843
  461TMC3    C8 6924   4.230   3.014  10.233  0.9823 -0.0504 -0.1431
  461TMC3    O1 6925   4.086   3.444  10.020 -0.6918  0.4252  0.2288
  461TMC3    O2 6926   4.254   2.968  10.344  0.0022 -0.4535 -0.1915
  462TMC3    C1 6927   3.952   3.765  17.382  0.6418 -0.1966  0.0094
  462TMC3    C2 6928   3.950   3.671  17.280 -0.2472  0.8218  0.0262
  462TMC3    C3 6929   4.013   3.552  17.301  0.6757 -0.0374  0.0895
  462TMC3    C4 6930   3.993   3.723  17.503  0.4377 -0.2051 -0.4085
  462TMC3    C5 6931   4.030   3.593  17.525 -0.3550  0.9484  0.1132
  462TMC3    C6 6932   4.063   3.515  17.419  0.2209 -0.4337  0.0473
  462TMC3     C 6933   3.843   3.861  17.386 -1.0727  0.5261 -0.2420
  462TMC3     O 6934   3.729   3.823  17.358 -0.5397 -0.7708 -0.0119
  462TMC3     H 6935   3.906   3.693  17.183 -2.0955 -0.3767  0.6008
  462TMC3    H1 6936   3.990   3.792  17.586  1.9133  0.7544 -1.1591
  462TMC3    H2 6937   4.097   3.413  17.428 -0.6049 -0.6890  0.3569
  462TMC3    C7 6938   3.935   3.530  17.613  0.2396  0.4821 -0.3489
  462TMC3    C8 6939   4.004   3.461  17.190 -0.2799  0.0002  0.2392
  462TMC3    O1 6940   3.932   3.408  17.618 -0.7102  0.2725 -0.3973
  462TMC3    O2 6941   3.923   3.483  17.102 -0.6705  0.4370  0.7960
  463MPD2     C 6942   4.707   2.263   1.587  0.3886  0.3995  0.0843
  463MPD2    C1 6943   4.683   2.380   1.519  0.1613  0.1941 -0.6631
  463MPD2    C2 6944   0.032   2.484   1.536  0.0232  0.2574  0.2471
  463MPD2    C3 6945   0.148   2.468   1.606  0.1971 -0.4887 -0.4042
  463MPD2    C4 6946   0.171   2.352   1.684  0.1236 -0.5312 -0.0366
  463MPD2    C5 6947   0.079   2.249   1.668 -0.2813 -0.1099 -0.0965
  463MPD2     H 6948   0.018   2.576   1.480  1.4068 -0.8158 -1.8581
  463MPD2    H1 6949   0.264   2.347   1.739  0.5196 -2.1331 -0.8625
  463MPD2    H2 6950   4.638   2.181   1.572  1.3934 -0.0561 -1.9863
  463MPD2    H3 6951   0.103   2.159   1.723 -0.3892 -0.6389 -0.9107
  463MPD2     N 6952   0.244   2.571   1.621  0.0084 -0.0322 -0.0851
  463MPD2    H5 6953   0.327   2.558   1.676 -0.9352 -3.1420  0.5967
  463MPD2    N1 6954   4.572   2.403   1.435  0.1424 -0.3012 -0.3637
  463MPD2    H7 6955   4.574   2.489   1.381 -0.7674  0.4269  0.7584
  464TMC3    C1 6956   4.370   2.381   1.315 -0.0412  0.0190  0.1073
  464TMC3    C2 6957   4.386   2.508   1.267  0.7248 -0.4223 -0.7591
  464TMC3    C3 6958   4.288   2.574   1.197 -0.4630  0.0781  0.8794
  464TMC3    C4 6959   4.258   2.304   1.283 -0.5498  0.5830 -0.0866
  464TMC3    C5 6960   4.169   2.372   1.201 -0.0711 -0.1967 -0.2752
  464TMC3    C6 6961   4.179   2.502   1.160  0.3403 -0.2973  0.2662
  464TMC3     C 6962   4.468   2.318   1.405  0.6704 -0.1660 -0.1384
  464TMC3     O 6963   4.431   2.220   1.467  0.5584 -0.2548 -0.0794
  464TMC3     H 6964   4.484   2.553   1.277 -0.7954  3.1264 -1.7755
  464TMC3    H1 6965   4.255   2.198   1.304  0.6552  0.7685  1.0012
  464TMC3    H2 6966   4.116   2.537   1.079 -1.4901 -0.5629  1.5755
  464TMC3    C7 6967   4.034   2.334   1.207 -0.5036 -0.7682  0.1524
  464TMC3    C8 6968   4.326   2.689   1.113 -0.7927  0.2238 -0.2555
  464TMC3    O1 6969   3.962   2.431   1.224  0.0432  0.3376 -0.3192
  464TMC3    O2 6970   4.260   2.714   1.017 -0.1144 -0.5665  0.1408
  465MPD2     C 6971   1.656   0.719  16.981 -0.4552 -0.3472  0.7800
  465MPD2    C1 6972   1.521   0.742  16.996  0.3335  0.2642  0.5742
  465MPD2    C2 6973   1.436   0.760  16.887 -0.3195  0.6198  0.2441
  465MPD2    C3 6974   1.490   0.758  16.762 -0.8238 -0.2772 -0.4491
  465MPD2    C4 6975   1.625   0.748  16.743  0.4003 -0.5713 -0.0284
  465MPD2    C5 6976   1.700   0.710  16.850  0.1117  0.2289  0.3259
  465MPD2     H 6977   1.328   0.762  16.898 -0.2570  2.9292  0.4630
  465MPD2    H1 6978   1.679   0.759  16.649 -1.7629  1.9931 -0.9466
  465MPD2    H2 6979   1.730   0.707  17.059  1.0983 -0.3362 -0.7114
  465MPD2    H3 6980   1.806   0.690  16.833  0.4400  2.4984 -0.3114
  465MPD2     N 6981   1.400   0.794  16.657  0.1647  0.4375  0.2510
  465MPD2    H5 6982   1.304   0.804  16.687 -0.4989 -0.3341 -1.5797
  465MPD2    N1 6983   1.456   0.760  17.121 -0.1746  0.3013  0.3808
  465MPD2    H7 6984   1.358   0.786  17.123 -0.4242 -0.6209  0.2683
  466TMC3    C1 6985   1.091   0.960  16.477  0.2912  0.3715 -0.1909
  466TMC3    C2 6986   1.123   1.089  16.444 -0.1629 -0.0011 -0.2453
  466TMC3    C3 6987   1.253   1.104  16.404  0.1867 -0.3784 -0.3040
  466TMC3    C4 6988   1.189   0.865  16.497  0.4906 -0.0079 -0.6275
  466TMC3    C5 6989   1.318   0.898  16.469 -0.0980 -0.3520  0.3735
  466TMC3    C6 6990   1.353   1.015  16.415  0.5275  0.6254  0.3813
  466TMC3     C 6991   0.966   0.936  16.537  0.6083  0.2539  0.2168
  466TMC3     O 6992   0.915   1.035  16.591 -0.3208  0.6551  0.8635
  466TMC3     H 6993   1.043   1.161  16.434 -0.5368 -0.2617  0.8982
  466TMC3    H1 6994   1.170   0.763  16.529 -1.7409  0.8095  0.6440
  466TMC3    H2 6995   1.455   1.034  16.384  0.8687 -0.9562  0.5294
  466TMC3    C7 6996   1.431   0.824  16.525 -0.6273  0.2906 -0.0045
  466TMC3    C8 6997   1.296   1.235  16.372  0.0851 -0.1976 -0.1009
  466TMC3    O1 6998   1.541   0.832  16.472  0.5590 -0.8888  0.6996
  466TMC3    O2 6999   1.402   1.252  16.310  0.0853  0.0852 -0.3274
  467TMC3    C1 7000   2.657   4.081  13.555 -0.4841 -0.1541  0.5958
  467TMC3    C2 7001   2.701   4.011  13.664 -0.4606 -0.0384 -0.1214
  467TMC3    C3 7002   2.657   4.036  13.793  0.2393 -0.3325  0.6444
  467TMC3    C4 7003   2.555   4.172  13.577  0.2516 -0.2645 -0.3396
  467TMC3    C5 7004   2.490   4.165  13.695  0.1529  0.1709 -0.4450
  467TMC3    C6 7005   2.546   4.110  13.807 -0.3844  0.3568  0.1742
  467TMC3     C 7006   2.769   4.139  13.479  0.1325  1.0706  0.2732
  467TMC3     O 7007   2.864   4.062  13.460 -0.7917 -0.1326  0.2951
  467TMC3     H 7008   2.772   3.932  13.643 -0.0388  0.9511 -2.4132
  467TMC3    H1 7009   2.499   4.208  13.491  0.2768 -1.5821 -0.9189
  467TMC3    H2 7010   2.502   4.129  13.904  0.0463 -0.9729  0.6318
  467TMC3    C7 7011   2.363   4.234  13.708 -0.0598 -0.4472 -0.7874
  467TMC3    C8 7012   2.699   3.953  13.908  0.3732  0.2583  0.5474
  467TMC3    O1 7013   2.344   4.315  13.621 -0.4979 -0.1203 -0.0165
  467TMC3    O2 7014   2.606   3.904  13.969  0.1957  0.3337 -0.1185
  468MPD2     C 7015   1.645   2.757  10.348  0.3385  0.2572 -0.3835
  468MPD2    C1 7016   1.574   2.737  10.460  0.3891 -0.0996 -0.2458
  468MPD2    C2 7017   1.554   2.614  10.509  0.2838  0.3445  0.3418
  468MPD2    C3 7018   1.625   2.509  10.455  0.7914 -0.1487  0.0709
  468MPD2    C4 7019   1.697   2.535  10.342 -0.4029 -0.4804  0.4163
  468MPD2    C5 7020   1.714   2.654  10.291  0.5560  0.0683  0.5086
  468MPD2     H 7021   1.503   2.591  10.602  0.1241 -2.2549 -0.3886
  468MPD2    H1 7022   1.748   2.456  10.287 -0.9640 -0.4797 -0.1222
  468MPD2    H2 7023   1.655   2.855  10.302  0.6618 -0.3452 -1.5625
  468MPD2    H3 7024   1.773   2.671  10.202 -0.7217  1.5420 -0.0547
  468MPD2     N 7025   1.623   2.376  10.490  0.2214  0.0295 -0.1432
  468MPD2    H5 7026   1.684   2.315  10.437 -1.0305 -1.3693  0.0274
  468MPD2    N1 7027   1.517   2.844  10.530  0.1235  0.1941  0.6704
  468MPD2    H7 7028   1.462   2.821  10.612 -0.2851  0.3518  0.4403
  469TMC3    C1 7029   1.458   3.044  10.598 -0.7844 -0.3676  0.5426
  469TMC3    C2 7030   1.532   3.122  10.679 -0.0999  0.3416 -0.1033
  469TMC3    C3 7031   1.500   3.125  10.810 -0.0545 -0.1430  0.0082
  469TMC3    C4 7032   1.343   2.975  10.642 -0.3268 -0.0832 -0.0283
  469TMC3    C5 7033   1.310   2.985  10.773  0.2099  0.7467 -0.6468
  469TMC3    C6 7034   1.390   3.056  10.864  0.5098 -0.0314 -0.3773
  469TMC3     C 7035   1.542   2.979  10.502  0.1949  0.3474  0.4322
  469TMC3     O 7036   1.633   3.040  10.437  0.4841 -0.1409  0.3130
  469TMC3     H 7037   1.608   3.182  10.630  0.0829  0.5140  0.3978
  469TMC3    H1 7038   1.277   2.916  10.580 -0.1974  0.3608 -0.5802
  469TMC3    H2 7039   1.358   3.055  10.967  1.9978 -0.3714  0.0811
  469TMC3    C7 7040   1.262   2.865  10.835 -0.1557 -0.3288  0.2060
  469TMC3    C8 7041   1.585   3.208  10.891  0.3170 -0.5677 -0.3784
  469TMC3    O1 7042   1.308   2.762  10.792  0.6759 -0.4683 -0.5289
  469TMC3    O2 7043   1.652   3.297  10.836 -0.3827 -0.1345 -0.6669
  470TMC3    C1 7044   3.015   3.161   0.333  0.0522  0.6465 -0.5028
  470TMC3    C2 7045   3.130   3.199   0.394 -0.5861 -0.3076 -0.1011
  470TMC3    C3 7046   3.139   3.183   0.530 -0.6825  1.0025  0.1750
  470TMC3    C4 7047   2.906   3.110   0.397  0.0090  0.6261 -0.5801
  470TMC3    C5 7048   2.919   3.106   0.535 -0.2556  0.2170  0.1808
  470TMC3    C6 7049   3.031   3.140   0.603 -0.3755  0.6940  1.4857
  470TMC3     C 7050   3.021   3.162   0.184  0.2282 -0.5635 -0.2786
  470TMC3     O 7051   3.097   3.239   0.130 -0.0919  0.8279 -0.0473
  470TMC3     H 7052   3.209   3.234   0.329 -0.6753  0.5477  0.2555
  470TMC3    H1 7053   2.819   3.074   0.343 -0.7161 -1.2017  1.8152
  470TMC3    H2 7054   3.044   3.133   0.710  3.3629 -0.7855  0.9179
  470TMC3    C7 7055   2.804   3.051   0.605 -0.1789  0.0927 -0.3910
  470TMC3    C8 7056   3.244   3.257   0.598  0.8745  0.4874 -0.2734
  470TMC3    O1 7057   2.716   2.996   0.542 -0.0788 -0.1047  0.1922
  470TMC3    O2 7058   3.231   3.270   0.717  0.3336 -0.4527 -0.0707
  471MPD2     C 7059   3.563   0.202  16.746  0.1211 -0.1531  0.1994
  471MPD2    C1 7060   3.683   0.127  16.750  0.1407 -0.9100 -0.4855
  471MPD2    C2 7061   3.701   0.049  16.856 -0.6978  0.4226  0.5984
  471MPD2    C3 7062   3.593   0.018  16.946 -0.0693  0.6814  0.4896
  471MPD2    C4 7063   3.478   0.096  16.949 -0.8132  1.0214  0.4207
  471MPD2    C5 7064   3.470   0.189  16.847  0.4110  0.0733  1.1140
  471MPD2     H 7065   3.798   0.001  16.860 -0.9347 -0.2142 -1.3456
  471MPD2    H1 7066   3.399   0.082  17.021  0.5028 -1.4629  1.3841
  471MPD2    H2 7067   3.545   0.267  16.662  1.1232  1.0620  0.9166
  471MPD2    H3 7068   3.381   0.250  16.838  0.3235 -0.0727  0.9829
  471MPD2     N 7069   3.599   4.662  17.047  0.7429  0.5642 -0.6169
  471MPD2    H5 7070   3.517   4.629  17.097  1.2075 -0.6765 -0.6759
  471MPD2    N1 7071   3.781   0.116  16.655  0.0792 -1.0872 -0.2058
  471MPD2    H7 7072   3.862   0.060  16.678  0.6151  0.0124  0.5733
  472TMC3    C1 7073   3.892   0.161  16.448  0.2061 -0.1079  0.0627
  472TMC3    C2 7074   3.859   0.172  16.315 -0.5831  0.0844  0.9546
  472TMC3    C3 7075   3.928   0.101  16.220 -0.4892 -0.2602 -0.2601
  472TMC3    C4 7076   3.987   0.060  16.481 -0.6758 -0.4189 -0.2027
  472TMC3    C5 7077   4.046   4.713  16.383 -1.1839  0.2408  0.0400
  472TMC3    C6 7078   4.017   4.736  16.249  0.2823 -0.1696  0.0047
  472TMC3     C 7079   3.787   0.193  16.542  0.1794  0.1264 -0.7049
  472TMC3     O 7080   3.690   0.251  16.492 -0.3456 -0.2492  0.2550
  472TMC3     H 7081   3.784   0.239  16.276 -1.6396 -2.3572 -1.2334
  472TMC3    H1 7082   4.009   0.031  16.583  0.5091  1.9887  0.2216
  472TMC3    H2 7083   4.075   4.688  16.171 -1.3893 -1.8019 -0.2305
  472TMC3    C7 7084   4.048   4.577  16.407  0.2241  0.5352 -0.7971
  472TMC3    C8 7085   3.850   0.073  16.098  0.7468  0.0000 -0.0417
  472TMC3    O1 7086   4.097   4.537  16.511  0.7220  0.1783 -0.2781
  472TMC3    O2 7087   3.912   0.037  16.001 -0.4196  0.7391 -0.0681
  473MPD2     C 7088   3.806   1.752  13.608  0.3415 -0.9515  0.3972
  473MPD2    C1 7089   3.805   1.879  13.540 -0.2145  0.6337  0.0501
  473MPD2    C2 7090   3.850   1.994  13.609 -0.8155 -0.7728  0.2055
  473MPD2    C3 7091   3.890   1.991  13.744  0.1920 -0.4334  0.0845
  473MPD2    C4 7092   3.892   1.867  13.804 -0.1161  0.0181  0.1353
  473MPD2    C5 7093   3.849   1.750  13.736  0.4283 -0.4938 -0.1997
  473MPD2     H 7094   3.856   2.091  13.561  0.5675 -1.3628 -0.8161
  473MPD2    H1 7095   3.914   1.860  13.910  0.9877 -1.6584 -0.2069
  473MPD2    H2 7096   3.779   1.658  13.560  1.1442 -1.3695  0.7665
  473MPD2    H3 7097   3.847   1.652  13.784  0.7913  0.6275  2.0806
  473MPD2     N 7098   3.923   2.104  13.827 -0.1883 -0.2064  0.1595
  473MPD2    H5 7099   3.963   2.070  13.914  0.7232  0.1259 -0.1337
  473MPD2    N1 7100   3.769   1.880  13.397 -0.1110  0.2034 -0.1377
  473MPD2    H7 7101   3.781   1.971  13.352 -1.7163  0.8861  0.8052
  474TMC3    C1 7102   3.952   2.325  13.907 -0.4215 -0.0732 -0.6131
  474TMC3    C2 7103   3.995   2.453  13.867  0.4597 -0.1326  0.0026
  474TMC3    C3 7104   4.089   2.509  13.944  0.3857  0.4589  0.2512
  474TMC3    C4 7105   3.987   2.264  14.024 -0.4708  0.0995 -1.2669
  474TMC3    C5 7106   4.071   2.331  14.102 -0.1701  0.1591  0.1543
  474TMC3    C6 7107   4.134   2.448  14.062  0.2226  0.4662 -0.2284
  474TMC3     C 7108   3.897   2.240  13.796  0.5728  0.1167 -0.3027
  474TMC3     O 7109   3.862   2.292  13.688 -0.2506 -0.3447  0.2823
  474TMC3     H 7110   3.971   2.491  13.768 -2.4215 -0.0853  0.7389
  474TMC3    H1 7111   3.931   2.178  14.057 -0.5725  0.0785 -1.4945
  474TMC3    H2 7112   4.190   2.498  14.140 -1.2374  0.7694  0.6287
  474TMC3    C7 7113   4.108   2.271  14.237  0.0778  0.0332  0.0581
  474TMC3    C8 7114   4.153   2.641  13.910  0.1983  0.3100  0.2158
  474TMC3    O1 7115   4.044   2.171  14.259  0.4964  0.4398 -0.4865
  474TMC3    O2 7116   4.201   2.700  14.002 -0.2959 -0.0017 -0.6135
  475MPD2     C 7117   2.305   0.296  11.460 -0.2883 -0.3835 -0.3713
  475MPD2    C1 7118   2.368   0.377  11.370  0.5323  0.4389  0.4921
  475MPD2    C2 7119   2.298   0.452  11.277 -0.7803 -0.5275  0.5211
  475MPD2    C3 7120   2.165   0.423  11.254  0.2259 -0.3808 -0.1669
  475MPD2    C4 7121   2.110   0.327  11.335 -0.0610  0.1874  0.4453
  475MPD2    C5 7122   2.173   0.273  11.446 -0.1532 -0.2662 -0.2486
  475MPD2     H 7123   2.349   0.524  11.214 -1.0489  1.3732  2.4945
  475MPD2    H1 7124   2.006   0.299  11.324  0.5655 -1.7356 -0.5361
  475MPD2    H2 7125   2.355   0.250  11.544 -1.8638 -1.2830  0.0796
  475MPD2    H3 7126   2.119   0.209  11.516  0.2612 -0.6412 -0.2693
  475MPD2     N 7127   2.097   0.490  11.148  0.5873 -0.1189  0.0402
  475MPD2    H5 7128   2.154   0.551  11.091  1.5769 -1.5060 -0.4635
  475MPD2    N1 7129   2.506   0.379  11.382 -0.1793  0.1445  0.4880
  475MPD2    H7 7130   2.548   0.352  11.470  1.9953 -1.6948 -1.1056
  476TMC3    C1 7131   2.718   0.457  11.321 -0.7740  0.0119  0.0769
  476TMC3    C2 7132   2.807   0.484  11.222  0.0664 -0.4423 -0.1976
  476TMC3    C3 7133   2.896   0.584  11.242  0.2434 -0.5106 -0.3892
  476TMC3    C4 7134   2.729   0.518  11.447  0.1476 -0.2678  0.0299
  476TMC3    C5 7135   2.815   0.620  11.460 -0.2606  0.4748  0.6318
  476TMC3    C6 7136   2.903   0.656  11.360  0.2624 -0.5853 -0.9221
  476TMC3     C 7137   2.590   0.411  11.272  0.9747  0.0578 -0.0390
  476TMC3     O 7138   2.555   0.441  11.158 -0.0386 -0.3873 -0.1343
  476TMC3     H 7139   2.792   0.430  11.129 -1.2709 -1.3282  0.5273
  476TMC3    H1 7140   2.653   0.508  11.523  1.1041 -0.6057  0.9414
  476TMC3    H2 7141   2.965   0.745  11.363 -0.2279 -0.2674 -0.0806
  476TMC3    C7 7142   2.815   0.688  11.586  0.4354  0.0256  0.1363
  476TMC3    C8 7143   2.962   0.644  11.124 -0.3016  0.7769  0.5847
  476TMC3    O1 7144   2.711   0.666  11.652  0.0630  0.3519  0.2072
  476TMC3    O2 7145   3.030   0.744  11.145 -0.1264 -0.4437 -0.3030
  477MPD2     C 7146   0.632   2.109  11.585  0.5214  0.1190  0.4949
  477MPD2    C1 7147   0.534   2.014  11.579 -0.5213 -0.0268 -0.6825
  477MPD2    C2 7148   0.524   1.923  11.680 -0.6618  0.8348  0.0146
  477MPD2    C3 7149   0.606   1.937  11.790 -0.1122  0.7185  0.4946
  477MPD2    C4 7150   0.710   2.022  11.792  0.2309  0.0277  0.3168
  477MPD2    C5 7151   0.719   2.115  11.693  0.3012 -0.7213  0.0093
  477MPD2     H 7152   0.448   1.847  11.693 -0.2973  0.4427 -0.1522
  477MPD2    H1 7153   0.776   2.034  11.877 -1.0272 -0.9890  1.4368
  477MPD2    H2 7154   0.639   2.185  11.508 -2.0872 -0.8753 -0.7026
  477MPD2    H3 7155   0.804   2.182  11.694  3.1675 -4.4110  1.8529
  477MPD2     N 7156   0.584   1.842  11.901  0.0114 -0.2305 -1.2361
  477MPD2    H5 7157   0.514   1.770  11.890  0.0790 -0.6275  1.0501
  477MPD2    N1 7158   0.445   2.022  11.474 -0.0838  0.0739 -0.4599
  477MPD2    H7 7159   0.458   2.108  11.421  0.3649 -0.2047 -0.8043
  478TMC3    C1 7160   0.260   1.998  11.344 -0.0163 -0.1530  0.2511
  478TMC3    C2 7161   0.131   1.954  11.343 -1.0449 -0.3025  0.1141
  478TMC3    C3 7162   0.047   2.028  11.268 -1.1698 -0.0615 -0.2250
  478TMC3    C4 7163   0.325   2.071  11.245  0.2397  0.2816  1.0376
  478TMC3    C5 7164   0.235   2.132  11.160 -0.6608 -0.2272  0.1486
  478TMC3    C6 7165   0.094   2.116  11.172 -0.1181 -0.1385 -0.8838
  478TMC3     C 7166   0.334   1.949  11.456 -0.1984 -0.3598  0.4188
  478TMC3     O 7167   0.295   1.844  11.515  0.6289 -0.0557 -0.3346
  478TMC3     H 7168   0.095   1.906  11.434 -2.7200 -1.0380 -0.9360
  478TMC3    H1 7169   0.433   2.081  11.238  0.0879  2.1744  1.3301
  478TMC3    H2 7170   0.026   2.182  11.118 -2.1847  0.5373  2.6052
  478TMC3    C7 7171   0.281   2.240  11.074 -0.8076  0.0624 -0.7385
  478TMC3    C8 7172   4.643   2.019  11.296  0.4156 -0.3519 -0.7788
  478TMC3    O1 7173   0.390   2.287  11.089 -0.6857  0.3328  0.3872
  478TMC3    O2 7174   4.602   1.917  11.349 -0.3435  0.1224  0.8955
  479MPD2     C 7175   3.551   4.021  15.251 -0.1631 -0.6608  0.0946
  479MPD2    C1 7176   3.554   4.013  15.387 -0.7704  0.7860 -0.2237
  479MPD2    C2 7177   3.667   4.053  15.458  0.0449  0.0867 -0.4123
  479MPD2    C3 7178   3.778   4.110  15.392  0.4527  0.6343 -0.6171
  479MPD2    C4 7179   3.774   4.098  15.258 -0.2064  0.0990  0.0504
  479MPD2    C5 7180   3.664   4.055  15.183 -0.2822  0.4315 -0.1576
  479MPD2     H 7181   3.676   4.049  15.566 -1.6739 -0.0369 -0.2840
  479MPD2    H1 7182   3.857   4.129  15.197  0.0078 -1.1533 -0.2970
  479MPD2    H2 7183   3.464   3.998  15.191 -0.0822 -0.7126 -0.0020
  479MPD2    H3 7184   3.666   4.049  15.075  0.0087 -1.5340 -0.0519
  479MPD2     N 7185   3.904   4.142  15.449  0.5224  0.1358  0.0100
  479MPD2    H5 7186   3.983   4.138  15.385  0.4719 -2.3910  0.0972
  479MPD2    N1 7187   3.440   3.954  15.444 -0.1590 -0.4057  0.3225
  479MPD2    H7 7188   3.363   3.927  15.383 -0.8266  1.0658  0.5291
  480TMC3    C1 7189   3.658   4.235  15.804  0.7021  0.0589  0.5310
  480TMC3    C2 7190   3.608   4.352  15.750 -0.5196  0.0119  0.4561
  480TMC3    C3 7191   3.666   4.404  15.642 -0.1750 -0.3781  0.0432
  480TMC3    C4 7192   3.760   4.165  15.751 -0.4193  0.0983 -0.3283
  480TMC3    C5 7193   3.829   4.234  15.650 -0.0809  1.0469 -0.2506
  480TMC3    C6 7194   3.781   4.346  15.595  0.4259 -0.4762 -0.3974
  480TMC3     C 7195   3.599   4.194  15.923 -0.7359  0.6324  0.6202
  480TMC3     O 7196   3.564   4.285  15.999  0.4355  0.1636 -0.1992
  480TMC3     H 7197   3.518   4.391  15.796 -0.6021  0.4532 -0.0731
  480TMC3    H1 7198   3.801   4.075  15.795  2.3190  1.7846  0.5713
  480TMC3    H2 7199   3.828   4.384  15.505  1.8435 -3.8442 -1.0853
  480TMC3    C7 7200   3.934   4.161  15.582 -0.0056  0.1552 -0.3702
  480TMC3    C8 7201   3.568   4.441  15.538 -0.0387 -0.2983 -0.7415
  480TMC3    O1 7202   4.043   4.156  15.637  0.3923  0.4305  0.3379
  480TMC3    O2 7203   3.459   4.474  15.581  0.0760 -0.3871 -0.8042
  481MPD2     C 7204   0.751   4.045  14.393  0.4116 -0.0362  0.3474
  481MPD2    C1 7205   0.648   3.959  14.379 -0.7048 -0.0073  0.0433
  481MPD2    C2 7206   0.597   3.895  14.491  0.4377  0.2953 -0.4891
  481MPD2    C3 7207   0.645   3.927  14.614  0.4135 -0.0026 -0.8079
  481MPD2    C4 7208   0.756   4.013  14.627 -0.6461 -0.0875 -0.0706
  481MPD2    C5 7209   0.805   4.077  14.517  0.2303 -0.2099 -0.1654
  481MPD2     H 7210   0.512   3.827  14.486 -0.8433  1.8405  0.3210
  481MPD2    H1 7211   0.813   4.025  14.719 -0.6274  0.8276 -0.2059
  481MPD2    H2 7212   0.784   4.102  14.308  1.6398 -0.1416  0.7622
  481MPD2    H3 7213   0.881   4.154  14.525 -0.0076  0.1798 -1.6826
  481MPD2     N 7214   0.597   3.875  14.736  0.2557 -0.5696 -0.2142
  481MPD2    H5 7215   0.652   3.902  14.816  0.7526 -0.7080 -0.5098
  481MPD2    N1 7216   0.595   3.937  14.250  0.6597  0.0678  0.2112
  481MPD2    H7 7217   0.636   3.998  14.180 -0.2301  0.6500  0.1989
  482TMC3    C1 7218   0.489   3.829  14.074 -0.0908  0.6515 -0.4832
  482TMC3    C2 7219   0.370   3.766  14.037 -0.3325  0.5058 -0.1784
  482TMC3    C3 7220   0.383   3.682  13.930 -0.0521  0.6828  0.8983
  482TMC3    C4 7221   0.614   3.790  14.025  0.5284  0.1160 -0.2338
  482TMC3    C5 7222   0.619   3.689  13.937 -0.3484  0.2855  0.2275
  482TMC3    C6 7223   0.505   3.635  13.889 -0.0218 -0.1700  0.1407
  482TMC3     C 7224   0.488   3.858  14.217  0.5839 -0.0117  0.0203
  482TMC3     O 7225   0.396   3.820  14.287 -0.0719  0.6589  0.4618
  482TMC3     H 7226   0.274   3.805  14.070 -0.2207  1.1751 -0.6553
  482TMC3    H1 7227   0.708   3.825  14.065  1.3694 -0.8285 -1.3905
  482TMC3    H2 7228   0.507   3.546  13.827  0.0734 -1.0175  1.3741
  482TMC3    C7 7229   0.732   3.679  13.856 -0.8218 -0.3299  0.9772
  482TMC3    C8 7230   0.266   3.604  13.909  0.0720 -0.1316  0.3144
  482TMC3    O1 7231   0.844   3.682  13.909 -0.2993 -0.4876  0.2063
  482TMC3    O2 7232   0.194   3.579  14.005 -0.0877  0.4170 -0.2011
  483TMC3    C1 7233   2.616   2.551   0.814  0.6068  0.0275  0.0105
  483TMC3    C2 7234   2.698   2.610   0.721 -0.2964  0.2779  0.6593
  483TMC3    C3 7235   2.826   2.636   0.759  0.1023  0.5375  0.0072
  483TMC3    C4 7236   2.646   2.538   0.945 -0.9486  0.0037  0.2386
  483TMC3    C5 7237   2.776   2.550   0.977  0.2497  0.0305  0.0881
  483TMC3    C6 7238   2.870   2.601   0.885  0.0168  0.2755 -0.4419
  483TMC3     C 7239   2.495   2.491   0.761 -0.3050 -0.0619 -0.5508
  483TMC3     O 7240   2.393   2.487   0.826  0.7363 -0.2775 -0.3923
  483TMC3     H 7241   2.664   2.640   0.622  2.2799 -0.7644 -0.5546
  483TMC3    H1 7242   2.567   2.509   1.014 -1.2776  0.8782  0.2163
  483TMC3    H2 7243   2.974   2.614   0.915 -0.1883  0.0061  0.4050
  483TMC3    C7 7244   2.823   2.478   1.093 -0.1559 -0.3005  0.1483
  483TMC3    C8 7245   2.913   2.702   0.674  0.1336 -0.0207 -0.8871
  483TMC3    O1 7246   2.753   2.392   1.141 -0.4020  0.0494  0.4829
  483TMC3    O2 7247   2.890   2.672   0.556 -0.1590 -0.1604 -0.2148
  484MPD2     C 7248   0.904   0.387  12.056  0.6050 -0.2022  0.3771
  484MPD2    C1 7249   0.919   0.355  12.186  0.1122 -0.3521  0.7677
  484MPD2    C2 7250   1.031   0.393  12.257 -0.6229  0.4632  0.0155
  484MPD2    C3 7251   1.127   0.465  12.196  0.1476  0.2204 -0.4971
  484MPD2    C4 7252   1.110   0.511  12.069  0.1899 -0.1639 -0.7672
  484MPD2    C5 7253   1.004   0.457  11.996  0.5704 -0.2417 -0.4289
  484MPD2     H 7254   1.038   0.375  12.364 -2.1248 -0.1464  0.0126
  484MPD2    H1 7255   1.181   0.569  12.012  2.4918  0.2489  2.4875
  484MPD2    H2 7256   0.828   0.349  11.989  0.2031  2.0980 -0.4585
  484MPD2    H3 7257   0.999   0.480  11.890 -0.5284  2.1629  0.1562
  484MPD2     N 7258   1.249   0.499  12.255  0.4183 -0.2963 -0.4329
  484MPD2    H5 7259   1.307   0.568  12.209 -0.3912 -0.1449 -1.2075
  484MPD2    N1 7260   0.806   0.299  12.259 -0.0670  0.1449  0.1496
  484MPD2    H7 7261   0.726   0.303  12.197 -0.7727  2.5446  1.2074
  485TMC3    C1 7262   1.418   0.498  12.410  0.6177  0.3833  0.3213
  485TMC3    C2 7263   1.465   0.464  12.524 -0.3514 -0.1539  0.4686
  485TMC3    C3 7264   1.569   0.526  12.583 -0.3247  0.5648 -0.7277
  485TMC3    C4 7265   1.475   0.605  12.343 -0.0836 -1.0801  0.2442
  485TMC3    C5 7266   1.581   0.672  12.405 -0.6548  0.3180  0.8682
  485TMC3    C6 7267   1.623   0.635  12.530  0.1813  0.0145 -0.4015
  485TMC3     C 7268   1.300   0.434  12.365  0.1267  0.3264 -0.0007
  485TMC3     O 7269   1.260   0.331  12.417  0.0936 -0.0404 -0.3588
  485TMC3     H 7270   1.426   0.380  12.580  0.4380 -1.1516 -0.4675
  485TMC3    H1 7271   1.450   0.621  12.239 -1.2991 -1.6897  0.4503
  485TMC3    H2 7272   1.692   0.700  12.582  0.5603 -0.0863 -0.7788
  485TMC3    C7 7273   1.689   0.722  12.320  0.1485  0.2713  0.4864
  485TMC3    C8 7274   1.672   0.443  12.638 -0.1196  0.1046  0.8550
  485TMC3    O1 7275   1.685   0.815  12.238 -0.2733  0.0032  0.3477
  485TMC3    O2 7276   1.781   0.478  12.598 -0.0114  0.2404  0.3163
  486MPD2     C 7277   3.541   4.006  12.490  0.1091  0.4931 -0.1967
  486MPD2    C1 7278   3.427   3.930  12.504 -0.2470 -0.8185 -0.2310
  486MPD2    C2 7279   3.312   3.983  12.556 -0.8369  0.0232 -0.5703
  486MPD2    C3 7280   3.303   4.123  12.581 -0.3391 -0.3813 -0.0321
  486MPD2    C4 7281   3.422   4.194  12.576  0.3907 -0.0013 -0.0130
  486MPD2    C5 7282   3.539   4.136  12.535 -0.1940 -0.0630  0.4118
  486MPD2     H 7283   3.227   3.921  12.582 -0.2189 -1.2965 -1.7339
  486MPD2    H1 7284   3.424   4.299  12.601  1.4215 -0.2520  0.9708
  486MPD2    H2 7285   3.630   3.963  12.446  0.3103  1.1631 -0.4368
  486MPD2    H3 7286   3.634   4.187  12.547 -0.9011  1.2167  0.5951
  486MPD2     N 7287   3.182   4.180  12.639  0.4847  0.9161  0.4113
  486MPD2    H5 7288   3.105   4.115  12.652  2.2547 -0.8774  2.0834
  486MPD2    N1 7289   3.449   3.795  12.471 -0.1989  0.1154  0.0747
  486MPD2    H7 7290   3.533   3.761  12.425 -0.5233 -1.0038  0.3049
  487TMC3    C1 7291   3.419   3.567  12.447  0.0075  0.1441  0.1126
  487TMC3    C2 7292   3.326   3.466  12.423  0.5698  0.0215 -0.0497
  487TMC3    C3 7293   3.366   3.339  12.428  0.4005 -0.8580 -0.3745
  487TMC3    C4 7294   3.542   3.539  12.501  0.0528  0.3138 -0.0273
  487TMC3    C5 7295   3.576   3.410  12.508 -0.3786  0.2454  0.4623
  487TMC3    C6 7296   3.496   3.312  12.462 -0.9354 -0.1083  0.9807
  487TMC3     C 7297   3.360   3.690  12.495 -0.2836 -0.3811  0.5164
  487TMC3     O 7298   3.250   3.681  12.545  0.0811 -0.0828  0.4141
  487TMC3     H 7299   3.234   3.497  12.374  0.2418 -1.2500 -0.2285
  487TMC3    H1 7300   3.589   3.617  12.559  1.5682  0.9791 -2.1702
  487TMC3    H2 7301   3.522   3.211  12.492 -0.1570  0.2771  1.5836
  487TMC3    C7 7302   3.621   3.380  12.638  0.0358 -0.2081 -0.5460
  487TMC3    C8 7303   3.276   3.243  12.482  0.5754  0.2941 -0.5765
  487TMC3    O1 7304   3.538   3.319  12.706 -0.0547 -0.6411 -0.2861
  487TMC3    O2 7305   3.276   3.130  12.431 -0.9975 -0.1572 -0.5013
  488MPD2     C 7306   3.393   1.231  16.385  0.1141  0.4733 -0.0786
  488MPD2    C1 7307   3.373   1.370  16.398 -0.1142 -0.5693 -0.3355
  488MPD2    C2 7308   3.293   1.421  16.494 -0.4626 -0.1964  0.5728
  488MPD2    C3 7309   3.225   1.338  16.578  0.0659 -0.2295  0.4611
  488MPD2    C4 7310   3.245   1.199  16.563 -0.4194 -0.1179 -0.5724
  488MPD2    C5 7311   3.331   1.146  16.468  0.7813  0.5398  0.6054
  488MPD2     H 7312   3.277   1.528  16.499 -0.0145 -0.0581 -0.9895
  488MPD2    H1 7313   3.190   1.128  16.623  3.1528 -4.0887 -1.9986
  488MPD2    H2 7314   3.445   1.183  16.303 -1.6801 -1.2613 -0.1927
  488MPD2    H3 7315   3.331   1.038  16.455  3.4798  0.7561 -1.0536
  488MPD2     N 7316   3.137   1.393  16.674 -0.1722 -0.6365  0.2555
  488MPD2    H5 7317   3.160   1.491  16.689 -0.2921 -0.5557 -0.0917
  488MPD2    N1 7318   3.432   1.457  16.307 -0.3371 -0.1241  0.1918
  488MPD2    H7 7319   3.415   1.556  16.318 -0.6174 -0.1168 -0.3104
  489TMC3    C1 7320   2.990   1.423  16.855 -0.0711 -0.7065 -0.6794
  489TMC3    C2 7321   2.990   1.552  16.813 -0.0137 -0.2752 -0.2595
  489TMC3    C3 7322   2.988   1.649  16.898 -0.0330  0.2304 -0.2708
  489TMC3    C4 7323   2.975   1.388  16.988 -0.8718  0.1749 -0.3089
  489TMC3    C5 7324   2.956   1.495  17.065 -0.4537  0.1831 -0.3750
  489TMC3    C6 7325   2.960   1.626  17.027  0.2085 -0.7880  0.1926
  489TMC3     C 7326   3.063   1.330  16.771 -0.0498 -0.1270 -0.6690
  489TMC3     O 7327   3.073   1.217  16.810  0.8276 -0.0925 -0.2221
  489TMC3     H 7328   2.992   1.575  16.707 -1.3964 -0.6821 -0.3856
  489TMC3    H1 7329   2.968   1.286  17.025 -0.8182  1.0798  2.1505
  489TMC3    H2 7330   2.972   1.706  17.100 -1.1343 -0.8943  0.5344
  489TMC3    C7 7331   2.905   1.460  17.194 -0.2028  0.4426  0.4350
  489TMC3    C8 7332   3.066   1.760  16.851  0.1916  0.0659  1.2096
  489TMC3    O1 7333   2.919   1.344  17.234 -0.0592 -0.0219 -0.2223
  489TMC3    O2 7334   3.133   1.736  16.751  0.1624 -0.2985  0.2005
  490MPD2     C 7335   3.830   0.863  17.605  0.0820  0.3487 -0.5767
  490MPD2    C1 7336   3.833   0.781  17.499  0.3320 -0.2273  0.0045
  490MPD2    C2 7337   3.933   0.786  17.405 -0.1448 -0.0610  0.3474
  490MPD2    C3 7338   4.040   0.874  17.417 -0.3377 -0.1190 -0.4979
  490MPD2    C4 7339   4.028   0.969  17.513  0.1261 -0.2722 -0.1254
  490MPD2    C5 7340   3.920   0.964  17.598  0.2927 -0.2485  0.4789
  490MPD2     H 7341   3.950   0.708  17.333 -0.6997  0.7102 -0.6268
  490MPD2    H1 7342   4.100   1.050  17.508  0.4652 -0.6308 -1.1564
  490MPD2    H2 7343   3.748   0.856  17.676  1.3220  1.1688  0.9378
  490MPD2    H3 7344   3.906   1.045  17.668  1.0672  0.9289 -0.7287
  490MPD2     N 7345   4.158   0.880  17.341  0.2587  0.0937 -0.0630
  490MPD2    H5 7346   4.223   0.957  17.356  1.9646 -1.6516  1.5576
  490MPD2    N1 7347   3.738   0.672  17.501  0.1665 -0.1528  0.2482
  490MPD2    H7 7348   3.693   0.655  17.591  2.1846 -1.5066  1.0038
  491TMC3    C1 7349   3.628   0.479  17.413  0.1896  0.2143  0.6929
  491TMC3    C2 7350   3.632   0.416  17.531  0.7870  0.6244 -0.0671
  491TMC3    C3 7351   3.557   0.303  17.552  0.2653  0.2335  0.4356
  491TMC3    C4 7352   3.542   0.442  17.316  0.4038  0.2777 -0.1139
  491TMC3    C5 7353   3.449   0.346  17.342 -0.5880 -0.5856 -0.2848
  491TMC3    C6 7354   3.472   0.267  17.451  0.2519  0.1939 -0.2564
  491TMC3     C 7355   3.716   0.592  17.388  0.6293 -0.4768 -0.1318
  491TMC3     O 7356   3.761   0.588  17.274 -0.3124  0.5576  0.2974
  491TMC3     H 7357   3.721   0.432  17.592  1.8592 -2.0898 -0.9066
  491TMC3    H1 7358   3.545   0.493  17.220 -0.6935 -0.3161 -0.4571
  491TMC3    H2 7359   3.415   0.176  17.464  2.0292 -1.1208 -1.7933
  491TMC3    C7 7360   3.345   0.313  17.247 -0.3892 -0.2487 -0.3097
  491TMC3    C8 7361   3.585   0.220  17.667 -0.0288  0.1466 -0.4217
  491TMC3    O1 7362   3.315   0.192  17.239 -0.2621  0.1014  0.1500
  491TMC3    O2 7363   3.565   0.102  17.648 -0.1305 -0.5869  0.1215
  492MPD2     C 7364   4.676   0.238  11.124 -0.5508  0.6627  0.0833
  492MPD2    C1 7365   4.556   0.294  11.106  0.8243 -0.0142  0.2147
  492MPD2    C2 7366   4.458   0.252  11.184 -0.0956 -0.9182  0.0399
  492MPD2    C3 7367   4.470   0.159  11.282 -0.8596  0.7281  0.4175
  492MPD2    C4 7368   4.596   0.104  11.304 -0.6523 -0.0463  0.3993
  492MPD2    C5 7369   4.695   0.142  11.219  0.2189  0.2954 -0.6990
  492MPD2     H 7370   4.358   0.295  11.178  0.6649  0.5082 -2.4344
  492MPD2    H1 7371   4.619   0.020  11.369 -0.7815 -0.0140  0.4862
  492MPD2    H2 7372   0.018   0.258  11.055  0.3145 -0.7862  0.6820
  492MPD2    H3 7373   0.052   0.093  11.217 -0.1990 -0.6407  2.2464
  492MPD2     N 7374   4.361   0.112  11.364 -0.0051  0.1043  0.0117
  492MPD2    H5 7375   4.396   0.049  11.436  2.4976 -1.2791 -2.4276
  492MPD2    N1 7376   4.548   0.393  11.008  0.6243 -0.0574 -0.2702
  492MPD2    H7 7377   4.632   0.417  10.957  1.3243 -0.4824  0.6775
  493TMC3    C1 7378   4.456   0.532  10.848 -0.0975  0.2652  0.0476
  493TMC3    C2 7379   4.581   0.542  10.791  1.1400  0.3697  0.4560
  493TMC3    C3 7380   4.599   0.603  10.677 -0.1532  0.5765 -0.4795
  493TMC3    C4 7381   4.347   0.585  10.788 -0.0815  0.0079 -0.1473
  493TMC3    C5 7382   4.365   0.628  10.658 -0.2010 -0.9281  0.0311
  493TMC3    C6 7383   4.489   0.638  10.598  0.4980  0.4874 -0.8030
  493TMC3     C 7384   4.436   0.474  10.980 -0.2297  0.2057  0.3776
  493TMC3     O 7385   4.326   0.476  11.031  0.1631  0.0340 -0.2803
  493TMC3     H 7386   4.673   0.528  10.848  0.5303 -0.1303  1.3191
  493TMC3    H1 7387   4.247   0.595  10.829  0.9465 -2.4910  2.9432
  493TMC3    H2 7388   4.510   0.677  10.499  1.4693  1.4296 -0.2379
  493TMC3    C7 7389   4.244   0.657  10.585 -0.4442 -0.1944  0.2306
  493TMC3    C8 7390   4.736   0.646  10.653 -0.2168  0.4521  0.5744
  493TMC3    O1 7391   4.142   0.609  10.625 -0.4736 -0.1796  0.0667
  493TMC3    O2 7392   0.085   0.616  10.730 -0.2000  0.3504  0.1825
  494TMC3    C1 7393   4.027   2.522  17.669 -0.4499  0.6852 -0.6380
  494TMC3    C2 7394   3.965   2.398  17.705 -0.1752  0.2098 -0.1178
  494TMC3    C3 7395   4.038   2.291  17.663 -0.3903 -0.4178 -0.6764
  494TMC3    C4 7396   4.140   2.538  17.589 -0.2154 -0.3109 -0.3776
  494TMC3    C5 7397   4.216   2.425  17.560  0.7274 -0.1679 -0.0273
  494TMC3    C6 7398   4.156   2.303  17.587  0.2350 -0.3548 -0.4428
  494TMC3     C 7399   4.016   2.628   0.019 -0.0232 -0.5475  0.4935
  494TMC3     O 7400   4.055   2.735  17.740 -0.1910  0.0552 -0.3444
  494TMC3     H 7401   3.881   2.389   0.019  0.9762  0.9867  1.4393
  494TMC3    H1 7402   4.180   2.638  17.576 -0.9195  0.0811  0.4875
  494TMC3    H2 7403   4.228   2.223  17.575  1.0479 -0.2081  3.3710
  494TMC3    C7 7404   4.337   2.431  17.480 -0.1278 -0.1902  0.3898
  494TMC3    C8 7405   4.023   2.167  17.741  0.2793  0.2043  0.1085
  494TMC3    O1 7406   4.400   2.328  17.456 -0.0123  0.0615 -0.4686
  494TMC3    O2 7407   3.959   2.174   0.090  0.2636  0.3684 -0.5446
  495TMC3    C1 7408   3.833   4.146  14.602 -0.4266 -0.7687  0.2734
  495TMC3    C2 7409   3.768   4.196  14.493 -0.9425 -0.3277 -0.1966
  495TMC3    C3 7410   3.679   4.299  14.513  0.1751  0.0482  0.2721
  495TMC3    C4 7411   3.814   4.199  14.733  0.3414 -0.4219 -0.7032
  495TMC3    C5 7412   3.721   4.296  14.751 -0.1884  0.3969  0.4413
  495TMC3    C6 7413   3.646   4.344  14.644  0.1936  0.0526  0.3483
  495TMC3     C 7414   3.894   4.016  14.599 -0.3056 -0.0616 -0.5164
  495TMC3     O 7415   3.999   4.004  14.663  0.2598  0.5072  0.3042
  495TMC3     H 7416   3.797   4.169  14.392 -2.8925 -0.0007 -0.8511
  495TMC3    H1 7417   3.864   4.151  14.816 -1.5358  0.5809  1.0252
  495TMC3    H2 7418   3.569   4.419  14.656 -0.5418 -0.9235  1.5783
  495TMC3    C7 7419   3.687   4.325  14.892 -0.2489 -0.5381  0.5605
  495TMC3    C8 7420   3.567   4.308  14.415 -0.2784 -0.4071  0.0926
  495TMC3    O1 7421   3.775   4.299  14.973  0.0793  0.0525 -0.0755
  495TMC3    O2 7422   3.462   4.345  14.460 -0.3767  0.5853 -0.2312
  496MPD2     C 7423   1.115   4.484  15.439  0.2831  0.1270 -1.0541
  496MPD2    C1 7424   1.026   4.374  15.415  0.2419 -0.5069 -0.5236
  496MPD2    C2 7425   0.919   4.354  15.499  0.4472  1.0012  0.0830
  496MPD2    C3 7426   0.920   4.426  15.619 -0.2830  0.3046  0.4421
  496MPD2    C4 7427   1.007   4.521  15.653 -0.2501 -0.4840  0.0896
  496MPD2    C5 7428   1.110   4.553  15.564  0.0626  0.1919  0.0391
  496MPD2     H 7429   0.851   4.273  15.476 -0.9225  1.7336  1.6129
  496MPD2    H1 7430   1.016   4.583  15.742  2.2397 -1.2024  0.3384
  496MPD2    H2 7431   1.215   4.493  15.396  0.7621  0.8077  0.2005
  496MPD2    H3 7432   1.183   4.630  15.585 -1.0452  0.8422  1.5680
  496MPD2     N 7433   0.809   4.395  15.697 -0.2126 -0.5054  0.0799
  496MPD2    H5 7434   0.738   4.333  15.659 -0.5582  0.4835 -0.8686
  496MPD2    N1 7435   1.058   4.289  15.307  0.3165  0.1980 -0.1374
  496MPD2    H7 7436   1.144   4.310  15.257  0.3718  0.0044 -0.1237
  497TMC3    C1 7437   0.661   4.383  15.870 -0.0913  0.2308 -0.2234
  497TMC3    C2 7438   0.552   4.400  15.789  0.1334  0.6251 -0.4957
  497TMC3    C3 7439   0.432   4.362  15.839  0.0879 -0.2048 -0.4220
  497TMC3    C4 7440   0.657   4.323  15.994  0.7131 -0.0289 -0.4646
  497TMC3    C5 7441   0.535   4.287  16.035  0.2697 -0.4547 -0.1028
  497TMC3    C6 7442   0.415   4.315  15.964 -0.0903  0.3543 -0.0162
  497TMC3     C 7443   0.791   4.434  15.827 -0.0966 -0.5615 -0.0569
  497TMC3     O 7444   0.873   4.466  15.914  0.3854  0.1514 -0.6487
  497TMC3     H 7445   0.568   4.457  15.698  2.3220 -0.2044 -0.6397
  497TMC3    H1 7446   0.743   4.317  16.060 -0.3715 -2.4257  0.7048
  497TMC3    H2 7447   0.319   4.287  16.006 -0.4227  2.2725  0.5269
  497TMC3    C7 7448   0.514   4.252  16.178  0.6050 -0.4196 -0.2430
  497TMC3    C8 7449   0.314   4.395  15.764 -0.3777  0.3427  0.0596
  497TMC3    O1 7450   0.413   4.185  16.190 -0.5481  0.1687 -0.3031
  497TMC3    O2 7451   0.217   4.444  15.815 -0.0725 -0.2747  0.0753
  498MPD2     C 7452   2.633   0.430  10.023 -0.2665  0.6320  0.1090
  498MPD2    C1 7453   2.578   0.489  10.134  0.3851 -0.8409 -0.1801
  498MPD2    C2 7454   2.458   0.439  10.176 -0.2795 -0.5143 -1.1153
  498MPD2    C3 7455   2.396   0.333  10.106  0.2995 -0.8125 -0.6449
  498MPD2    C4 7456   2.454   0.272  10.000 -0.1149  0.6911 -0.2154
  498MPD2    C5 7457   2.579   0.319   9.963 -0.4725  0.3828 -0.5340
  498MPD2     H 7458   2.417   0.467  10.272  2.1034  1.8506 -0.7833
  498MPD2    H1 7459   2.400   0.190   9.954  1.4151 -1.2775  1.5033
  498MPD2    H2 7460   2.733   0.453   9.989 -0.1649  0.6166  0.3909
  498MPD2    H3 7461   2.642   0.279   9.884  1.0141  1.4949  0.0886
  498MPD2     N 7462   2.266   0.294  10.154 -0.3349  0.2550  0.8180
  498MPD2    H5 7463   2.234   0.341  10.238 -2.7424 -1.5466  0.9223
  498MPD2    N1 7464   2.642   0.597  10.201  0.2822 -0.0345  0.0109
  498MPD2    H7 7465   2.612   0.628  10.293 -0.4545  1.7168 -0.8292
  499TMC3    C1 7466   2.777   0.790  10.217  0.0305 -0.3315  0.5967
  499TMC3    C2 7467   2.733   0.810  10.343  0.6947  0.6599  0.3248
  499TMC3    C3 7468   2.719   0.943  10.385  0.6779 -0.0559  0.2525
  499TMC3    C4 7469   2.791   0.890  10.123  0.2731  0.2838  0.5140
  499TMC3    C5 7470   2.761   1.019  10.160  0.5089 -0.2808  0.4573
  499TMC3    C6 7471   2.728   1.045  10.293 -0.2891 -0.3145 -0.6775
  499TMC3     C 7472   2.748   0.670  10.145  0.5167 -0.7480  0.2599
  499TMC3     O 7473   2.816   0.643  10.049  0.3042 -0.0934  0.4003
  499TMC3     H 7474   2.743   0.726  10.411 -0.8865  0.0558 -0.1955
  499TMC3    H1 7475   2.822   0.877  10.020 -0.8063  1.0773  0.0771
  499TMC3    H2 7476   2.704   1.147  10.319  1.1992 -0.6174  1.8016
  499TMC3    C7 7477   2.730   1.113  10.059 -0.4035 -0.2006 -0.5415
  499TMC3    C8 7478   2.717   0.971  10.526 -0.8582 -0.5710 -0.3281
  499TMC3    O1 7479   2.756   1.231  10.082  0.1117  0.5181 -0.1493
  499TMC3    O2 7480   2.750   1.085  10.555  0.4042 -0.5966 -0.5834
  500MPD2     C 7481   3.695   1.356  11.081 -0.6902  0.0632  1.3465
  500MPD2    C1 7482   3.718   1.418  10.957  0.9951  0.0681 -0.3440
  500MPD2    C2 7483   3.616   1.447  10.871 -0.1470  0.0503  0.1000
  500MPD2    C3 7484   3.485   1.422  10.912 -0.4033  0.0952 -0.0316
  500MPD2    C4 7485   3.462   1.368  11.035  0.6126  0.5691 -0.0692
  500MPD2    C5 7486   3.564   1.334  11.117 -0.2320 -0.0012  0.1835
  500MPD2     H 7487   3.645   1.471  10.769  0.8631 -0.7078  0.2049
  500MPD2    H1 7488   3.360   1.343  11.063  0.8595  0.0004  0.3170
  500MPD2    H2 7489   3.763   1.319  11.156  0.7896 -0.5255 -0.2879
  500MPD2    H3 7490   3.537   1.291  11.213 -0.2382 -2.1837 -0.7864
  500MPD2     N 7491   3.371   1.428  10.828 -0.4235 -0.3736 -0.4976
  500MPD2    H5 7492   3.282   1.417  10.875  0.1889 -2.0209  0.2916
  500MPD2    N1 7493   3.850   1.419  10.911  0.4237  0.2191  0.4218
  500MPD2    H7 7494   3.865   1.466  10.822 -1.8331 -0.2647 -0.2218
  501TMC3    C1 7495   4.082   1.389  10.910 -0.1321  0.1693 -0.1911
  501TMC3    C2 7496   4.081   1.510  10.848  0.4743  0.1437 -0.1882
  501TMC3    C3 7497   4.206   1.550  10.803  0.5370 -0.7620  0.6540
  501TMC3    C4 7498   4.192   1.311  10.922 -0.3071 -0.3775 -0.4821
  501TMC3    C5 7499   4.313   1.348  10.870 -0.3627  0.4697  0.0645
  501TMC3    C6 7500   4.323   1.469  10.808  0.0094  0.3343 -0.4739
  501TMC3     C 7501   3.954   1.339  10.953 -0.6773  0.3982 -0.2885
  501TMC3     O 7502   3.955   1.245  11.034  0.0709  0.1657 -0.3666
  501TMC3     H 7503   4.001   1.582  10.860 -0.4604 -0.9459 -0.0082
  501TMC3    H1 7504   4.181   1.214  10.969  1.4863 -1.4872 -2.3515
  501TMC3    H2 7505   4.421   1.511  10.793 -0.4207  0.7926 -2.0465
  501TMC3    C7 7506   4.424   1.253  10.888 -0.4307  0.6390 -0.6204
  501TMC3    C8 7507   4.215   1.675  10.727  0.2011  0.0112  0.4766
  501TMC3    O1 7508   4.409   1.154  10.964 -0.3041 -0.6142 -0.1258
  501TMC3    O2 7509   4.323   1.729  10.711 -0.0349  0.6033  0.2543
  502TMC3    C1 7510   2.859   0.416  14.659 -0.0476 -0.1517  0.2772
  502TMC3    C2 7511   2.939   0.466  14.557  0.5619  0.6461  0.0063
  502TMC3    C3 7512   2.885   0.565  14.477  0.2710 -0.2423 -0.1430
  502TMC3    C4 7513   2.734   0.464  14.676  0.0353  0.2872 -0.6399
  502TMC3    C5 7514   2.690   0.567  14.608 -0.3577 -0.1906  0.7024
  502TMC3    C6 7515   2.773   0.631  14.521 -0.6622  0.6297  0.7217
  502TMC3     C 7516   2.922   0.325  14.748 -0.1298  0.6212 -0.2614
  502TMC3     O 7517   3.016   0.271  14.692  0.1288 -0.1517  0.1323
  502TMC3     H 7518   3.032   0.416  14.531  0.4854 -0.7247  2.3939
  502TMC3    H1 7519   2.657   0.421  14.739  0.4580 -2.2737 -1.8869
  502TMC3    H2 7520   2.739   0.721  14.470 -0.0997 -0.2052 -1.1229
  502TMC3    C7 7521   2.583   0.640  14.674 -0.8414  0.3591  0.2369
  502TMC3    C8 7522   2.993   0.652  14.429 -0.2324  0.2801 -0.6670
  502TMC3    O1 7523   2.480   0.574  14.686  0.9383 -0.3099  0.4622
  502TMC3    O2 7524   2.969   0.773  14.438  0.1654 -0.4675  0.1848
  503MPD2     C 7525   0.196   1.103  16.867  0.1533 -0.0963  0.1360
  503MPD2    C1 7526   0.169   1.119  17.003  0.4546 -0.1136  0.3692
  503MPD2    C2 7527   0.184   1.012  17.091  0.4126 -0.1793 -0.9384
  503MPD2    C3 7528   0.229   0.890  17.045  0.0117  0.0114  0.2531
  503MPD2    C4 7529   0.232   0.874  16.907 -0.0939  0.0827  0.5103
  503MPD2    C5 7530   0.220   0.975  16.821 -0.1938  1.3231 -0.6740
  503MPD2     H 7531   0.168   1.019  17.198 -0.3178 -0.8774 -1.0035
  503MPD2    H1 7532   0.251   0.778  16.861  0.4102  0.7992 -0.7726
  503MPD2    H2 7533   0.195   1.185  16.796 -0.7476 -2.2525 -2.3285
  503MPD2    H3 7534   0.229   0.949  16.716  0.3282 -0.0294 -0.2942
  503MPD2     N 7535   0.274   0.794  17.144 -0.0213 -0.1235 -0.3884
  503MPD2    H5 7536   0.252   0.813  17.242  0.4787 -1.8137  0.0541
  503MPD2    N1 7537   0.150   1.245  17.060  0.2850 -0.4754 -0.4097
  503MPD2    H7 7538   0.146   1.242  17.161  0.1223  1.0207 -0.3780
  504TMC3    C1 7539   0.406   0.631  17.242  0.1218  0.0788  0.2560
  504TMC3    C2 7540   0.358   0.666  17.372  0.2695  0.3167  1.1676
  504TMC3    C3 7541   0.430   0.613  17.479  0.2155  0.0264  0.5512
  504TMC3    C4 7542   0.515   0.554  17.221 -0.0550 -0.0632 -0.0416
  504TMC3    C5 7543   0.581   0.498  17.325  0.1108 -0.5125  0.4389
  504TMC3    C6 7544   0.537   0.531  17.452  0.0000 -0.4092  0.0208
  504TMC3     C 7545   0.352   0.689  17.125 -0.0698 -0.2638 -0.1804
  504TMC3     O 7546   0.407   0.664  17.020  0.0758  0.1709  0.3859
  504TMC3     H 7547   0.258   0.706  17.384 -0.2305 -0.4787 -0.2124
  504TMC3    H1 7548   0.551   0.536  17.121  0.1982  1.7348 -0.2647
  504TMC3    H2 7549   0.597   0.487  17.531  1.6489  2.2732  0.2280
  504TMC3    C7 7550   0.718   0.439  17.300  0.0849 -0.2109 -0.1041
  504TMC3    C8 7551   0.374   0.641  17.613 -0.0183 -0.9214  0.3511
  504TMC3    O1 7552   0.754   0.442  17.182  0.1638  0.2301 -0.1608
  504TMC3    O2 7553   0.279   0.720  17.608 -0.2606 -0.0934 -0.3481
  505MPD2     C 7554   1.203   4.337  11.250  0.9658  0.0416  0.5214
  505MPD2    C1 7555   1.283   4.385  11.151 -0.0589  0.3881  0.9384
  505MPD2    C2 7556   1.370   4.490  11.174  0.0166 -0.0372  0.0029
  505MPD2    C3 7557   1.378   4.539  11.306  0.2762 -0.4884 -0.0383
  505MPD2    C4 7558   1.279   4.508  11.400 -0.1359 -0.1380 -0.6215
  505MPD2    C5 7559   1.194   4.405  11.367  1.0429  0.7902 -0.1529
  505MPD2     H 7560   1.442   4.526  11.101 -0.3411 -0.8142 -0.7336
  505MPD2    H1 7561   1.281   4.543  11.503  1.0431  1.4500 -1.1889
  505MPD2    H2 7562   1.138   4.251  11.238  0.3122  0.7584 -1.0329
  505MPD2    H3 7563   1.140   4.360  11.449  0.7261  1.1652 -0.1575
  505MPD2     N 7564   1.476   4.626  11.360 -0.2674  0.0342  0.4560
  505MPD2    H5 7565   1.436   4.667  11.444  0.1657  1.3613  0.0225
  505MPD2    N1 7566   1.277   4.311  11.025  0.0957  0.2165 -0.6326
  505MPD2    H7 7567   1.240   4.217  11.032  1.5617 -0.1605  1.9906
  506TMC3    C1 7568   1.364   4.240  10.814  0.6085  0.3185 -0.0934
  506TMC3    C2 7569   1.404   4.274  10.693 -0.0228 -0.0304 -0.1409
  506TMC3    C3 7570   1.419   4.174  10.598 -0.2890  0.6046  0.2047
  506TMC3    C4 7571   1.353   4.109  10.855  0.1194 -0.0411  0.4000
  506TMC3    C5 7572   1.398   4.017  10.765  0.1393  0.6171  0.1609
  506TMC3    C6 7573   1.423   4.045  10.634  0.1233  0.9117 -0.1687
  506TMC3     C 7574   1.350   4.349  10.916  0.7482 -0.0518  0.1139
  506TMC3     O 7575   1.401   4.457  10.891  0.6188  0.3486 -0.6260
  506TMC3     H 7576   1.386   4.379  10.670 -0.2945 -0.6126 -2.5640
  506TMC3    H1 7577   1.331   4.075  10.956 -0.1789 -0.5272  0.1738
  506TMC3    H2 7578   1.449   3.960  10.571  0.1380  2.6398 -2.4754
  506TMC3    C7 7579   1.393   3.870  10.798  0.3580  0.2036  0.6613
  506TMC3    C8 7580   1.438   4.208  10.462  0.4779 -0.2404  0.0257
  506TMC3    O1 7581   1.352   3.804  10.703  0.7348 -0.1347  0.1970
  506TMC3    O2 7582   1.388   4.131  10.382  0.0914 -0.2491 -0.1982
  507TMC3    C1 7583   1.509   0.156  15.535  0.6298  0.2956 -0.4419
  507TMC3    C2 7584   1.459   0.045  15.466  0.2393  0.3091 -0.0637
  507TMC3    C3 7585   1.473   0.051  15.328  0.0075 -0.3230  0.5320
  507TMC3    C4 7586   1.579   0.256  15.478  0.7785  0.4225 -0.3858
  507TMC3    C5 7587   1.604   0.246  15.346  0.0846 -0.6264 -0.5602
  507TMC3    C6 7588   1.554   0.147  15.270  0.1111  0.4886  0.3643
  507TMC3     C 7589   1.496   0.166  15.675  0.0562 -0.3596  0.6893
  507TMC3     O 7590   1.562   0.242  15.739 -0.1371  0.0485 -0.2224
  507TMC3     H 7591   1.394   4.707  15.509 -0.9238  0.3616 -1.7174
  507TMC3    H1 7592   1.590   0.343  15.542  1.3882  0.0078  0.0662
  507TMC3    H2 7593   1.573   0.126  15.166  0.6824  0.4415  0.4809
  507TMC3    C7 7594   1.581   0.366  15.267 -0.0377 -0.4584  0.8222
  507TMC3    C8 7595   1.348   0.044  15.247 -0.5287 -0.1028  0.2621
  507TMC3    O1 7596   1.517   0.361  15.164 -0.1230 -0.7407 -0.8063
  507TMC3    O2 7597   1.269   4.697  15.266  0.4271  0.0475  0.2036
  508MPD2     C 7598   2.797   2.886  15.829 -0.4730 -0.0782 -0.0218
  508MPD2    C1 7599   2.741   2.945  15.945 -0.6148 -0.2520  0.1017
  508MPD2    C2 7600   2.702   3.082  15.937 -0.2834 -0.4785  0.0494
  508MPD2    C3 7601   2.719   3.155  15.824 -0.8840 -0.4164  0.7884
  508MPD2    C4 7602   2.767   3.094  15.710  0.5291 -0.4746 -0.1078
  508MPD2    C5 7603   2.806   2.962  15.714 -0.6334  0.1258 -0.4671
  508MPD2     H 7604   2.671   3.143  16.021 -3.1117  0.8855 -2.0227
  508MPD2    H1 7605   2.779   3.150  15.617  1.1627 -1.0199 -0.3566
  508MPD2    H2 7606   2.843   2.788  15.832 -2.1373 -0.8621  0.0395
  508MPD2    H3 7607   2.852   2.933  15.620  1.5803  0.7117  0.4179
  508MPD2     N 7608   2.670   3.288  15.830 -1.1707 -0.0579 -0.6771
  508MPD2    H5 7609   2.642   3.328  15.919  1.5323 -2.8122  1.3559
  508MPD2    N1 7610   2.744   2.873  16.066  0.3878 -0.1673 -0.1275
  508MPD2    H7 7611   2.814   2.799  16.072 -0.3991 -0.8671  0.3616
  509TMC3    C1 7612   2.513   3.694  15.639 -0.3364  0.4507 -0.4657
  509TMC3    C2 7613   2.579   3.762  15.737 -0.5899 -0.6802 -0.8784
  509TMC3    C3 7614   2.651   3.688  15.834 -0.6420 -0.8197  0.3228
  509TMC3    C4 7615   2.525   3.557  15.625 -0.7059  0.5525  0.6929
  509TMC3    C5 7616   2.590   3.493  15.730 -0.0988  0.4812  0.3589
  509TMC3    C6 7617   2.644   3.556  15.837  0.6107  0.3272  0.4117
  509TMC3     C 7618   2.416   3.754  15.545 -0.8092  0.3310 -0.5005
  509TMC3     O 7619   2.357   3.680  15.471  0.1708 -0.2603  0.0462
  509TMC3     H 7620   2.611   3.863  15.711 -0.5318 -0.8352 -1.4225
  509TMC3    H1 7621   2.481   3.511  15.537  1.3495 -0.4993  0.2179
  509TMC3    H2 7622   2.696   3.502  15.916  0.0124 -1.2282 -0.2706
  509TMC3    C7 7623   2.627   3.354  15.715 -0.1595 -0.9357 -0.2237
  509TMC3    C8 7624   2.776   3.743  15.886  0.1603 -0.8255 -0.2391
  509TMC3    O1 7625   2.605   3.302  15.609 -0.5517 -0.0904  0.1647
  509TMC3    O2 7626   2.873   3.669  15.903 -0.0337 -0.1871  0.3076
  510MPD2     C 7627   4.648   4.668  14.478  0.2142  0.0589 -0.2202
  510MPD2    C1 7628   0.002   4.622  14.565 -0.2147  0.1091  0.4324
  510MPD2    C2 7629   0.139   4.621  14.522 -0.9113 -0.3515 -0.5183
  510MPD2    C3 7630   0.173   4.669  14.392 -0.1483 -0.1399 -0.5699
  510MPD2    C4 7631   0.069   4.712  14.314 -0.5415  0.7085  0.3195
  510MPD2    C5 7632   4.684   4.730  14.368  0.0620 -0.3147  0.5281
  510MPD2     H 7633   0.216   4.604  14.596 -0.4802 -0.9121 -1.0987
  510MPD2    H1 7634   0.086   0.015  14.216 -0.1158 -1.8178 -0.6931
  510MPD2    H2 7635   4.541   4.659  14.493  0.1750  0.6111 -0.1659
  510MPD2    H3 7636   4.612   0.037  14.301 -1.9702 -4.4504 -0.1234
  510MPD2     N 7637   0.305   4.655  14.350 -0.8399  0.4729 -0.5905
  510MPD2    H5 7638   0.368   4.639  14.428 -2.1453  0.1560  0.3985
  510MPD2    N1 7639   4.686   4.553  14.675  0.0074 -0.5398 -0.0182
  510MPD2    H7 7640   4.586   4.540  14.685 -0.1519  1.5526  0.9833
  511TMC3    C1 7641   4.662   4.446  14.886  0.4920 -0.1756  0.4073
  511TMC3    C2 7642   4.539   4.504  14.917  0.5717  0.3690  0.4503
  511TMC3    C3 7643   4.449   4.431  14.986  0.1940 -0.1213 -0.5522
  511TMC3    C4 7644   4.693   4.329  14.941 -0.1339 -0.7527 -0.1276
  511TMC3    C5 7645   4.601   4.257  15.015 -0.1538 -0.8387  0.1704
  511TMC3    C6 7646   4.475   4.305  15.032  0.4845 -0.1417 -0.8603
  511TMC3     C 7647   0.013   4.499  14.781 -0.8794  0.6962  0.0813
  511TMC3     O 7648   0.134   4.484  14.804 -0.5670  0.4454  0.1878
  511TMC3     H 7649   4.522   4.606  14.886 -2.6008 -0.6105 -0.9997
  511TMC3    H1 7650   0.053   4.288  14.925  0.7105  1.5550 -0.8125
  511TMC3    H2 7651   4.396   4.245  15.076 -0.4184  1.2404 -0.5964
  511TMC3    C7 7652   4.637   4.118  15.055 -0.1644  0.0757 -0.2354
  511TMC3    C8 7653   4.341   4.498  15.047  0.5939 -0.0547 -0.2800
  511TMC3    O1 7654   0.014   4.091  15.033 -0.6818 -0.1892  0.6690
  511TMC3    O2 7655   4.284   4.592  14.993 -0.4531 -0.3894  0.0713
  512TMC3    C1 7656   4.252   3.736  13.512  0.1674 -0.0359 -0.1782
  512TMC3    C2 7657   4.317   3.851  13.555  1.0614 -0.1842 -0.3518
  512TMC3    C3 7658   4.368   3.926  13.450  0.1077 -0.3355 -0.3990
  512TMC3    C4 7659   4.262   3.678  13.392 -0.9539  0.7296  0.7820
  512TMC3    C5 7660   4.323   3.753  13.295 -0.3729 -0.1387 -0.0614
  512TMC3    C6 7661   4.379   3.875  13.328 -0.1577  0.1982 -0.5999
  512TMC3     C 7662   4.164   3.670  13.603 -0.4612  0.0919  0.0615
  512TMC3     O 7663   4.112   3.571  13.563  0.1948  0.1305  0.1426
  512TMC3     H 7664   4.327   3.887  13.657  0.4838 -2.2265  0.4491
  512TMC3    H1 7665   4.207   3.586  13.377 -1.7295  1.1432  1.0547
  512TMC3    H2 7666   4.421   3.939  13.251 -0.4978  0.3868 -0.6273
  512TMC3    C7 7667   4.339   3.710  13.161 -0.0690  0.2561 -1.0120
  512TMC3    C8 7668   4.462   4.036  13.480 -0.0055  0.0728  0.0392
  512TMC3    O1 7669   4.354   3.798  13.076  0.3194 -0.1745  0.0342
  512TMC3    O2 7670   4.497   4.034  13.598  0.0440  0.1422 -0.5472
  513MPD2     C 7671   1.617   3.446  13.831  0.1307 -0.0998  0.2022
  513MPD2    C1 7672   1.632   3.423  13.696 -0.0561  1.0425 -0.0167
  513MPD2    C2 7673   1.753   3.381  13.650  0.8084 -0.0184  0.3784
  513MPD2    C3 7674   1.865   3.376  13.738  0.0792  0.8748 -0.4342
  513MPD2    C4 7675   1.840   3.379  13.873  0.5462 -0.1420  1.0560
  513MPD2    C5 7676   1.719   3.420  13.919  0.3037  0.6029  0.5870
  513MPD2     H 7677   1.770   3.370  13.544 -0.2811 -0.6229  0.2684
  513MPD2    H1 7678   1.920   3.374  13.946  1.2371 -0.6415  0.2509
  513MPD2    H2 7679   1.521   3.479  13.868 -0.0773  1.1116 -1.4026
  513MPD2    H3 7680   1.699   3.440  14.024  0.3404  0.3164  0.6490
  513MPD2     N 7681   1.992   3.353  13.688 -0.2577 -0.6300 -0.3431
  513MPD2    H5 7682   1.998   3.348  13.586  2.2422  1.0228 -0.2613
  513MPD2    N1 7683   1.525   3.459  13.606 -0.0791  0.5459 -0.3570
  513MPD2    H7 7684   1.441   3.492  13.652 -0.6057 -2.5511  0.9518
  514TMC3    C1 7685   1.389   3.442  13.419  0.4664 -0.0152  0.1141
  514TMC3    C2 7686   1.357   3.554  13.346  0.4301  0.7685 -0.2894
  514TMC3    C3 7687   1.313   3.554  13.215  0.1427  0.2688  0.1447
  514TMC3    C4 7688   1.363   3.323  13.360 -0.0286 -0.4870 -0.7885
  514TMC3    C5 7689   1.334   3.312  13.222  0.4393  0.4464 -0.2224
  514TMC3    C6 7690   1.308   3.432  13.154  0.1085  0.3908  0.8785
  514TMC3     C 7691   1.523   3.447  13.471 -0.6270 -0.1774  0.4251
  514TMC3     O 7692   1.608   3.402  13.397 -0.2197  0.5089 -0.2605
  514TMC3     H 7693   1.388   3.647  13.391 -0.0218  0.1636  1.2682
  514TMC3    H1 7694   1.411   3.238  13.407 -2.0114 -0.0583  1.9835
  514TMC3    H2 7695   1.280   3.418  13.050  1.5047 -1.1148  0.6981
  514TMC3    C7 7696   1.424   3.227  13.143  0.9595 -0.0004  0.1870
  514TMC3    C8 7697   1.328   3.680  13.135 -0.3462  0.2392  0.9179
  514TMC3    O1 7698   1.380   3.178  13.042 -0.0677 -0.3591 -0.3300
  514TMC3    O2 7699   1.316   3.785  13.201 -0.7421 -1.4423  0.1190
  515MPD2     C 7700   4.329   0.743  14.112 -0.4333  0.2405  0.1772
  515MPD2    C1 7701   4.313   0.622  14.180 -0.4997 -0.2414  0.3300
  515MPD2    C2 7702   4.372   0.611  14.309 -0.2450 -0.1721 -0.8048
  515MPD2    C3 7703   4.435   0.726  14.362 -0.0686 -1.0819 -0.8473
  515MPD2    C4 7704   4.427   0.853  14.299 -0.4877  0.1638  0.1468
  515MPD2    C5 7705   4.370   0.853  14.174  0.0436 -0.3316  0.7509
  515MPD2     H 7706   4.364   0.522  14.370  0.0719  0.3611  0.0192
  515MPD2    H1 7707   4.474   0.945  14.332 -0.3564 -1.0545  3.3595
  515MPD2    H2 7708   4.276   0.748  14.018 -0.6388  1.6423  0.3762
  515MPD2    H3 7709   4.379   0.947  14.122  0.3891  0.1410  1.6643
  515MPD2     N 7710   4.503   0.717  14.489  0.3360 -0.0701  0.0920
  515MPD2    H5 7711   4.533   0.797  14.543 -1.1009  0.9462 -0.6303
  515MPD2    N1 7712   4.244   0.508  14.132 -0.0008  0.2680  0.3277
  515MPD2    H7 7713   4.249   0.421  14.184 -1.4736 -0.7251 -1.1783
  516TMC3    C1 7714   4.123   0.382  13.977 -0.5057  0.0516  0.0039
  516TMC3    C2 7715   4.071   0.370  13.848 -0.3588  0.4603  0.2489
  516TMC3    C3 7716   3.966   0.293  13.818  0.4323 -0.9794 -0.4933
  516TMC3    C4 7717   4.074   0.306  14.078  0.4672 -0.0152  0.1468
  516TMC3    C5 7718   3.976   0.216  14.045  0.2189  0.7803 -0.2056
  516TMC3    C6 7719   3.916   0.217  13.918  0.1805 -0.0354 -0.1546
  516TMC3     C 7720   4.182   0.501  14.013 -0.7348  0.3049  0.5240
  516TMC3     O 7721   4.158   0.590  13.934 -0.1782  0.3067  0.4936
  516TMC3     H 7722   4.105   0.449  13.782 -0.7707  0.2230 -0.2549
  516TMC3    H1 7723   4.121   0.310  14.176 -0.6053  0.1277  0.6545
  516TMC3    H2 7724   3.834   0.152  13.891  0.5507 -0.7438  0.4536
  516TMC3    C7 7725   3.950   0.106  14.144  0.7634 -0.3959 -0.8685
  516TMC3    C8 7726   3.858   0.372  13.766  0.7134 -0.3730  0.1597
  516TMC3    O1 7727   4.041   0.086  14.220  0.0754 -0.2545 -0.0053
  516TMC3    O2 7728   3.745   0.370  13.815 -0.5775  0.1638  0.0961
  517MPD2     C 7729   2.973   2.565  17.209  0.0192 -0.8469  0.8634
  517MPD2    C1 7730   3.083   2.535  17.290 -0.1577 -0.7518  0.5562
  517MPD2    C2 7731   3.134   2.623  17.375  0.1029 -0.5161 -0.1855
  517MPD2    C3 7732   3.069   2.743  17.400  0.2236  0.3287  0.1094
  517MPD2    C4 7733   2.950   2.773  17.331 -0.4992  0.7557  0.2842
  517MPD2    C5 7734   2.906   2.687  17.233  0.0162  0.0074  0.2954
  517MPD2     H 7735   3.214   2.590  17.440  1.6100  1.0284 -1.2513
  517MPD2    H1 7736   2.889   2.861  17.348 -0.8857  0.6133 -0.3653
  517MPD2    H2 7737   2.940   2.504  17.125 -0.1373 -1.1473  1.1390
  517MPD2    H3 7738   2.815   2.709  17.179  0.8185 -1.5395 -1.7183
  517MPD2     N 7739   3.106   2.828  17.506 -1.0294 -0.0938  0.0326
  517MPD2    H5 7740   3.041   2.905  17.518  1.0174  1.5903  0.1495
  517MPD2    N1 7741   3.163   2.424  17.267 -0.0799 -0.3632 -0.4676
  517MPD2    H7 7742   3.262   2.434  17.285 -0.4043 -0.4341  1.3349
  518TMC3    C1 7743   3.215   2.205  17.194 -0.1669  0.1892 -0.0088
  518TMC3    C2 7744   3.175   2.075  17.208  0.0879  0.3974 -0.2629
  518TMC3    C3 7745   3.275   1.981  17.173  0.3804  0.1566 -0.7494
  518TMC3    C4 7746   3.339   2.245  17.155 -0.2040 -0.1295 -0.9282
  518TMC3    C5 7747   3.432   2.147  17.121 -0.0838 -0.1510  0.6945
  518TMC3    C6 7748   3.405   2.014  17.137  0.3051 -0.2717  0.2794
  518TMC3     C 7749   3.110   2.306  17.223  0.0165 -0.5713 -0.7057
  518TMC3     O 7750   2.991   2.286  17.208  0.4166 -0.5650 -0.1573
  518TMC3     H 7751   3.073   2.038  17.214 -0.0562  0.7365 -0.6394
  518TMC3    H1 7752   3.359   2.350  17.135 -0.9462  0.1144 -0.3906
  518TMC3    H2 7753   3.462   1.939  17.085  0.2207  0.7009 -1.2194
  518TMC3    C7 7754   3.551   2.190  17.055 -1.1440  0.1581 -0.1211
  518TMC3    C8 7755   3.260   1.843  17.210 -0.0251 -0.2000 -0.0998
  518TMC3    O1 7756   3.558   2.297  17.002 -0.2176  0.5315  0.1543
  518TMC3    O2 7757   3.335   1.764  17.166 -0.1899 -0.2186 -0.0987
  519MPD2     C 7758   0.632   0.353  14.234  0.2923  0.1200  0.1741
  519MPD2    C1 7759   0.586   0.304  14.116  0.1454 -0.5347  0.1081
  519MPD2    C2 7760   0.679   0.271  14.020  0.5525 -0.7009  0.0783
  519MPD2    C3 7761   0.810   0.291  14.049 -0.3040 -0.0968  0.3444
  519MPD2    C4 7762   0.859   0.336  14.170 -0.9162 -0.4460  0.5291
  519MPD2    C5 7763   0.767   0.362  14.266 -0.2592  0.4182  0.2293
  519MPD2     H 7764   0.643   0.229  13.927  1.4858 -0.1755 -0.5098
  519MPD2    H1 7765   0.963   0.344  14.200 -0.5534 -2.1895 -0.2800
  519MPD2    H2 7766   0.566   0.375  14.318 -0.9911  1.7986 -1.2709
  519MPD2    H3 7767   0.806   0.374  14.366 -1.8146 -0.0764  0.8980
  519MPD2     N 7768   0.912   0.251  13.954  0.6335 -0.8353 -0.0560
  519MPD2    H5 7769   1.008   0.261  13.985  0.3443 -1.3990  1.0539
  519MPD2    N1 7770   0.448   0.290  14.099 -0.3484 -0.3563  0.5791
  519MPD2    H7 7771   0.383   0.336  14.163 -0.5583 -1.4028  1.1088
  520TMC3    C1 7772   1.010   0.215  13.750  0.0007  0.0287  0.1458
  520TMC3    C2 7773   1.027   0.269  13.625  1.2057  0.8088  1.1609
  520TMC3    C3 7774   1.135   0.226  13.555 -0.0267 -0.4704  0.0888
  520TMC3    C4 7775   1.088   0.119  13.798 -0.1467  0.6859 -0.5141
  520TMC3    C5 7776   1.188   0.070  13.723  0.4004 -0.2440 -0.4754
  520TMC3    C6 7777   1.219   0.130  13.604 -0.3137 -0.5703 -0.7977
  520TMC3     C 7778   0.895   0.245  13.820 -0.2354  0.7940  0.1507
  520TMC3     O 7779   0.796   0.269  13.752 -0.5423  0.1133 -0.1697
  520TMC3     H 7780   0.961   0.352  13.600  0.8048  0.4728  1.0938
  520TMC3    H1 7781   1.060   0.073  13.891 -0.1386  1.0341 -0.3392
  520TMC3    H2 7782   1.308   0.106  13.547  0.7621  0.9917  0.2242
  520TMC3    C7 7783   1.297   4.736  13.789  0.2386  0.0017  0.8527
  520TMC3    C8 7784   1.136   0.241  13.417  0.2291 -0.4865 -0.6765
  520TMC3    O1 7785   1.301   0.015  13.910  0.2083 -0.3442 -0.2420
  520TMC3    O2 7786   1.245   0.246  13.357 -0.8045  0.4700 -0.8099
  521MPD2     C 7787   1.040   2.827  17.144 -0.3752  0.5783  0.2242
  521MPD2    C1 7788   1.068   2.948  17.089  0.2442 -0.1373 -0.3688
  521MPD2    C2 7789   1.201   2.973  17.041 -0.6963 -0.1790 -0.6334
  521MPD2    C3 7790   1.295   2.874  17.058 -0.0874  0.0600 -0.0383
  521MPD2    C4 7791   1.266   2.759  17.130 -0.4832  0.3165 -0.1278
  521MPD2    C5 7792   1.136   2.739  17.182  0.6497  0.6199  0.1072
  521MPD2     H 7793   1.230   3.063  16.988  2.9637 -1.5776 -0.9902
  521MPD2    H1 7794   1.341   2.682  17.144  0.1291  0.6769 -1.3759
  521MPD2    H2 7795   0.944   2.803  17.187  0.4089 -3.1239 -0.0361
  521MPD2    H3 7796   1.110   2.654  17.244 -0.3685 -0.2669 -1.5123
  521MPD2     N 7797   1.432   2.906  17.024  0.7940  0.3496  0.4768
  521MPD2    H5 7798   1.456   2.997  16.985  0.8200  0.5903  1.0561
  521MPD2    N1 7799   0.959   3.034  17.060 -0.5751  0.4636 -0.1686
  521MPD2    H7 7800   0.865   3.007  17.084 -0.5431 -0.0737 -0.6435
  522TMC3    C1 7801   1.670   2.891  17.012  0.0928  0.5321  0.2392
  522TMC3    C2 7802   1.779   2.816  17.055 -0.2242 -0.4890  0.6306
  522TMC3    C3 7803   1.890   2.827  16.978 -0.1051 -0.1766 -0.5528
  522TMC3    C4 7804   1.668   2.981  16.904 -1.1936  0.2841 -0.0133
  522TMC3    C5 7805   1.784   2.994  16.839  0.2214  0.1286 -0.0888
  522TMC3    C6 7806   1.890   2.909  16.865 -1.0987 -0.3255  0.3662
  522TMC3     C 7807   1.542   2.830  17.051 -0.2375 -0.0766  0.2824
  522TMC3     O 7808   1.553   2.730  17.118  0.0122 -0.3001 -0.4567
  522TMC3     H 7809   1.776   2.732  17.123 -1.2370  1.7241  3.3029
  522TMC3    H1 7810   1.574   3.015  16.863 -1.0875 -2.2640 -2.2997
  522TMC3    H2 7811   1.972   2.924  16.795 -1.7677  0.4776 -0.2597
  522TMC3    C7 7812   1.799   3.083  16.730 -0.4332 -0.9546 -0.3618
  522TMC3    C8 7813   2.014   2.752  17.006  0.0508 -0.8818  0.7350
  522TMC3    O1 7814   1.904   3.075  16.664  0.2556  0.1808  0.3971
  522TMC3    O2 7815   2.013   2.680  17.106 -0.0905  0.0596 -0.4225
  523MPD2     C 7816   4.253   3.827  10.053  0.3759  0.1208  0.0867
  523MPD2    C1 7817   4.179   3.707  10.032  0.6961 -0.0542  0.2954
  523MPD2    C2 7818   4.068   3.701   9.946 -0.0829  0.3602  0.6612
  523MPD2    C3 7819   4.049   3.807   9.857  0.5079  0.2812 -0.1990
  523MPD2    C4 7820   4.129   3.918   9.865 -0.2735 -0.0205 -0.4652
  523MPD2    C5 7821   4.222   3.930   9.969 -0.0696  0.8789 -0.5184
  523MPD2     H 7822   3.997   3.620   9.936  2.0795 -1.5337  0.5354
  523MPD2    H1 7823   4.112   4.000   9.797 -0.6901 -0.3034 -0.7049
  523MPD2    H2 7824   4.328   3.837  10.131  0.5633 -4.6583  0.5240
  523MPD2    H3 7825   4.280   4.022   9.970 -0.3579  1.0589 -0.1518
  523MPD2     N 7826   3.947   3.813   9.763 -0.1584 -0.1905 -0.4387
  523MPD2    H5 7827   3.930   3.896   9.708  2.1277  0.9211  0.5482
  523MPD2    N1 7828   4.224   3.601  10.110  0.1552 -0.0493  0.3761
  523MPD2    H7 7829   4.307   3.617  10.166  0.2742 -2.5536  0.9366
  524TMC3    C1 7830   3.771   3.742   9.621 -0.4089  0.0415  0.2063
  524TMC3    C2 7831   3.714   3.646   9.551 -0.3455  0.9215 -0.3397
  524TMC3    C3 7832   3.616   3.678   9.458 -0.3059 -0.2838  1.0049
  524TMC3    C4 7833   3.734   3.873   9.604  0.0981  0.1172 -0.5023
  524TMC3    C5 7834   3.642   3.899   9.504 -0.2613 -0.2273  0.3216
  524TMC3    C6 7835   3.581   3.808   9.422  0.4588  0.9195  0.2070
  524TMC3     C 7836   3.868   3.712   9.728 -0.0844  0.8783 -0.0831
  524TMC3     O 7837   3.879   3.592   9.749  0.5404 -0.0118  0.0761
  524TMC3     H 7838   3.737   3.542   9.567  1.1139  1.0650 -1.4431
  524TMC3    H1 7839   3.773   3.955   9.663 -1.3979 -1.1599  2.2114
  524TMC3    H2 7840   3.523   3.833   9.334 -0.7227  0.1748  0.7830
  524TMC3    C7 7841   3.599   4.034   9.496  0.2188 -0.4023  0.1718
  524TMC3    C8 7842   3.594   3.564   9.377  0.8581  0.5614 -0.3766
  524TMC3    O1 7843   3.679   4.116   9.537  0.0695  0.5020 -0.2758
  524TMC3    O2 7844   3.679   3.474   9.374  0.3126  0.5460 -0.3506
  525MPD2     C 7845   2.379   0.312  14.275  0.9254  0.1732  0.1432
  525MPD2    C1 7846   2.419   0.405  14.369  0.3117 -0.4116  0.5636
  525MPD2    C2 7847   2.410   0.542  14.338 -0.4304 -0.0096 -0.0666
  525MPD2    C3 7848   2.382   0.588  14.211  0.6867  0.6072  0.0223
  525MPD2    C4 7849   2.359   0.493  14.116 -0.3100  1.1950 -0.3064
  525MPD2    C5 7850   2.350   0.361  14.150 -0.0098  0.2565 -0.2763
  525MPD2     H 7851   2.451   0.613  14.409 -1.1780 -0.3754  0.7260
  525MPD2    H1 7852   2.330   0.529  14.018  0.3992  2.8561  0.0955
  525MPD2    H2 7853   2.373   0.205  14.291 -1.3662  0.5287  1.6038
  525MPD2    H3 7854   2.316   0.284  14.081 -0.6401  0.6511 -0.4045
  525MPD2     N 7855   2.390   0.717  14.162  0.1983 -0.2052 -0.3648
  525MPD2    H5 7856   2.353   0.734  14.069  3.5131  1.3458 -1.4000
  525MPD2    N1 7857   2.442   0.355  14.500  0.0680  0.0496 -0.0042
  525MPD2    H7 7858   2.454   0.418  14.578  0.2367 -1.8073  1.4676
  526TMC3    C1 7859   2.488   0.190  14.659  0.0565  0.0198  0.6581
  526TMC3    C2 7860   2.383   0.245  14.728 -0.3838  0.3688 -0.8009
  526TMC3    C3 7861   2.380   0.211  14.857  0.7039  0.6031 -0.0273
  526TMC3    C4 7862   2.588   0.107  14.706 -0.1128 -0.1029 -0.4892
  526TMC3    C5 7863   2.575   0.079  14.844 -0.7311 -0.1261 -0.5835
  526TMC3    C6 7864   2.478   0.129  14.922  0.0130 -0.1681 -0.6466
  526TMC3     C 7865   2.488   0.226  14.519 -0.2876 -0.0518 -0.0467
  526TMC3     O 7866   2.546   0.150  14.442 -0.2556  0.4199  0.4001
  526TMC3     H 7867   2.301   0.290  14.672 -0.2164  0.8362 -0.6689
  526TMC3    H1 7868   2.671   0.079  14.642  0.8264 -0.6357  0.9789
  526TMC3    H2 7869   2.482   0.110  15.029  1.1588  1.1819 -0.4416
  526TMC3    C7 7870   2.666   4.718  14.905 -0.1617  0.1153  0.2132
  526TMC3    C8 7871   2.301   0.279  14.951  0.2852  0.6781  0.0973
  526TMC3    O1 7872   2.667   4.708  15.025  0.2831 -0.6812 -0.2334
  526TMC3    O2 7873   2.277   0.396  14.920  0.4621  0.2541 -0.4306
  527MPD2     C 7874   4.512   3.779   1.075  0.0864 -0.2602 -0.8668
  527MPD2    C1 7875   4.452   3.667   1.017  0.1698  0.1280 -0.6590
  527MPD2    C2 7876   4.529   3.568   0.959 -0.5149 -0.2586  0.1840
  527MPD2    C3 7877   4.662   3.587   0.948  0.9083  0.3736 -0.2521
  527MPD2    C4 7878   4.725   3.685   1.015  0.1574 -0.1532 -0.2865
  527MPD2    C5 7879   4.652   3.783   1.079  0.5201  0.1862  0.3847
  527MPD2     H 7880   4.492   3.473   0.924 -1.7106 -0.1448  1.1220
  527MPD2    H1 7881   0.091   3.704   0.997  0.1836  0.6625  0.7228
  527MPD2    H2 7882   4.459   3.856   1.129 -0.3981 -2.3805  1.7131
  527MPD2    H3 7883   4.686   3.871   1.132  0.7591  0.3266 -0.0014
  527MPD2     N 7884   4.736   3.492   0.877  0.3388  0.6897 -0.0664
  527MPD2    H5 7885   4.682   3.423   0.825  1.0284  0.2388 -0.1866
  527MPD2    N1 7886   4.317   3.639   1.018  0.0102  0.1442  0.1284
  527MPD2    H7 7887   4.285   3.555   0.972  0.8397  0.6117 -1.3007
  528TMC3    C1 7888   4.089   3.657   1.089 -0.3176  0.2001 -0.6945
  528TMC3    C2 7889   4.045   3.589   0.987  0.6151  0.3709 -0.2423
  528TMC3    C3 7890   3.935   3.511   1.012 -0.0024 -0.4030 -0.2573
  528TMC3    C4 7891   4.015   3.671   1.207  0.2886 -0.9384  0.4392
  528TMC3    C5 7892   3.893   3.600   1.217  0.8623  0.4945  0.4448
  528TMC3    C6 7893   3.855   3.518   1.122 -0.1628 -0.5893  0.8857
  528TMC3     C 7894   4.227   3.704   1.099  0.0835  0.0820  0.8714
  528TMC3     O 7895   4.259   3.786   1.184  0.1963  0.2278 -0.0469
  528TMC3     H 7896   4.099   3.582   0.894  2.0244  0.0407  0.6086
  528TMC3    H1 7897   4.059   3.725   1.291 -1.7607  1.5826 -0.1132
  528TMC3    H2 7898   3.762   3.464   1.134 -1.2795  0.9429 -0.9330
  528TMC3    C7 7899   3.796   3.626   1.313 -0.3166 -0.2577 -0.0178
  528TMC3    C8 7900   3.905   3.428   0.902  0.1796 -0.1824 -0.7272
  528TMC3    O1 7901   3.682   3.599   1.297 -0.7517  0.1724  0.3876
  528TMC3    O2 7902   3.947   3.459   0.787 -0.2316  0.0724  0.0583
  529MPD2     C 7903   1.510   0.255   1.029 -0.3247  0.2801  0.2465
  529MPD2    C1 7904   1.550   0.320   1.142 -1.1875 -0.1605 -0.1367
  529MPD2    C2 7905   1.501   0.445   1.169  0.4928  0.4907 -0.2474
  529MPD2    C3 7906   1.429   0.517   1.078 -0.1319 -0.5417 -0.2183
  529MPD2    C4 7907   1.394   0.454   0.955  0.2873  0.4536  0.6360
  529MPD2    C5 7908   1.434   0.325   0.936  0.3244 -0.3668 -0.4364
  529MPD2     H 7909   1.545   0.494   1.256 -0.5361  0.0486  0.5241
  529MPD2    H1 7910   1.329   0.499   0.880  1.3745 -2.3975 -2.0291
  529MPD2    H2 7911   1.563   0.165   0.998 -2.2514 -0.5596 -0.5985
  529MPD2    H3 7912   1.402   0.280   0.843 -1.5593  1.1868 -0.5246
  529MPD2     N 7913   1.395   0.658   1.092  0.0782 -0.1047 -0.1389
  529MPD2    H5 7914   1.346   0.700   1.014  1.0804  2.7037  0.7367
  529MPD2    N1 7915   1.633   0.265   1.240  0.7327  0.2394  0.4912
  529MPD2    H7 7916   1.654   0.327   1.317  1.2917  2.0608 -1.1257
  530TMC3    C1 7917   1.764   0.107   1.351  0.4035 -0.2694  0.0044
  530TMC3    C2 7918   1.896   0.058   1.352  0.1251 -0.1683 -0.1517
  530TMC3    C3 7919   1.954   0.054   1.479 -0.1229 -0.4717  0.2949
  530TMC3    C4 7920   1.704   0.146   1.474  0.1238  0.2211 -0.0515
  530TMC3    C5 7921   1.771   0.130   1.589  0.5946  1.0789  0.1093
  530TMC3    C6 7922   1.900   0.083   1.602 -0.3028  0.5194 -0.9876
  530TMC3     C 7923   1.707   0.150   1.223 -0.7621 -0.9195 -0.2455
  530TMC3     O 7924   1.708   0.069   1.127 -0.4539 -0.4980 -0.6900
  530TMC3     H 7925   1.946   0.042   1.257  2.8143 -2.3482  1.6330
  530TMC3    H1 7926   1.597   0.167   1.466 -0.2078 -1.4525  0.0756
  530TMC3    H2 7927   1.947   0.077   1.699  1.5459  0.1949 -1.8925
  530TMC3    C7 7928   1.726   0.176   1.718 -1.1075 -0.0726 -0.2647
  530TMC3    C8 7929   2.092   0.009   1.493  0.1019  0.2342 -0.1453
  530TMC3    O1 7930   1.770   0.144   1.828 -0.3416  0.1115 -0.3218
  530TMC3    O2 7931   2.126   4.701   1.602  0.1603 -0.4696  0.7340
  531MPD2     C 7932   1.888   2.986  13.101 -0.0534 -0.8405  0.3957
  531MPD2    C1 7933   1.895   3.076  13.204  0.6356 -0.5666  0.1280
  531MPD2    C2 7934   1.785   3.156  13.230 -0.3380  0.2467  0.6439
  531MPD2    C3 7935   1.664   3.141  13.162  0.0890  0.7407  0.5191
  531MPD2    C4 7936   1.655   3.041  13.065 -0.0383 -0.1010 -0.2745
  531MPD2    C5 7937   1.768   2.971  13.036 -0.0804 -1.0012 -1.1345
  531MPD2     H 7938   1.782   3.223  13.315 -1.4933 -0.0136  0.8023
  531MPD2    H1 7939   1.567   3.040  13.003 -0.7891 -2.8764  0.8163
  531MPD2    H2 7940   1.969   2.918  13.077  0.5565  0.8095 -2.2253
  531MPD2    H3 7941   1.765   2.894  12.960  0.4248 -3.0757  0.9557
  531MPD2     N 7942   1.555   3.229  13.196  0.9282 -0.0183  0.2606
  531MPD2    H5 7943   1.587   3.302  13.259  0.7566  0.3374 -0.0679
  531MPD2    N1 7944   2.015   3.095  13.278  0.3499 -0.0383 -0.7226
  531MPD2    H7 7945   2.092   3.029  13.277  0.6800  0.3452 -1.5867
  532TMC3    C1 7946   2.146   3.182  13.450 -0.0427 -0.1190 -0.0633
  532TMC3    C2 7947   2.167   3.282  13.541 -0.3781  0.1989  0.6228
  532TMC3    C3 7948   2.208   3.263  13.672 -0.4721 -0.5224  0.0962
  532TMC3    C4 7949   2.185   3.050  13.483  0.0126 -0.2289 -0.8338
  532TMC3    C5 7950   2.242   3.036  13.610 -0.7646 -0.0407 -0.6012
  532TMC3    C6 7951   2.246   3.143  13.704 -0.5097  0.5374  1.0948
  532TMC3     C 7952   2.038   3.201  13.357 -0.5103 -0.0945 -0.8575
  532TMC3     O 7953   1.992   3.317  13.357 -0.3567  0.2187 -0.3150
  532TMC3     H 7954   2.146   3.385  13.514  0.1488  0.3648  0.8428
  532TMC3    H1 7955   2.187   2.964  13.417  0.8861 -0.7449 -0.1377
  532TMC3    H2 7956   2.286   3.138  13.805  2.0835 -0.6402  0.0018
  532TMC3    C7 7957   2.298   2.905  13.627 -0.1964  0.8216  0.3732
  532TMC3    C8 7958   2.104   3.317  13.762 -0.6001  0.0831 -0.1537
  532TMC3    O1 7959   2.414   2.896  13.672 -0.4850 -0.3499 -0.3351
  532TMC3    O2 7960   2.110   3.286  13.877 -0.0887  0.3282 -0.0570
  533TMC3    C1 7961   2.441   0.949  14.165 -0.1172 -0.1582 -0.2370
  533TMC3    C2 7962   2.564   1.018  14.168 -0.5718  0.0819  0.1398
  533TMC3    C3 7963   2.560   1.155  14.183  0.3854 -0.5711 -0.8118
  533TMC3    C4 7964   2.322   1.015  14.190  0.9957  0.2830  0.7135
  533TMC3    C5 7965   2.324   1.149  14.202  0.1912 -0.1127  0.1338
  533TMC3    C6 7966   2.438   1.220  14.200 -0.0455  0.2153 -0.2783
  533TMC3     C 7967   2.444   0.824  14.236  0.6613  0.7650 -0.4401
  533TMC3     O 7968   2.527   0.811  14.327 -0.0083  0.3801 -0.0536
  533TMC3     H 7969   2.655   0.958  14.167 -0.4349  0.2937 -0.1357
  533TMC3    H1 7970   2.241   0.945  14.208  3.0874 -1.9311  1.3697
  533TMC3    H2 7971   2.435   1.326  14.220  0.0009  0.3081 -0.7695
  533TMC3    C7 7972   2.204   1.213  14.256 -0.1034  0.1817  0.3936
  533TMC3    C8 7973   2.687   1.219  14.219  0.0656 -0.0855 -0.0103
  533TMC3    O1 7974   2.184   1.330  14.221  0.3976  0.1646 -0.2034
  533TMC3    O2 7975   2.782   1.136  14.244 -0.0074  0.1436 -0.0410
  534MPD2     C 7976   3.775   2.196   1.262 -0.0022  0.2043 -0.1499
  534MPD2    C1 7977   3.884   2.135   1.200 -0.3999  0.1656 -0.3699
  534MPD2    C2 7978   3.869   2.010   1.148  0.2259  0.6191  0.7824
  534MPD2    C3 7979   3.744   1.954   1.132 -0.2487 -0.0366 -0.6023
  534MPD2    C4 7980   3.634   2.023   1.189 -0.4929 -0.0882  0.2368
  534MPD2    C5 7981   3.659   2.139   1.264 -0.6537 -0.5719 -0.7730
  534MPD2     H 7982   3.955   1.953   1.116  0.0646  1.9449 -2.0461
  534MPD2    H1 7983   3.533   1.985   1.179 -0.2122 -0.3707 -1.4324
  534MPD2    H2 7984   3.790   2.288   1.318  1.0876  1.1423 -1.9828
  534MPD2    H3 7985   3.577   2.177   1.323  0.2154 -1.3124  0.9326
  534MPD2     N 7986   3.716   1.831   1.067  0.0255 -0.0719 -0.6608
  534MPD2    H5 7987   3.621   1.796   1.077  0.1518 -0.5573 -1.1371
  534MPD2    N1 7988   4.010   2.198   1.193 -0.0373  0.5434 -0.5177
  534MPD2    H7 7989   4.094   2.150   1.162  0.6216  1.7936 -0.6788
  535TMC3    C1 7990   3.754   1.649   0.910  0.0784 -0.1572  0.7672
  535TMC3    C2 7991   3.642   1.579   0.957 -0.1777  0.2332  0.2456
  535TMC3    C3 7992   3.609   1.470   0.890  0.3105  0.2971 -0.0033
  535TMC3    C4 7993   3.820   1.611   0.791  0.1231 -0.1457  0.2362
  535TMC3    C5 7994   3.779   1.495   0.734 -0.5010  0.1458 -0.2242
  535TMC3    C6 7995   3.670   1.430   0.773  0.4553  0.6052 -0.1573
  535TMC3     C 7996   3.806   1.761   0.984 -0.2213  0.3079  0.3143
  535TMC3     O 7997   3.925   1.776   0.963  0.4402 -0.5253  0.1019
  535TMC3     H 7998   3.601   1.606   1.053 -0.6456 -0.1230  0.1446
  535TMC3    H1 7999   3.911   1.662   0.765 -2.5973  3.1743 -2.7820
  535TMC3    H2 8000   3.646   1.338   0.720 -0.9758  0.2443  1.1278
  535TMC3    C7 8001   3.874   1.449   0.633  0.0267 -0.0793 -0.7954
  535TMC3    C8 8002   3.508   1.382   0.940  0.3880 -0.1832  0.9294
  535TMC3    O1 8003   3.928   1.540   0.569  0.2061 -0.0731 -0.2188
  535TMC3    O2 8004   3.464   1.301   0.858  0.3002 -0.0592  0.0216
  536MPD2     C 8005   3.326   0.197  16.137 -0.3278 -0.4983 -0.2925
  536MPD2    C1 8006   3.196   0.171  16.170  0.2422  0.6499  1.2802
  536MPD2    C2 8007   3.098   0.188  16.069 -0.9298 -0.2101  0.6155
  536MPD2    C3 8008   3.131   0.213  15.937  0.5733  0.2455  0.0018
  536MPD2    C4 8009   3.262   0.245  15.907  0.7143 -0.0159 -0.0445
  536MPD2    C5 8010   3.358   0.227  16.005  0.2006  0.2895  0.5779
  536MPD2     H 8011   2.995   0.167  16.094 -1.4478 -0.7640 -1.9625
  536MPD2    H1 8012   3.296   0.278  15.809 -1.8580  1.5390 -0.3988
  536MPD2    H2 8013   3.411   0.182  16.202 -1.0817 -0.0592  0.8004
  536MPD2    H3 8014   3.462   0.220  15.975 -0.0265  0.9090 -0.3596
  536MPD2     N 8015   3.039   0.251  15.844  0.1938  0.5260 -0.5529
  536MPD2    H5 8016   3.081   0.266  15.753 -1.4542  1.1517 -1.2183
  536MPD2    N1 8017   3.174   0.108  16.294  0.6097  0.4921 -0.4989
  536MPD2    H7 8018   3.249   0.120  16.361 -2.5128  1.9584  2.7352
  537TMC3    C1 8019   3.041   4.730  16.458 -0.0430 -0.1855  0.0691
  537TMC3    C2 8020   3.099   0.063  16.562  0.1355 -0.2074  0.7127
  537TMC3    C3 8021   3.091   0.009  16.683  0.4060  1.0126  0.5182
  537TMC3    C4 8022   2.977   4.610  16.472 -0.4557  0.2001  0.0501
  537TMC3    C5 8023   2.976   4.558  16.595 -0.0958  0.8683 -0.0410
  537TMC3    C6 8024   3.032   4.628  16.702  0.0412 -0.1025 -0.2115
  537TMC3     C 8025   3.057   0.043  16.321 -0.2636 -0.0691 -0.1604
  537TMC3     O 8026   2.966   0.005  16.251 -0.3407 -0.4713 -0.9457
  537TMC3     H 8027   3.152   0.157  16.557  0.7730 -0.5618  0.8470
  537TMC3    H1 8028   2.927   4.558  16.391  1.6578  0.0196 -1.1464
  537TMC3    H2 8029   3.039   4.581  16.800  0.9257 -2.1352 -1.2502
  537TMC3    C7 8030   2.887   4.443  16.616 -0.1000  0.5113  0.2299
  537TMC3    C8 8031   3.126   0.084  16.798 -0.5197  0.8159  0.9242
  537TMC3    O1 8032   2.818   4.410  16.523 -0.2488 -0.8517 -0.0152
  537TMC3    O2 8033   3.150   0.027  16.908 -0.2704 -1.0302  0.6597
  538TMC3    C1 8034   0.120   3.376  11.417 -0.2879 -0.0458  0.1399
  538TMC3    C2 8035   0.210   3.296  11.351  0.3861  0.3460 -0.3936
  538TMC3    C3 8036   0.229   3.332  11.222 -0.4395 -0.5474  0.4003
  538TMC3    C4 8037   0.046   3.476  11.357  0.7670  0.0290 -0.3679
  538TMC3    C5 8038   0.075   3.524  11.233  0.7119  0.4240 -0.4855
  538TMC3    C6 8039   0.163   3.443  11.160  0.5286 -0.6487  0.2944
  538TMC3     C 8040   0.113   3.365  11.567  0.5346 -0.1845 -0.7453
  538TMC3     O 8041   0.058   3.455  11.631  0.7875  0.6758  0.3813
  538TMC3     H 8042   0.260   3.207  11.389  1.8949  1.1922 -0.4315
  538TMC3    H1 8043   4.711   3.527  11.417  0.9738 -2.6909  2.1847
  538TMC3    H2 8044   0.182   3.459  11.055  0.9500  0.4800  0.5419
  538TMC3    C7 8045   4.703   3.583  11.163  0.2392  0.9317 -0.4901
  538TMC3    C8 8046   0.251   3.221  11.139  0.9891  0.2665  0.0164
  538TMC3    O1 8047   4.609   3.625  11.232 -0.3811 -0.0355  0.6117
  538TMC3    O2 8048   0.222   3.115  11.190  0.3852 -0.0854 -0.3317
  539MPD2     C 8049   4.407   2.096  11.474  0.0808  0.3417  0.1682
  539MPD2    C1 8050   4.472   2.183  11.391  0.8432  1.0822 -0.6064
  539MPD2    C2 8051   4.434   2.322  11.400 -0.5424 -0.2177 -0.0793
  539MPD2    C3 8052   4.338   2.372  11.483  0.6431 -0.7140  0.3753
  539MPD2    C4 8053   4.288   2.281  11.568 -0.7658  0.0161  0.1835
  539MPD2    C5 8054   4.323   2.146  11.569 -0.2387 -0.0345 -0.4827
  539MPD2     H 8055   4.498   2.392  11.348  0.5984 -0.3146  1.2263
  539MPD2    H1 8056   4.220   2.321  11.643 -1.9570 -0.3760 -0.6959
  539MPD2    H2 8057   4.421   1.989  11.467  3.1780  0.7155  0.9736
  539MPD2    H3 8058   4.264   2.077  11.628  1.2450 -0.4387  0.5161
  539MPD2     N 8059   4.297   2.507  11.480  0.0869  0.2866 -0.0579
  539MPD2    H5 8060   4.251   2.539  11.565 -0.8426 -0.6627 -0.1976
  539MPD2    N1 8061   4.580   2.146  11.305 -0.1027  0.4968 -0.0352
  539MPD2    H7 8062   4.622   2.223  11.254 -0.5946  0.3472 -0.6633
  540TMC3    C1 8063   4.295   2.727  11.397  0.4196 -0.1254 -0.1823
  540TMC3    C2 8064   4.322   2.813  11.291 -0.8237  0.2018  0.0739
  540TMC3    C3 8065   4.314   2.948  11.310 -0.2577 -0.9107 -0.2795
  540TMC3    C4 8066   4.258   2.780  11.519  0.3670  0.5001  0.8499
  540TMC3    C5 8067   4.254   2.918  11.537  0.0302 -0.2930 -0.0940
  540TMC3    C6 8068   4.282   3.004  11.432  0.1084 -0.3167  0.0060
  540TMC3     C 8069   4.329   2.591  11.379  0.0956 -0.6154 -0.7277
  540TMC3     O 8070   4.357   2.557  11.265 -0.4696  0.0038  0.1555
  540TMC3     H 8071   4.360   2.778  11.196  0.0419  0.7745  0.2141
  540TMC3    H1 8072   4.234   2.713  11.601  0.1608 -0.0378  0.3499
  540TMC3    H2 8073   4.266   3.110  11.449  1.9645  0.0399 -0.5107
  540TMC3    C7 8074   4.182   2.969  11.651  0.5602 -0.6203 -0.1544
  540TMC3    C8 8075   4.295   3.035  11.190 -0.2464  1.0297 -0.2046
  540TMC3    O1 8076   4.166   2.892  11.744  0.1149 -0.3142  0.3087
  540TMC3    O2 8077   4.321   3.154  11.205 -0.5460 -0.0759  0.2153
  541MPD2     C 8078   2.781   3.889  13.177  0.8547  0.2101  0.6476
  541MPD2    C1 8079   2.740   3.778  13.108 -0.2343 -0.5665 -0.8727
  541MPD2    C2 8080   2.724   3.783  12.971  0.4800 -0.4162 -0.9484
  541MPD2    C3 8081   2.733   3.897  12.895 -0.1691  0.4084 -0.6050
  541MPD2    C4 8082   2.785   4.003  12.962 -0.3628 -0.4604  0.4889
  541MPD2    C5 8083   2.809   3.999  13.102  0.4942 -0.7608  0.1272
  541MPD2     H 8084   2.674   3.696  12.931  0.3708 -0.7292 -0.1211
  541MPD2    H1 8085   2.822   4.092  12.913 -0.2129 -1.9003 -2.0034
  541MPD2    H2 8086   2.787   3.900  13.284  0.4744 -1.6077  0.8455
  541MPD2    H3 8087   2.862   4.082  13.147  1.1233  0.4402 -2.8142
  541MPD2     N 8088   2.704   3.901  12.753  0.7576 -0.5423 -0.4378
  541MPD2    H5 8089   2.699   3.995  12.714 -0.6831 -0.0147  0.9972
  541MPD2    N1 8090   2.713   3.653  13.169  0.1687 -0.0674  0.5647
  541MPD2    H7 8091   2.707   3.577  13.102 -1.0286  1.2764 -0.8545
  542TMC3    C1 8092   2.627   3.838  12.545 -0.4271  0.6296  0.0618
  542TMC3    C2 8093   2.650   3.743  12.445  0.0741  0.1237 -0.7876
  542TMC3    C3 8094   2.603   3.771  12.322 -0.0020 -0.5941  0.2487
  542TMC3    C4 8095   2.544   3.946  12.521 -0.0384  0.5289  0.0909
  542TMC3    C5 8096   2.485   3.952  12.403 -0.2687  0.1995 -1.0895
  542TMC3    C6 8097   2.509   3.863  12.304 -1.0030  0.3205  0.1112
  542TMC3     C 8098   2.665   3.794  12.678 -0.3250  0.2007  0.0670
  542TMC3     O 8099   2.690   3.676  12.697  0.4749  0.8628 -0.2601
  542TMC3     H 8100   2.714   3.657  12.462 -0.7939 -0.0845  1.4636
  542TMC3    H1 8101   2.514   4.020  12.594  1.5809  0.0426  1.2377
  542TMC3    H2 8102   2.476   3.884  12.203  1.3353  1.8752 -0.3338
  542TMC3    C7 8103   2.411   4.071  12.376 -0.0753  0.3420 -0.6796
  542TMC3    C8 8104   2.693   3.754  12.211 -0.0223 -0.5291 -0.3425
  542TMC3    O1 8105   2.425   4.174  12.437  0.1576  0.2590  0.0310
  542TMC3    O2 8106   2.645   3.777  12.099  0.2596 -0.0873 -0.5581
  543TMC3    C1 8107   2.053   0.831  17.441 -0.7000  0.2814 -0.5438
  543TMC3    C2 8108   2.099   0.710  17.492  0.3361 -0.1742  0.5495
  543TMC3    C3 8109   2.011   0.644  17.568 -0.3024 -0.3586  0.2617
  543TMC3    C4 8110   1.930   0.894  17.476 -0.2330 -1.0328  0.6628
  543TMC3    C5 8111   1.840   0.812  17.548  0.0899 -1.1254 -0.2575
  543TMC3    C6 8112   1.885   0.692  17.591  0.5892 -0.7310 -0.1692
  543TMC3     C 8113   2.091   0.837  17.300  0.9789 -0.6726 -0.8442
  543TMC3     O 8114   2.178   0.764  17.259  0.4198 -0.1321  0.3186
  543TMC3     H 8115   2.181   0.651  17.451  0.0772 -0.6001  0.6504
  543TMC3    H1 8116   1.896   0.992  17.445  1.4429 -1.1133 -1.4402
  543TMC3    H2 8117   1.805   0.629  17.627  1.0063 -1.4412 -0.4882
  543TMC3    C7 8118   1.726   0.864  17.620  0.0075 -0.4813  0.3076
  543TMC3    C8 8119   2.030   0.497  17.571 -0.2516  0.0155 -0.8528
  543TMC3    O1 8120   1.678   0.798  17.711  0.3224  0.1957 -0.2434
  543TMC3    O2 8121   2.131   0.450  17.520  0.1331  0.2042 -0.2666
  544MPD2     C 8122   1.835   0.032  17.681 -0.6522  0.5303  0.0214
  544MPD2    C1 8123   1.946   0.057  17.612  0.2931  0.2833  0.6619
  544MPD2    C2 8124   1.987   0.189  17.597 -0.0639  0.2939  0.3847
  544MPD2    C3 8125   1.925   0.295  17.668 -0.4291 -0.5462  0.4507
  544MPD2    C4 8126   1.816   0.262  17.741 -0.5181 -0.0913  0.1925
  544MPD2    C5 8127   1.770   0.132  17.747 -0.2404 -0.1052  0.6313
  544MPD2     H 8128   2.073   0.213  17.536 -0.5677  2.8822  0.7012
  544MPD2    H1 8129   1.754   0.341   0.030  1.4216  1.4848  0.0659
  544MPD2    H2 8130   1.799   4.669  17.691  1.4832 -0.0856  1.4994
  544MPD2    H3 8131   1.682   0.114   0.054 -0.9243  0.3145 -0.2627
  544MPD2     N 8132   1.946   0.430  17.656 -0.9103 -0.2912 -0.3238
  544MPD2    H5 8133   1.881   0.491  17.706 -0.9383  1.3795 -2.3533
  544MPD2    N1 8134   2.004   4.690  17.542  0.2940  0.0521 -0.0585
  544MPD2    H7 8135   1.957   4.601  17.555  0.3754  0.1208  0.7198
  545TMC3    C1 8136   2.105   4.582  17.371 -0.6127  0.4897 -1.2633
  545TMC3    C2 8137   2.222   4.503  17.376 -0.0936  0.2668 -0.3494
  545TMC3    C3 8138   2.213   4.373  17.327 -0.5597 -0.1241  0.2528
  545TMC3    C4 8139   1.993   4.536  17.309  0.4836  0.1791  0.0574
  545TMC3    C5 8140   1.985   4.405  17.274 -0.4009 -0.3071  0.3949
  545TMC3    C6 8141   2.098   4.323  17.282 -0.2586 -0.2387 -0.7384
  545TMC3     C 8142   2.110   4.698  17.456  0.1399  0.0353 -0.4546
  545TMC3     O 8143   2.210   0.031  17.461  0.5029 -0.4477 -0.1931
  545TMC3     H 8144   2.308   4.550  17.421 -0.9137 -0.0486  1.5371
  545TMC3    H1 8145   1.907   4.596  17.335 -0.2767 -0.0956 -1.8203
  545TMC3    H2 8146   2.099   4.226  17.233 -0.0344  0.0018 -1.2169
  545TMC3    C7 8147   1.853   4.347  17.262  0.7039  0.5317  0.9657
  545TMC3    C8 8148   2.312   4.267  17.351 -0.3007 -0.2886  0.4798
  545TMC3    O1 8149   1.766   4.404  17.198  0.1002  1.1628  0.0001
  545TMC3    O2 8150   2.272   4.152  17.353 -0.6767 -0.4389  0.4304
  546MPD2     C 8151   3.256   0.367  17.744  0.2878 -0.2019  0.0983
  546MPD2    C1 8152   3.205   0.404  17.616  0.0386 -0.1857  0.2790
  546MPD2    C2 8153   3.238   0.524  17.556 -0.0915  0.6152  0.4792
  546MPD2    C3 8154   3.327   0.614  17.614 -0.2574 -0.3369  0.1994
  546MPD2    C4 8155   3.368   0.587  17.739 -0.6394 -0.3479  0.2121
  546MPD2    C5 8156   3.335   0.468   0.043  0.5529 -0.5536 -0.9507
  546MPD2     H 8157   3.205   0.548  17.455  1.3816 -0.3643 -0.2364
  546MPD2    H1 8158   3.434   0.650   0.044 -0.6926 -1.3079  1.3413
  546MPD2    H2 8159   3.236   0.273   0.039  0.0604  0.2889  0.9521
  546MPD2    H3 8160   3.381   0.435   0.136  0.7382 -0.1990 -0.9183
  546MPD2     N 8161   3.368   0.741  17.560 -0.6122 -0.0813 -1.0797
  546MPD2    H5 8162   3.406   0.812  17.622 -0.4609  0.1227 -1.4042
  546MPD2    N1 8163   3.141   0.295  17.542  0.3403  0.0149  0.0911
  546MPD2    H7 8164   3.148   0.207  17.592  1.4194  0.2408  0.3258
  547TMC3    C1 8165   3.008   0.198  17.375  0.3547 -0.2104  0.0009
  547TMC3    C2 8166   2.950   0.202  17.251  0.4538 -0.2386  0.4401
  547TMC3    C3 8167   2.875   0.101  17.199  0.2659 -0.1111  0.3533
  547TMC3    C4 8168   2.993   0.086  17.455 -0.4974  0.0657  0.2951
  547TMC3    C5 8169   2.924   4.718  17.403  0.4247 -0.6360 -0.0040
  547TMC3    C6 8170   2.872   4.719  17.273 -0.1683 -0.5296 -0.2344
  547TMC3     C 8171   3.056   0.314  17.436 -0.1541  0.5475  0.5904
  547TMC3     O 8172   3.018   0.420  17.386  0.6203  0.6389  0.0831
  547TMC3     H 8173   2.979   0.284  17.186 -1.0701 -0.2328 -0.2273
  547TMC3    H1 8174   3.004   0.095  17.562 -1.9711  0.8655  0.3760
  547TMC3    H2 8175   2.823   4.628  17.239  2.6084 -1.6901 -1.1157
  547TMC3    C7 8176   2.895   4.617  17.495  0.0817 -0.0796 -0.1318
  547TMC3    C8 8177   2.801   0.122  17.075  0.1505 -0.1160  0.8227
  547TMC3    O1 8178   2.776   4.592  17.504  0.1945  0.1725 -0.5410
  547TMC3    O2 8179   2.776   0.237  17.039  0.4501  0.0979  0.2135
  548MPD2     C 8180   3.539   0.794  12.989  0.6147 -0.5226 -0.5251
  548MPD2    C1 8181   3.460   0.680  12.952  0.0481  0.2349  0.0190
  548MPD2    C2 8182   3.520   0.590  12.871 -0.2110  0.4761 -0.4023
  548MPD2    C3 8183   3.649   0.603  12.822  0.0413  0.3158  0.7985
  548MPD2    C4 8184   3.718   0.711  12.866 -0.3960 -0.0073  0.0705
  548MPD2    C5 8185   3.662   0.807  12.941  0.3679  0.1263  0.3069
  548MPD2     H 8186   3.470   0.501  12.836  1.7792 -1.1246  0.7867
  548MPD2    H1 8187   3.818   0.733  12.828  0.1232  0.4321  1.7067
  548MPD2    H2 8188   3.490   0.868  13.050 -1.1883  0.1363 -2.7913
  548MPD2    H3 8189   3.714   0.900  12.959  0.8409 -0.4483  1.9886
  548MPD2     N 8190   3.692   0.508  12.729  0.3155 -0.7176 -0.1411
  548MPD2    H5 8191   3.618   0.462  12.677  0.8393 -0.5962 -0.9809
  548MPD2    N1 8192   3.330   0.675  13.007  0.2163 -0.1615  0.2845
  548MPD2    H7 8193   3.293   0.765  13.038  1.1751  0.5243 -0.5615
  549TMC3    C1 8194   3.100   0.630  12.969 -0.8828  0.1165 -0.3663
  549TMC3    C2 8195   3.080   0.747  12.900 -0.3982  0.1937  0.2123
  549TMC3    C3 8196   2.956   0.775  12.849  0.4346 -0.0831  1.0840
  549TMC3    C4 8197   2.991   0.537  12.983 -0.0474  0.6597 -0.0667
  549TMC3    C5 8198   2.868   0.581  12.950 -0.0021 -0.2454 -0.2613
  549TMC3    C6 8199   2.854   0.697  12.881 -0.0783 -0.3087  0.5048
  549TMC3     C 8200   3.239   0.578  12.973 -0.4443 -0.1476  0.9138
  549TMC3     O 8201   3.259   0.463  12.939 -0.4721 -0.3605  0.4577
  549TMC3     H 8202   3.167   0.804  12.870 -0.5940 -0.0554 -0.8621
  549TMC3    H1 8203   3.005   0.444  13.038 -1.8671  1.0618  1.0671
  549TMC3    H2 8204   2.755   0.719  12.842  0.7519  1.9661 -0.3461
  549TMC3    C7 8205   2.758   0.487  12.972  0.1395  0.1560 -0.4691
  549TMC3    C8 8206   2.930   0.887  12.760  0.4570 -0.2914  0.1111
  549TMC3    O1 8207   2.645   0.524  12.992 -0.0524  0.3686  0.0214
  549TMC3    O2 8208   2.813   0.898  12.728 -0.3412 -0.7633  0.2997
  550TMC3    C1 8209   2.005   3.098  12.763  0.0741 -0.2096 -0.2465
  550TMC3    C2 8210   1.964   3.169  12.877 -0.1869 -0.2692 -0.6255
  550TMC3    C3 8211   2.074   3.223  12.942  0.7170  0.4734 -0.2215
  550TMC3    C4 8212   2.135   3.077  12.729  0.0276 -0.2286 -0.3817
  550TMC3    C5 8213   2.243   3.120  12.799  0.2052 -0.0899  0.1090
  550TMC3    C6 8214   2.204   3.205  12.904  0.4534  0.1171  0.0112
  550TMC3     C 8215   1.923   3.135  12.652 -0.1583  0.2398  0.1061
  550TMC3     O 8216   1.805   3.098  12.663 -0.4946  0.0209  0.1817
  550TMC3     H 8217   1.861   3.193  12.899 -0.3176 -0.1091 -1.4131
  550TMC3    H1 8218   2.147   3.032  12.631  0.3858 -0.4644 -0.2298
  550TMC3    H2 8219   2.282   3.255  12.961  0.0351  0.9903 -0.1794
  550TMC3    C7 8220   2.345   3.171  12.713  0.1677  0.1330  1.0626
  550TMC3    C8 8221   2.056   3.357  12.954  0.9190 -0.5676 -0.3020
  550TMC3    O1 8222   2.393   3.100  12.628  0.1497 -0.1375  0.3125
  550TMC3    O2 8223   2.130   3.428  12.891 -0.7014  0.0705 -0.2647
  551TMC3    C1 8224   4.148   1.485  13.490  0.1210 -0.2186  0.1968
  551TMC3    C2 8225   4.233   1.375  13.505  0.3858  0.6358  0.4845
  551TMC3    C3 8226   4.327   1.378  13.599 -1.0785 -1.1733  0.2385
  551TMC3    C4 8227   4.148   1.593  13.567 -0.2929 -0.1110  0.7448
  551TMC3    C5 8228   4.232   1.582  13.678 -0.3497 -1.1120 -0.3826
  551TMC3    C6 8229   4.318   1.474  13.701 -0.4898 -0.1684  0.2492
  551TMC3     C 8230   4.057   1.482  13.380 -0.2192  0.6642  0.3950
  551TMC3     O 8231   4.009   1.374  13.345  0.0895  0.2720  0.5290
  551TMC3     H 8232   4.222   1.304  13.424 -0.9293  0.5579  0.7172
  551TMC3    H1 8233   4.070   1.668  13.563  1.1937  1.4015  0.4736
  551TMC3    H2 8234   4.382   1.482  13.788  1.4886  2.0905 -1.4338
  551TMC3    C7 8235   4.244   1.700  13.768 -0.0603 -0.0358 -0.0690
  551TMC3    C8 8236   4.456   1.398  13.523  0.0866 -0.1939  0.3320
  551TMC3    O1 8237   4.285   1.677  13.881 -0.1523 -0.0302  0.6934
  551TMC3    O2 8238   4.441   1.347  13.412  1.0430  0.5675  0.2252
  552MPD2     C 8239   1.618   3.077  14.421  0.3967  0.1234 -0.7629
  552MPD2    C1 8240   1.748   3.114  14.395 -0.1715 -0.5752  0.2091
  552MPD2    C2 8241   1.826   3.161  14.502 -0.0470 -0.5179  0.1040
  552MPD2    C3 8242   1.784   3.144  14.637  0.4160  0.9150 -0.4183
  552MPD2    C4 8243   1.665   3.084  14.661 -0.2585  0.5290  0.1461
  552MPD2    C5 8244   1.584   3.055  14.549  0.3485 -0.4058 -0.6283
  552MPD2     H 8245   1.921   3.206  14.477  0.0850 -2.6434 -3.2109
  552MPD2    H1 8246   1.632   3.052  14.759  3.1172 -0.9816  0.7876
  552MPD2    H2 8247   1.541   3.036  14.357  0.0713 -0.9409  0.3057
  552MPD2    H3 8248   1.485   3.010  14.555  0.9769 -1.9671 -1.9479
  552MPD2     N 8249   1.858   3.185  14.751  0.5940 -0.3345 -0.3300
  552MPD2    H5 8250   1.836   3.138  14.838 -2.4029  1.2743 -0.2263
  552MPD2    N1 8251   1.800   3.119  14.266 -0.0005  0.5103  0.1998
  552MPD2    H7 8252   1.887   3.170  14.254 -0.6217  1.9755  1.9399
  553TMC3    C1 8253   1.846   3.045  14.055  0.2266 -1.6850 -0.7395
  553TMC3    C2 8254   1.804   3.013  13.928  0.9798 -0.3275 -0.5014
  553TMC3    C3 8255   1.894   2.968  13.830 -0.6288  0.3877  0.0494
  553TMC3    C4 8256   1.977   3.038  14.093  0.1066  0.1817 -0.0627
  553TMC3    C5 8257   2.060   2.986  13.999  0.4521  1.2561 -1.1156
  553TMC3    C6 8258   2.021   2.956  13.865 -0.4788 -0.6671  0.2139
  553TMC3     C 8259   1.746   3.059  14.157  0.2802  0.4616  0.0487
  553TMC3     O 8260   1.629   3.016  14.142 -0.1358 -0.0691 -0.2468
  553TMC3     H 8261   1.698   3.031  13.912  1.3007  0.4713 -1.7447
  553TMC3    H1 8262   2.020   3.061  14.191 -1.3973 -0.2609  0.6970
  553TMC3    H2 8263   2.087   2.907  13.794 -0.5035  1.4421 -1.2608
  553TMC3    C7 8264   2.195   2.959  14.035 -0.0520  0.0380 -0.7938
  553TMC3    C8 8265   1.857   2.927  13.694 -0.2824  0.5762  0.5973
  553TMC3    O1 8266   2.252   3.046  14.096 -0.0300  0.5962 -0.0248
  553TMC3    O2 8267   1.951   2.903  13.617  0.3524  0.7612 -0.0588
  554TMC3    C1 8268   3.910   2.424  11.411 -0.0977  0.2232  0.1059
  554TMC3    C2 8269   3.898   2.334  11.312  0.1024  0.4536 -0.2478
  554TMC3    C3 8270   3.918   2.382  11.184  0.4332 -0.2011 -0.4824
  554TMC3    C4 8271   3.938   2.560  11.391 -0.1623 -0.5875 -0.1885
  554TMC3    C5 8272   3.949   2.604  11.261 -0.4976 -0.1198  0.7347
  554TMC3    C6 8273   3.943   2.515  11.157  0.6633 -0.4070 -0.3206
  554TMC3     C 8274   3.908   2.394  11.554 -0.5482 -0.2696  0.1324
  554TMC3     O 8275   3.872   2.486  11.622 -0.5292 -0.9764  0.5103
  554TMC3     H 8276   3.881   2.228  11.327  0.3987  0.8087  2.6648
  554TMC3    H1 8277   3.974   2.623  11.471 -1.8744  0.0211  0.0904
  554TMC3    H2 8278   3.923   2.551  11.057 -2.9077  1.4166  1.0456
  554TMC3    C7 8279   3.970   2.744  11.235 -0.0337  0.1894  0.3156
  554TMC3    C8 8280   3.867   2.301  11.079 -0.2460 -0.0714 -0.3477
  554TMC3    O1 8281   4.021   2.764  11.125  0.1442 -0.1706  0.1073
  554TMC3    O2 8282   3.925   2.319  10.973  0.3546 -0.4757 -0.2381
  555TMC3    C1 8283   2.280   2.574  15.289  0.5686 -0.1398 -0.4385
  555TMC3    C2 8284   2.206   2.624  15.385  0.5778  0.2142 -0.0736
  555TMC3    C3 8285   2.237   2.605  15.514  0.1232 -0.3477  0.3411
  555TMC3    C4 8286   2.393   2.504  15.324  0.3339 -0.7476 -0.0613
  555TMC3    C5 8287   2.421   2.486  15.458 -0.2336 -0.7004 -0.7800
  555TMC3    C6 8288   2.340   2.524  15.562  0.1334 -0.2052  0.1815
  555TMC3     C 8289   2.305   2.667  15.180  0.5170  0.2348 -0.0321
  555TMC3     O 8290   2.423   2.681  15.137  0.3300 -0.1006  0.7015
  555TMC3     H 8291   2.134   2.700  15.358 -0.1968 -0.6299 -0.3870
  555TMC3    H1 8292   2.466   2.474  15.251  1.5256 -1.6643  1.4981
  555TMC3    H2 8293   2.341   2.482  15.662 -1.4738 -1.0651 -0.1672
  555TMC3    C7 8294   2.513   2.381  15.489  0.0705  0.0475 -0.6273
  555TMC3    C8 8295   2.131   2.639  15.603 -0.4796 -0.0336  0.7232
  555TMC3    O1 8296   2.484   2.312  15.582  0.3675  0.1865  0.1467
  555TMC3    O2 8297   2.026   2.678  15.557 -0.5644  0.4111 -0.4382
  556MPD2     C 8298   1.044   3.993  10.853 -0.0347  0.2852  0.2995
  556MPD2    C1 8299   1.019   3.876  10.922 -0.1398 -0.6488 -0.5100
  556MPD2    C2 8300   0.981   3.763  10.847 -0.3517  0.1827  0.2333
  556MPD2    C3 8301   0.968   3.778  10.710  0.7056  0.0060 -0.5379
  556MPD2    C4 8302   0.998   3.895  10.648 -0.1524 -0.0789 -1.0376
  556MPD2    C5 8303   1.027   4.004  10.724 -0.1104  0.2827  0.5081
  556MPD2     H 8304   0.955   3.669  10.895 -0.2056 -1.4361 -2.8273
  556MPD2    H1 8305   0.986   3.927  10.545 -0.2339  1.9835 -0.3833
  556MPD2    H2 8306   1.057   4.090  10.900 -1.1587  0.5978 -0.0091
  556MPD2    H3 8307   1.051   4.099  10.678 -1.5882  0.3277 -0.1767
  556MPD2     N 8308   0.927   3.665  10.642  0.5271  0.1527  0.3942
  556MPD2    H5 8309   0.899   3.589  10.703  0.6047 -2.5721 -2.9353
  556MPD2    N1 8310   1.028   3.867  11.069  0.0993  0.4835 -0.1305
  556MPD2    H7 8311   0.981   3.790  11.115 -1.1053  0.7796 -0.8433
  557TMC3    C1 8312   0.849   3.533  10.467  0.2193 -0.5692 -0.7208
  557TMC3    C2 8313   0.898   3.455  10.366  0.0706 -0.4445 -0.3255
  557TMC3    C3 8314   0.815   3.361  10.328 -0.7849  0.0957 -0.2499
  557TMC3    C4 8315   0.726   3.524  10.522  0.1829  0.3714  0.3106
  557TMC3    C5 8316   0.652   3.415  10.493  0.2986  0.7844 -0.7166
  557TMC3    C6 8317   0.702   3.328  10.400  0.5774 -0.2488 -1.0416
  557TMC3     C 8318   0.930   3.645  10.505  0.8404  0.1338 -0.8660
  557TMC3     O 8319   0.979   3.719  10.423  0.1133  0.7868 -0.2153
  557TMC3     H 8320   0.997   3.480  10.329  0.2152  0.8455  0.8976
  557TMC3    H1 8321   0.695   3.590  10.602 -0.7254 -0.1636  0.3972
  557TMC3    H2 8322   0.657   3.229  10.401  0.4666 -0.1899  0.2825
  557TMC3    C7 8323   0.552   3.375  10.588  0.7818 -0.5574 -0.2395
  557TMC3    C8 8324   0.866   3.276  10.222  0.7605 -0.3289  0.7915
  557TMC3    O1 8325   0.512   3.458  10.667 -0.5800  0.0366  0.4831
  557TMC3    O2 8326   0.990   3.275  10.202 -0.0202 -0.2484  0.3022
  558TMC3    C1 8327   3.237   1.449  10.632  0.8684  0.7286 -0.1691
  558TMC3    C2 8328   3.131   1.383  10.688 -0.4156 -0.0462 -0.1497
  558TMC3    C3 8329   3.011   1.424  10.630  0.5357  0.7052 -0.3556
  558TMC3    C4 8330   3.228   1.530  10.518 -0.2560 -0.1703 -0.1085
  558TMC3    C5 8331   3.119   1.545  10.450 -0.0578 -0.2768  0.1893
  558TMC3    C6 8332   3.003   1.504  10.516 -0.1970 -0.0313 -0.7742
  558TMC3     C 8333   3.372   1.460  10.693 -0.6259 -0.1347  0.7184
  558TMC3     O 8334   3.465   1.509  10.630 -0.2467  0.2831 -0.2252
  558TMC3     H 8335   3.129   1.316  10.774 -3.0870  0.4897  0.2084
  558TMC3    H1 8336   3.321   1.566  10.475  0.2131  2.4483  3.0807
  558TMC3    H2 8337   2.909   1.520  10.465 -1.0237  5.2969  2.3763
  558TMC3    C7 8338   3.111   1.633  10.337  0.3926 -0.4780 -0.1516
  558TMC3    C8 8339   2.886   1.404  10.698  0.4179 -0.7663  0.2731
  558TMC3    O1 8340   3.217   1.668  10.283  0.5150  0.2785  0.0386
  558TMC3    O2 8341   2.779   1.417  10.635  0.3217 -0.0051 -0.0286
  559MPD2     C 8342   3.117   1.957  10.495 -0.0837 -0.3335  0.2077
  559MPD2    C1 8343   3.107   1.866  10.602 -0.3902  0.3796 -0.0277
  559MPD2    C2 8344   3.232   1.834  10.661 -0.2519  0.2742 -0.3847
  559MPD2    C3 8345   3.349   1.884  10.611  0.1590  0.0750  0.6050
  559MPD2    C4 8346   3.351   1.963  10.497  0.1361  0.7136  0.5042
  559MPD2    C5 8347   3.236   1.994  10.443  0.4819  0.0915 -0.3352
  559MPD2     H 8348   3.238   1.762  10.742  0.1504  1.9049  1.0251
  559MPD2    H1 8349   3.442   2.007  10.456  0.5554  0.7346  1.4557
  559MPD2    H2 8350   3.029   2.006  10.456 -1.3313 -2.9826 -0.2443
  559MPD2    H3 8351   3.237   2.069  10.365 -1.2534  1.8017  1.2970
  559MPD2     N 8352   3.461   1.853  10.694  0.2143 -0.5528 -0.0602
  559MPD2    H5 8353   3.436   1.794  10.772  1.2740 -2.2994 -1.0440
  559MPD2    N1 8354   2.982   1.830  10.651  0.7245  0.3418  0.2894
  559MPD2    H7 8355   2.899   1.875  10.614  0.3874 -1.4660 -1.1062
  560TMC3    C1 8356   3.667   1.891  10.808 -0.1675  0.1964  0.2527
  560TMC3    C2 8357   3.630   1.790  10.899 -0.3479 -0.0008 -0.1214
  560TMC3    C3 8358   3.707   1.778  11.010 -0.5222 -0.5190  0.3727
  560TMC3    C4 8359   3.785   1.964  10.826 -0.0355 -0.2976 -0.6170
  560TMC3    C5 8360   3.862   1.944  10.938  0.0530  0.9908  0.8417
  560TMC3    C6 8361   3.825   1.844  11.030 -1.3437 -0.2603 -0.0976
  560TMC3     C 8362   3.582   1.920  10.691 -0.9993 -0.3659  0.0102
  560TMC3     O 8363   3.625   1.997  10.605 -0.1456 -0.4170  0.0986
  560TMC3     H 8364   3.545   1.723  10.891 -0.6571  0.3751 -0.0168
  560TMC3    H1 8365   3.821   2.036  10.754 -0.9735  0.5781 -0.2014
  560TMC3    H2 8366   3.880   1.824  11.121 -1.3199  0.2723  0.0058
  560TMC3    C7 8367   4.006   1.951  10.923  0.0373 -0.1980 -0.0347
  560TMC3    C8 8368   3.623   1.748  11.127 -0.8161  0.4496  0.0864
  560TMC3    O1 8369   4.052   1.848  10.969 -0.3439 -0.0263 -0.1388
  560TMC3    O2 8370   3.526   1.815  11.142 -0.2345  0.0488  0.0226
  561TMC3    C1 8371   1.172   1.228  11.165 -0.2713  0.5397  0.3137
  561TMC3    C2 8372   1.108   1.161  11.262 -0.3244 -0.6251  0.2884
  561TMC3    C3 8373   1.017   1.232  11.331 -0.5488 -0.4376  0.0996
  561TMC3    C4 8374   1.150   1.362  11.129 -0.5588  0.0101 -0.7933
  561TMC3    C5 8375   1.059   1.427  11.199  0.8808 -0.0318  0.4084
  561TMC3    C6 8376   0.991   1.365  11.302  0.2806  0.5538 -0.6773
  561TMC3     C 8377   1.274   1.157  11.086 -0.3302 -0.6334 -0.5677
  561TMC3     O 8378   1.306   1.212  10.981  0.6419 -0.0446 -0.0772
  561TMC3     H 8379   1.123   1.055  11.280  1.3234 -0.0970  1.9545
  561TMC3    H1 8380   1.203   1.409  11.048 -1.0579  3.2100  0.7332
  561TMC3    H2 8381   0.903   1.408  11.348  2.7456  1.6054  3.0607
  561TMC3    C7 8382   1.093   1.564  11.231  0.8099 -0.7997  0.2328
  561TMC3    C8 8383   0.952   1.170  11.444 -0.3453  0.4138  0.4200
  561TMC3    O1 8384   1.028   1.607  11.323 -0.1963 -0.0137 -1.0854
  561TMC3    O2 8385   0.972   1.047  11.455 -0.7064  0.0115 -0.1027
  562TMC3    C1 8386   1.682   2.312  16.701 -0.0543 -0.0688  0.0298
  562TMC3    C2 8387   1.635   2.435  16.669 -0.0949  0.0400 -0.3213
  562TMC3    C3 8388   1.625   2.458  16.535 -0.2487 -0.0054 -0.2336
  562TMC3    C4 8389   1.702   2.208  16.605 -0.1914  0.0724  0.2408
  562TMC3    C5 8390   1.690   2.240  16.479  0.3701 -0.5599  0.6085
  562TMC3    C6 8391   1.649   2.365  16.439  0.1424 -0.0471 -0.4333
  562TMC3     C 8392   1.684   2.256  16.837  0.2960  0.7004 -0.5163
  562TMC3     O 8393   1.746   2.151  16.859  0.2961 -0.3521 -0.3961
  562TMC3     H 8394   1.609   2.513  16.740  0.2752 -0.4075  0.3084
  562TMC3    H1 8395   1.716   2.106  16.639  1.7472  0.9750  2.2246
  562TMC3    H2 8396   1.652   2.390  16.333 -1.1348  0.9462 -0.2233
  562TMC3    C7 8397   1.776   2.143  16.400  0.0108  0.6287 -0.8045
  562TMC3    C8 8398   1.665   2.590  16.496 -0.4570  0.3043  0.8271
  562TMC3    O1 8399   1.867   2.080  16.453 -0.2801  0.5672 -0.3830
  562TMC3    O2 8400   1.731   2.651  16.581  0.1271 -0.1797  0.5954
  563MPD2     C 8401   4.642   4.047  15.538  0.5627  0.4760 -0.7503
  563MPD2    C1 8402   4.619   4.001  15.668 -0.3737 -0.3180  0.4314
  563MPD2    C2 8403   4.688   3.885  15.711  0.1810 -0.3534 -0.0217
  563MPD2    C3 8404   0.037   3.823  15.625  0.4339  0.5326  0.2308
  563MPD2    C4 8405   0.074   3.882  15.506 -0.1011 -0.0703  0.1073
  563MPD2    C5 8406   4.735   3.979  15.455 -0.4074  0.0278 -0.6632
  563MPD2     H 8407   4.662   3.830  15.801 -0.3030  2.0794  1.3254
  563MPD2    H1 8408   0.142   3.834  15.438  0.4916  0.3874  0.3797
  563MPD2    H2 8409   4.588   4.136  15.507  0.1236  0.9929  1.5102
  563MPD2    H3 8410   0.006   4.011  15.352  1.7731  1.5624  0.0167
  563MPD2     N 8411   0.104   3.713  15.677 -0.3621 -0.3851  0.0127
  563MPD2    H5 8412   0.074   3.680  15.769 -1.4304  1.1226  0.1963
  563MPD2    N1 8413   4.534   4.071  15.758 -0.2331 -0.1898  0.1404
  563MPD2    H7 8414   4.488   4.155  15.726  0.5411 -0.5569 -1.9218
  564TMC3    C1 8415   4.417   4.119  15.951  0.7122 -0.1782 -0.0175
  564TMC3    C2 8416   4.296   4.092  15.895 -0.6900  0.1416  0.2549
  564TMC3    C3 8417   4.193   4.047  15.967  0.0248 -0.4195 -0.5130
  564TMC3    C4 8418   4.433   4.109  16.086 -0.0844  0.3899 -0.5481
  564TMC3    C5 8419   4.329   4.054  16.167  0.9674 -0.9213  0.5677
  564TMC3    C6 8420   4.210   4.025  16.102  0.1192 -0.0870  0.1138
  564TMC3     C 8421   4.521   4.046  15.888 -0.2110 -0.2563 -0.6014
  564TMC3     O 8422   4.582   3.967  15.960  0.3485 -0.0774 -0.7261
  564TMC3     H 8423   4.293   4.092  15.787 -1.0330 -1.2806  0.2700
  564TMC3    H1 8424   4.534   4.107  16.127 -0.4379 -1.0329  0.2602
  564TMC3    H2 8425   4.127   3.982  16.156  1.3370  1.6334  3.3923
  564TMC3    C7 8426   4.384   3.948  16.241  0.2781 -0.1228 -0.7201
  564TMC3    C8 8427   4.135   3.923  15.905  0.0641 -0.2120 -0.0535
  564TMC3    O1 8428   4.489   3.964  16.304 -0.5235 -0.5265  0.0207
  564TMC3    O2 8429   4.106   3.839  15.987  0.1429  0.2638 -0.1803
  565TMC3    C1 8430   0.656   0.249  10.274  0.5916 -0.5717 -0.0726
  565TMC3    C2 8431   0.679   0.218  10.410  1.1972  0.9217 -0.5731
  565TMC3    C3 8432   0.607   0.113  10.449 -0.3359  0.9985  0.5732
  565TMC3    C4 8433   0.592   0.158  10.190  0.2615 -0.1679  0.4140
  565TMC3    C5 8434   0.549   0.037  10.240 -0.1721 -0.6168 -0.3348
  565TMC3    C6 8435   0.549   0.018  10.375  0.3929 -0.1074 -0.3690
  565TMC3     C 8436   0.697   0.380  10.218 -0.5787 -0.8170 -0.3082
  565TMC3     O 8437   0.642   0.416  10.114 -0.7128  0.0439  0.4974
  565TMC3     H 8438   0.726   0.292  10.474 -0.2445  1.8106 -0.5228
  565TMC3    H1 8439   0.592   0.179  10.084  0.4186 -0.2657  0.3964
  565TMC3    H2 8440   0.532   4.657  10.411  2.0645 -1.6089 -3.7056
  565TMC3    C7 8441   0.477   4.682  10.152 -0.4050  0.3042 -0.3262
  565TMC3    C8 8442   0.617   0.089  10.595  0.1644  0.0612  0.1426
  565TMC3    O1 8443   0.491   4.706  10.035 -0.0120 -0.2750  0.0618
  565TMC3    O2 8444   0.685   0.152  10.668 -0.1316 -0.4347 -0.0761
  566MPD2     C 8445   1.880   2.053  14.086  0.0994  0.6634  0.3345
  566MPD2    C1 8446   1.971   2.059  13.983  0.1203 -0.5894 -0.0205
  566MPD2    C2 8447   1.930   2.011  13.859  0.3721  0.3362 -0.0795
  566MPD2    C3 8448   1.816   1.937  13.839 -0.2412  0.1677  0.0954
  566MPD2    C4 8449   1.727   1.939  13.945 -0.2259 -0.5015 -0.3163
  566MPD2    C5 8450   1.757   1.997  14.062 -0.4531 -1.0942 -1.0776
  566MPD2     H 8451   2.001   2.015  13.777 -0.1302 -1.8175 -0.6199
  566MPD2    H1 8452   1.634   1.882  13.940 -0.5322  0.0107 -0.4475
  566MPD2    H2 8453   1.911   2.076  14.187 -1.9527  2.2650  0.5959
  566MPD2    H3 8454   1.678   1.994  14.137 -0.6101  2.4978 -1.0893
  566MPD2     N 8455   1.797   1.872  13.721  0.0975  0.2464 -0.4017
  566MPD2    H5 8456   1.855   1.889  13.639  1.2643 -1.0134  0.1595
  566MPD2    N1 8457   2.106   2.100  14.010  0.0991 -0.0088 -0.2128
  566MPD2    H7 8458   2.136   2.110  14.106  2.1860 -0.4380 -0.8275
  567TMC3    C1 8459   2.330   2.122  13.947 -0.2094  0.0001 -0.8832
  567TMC3    C2 8460   2.432   2.171  13.864 -0.6095  0.2945  0.9626
  567TMC3    C3 8461   2.548   2.104  13.864  0.1995  0.3402 -0.8144
  567TMC3    C4 8462   2.356   2.027  14.045 -0.7419  0.0254 -0.2203
  567TMC3    C5 8463   2.478   1.960  14.036  0.3488 -0.1749  0.3379
  567TMC3    C6 8464   2.575   1.995  13.941  0.1588  0.6113  0.8898
  567TMC3     C 8465   2.192   2.146  13.913 -0.2631  0.2263 -0.7759
  567TMC3     O 8466   2.163   2.180  13.797 -0.3584  0.6937 -0.0222
  567TMC3     H 8467   2.412   2.252  13.795 -0.4541  0.8485  1.5742
  567TMC3    H1 8468   2.280   1.973  14.100 -0.5583  1.1723  1.1758
  567TMC3    H2 8469   2.679   1.965  13.936  0.2941  1.2454  0.0270
  567TMC3    C7 8470   2.526   1.920  14.169 -0.2978 -0.1754  0.1893
  567TMC3    C8 8471   2.626   2.122  13.738  0.0105 -0.0665 -0.5789
  567TMC3    O1 8472   2.627   1.850  14.165 -0.0801  0.5313 -0.1104
  567TMC3    O2 8473   2.613   2.237  13.690  0.2404  0.2975  0.1763
  568MPD2     C 8474   4.375   2.557  16.316 -0.3695  0.3586 -0.1136
  568MPD2    C1 8475   4.300   2.640  16.401  0.4777 -0.0906  0.0175
  568MPD2    C2 8476   4.260   2.764  16.352  0.3665  0.2779 -0.2888
  568MPD2    C3 8477   4.286   2.802  16.222 -1.1257  0.0249  0.5536
  568MPD2    C4 8478   4.357   2.717  16.134 -0.0723 -0.0924 -0.1368
  568MPD2    C5 8479   4.402   2.599  16.185  0.1915 -0.4737  0.0721
  568MPD2     H 8480   4.201   2.835  16.409 -0.9155 -0.4910 -0.6756
  568MPD2    H1 8481   4.385   2.736  16.031  0.0481 -0.7574 -0.2307
  568MPD2    H2 8482   4.418   2.460  16.342 -1.5282  0.2499  1.4170
  568MPD2    H3 8483   4.461   2.534  16.122  0.8572  0.4521 -0.2695
  568MPD2     N 8484   4.220   2.922  16.181 -0.1934  0.4412 -0.4607
  568MPD2    H5 8485   4.156   2.972  16.241  0.9269 -0.8525  1.8301
  568MPD2    N1 8486   4.285   2.584  16.533 -0.0053 -0.5857  0.0239
  568MPD2    H7 8487   4.326   2.491  16.538 -1.6687 -1.3393 -0.2810
  569TMC3    C1 8488   4.154   3.092  16.015 -0.4692  0.3296 -0.8905
  569TMC3    C2 8489   4.080   3.153  16.112  0.1294  0.2862 -0.0283
  569TMC3    C3 8490   3.976   3.233  16.072  0.7980 -0.2092  0.1971
  569TMC3    C4 8491   4.135   3.120  15.883  0.3238 -0.6774 -1.3463
  569TMC3    C5 8492   4.020   3.196  15.849  0.3057  0.7106 -0.0752
  569TMC3    C6 8493   3.945   3.258  15.941 -0.6551  0.6147 -0.3691
  569TMC3     C 8494   4.229   2.970  16.047 -0.2098  0.0971 -0.1833
  569TMC3     O 8495   4.278   2.911  15.949 -0.2041 -0.3866  0.3398
  569TMC3     H 8496   4.082   3.124  16.217  0.7116  1.6632  0.3466
  569TMC3    H1 8497   4.199   3.075  15.808 -0.6550 -0.3855 -2.3572
  569TMC3    H2 8498   3.857   3.314  15.911 -0.9799 -0.8532 -2.0994
  569TMC3    C7 8499   4.058   3.289  15.744  0.0069  0.1603 -0.3891
  569TMC3    C8 8500   3.916   3.326  16.167 -0.1028  0.4184 -0.0988
  569TMC3    O1 8501   4.118   3.243  15.647 -0.5291 -0.3869  0.0882
  569TMC3    O2 8502   3.808   3.373  16.130 -0.0712 -0.0318  0.2098
  570TMC3    C1 8503   3.573   1.528  16.126  0.0839 -0.5047 -0.0620
  570TMC3    C2 8504   3.707   1.531  16.099 -0.5405 -1.2353  0.3478
  570TMC3    C3 8505   3.764   1.657  16.071  0.4003  0.0447 -0.5845
  570TMC3    C4 8506   3.507   1.650  16.124  0.1710  1.0293  0.3895
  570TMC3    C5 8507   3.567   1.769  16.081 -0.2872 -0.5295 -0.1517
  570TMC3    C6 8508   3.699   1.777  16.060  0.6623  0.4870  0.3948
  570TMC3     C 8509   3.517   1.422  16.208  0.2273  0.3173  0.4121
  570TMC3     O 8510   3.568   1.317  16.174  0.4578 -0.2218 -0.3345
  570TMC3     H 8511   3.762   1.439  16.119 -0.8315 -1.2217  1.2067
  570TMC3    H1 8512   3.399   1.650  16.138  0.2255  0.0380  0.7960
  570TMC3    H2 8513   3.736   1.869  16.018 -1.4280 -0.6354 -3.8783
  570TMC3    C7 8514   3.502   1.897  16.117 -0.8875 -0.1735 -0.3970
  570TMC3    C8 8515   3.883   1.656  15.994 -0.0529  0.7912  0.1464
  570TMC3    O1 8516   3.382   1.909  16.115  0.0076 -0.1315 -0.5165
  570TMC3    O2 8517   3.878   1.737  15.903 -0.3521  0.1954 -0.8136
  571MPD2     C 8518   0.878   2.840  17.602  0.1646 -0.0175 -0.3612
  571MPD2    C1 8519   0.843   2.955  17.676 -0.1566  0.1235  0.1872
  571MPD2    C2 8520   0.939   3.048  17.691  0.6299  0.1610  0.6161
  571MPD2    C3 8521   1.063   3.042  17.634  0.6105  0.3500 -0.0368
  571MPD2    C4 8522   1.100   2.921  17.577 -0.5910  0.0367  0.0822
  571MPD2    C5 8523   1.006   2.824  17.558 -0.4931  0.1634 -0.4050
  571MPD2     H 8524   0.918   3.132   0.004 -1.5535  0.1325 -0.0388
  571MPD2    H1 8525   1.204   2.895  17.556  0.0207  0.9418  1.9796
  571MPD2    H2 8526   0.807   2.760  17.582 -0.7047  0.8121 -0.6311
  571MPD2    H3 8527   1.036   2.733  17.508  2.0339  0.1154  1.1817
  571MPD2     N 8528   1.164   3.131  17.672  0.2224 -0.5167  0.1673
  571MPD2    H5 8529   1.255   3.107  17.633  0.9184 -0.3091  1.6289
  571MPD2    N1 8530   0.719   2.978  17.735 -0.2348 -0.3784  0.0247
  571MPD2    H7 8531   0.707   3.066   0.031  1.7393  0.9124 -1.8096
  572TMC3    C1 8532   1.275   3.314   0.014 -0.2117  0.0654 -0.4508
  572TMC3    C2 8533   1.371   3.238   0.075  0.4859 -0.4931 -0.2302
  572TMC3    C3 8534   1.442   3.309   0.174  0.6525  0.3444 -0.2309
  572TMC3    C4 8535   1.272   3.455   0.018  0.2229 -0.4821  0.2510
  572TMC3    C5 8536   1.363   3.514   0.096  0.5091 -0.5965 -0.1127
  572TMC3    C6 8537   1.447   3.442   0.181 -0.0511  0.8210  1.2834
  572TMC3     C 8538   1.151   3.244  17.746  0.4954  0.5165  0.1899
  572TMC3     O 8539   1.056   3.313   0.011 -0.1481 -0.3630 -0.0556
  572TMC3     H 8540   1.350   3.133   0.088 -1.8935  0.0144  0.0270
  572TMC3    H1 8541   1.201   3.510  17.711 -0.5734 -0.6281  1.0521
  572TMC3    H2 8542   1.521   3.493   0.242  0.1379  3.4479 -1.1334
  572TMC3    C7 8543   1.397   3.645   0.041  0.0416 -0.2864 -0.2554
  572TMC3    C8 8544   1.509   3.231   0.267  0.0191  0.0128 -0.4753
  572TMC3    O1 8545   1.316   3.700  17.728  0.3376  0.7197 -0.0479
  572TMC3    O2 8546   1.540   3.122   0.232 -0.3289  0.1299 -0.3230
  573MPD2     C 8547   2.025   3.190   0.469  0.6843  0.0545  0.2717
  573MPD2    C1 8548   1.947   3.303   0.449 -0.0372 -0.4841  0.2472
  573MPD2    C2 8549   1.884   3.326   0.326 -0.0164 -0.3341 -0.1505
  573MPD2    C3 8550   1.899   3.231   0.226 -0.6051 -0.1057  0.0356
  573MPD2    C4 8551   1.979   3.119   0.243 -0.1175 -0.4237  0.1299
  573MPD2    C5 8552   2.037   3.099   0.367 -0.0496  0.5115 -0.1263
  573MPD2     H 8553   1.810   3.403   0.306  2.0082  1.6089 -0.1309
  573MPD2    H1 8554   2.007   3.051   0.163 -1.6775 -0.3819 -0.4457
  573MPD2    H2 8555   2.069   3.171   0.566 -0.9183 -2.1185  0.5692
  573MPD2    H3 8556   2.101   3.013   0.383  1.8330  1.8980 -0.2134
  573MPD2     N 8557   1.847   3.251   0.098 -0.2287  0.4110  0.1068
  573MPD2    H5 8558   1.857   3.173   0.034  0.7946 -0.0075  0.7820
  573MPD2    N1 8559   1.935   3.383   0.561 -0.7328 -0.5348 -0.7467
  573MPD2    H7 8560   1.997   3.370   0.640  0.3765 -0.1655 -1.5561
  574TMC3    C1 8561   1.783   3.371  17.651  0.0518  0.1515 -0.2225
  574TMC3    C2 8562   1.715   3.479  17.605  0.1991 -0.6994 -0.2673
  574TMC3    C3 8563   1.759   3.539  17.496  1.0183 -0.5120 -0.3478
  574TMC3    C4 8564   1.896   3.323  17.585  0.3995  0.8617 -0.6912
  574TMC3    C5 8565   1.924   3.382  17.465 -0.5644 -0.8382  0.8269
  574TMC3    C6 8566   1.855   3.490  17.413 -0.4382 -0.3839 -0.4677
  574TMC3     C 8567   1.793   3.368   0.048 -0.0611  0.4645  0.3936
  574TMC3     O 8568   1.732   3.457   0.109 -0.9232  0.4952 -0.3139
  574TMC3     H 8569   1.643   3.531  17.668 -1.9386 -1.2970 -2.2060
  574TMC3    H1 8570   1.938   3.228  17.616 -0.3627  0.6205 -0.3945
  574TMC3    H2 8571   1.878   3.536  17.318 -2.8668  0.1553 -0.7747
  574TMC3    C7 8572   1.997   3.313  17.370  0.5769  0.0367 -0.1761
  574TMC3    C8 8573   1.682   3.655  17.453  0.2911  0.2991  0.7277
  574TMC3    O1 8574   1.981   3.342  17.252 -0.0243 -0.4357 -0.0322
  574TMC3    O2 8575   1.565   3.666  17.480 -0.0772 -0.0224 -0.1125
  575TMC3    C1 8576   1.026   0.078  11.366 -0.2671 -0.3789 -0.7759
  575TMC3    C2 8577   0.982   4.735  11.463 -0.6694  0.2805 -0.3254
  575TMC3    C3 8578   0.863   4.669  11.454  0.4102 -0.2240 -0.0716
  575TMC3    C4 8579   0.954   0.105  11.250 -0.1631  0.2690 -0.8116
  575TMC3    C5 8580   0.839   0.030  11.237  0.3575 -0.1133 -0.1616
  575TMC3    C6 8581   0.786   4.695  11.341 -0.3408 -0.9073 -0.1843
  575TMC3     C 8582   1.163   0.123  11.372  0.6033 -0.0994 -1.1966
  575TMC3     O 8583   1.244   0.062  11.444  0.3902 -0.1749  0.0687
  575TMC3     H 8584   1.040   4.728  11.554 -1.7111 -0.7523  0.2639
  575TMC3    H1 8585   0.982   0.168  11.166 -0.7926  1.1541 -0.3478
  575TMC3    H2 8586   0.694   4.640  11.326 -1.3494  0.7352 -0.0719
  575TMC3    C7 8587   0.782   0.024  11.107 -0.9973 -0.3039  0.4345
  575TMC3    C8 8588   0.816   4.603  11.574  0.2218 -0.4039  0.2430
  575TMC3    O1 8589   0.847   0.070  11.014 -0.0470  0.0913 -0.4353
  575TMC3    O2 8590   0.905   4.545  11.634 -0.6430  0.0084 -0.2773
  576MPD2     C 8591   0.447   1.698  12.719 -0.0068  0.0922  0.6850
  576MPD2    C1 8592   0.422   1.767  12.605 -0.0420  0.1329 -0.6589
  576MPD2    C2 8593   0.345   1.882  12.618  0.4462 -0.4612  0.5809
  576MPD2    C3 8594   0.295   1.930  12.743 -1.2137  0.4609  0.5062
  576MPD2    C4 8595   0.314   1.848  12.851  0.2686 -0.3951 -0.2470
  576MPD2    C5 8596   0.386   1.734  12.833 -0.3038 -0.5242 -0.4104
  576MPD2     H 8597   0.338   1.940  12.526 -1.7693 -2.1293 -0.3119
  576MPD2    H1 8598   0.280   1.876  12.950  1.5798  1.1442 -0.2334
  576MPD2    H2 8599   0.520   1.617  12.726 -0.4153 -0.3936 -0.6066
  576MPD2    H3 8600   0.389   1.664  12.915 -2.3110 -0.8210 -0.5809
  576MPD2     N 8601   0.217   2.049  12.752  0.2320 -0.3553  0.6577
  576MPD2    H5 8602   0.194   2.101  12.668 -0.4329 -3.6345 -1.1874
  576MPD2    N1 8603   0.473   1.741  12.475  0.6841  0.1232  0.2316
  576MPD2    H7 8604   0.450   1.812  12.406 -0.5663  0.1044  0.6261
  577TMC3    C1 8605   0.563   1.624  12.291 -0.2435 -0.5684  0.6699
  577TMC3    C2 8606   0.525   1.505  12.234 -0.0867 -0.0442 -0.1140
  577TMC3    C3 8607   0.560   1.496  12.102 -0.3324  0.6355  0.6183
  577TMC3    C4 8608   0.590   1.742  12.226  0.5769 -0.5576  0.1192
  577TMC3    C5 8609   0.610   1.718  12.091  0.3099  0.2481 -0.7917
  577TMC3    C6 8610   0.606   1.601  12.023 -0.2611  0.7708 -0.7737
  577TMC3     C 8611   0.542   1.633  12.432  0.1393 -0.7437 -0.3500
  577TMC3     O 8612   0.560   1.531  12.499  0.0848 -0.4419 -0.1864
  577TMC3     H 8613   0.493   1.423  12.297  5.1073 -1.6533  0.4389
  577TMC3    H1 8614   0.597   1.834  12.282 -2.1909  0.3033 -0.9312
  577TMC3    H2 8615   0.646   1.590  11.923 -0.5472  0.3249 -0.8376
  577TMC3    C7 8616   0.651   1.835  12.017  0.4955  0.6108 -0.3373
  577TMC3    C8 8617   0.589   1.362  12.049 -0.6360 -0.1994 -0.6658
  577TMC3    O1 8618   0.703   1.924  12.083  0.3137 -0.2082 -0.3942
  577TMC3    O2 8619   0.547   1.262  12.101  0.4875 -0.2676  0.7557
  578MPD2     C 8620   2.194   1.534   0.612  1.0090  0.4610  0.2428
  578MPD2    C1 8621   2.311   1.505   0.549  0.2305  0.5878 -0.5249
  578MPD2    C2 8622   2.411   1.443   0.627  0.6984  0.3140  0.2492
  578MPD2    C3 8623   2.379   1.387   0.750 -0.4586  0.2625  0.3986
  578MPD2    C4 8624   2.255   1.404   0.803 -0.4309 -0.1891  0.2752
  578MPD2    C5 8625   2.162   1.476   0.731  0.1862  0.0126  0.2949
  578MPD2     H 8626   2.512   1.427   0.591  0.3521 -1.9235  0.3214
  578MPD2    H1 8627   2.234   1.349   0.894  1.4990 -3.0256 -0.9785
  578MPD2    H2 8628   2.118   1.582   0.552 -0.3598 -1.1746  0.6647
  578MPD2    H3 8629   2.062   1.489   0.770  0.0650  0.9911 -0.3245
  578MPD2     N 8630   2.468   1.304   0.824  0.4014 -0.3948 -0.2518
  578MPD2    H5 8631   2.450   1.303   0.924 -1.6885  1.6255 -0.6153
  578MPD2    N1 8632   2.334   1.573   0.428 -0.0763  0.0653  0.4982
  578MPD2    H7 8633   2.256   1.628   0.394 -0.6286 -0.9846  0.0717
  579TMC3    C1 8634   2.641   1.135   0.865  0.2220 -0.2045 -0.1042
  579TMC3    C2 8635   2.689   1.197   0.975  0.4218 -0.1573 -0.3502
  579TMC3    C3 8636   2.803   1.147   1.033  0.5069  0.0402 -0.3168
  579TMC3    C4 8637   2.695   1.021   0.814 -0.1234  0.2458  0.0150
  579TMC3    C5 8638   2.808   0.976   0.875  0.3975  0.3613 -0.9196
  579TMC3    C6 8639   2.863   1.031   0.989  0.1297  0.1310  0.1289
  579TMC3     C 8640   2.567   1.222   0.770  0.3992  0.4039 -0.3468
  579TMC3     O 8641   2.585   1.195   0.652  0.2965  0.1847  0.2886
  579TMC3     H 8642   2.642   1.286   1.015  1.1130  0.9996 -2.1112
  579TMC3    H1 8643   2.668   0.988   0.715 -0.6051 -2.5632  1.0846
  579TMC3    H2 8644   2.948   0.984   1.037 -0.8500 -0.7149  1.0309
  579TMC3    C7 8645   2.878   0.865   0.809  0.3520  0.1109 -0.5563
  579TMC3    C8 8646   2.876   1.245   1.109  0.6772  0.0218  0.0577
  579TMC3    O1 8647   2.994   0.853   0.840  1.0328 -0.0053 -0.9034
  579TMC3    O2 8648   2.819   1.344   1.157 -0.4656  0.0552  0.5454
  580TMC3    C1 8649   3.052   0.305  12.646 -0.7976  0.1435 -0.5821
  580TMC3    C2 8650   3.179   0.352  12.636 -0.4986  0.2317 -0.2971
  580TMC3    C3 8651   3.275   0.281  12.560 -0.4630 -0.5856 -0.3961
  580TMC3    C4 8652   3.014   0.193  12.585 -0.4111 -0.4364  0.2612
  580TMC3    C5 8653   3.111   0.124  12.512 -0.8767  0.1050 -0.1511
  580TMC3    C6 8654   3.233   0.177  12.482 -0.1151  0.6211  0.2394
  580TMC3     C 8655   2.956   0.406  12.631  0.2789 -0.4060  0.5851
  580TMC3     O 8656   2.840   0.372  12.626  0.3194  0.5087 -0.3599
  580TMC3     H 8657   3.219   0.436  12.691 -0.5276  0.2582 -0.3170
  580TMC3    H1 8658   2.914   0.152  12.598 -0.8759  0.6330  0.1382
  580TMC3    H2 8659   3.296   0.131  12.406  0.9829  0.4977  1.2158
  580TMC3    C7 8660   3.057   0.024  12.413 -0.3815  0.3375  0.2222
  580TMC3    C8 8661   3.385   0.372  12.510  0.3305  0.6047  0.6280
  580TMC3    O1 8662   3.112   0.026  12.304  0.5169  0.5664 -0.1229
  580TMC3    O2 8663   3.465   0.416  12.590 -0.2818  0.0141  0.1217
  581MPD2     C 8664   0.240   0.107  14.769 -0.2487 -0.3036  0.0282
  581MPD2    C1 8665   0.106   0.136  14.769  0.7143 -0.1884 -0.5477
  581MPD2    C2 8666   0.052   0.213  14.663 -0.3940 -0.5547  0.6665
  581MPD2    C3 8667   0.135   0.251  14.560 -0.2093 -0.8445 -0.4663
  581MPD2    C4 8668   0.272   0.233  14.569 -0.0500 -0.7678 -0.5832
  581MPD2    C5 8669   0.321   0.147  14.663 -0.2771 -0.2759 -0.2363
  581MPD2     H 8670   4.686   0.232  14.648  0.3442  2.7814 -0.2244
  581MPD2    H1 8671   0.338   0.252  14.485 -2.0036  0.0461 -1.9169
  581MPD2    H2 8672   0.278   0.055  14.856  0.4926  0.9875  0.4735
  581MPD2    H3 8673   0.425   0.121  14.653  0.0858  2.4046 -3.1517
  581MPD2     N 8674   0.073   0.319  14.454  0.0170 -0.5083 -0.4267
  581MPD2    H5 8675   4.717   0.353  14.472  0.5558  0.3269  0.8472
  581MPD2    N1 8676   0.031   0.098  14.883  0.7276  0.1906 -0.0381
  581MPD2    H7 8677   0.085   0.045  14.951 -1.2975 -0.7504  0.8163
  582TMC3    C1 8678   4.584   0.089  15.034  0.3331  0.8086  0.1409
  582TMC3    C2 8679   4.666   0.077  15.145 -0.0349 -0.2648 -0.6136
  582TMC3    C3 8680   4.611   0.057  15.262  0.1119 -0.4209  0.3614
  582TMC3    C4 8681   4.450   0.110  15.052 -0.9022  0.5086  0.3521
  582TMC3    C5 8682   4.399   0.104  15.173 -0.6693 -0.4924 -0.3543
  582TMC3    C6 8683   4.474   0.066  15.282  0.5873  0.3373 -0.2778
  582TMC3     C 8684   4.635   0.121  14.904 -0.0681  0.3851 -0.1518
  582TMC3     O 8685   4.558   0.157  14.815 -0.4030 -0.3417 -0.1750
  582TMC3     H 8686   0.036   0.076  15.139 -0.1105 -0.0623 -1.8571
  582TMC3    H1 8687   4.384   0.119  14.966 -0.6941 -0.8725  0.0459
  582TMC3    H2 8688   4.428   0.060  15.380  0.2319  2.2418 -0.3184
  582TMC3    C7 8689   4.335   0.230  15.203 -0.3273 -0.2081 -0.4185
  582TMC3    C8 8690   4.696   0.036  15.384  0.1992 -0.1878 -0.1006
  582TMC3    O1 8691   4.212   0.236  15.193 -0.2055  0.1054 -0.1915
  582TMC3    O2 8692   4.633   0.029  15.490 -0.3452  0.0103 -0.0718
  583MPD2     C 8693   0.680   1.842  16.785  0.1137  0.1567 -0.6545
  583MPD2    C1 8694   0.649   1.912  16.668 -1.0448  0.2414  0.2994
  583MPD2    C2 8695   0.543   1.997  16.665  0.9618  0.3366  0.0564
  583MPD2    C3 8696   0.454   2.008  16.770 -0.1095 -0.4344  0.1082
  583MPD2    C4 8697   0.484   1.931  16.882 -0.1394  0.4519  0.3177
  583MPD2    C5 8698   0.594   1.849  16.890  0.2078 -0.7391  0.3388
  583MPD2     H 8699   0.527   2.044  16.568 -0.6120  1.5420  0.8935
  583MPD2    H1 8700   0.410   1.916  16.960 -0.7188 -0.2142 -0.3558
  583MPD2    H2 8701   0.758   1.766  16.791  0.1042  0.1652 -0.4094
  583MPD2    H3 8702   0.609   1.772  16.965  1.4336 -0.7307  0.1077
  583MPD2     N 8703   0.335   2.079  16.756 -0.5175  0.1069  0.0383
  583MPD2    H5 8704   0.310   2.105  16.661 -2.0535 -0.8956  0.1709
  583MPD2    N1 8705   0.740   1.908  16.559  0.3610  0.4483  0.2190
  583MPD2    H7 8706   0.724   1.977  16.486 -0.7980 -0.3079 -0.2510
  584TMC3    C1 8707   0.162   2.220  16.835 -0.2355 -0.6021  0.2325
  584TMC3    C2 8708   0.209   2.319  16.748  0.0611  0.1705 -0.6573
  584TMC3    C3 8709   0.160   2.443  16.764 -0.0239  0.1362  0.3198
  584TMC3    C4 8710   0.064   2.236  16.934 -0.0693 -0.3718  0.1989
  584TMC3    C5 8711   0.045   2.370  16.960 -0.5944  0.1452 -0.1343
  584TMC3    C6 8712   0.082   2.477  16.874 -1.0807  0.4479 -0.4800
  584TMC3     C 8713   0.249   2.110  16.861 -0.0061  0.5929  0.0764
  584TMC3     O 8714   0.251   2.074  16.978  0.6438 -0.2097 -0.0392
  584TMC3     H 8715   0.279   2.291  16.670  1.9049 -0.0567  1.0858
  584TMC3    H1 8716   0.024   2.152  16.990  0.2523 -1.0404 -0.5705
  584TMC3    H2 8717   0.059   2.579  16.903 -0.7639  0.0792  1.0406
  584TMC3    C7 8718   4.709   2.394  17.079 -0.6152  0.7310 -0.3426
  584TMC3    C8 8719   0.227   2.545  16.688 -0.7102  0.1145 -0.0530
  584TMC3    O1 8720   4.648   2.298  17.122 -0.4578  0.7611 -0.5185
  584TMC3    O2 8721   0.259   2.512  16.572 -0.4099 -0.5052 -0.8519
  585MPD2     C 8722   4.517   1.562  17.276  0.0343 -0.0614 -0.5124
  585MPD2    C1 8723   4.542   1.448  17.356  0.3728  0.1774  0.0469
  585MPD2    C2 8724   4.555   1.327  17.290  0.7938  0.5696  0.8346
  585MPD2    C3 8725   4.543   1.315  17.158 -0.7445  0.1655  0.7613
  585MPD2    C4 8726   4.531   1.425  17.076 -0.4040 -0.2363 -0.4111
  585MPD2    C5 8727   4.511   1.546  17.137 -0.5259  0.6545 -0.0569
  585MPD2     H 8728   4.562   1.237  17.350  2.3296 -2.0396 -3.2723
  585MPD2    H1 8729   4.532   1.414  16.968  0.4935 -0.1245 -0.4141
  585MPD2    H2 8730   4.496   1.663  17.310  0.2565 -0.2619  0.2235
  585MPD2    H3 8731   4.504   1.635  17.076 -0.7667  1.0144  0.4930
  585MPD2     N 8732   4.536   1.187  17.095 -0.0951  0.3041 -0.4481
  585MPD2    H5 8733   4.482   1.173  17.011  1.0359  0.8428 -1.2640
  585MPD2    N1 8734   4.545   1.468  17.493 -0.6738 -0.7510 -0.1514
  585MPD2    H7 8735   4.523   1.558  17.536 -1.3030 -1.0926  0.2447
  586TMC3    C1 8736   4.465   0.982  17.099 -0.7333 -0.0937 -0.2751
  586TMC3    C2 8737   4.541   0.884  17.036 -0.0887 -0.0652  0.5127
  586TMC3    C3 8738   4.497   0.756  17.044  0.0394 -0.8400 -0.0821
  586TMC3    C4 8739   4.356   0.952  17.169 -0.2801  0.0709 -0.1278
  586TMC3    C5 8740   4.327   0.819  17.197 -0.5386  0.0127 -0.0757
  586TMC3    C6 8741   4.402   0.721  17.140 -0.5109 -0.2502 -0.2839
  586TMC3     C 8742   4.550   1.071  17.162 -0.0717  0.5774 -0.1564
  586TMC3     O 8743   4.627   1.029  17.248  0.4504  0.1571  0.0088
  586TMC3     H 8744   4.625   0.911  16.974  1.2011  1.4161  2.9060
  586TMC3    H1 8745   4.315   1.035  17.226  0.4723  0.7788 -0.6106
  586TMC3    H2 8746   4.387   0.615  17.157 -0.8433 -0.2704 -0.7238
  586TMC3    C7 8747   4.202   0.785  17.261 -0.1445  0.6835  0.4388
  586TMC3    C8 8748   4.582   0.652  16.992  0.2353 -0.4144 -0.3529
  586TMC3    O1 8749   4.176   0.667  17.264 -0.0643  0.0881  0.3149
  586TMC3    O2 8750   4.591   0.550  17.062  0.6745 -0.2619 -0.0224
  587TMC3    C1 8751   2.211   4.388  16.733  0.2369  0.8713 -0.1978
  587TMC3    C2 8752   2.217   4.513  16.786  0.0185  0.1077 -0.2969
  587TMC3    C3 8753   2.279   4.511  16.912  0.5624 -0.0603 -0.2684
  587TMC3    C4 8754   2.263   4.273  16.792  0.9109 -0.2096  0.1811
  587TMC3    C5 8755   2.336   4.289  16.900  0.3994  0.0797  0.3009
  587TMC3    C6 8756   2.345   4.408  16.962  0.6107 -0.2509  0.7481
  587TMC3     C 8757   2.104   4.358  16.640  0.1710 -0.1597  0.8452
  587TMC3     O 8758   2.148   4.283  16.551 -0.5829 -0.2745 -0.1725
  587TMC3     H 8759   2.174   4.602  16.741 -0.9712  0.0709  0.5997
  587TMC3    H1 8760   2.243   4.175  16.748  1.3558 -0.6993  1.0608
  587TMC3    H2 8761   2.413   4.415  17.046  2.8183 -2.1396 -0.8873
  587TMC3    C7 8762   2.390   4.179  16.968  0.2671 -0.2850  0.4593
  587TMC3    C8 8763   2.274   4.621  16.997  0.0515 -0.0659 -0.0462
  587TMC3    O1 8764   2.460   4.208  17.065 -0.4048  0.5542  0.7105
  587TMC3    O2 8765   2.367   4.629  17.073  0.2938 -0.3294 -0.0041
  588TMC3    C1 8766   4.528   2.659   9.853 -0.2117 -0.5679 -0.2224
  588TMC3    C2 8767   4.464   2.532   9.846 -0.1370  0.4802 -0.5447
  588TMC3    C3 8768   4.541   2.421   9.885 -0.0349 -0.0689  0.5388
  588TMC3    C4 8769   4.661   2.681   9.887  0.7168  0.4258  0.4992
  588TMC3    C5 8770   4.734   2.564   9.899 -0.4608  0.0651  0.3025
  588TMC3    C6 8771   4.673   2.441   9.915  0.2841  0.2985  0.5975
  588TMC3     C 8772   4.434   2.771   9.850  0.7196 -0.2785 -1.0460
  588TMC3     O 8773   4.336   2.760   9.776 -0.3228  0.0356 -0.3778
  588TMC3     H 8774   4.361   2.523   9.813 -0.7416 -2.2778  2.1168
  588TMC3    H1 8775   4.695   2.779   9.858 -0.5110  0.7630  0.2022
  588TMC3    H2 8776   0.002   2.356   9.917  0.1007  0.1627  1.3731
  588TMC3    C7 8777   0.136   2.580   9.940 -0.6127  0.0486  0.3587
  588TMC3    C8 8778   4.481   2.288   9.858 -0.2689  0.2250 -0.9553
  588TMC3    O1 8779   0.208   2.484   9.969  0.4612  0.8185  0.0731
  588TMC3    O2 8780   4.364   2.283   9.823  0.3219  0.5596 -0.4580
  589TMC3    C1 8781   3.468   3.889   1.082 -0.3880 -0.3572  1.3376
  589TMC3    C2 8782   3.584   3.960   1.065 -0.6600  0.1386 -0.3196
  589TMC3    C3 8783   3.685   3.898   1.010  0.3324 -0.1557  0.0441
  589TMC3    C4 8784   3.461   3.755   1.060  0.2336  0.0826 -0.6700
  589TMC3    C5 8785   3.564   3.696   0.995  0.0976  0.0523 -0.3190
  589TMC3    C6 8786   3.684   3.765   0.979  0.3048  0.7958  0.3396
  589TMC3     C 8787   3.339   3.960   1.070 -0.1404 -0.6995  0.1096
  589TMC3     O 8788   3.236   3.897   1.047  0.0499  0.4028  0.0974
  589TMC3     H 8789   3.587   4.065   1.092  0.6360  0.0756 -0.2290
  589TMC3    H1 8790   3.369   3.698   1.067  0.9801 -0.8032  2.1059
  589TMC3    H2 8791   3.771   3.712   0.942  0.6747  1.3041  0.4886
  589TMC3    C7 8792   3.519   3.602   0.896  0.1648 -0.2497  0.8323
  589TMC3    C8 8793   3.811   3.950   1.033 -0.3490  0.2134  0.2792
  589TMC3    O1 8794   3.424   3.526   0.919 -0.0882 -0.0378  0.3042
  589TMC3    O2 8795   3.811   4.016   1.136  0.6503 -0.3501  0.0594
  590MPD2     C 8796   3.285   2.627  16.517  1.0241  0.2138 -0.8522
  590MPD2    C1 8797   3.193   2.726  16.480  0.5692 -1.1776 -0.1330
  590MPD2    C2 8798   3.237   2.850  16.432  0.0782 -0.5476 -0.0394
  590MPD2    C3 8799   3.371   2.878  16.418 -0.0333  0.2478 -0.8719
  590MPD2    C4 8800   3.455   2.781  16.461  0.0511 -0.2808  0.2323
  590MPD2    C5 8801   3.412   2.658  16.508  0.0740 -0.7814 -0.0723
  590MPD2     H 8802   3.168   2.925  16.395  0.0508 -0.8988 -0.7167
  590MPD2    H1 8803   3.562   2.796  16.453  0.0605 -1.2584 -1.5207
  590MPD2    H2 8804   3.248   2.531  16.551  1.0998 -0.2921 -2.1971
  590MPD2    H3 8805   3.484   2.583  16.540  1.5085 -0.2722 -2.1276
  590MPD2     N 8806   3.420   2.999  16.360  0.2625  0.0296 -0.2941
  590MPD2    H5 8807   3.518   3.004  16.335  0.3353 -1.9375 -0.4034
  590MPD2    N1 8808   3.055   2.686  16.476 -0.2855  0.2173 -0.0403
  590MPD2    H7 8809   3.039   2.586  16.479 -1.3960  0.4500  2.1009
  591TMC3    C1 8810   3.418   3.222  16.277 -0.4872  0.2996 -0.2067
  591TMC3    C2 8811   3.502   3.174  16.181 -0.0697  1.2551 -0.0898
  591TMC3    C3 8812   3.522   3.256  16.069  0.4006  0.2942  0.2084
  591TMC3    C4 8813   3.337   3.343  16.266  1.1470 -0.1359 -0.2499
  591TMC3    C5 8814   3.370   3.420  16.154  0.1704 -0.2784  0.0829
  591TMC3    C6 8815   3.459   3.376  16.058  0.2427 -0.5240  0.0260
  591TMC3     C 8816   3.348   3.112  16.338  0.2633 -0.6112  0.0198
  591TMC3     O 8817   3.232   3.138  16.368 -1.1693  0.6314  0.1577
  591TMC3     H 8818   3.555   3.080  16.192 -1.1725  0.3480 -2.6954
  591TMC3    H1 8819   3.275   3.379  16.348  2.8068  0.6217  0.6750
  591TMC3    H2 8820   3.462   3.443  15.973 -0.7204  1.2463  1.4006
  591TMC3    C7 8821   3.340   3.560  16.159  0.0147  0.2554  0.0317
  591TMC3    C8 8822   3.609   3.207  15.962  0.3002 -0.2815 -0.2462
  591TMC3    O1 8823   3.241   3.588  16.235 -0.2926  0.2950  0.2157
  591TMC3    O2 8824   3.669   3.103  15.987  0.1338 -0.5172  0.1169
  592MPD2     C 8825   3.828   0.308  11.478 -0.4843  0.4884  0.4703
  592MPD2    C1 8826   3.809   0.293  11.613 -0.8999 -0.7590 -0.3334
  592MPD2    C2 8827   3.730   0.188  11.669 -0.6958 -0.8251  0.3023
  592MPD2    C3 8828   3.677   0.098  11.578  0.4669 -0.1280  0.0510
  592MPD2    C4 8829   3.692   0.112  11.444 -0.5603  0.0910  0.4097
  592MPD2    C5 8830   3.772   0.215  11.395  0.5456 -0.2641 -0.3756
  592MPD2     H 8831   3.721   0.172  11.775 -0.2555 -0.0550  0.4497
  592MPD2    H1 8832   3.636   0.054  11.372  0.8488  2.0539 -2.2748
  592MPD2    H2 8833   3.895   0.377  11.428  1.1739 -0.7376  0.9998
  592MPD2    H3 8834   3.772   0.225  11.287 -1.5339 -1.0403 -0.4335
  592MPD2     N 8835   3.594   0.002  11.628 -0.1189 -0.4651 -0.3757
  592MPD2    H5 8836   3.586   0.000  11.730  2.9281 -0.5642 -0.1407
  592MPD2    N1 8837   3.893   0.373  11.696  0.0812  0.4105  0.1682
  592MPD2    H7 8838   3.963   0.422  11.640 -0.8279  1.6810  0.1348
  593TMC3    C1 8839   3.976   0.493  11.864 -0.1639  0.6332  1.1585
  593TMC3    C2 8840   3.935   0.622  11.884  0.1471 -0.1974  0.4229
  593TMC3    C3 8841   4.034   0.712  11.882 -0.0236 -0.3004 -0.6004
  593TMC3    C4 8842   4.104   0.453  11.846  0.0174 -0.4916 -0.1267
  593TMC3    C5 8843   4.201   0.549  11.843 -0.2140 -0.0481 -0.6130
  593TMC3    C6 8844   4.167   0.675  11.863 -0.3390 -0.4127  0.0132
  593TMC3     C 8845   3.868   0.412  11.823 -0.1302  0.0625  0.6463
  593TMC3     O 8846   3.758   0.409  11.879  0.0546 -0.1896 -0.3405
  593TMC3     H 8847   3.834   0.653  11.908  0.7187  0.8143  1.5514
  593TMC3    H1 8848   4.125   0.347  11.840 -1.0961 -0.7599  0.6920
  593TMC3    H2 8849   4.249   0.745  11.844  0.9366 -1.6334  1.0320
  593TMC3    C7 8850   4.338   0.519  11.792  0.7379  0.1826 -0.7234
  593TMC3    C8 8851   3.998   0.840  11.836  0.3715  0.8453 -0.3248
  593TMC3    O1 8852   4.402   0.613  11.761 -0.2835 -0.0594 -0.0099
  593TMC3    O2 8853   3.890   0.838  11.778  0.1780 -0.1190 -0.0764
  594MPD2     C 8854   2.710   3.389  14.831  0.6241  0.4779  0.7495
  594MPD2    C1 8855   2.598   3.456  14.798 -0.3127 -0.4558 -0.7132
  594MPD2    C2 8856   2.614   3.562  14.711 -0.8576 -0.0983 -0.4199
  594MPD2    C3 8857   2.732   3.592  14.643 -0.5896 -0.3053  0.0171
  594MPD2    C4 8858   2.842   3.518  14.678 -0.3942  0.9626 -0.5293
  594MPD2    C5 8859   2.833   3.419  14.778  0.8660 -0.8949 -0.2976
  594MPD2     H 8860   2.526   3.618  14.683 -0.3919 -0.2427 -2.1565
  594MPD2    H1 8861   2.940   3.530  14.634 -0.1253  0.3716 -0.0913
  594MPD2    H2 8862   2.710   3.319  14.914  0.7718  0.7483  0.9757
  594MPD2    H3 8863   2.923   3.363  14.799  0.2193 -1.4150  1.1313
  594MPD2     N 8864   2.730   3.701  14.557 -0.2511 -0.7133 -0.0274
  594MPD2    H5 8865   2.646   3.757  14.553  0.4736  0.2837 -1.0876
  594MPD2    N1 8866   2.477   3.421  14.860 -0.2413 -0.3549  0.5103
  594MPD2    H7 8867   2.486   3.331  14.906 -0.1654 -0.8119 -0.4038
  595TMC3    C1 8868   2.920   3.999  14.262  0.5995  0.8834  0.3888
  595TMC3    C2 8869   2.888   3.873  14.303  0.9566 -0.7019  0.1968
  595TMC3    C3 8870   2.815   3.867  14.416 -0.1816  0.4946  0.3346
  595TMC3    C4 8871   2.887   4.111  14.331  0.6746 -0.2610  0.1658
  595TMC3    C5 8872   2.819   4.090  14.452 -0.0291 -0.4931  0.4968
  595TMC3    C6 8873   2.777   3.970  14.500 -0.0421  0.0844  0.5870
  595TMC3     C 8874   3.044   4.003  14.192 -0.5171 -0.0645 -0.7967
  595TMC3     O 8875   3.071   3.902  14.130  0.2678 -0.1818  0.3777
  595TMC3     H 8876   2.913   3.781  14.250  1.8280 -1.0054  1.1472
  595TMC3    H1 8877   2.923   4.210  14.302 -0.5204  0.6599  1.7788
  595TMC3    H2 8878   2.728   3.956  14.595 -1.7545  2.6610  0.0889
  595TMC3    C7 8879   2.788   4.205  14.530 -0.2574  0.4704  0.3131
  595TMC3    C8 8880   2.832   3.742  14.480  0.4322  0.5538 -0.1739
  595TMC3    O1 8881   2.753   4.315  14.480 -0.0159  0.0325 -0.5887
  595TMC3    O2 8882   2.942   3.689  14.468  0.4571  0.1659  0.0174
  596MPD2     C 8883   1.414   1.837  16.969 -0.0027 -0.4239 -0.0962
  596MPD2    C1 8884   1.410   1.940  16.882  0.4517  0.4091  0.0225
  596MPD2    C2 8885   1.487   1.925  16.767  0.1741 -0.0044 -0.1220
  596MPD2    C3 8886   1.532   1.800  16.721  0.4730  0.2647 -0.1328
  596MPD2    C4 8887   1.527   1.693  16.806 -0.0130 -0.0597 -0.9470
  596MPD2    C5 8888   1.471   1.714  16.930 -0.2046  0.2238  0.4248
  596MPD2     H 8889   1.502   2.018  16.712 -1.3933  0.3196 -0.0031
  596MPD2    H1 8890   1.557   1.594  16.776  0.2901  0.5153 -2.5396
  596MPD2    H2 8891   1.378   1.848  17.070 -2.2513 -2.9449 -0.6140
  596MPD2    H3 8892   1.479   1.628  16.995  3.6813 -0.6813 -1.2671
  596MPD2     N 8893   1.590   1.779  16.595  0.1726 -0.4451  0.4219
  596MPD2    H5 8894   1.619   1.683  16.578  0.9903 -0.0387 -0.4624
  596MPD2    N1 8895   1.338   2.055  16.904  0.3562 -0.1310 -0.0131
  596MPD2    H7 8896   1.340   2.120  16.827 -1.9465 -0.1086 -0.0375
  597TMC3    C1 8897   1.219   2.226  17.003 -0.2136  0.6184 -0.4503
  597TMC3    C2 8898   1.252   2.294  16.897 -0.4373 -0.4575 -0.2476
  597TMC3    C3 8899   1.190   2.417  16.881  0.3627  0.4301 -0.0331
  597TMC3    C4 8900   1.114   2.264  17.086  0.6142  0.0955 -0.4205
  597TMC3    C5 8901   1.055   2.379  17.065  0.7269 -0.2058  0.0053
  597TMC3    C6 8902   1.092   2.454  16.958 -0.3985  0.2804 -0.3812
  597TMC3     C 8903   1.270   2.092  17.017 -0.6824  0.0337  0.4827
  597TMC3     O 8904   1.242   2.030  17.120 -0.0150 -0.0639 -0.0267
  597TMC3     H 8905   1.341   2.278  16.836 -0.9275 -3.4492 -0.1776
  597TMC3    H1 8906   1.101   2.214  17.181  1.8681 -0.6055 -0.6183
  597TMC3    H2 8907   1.051   2.554  16.941 -1.7718 -0.2671 -0.3425
  597TMC3    C7 8908   0.919   2.400  17.123 -0.5545 -0.0149  0.1007
  597TMC3    C8 8909   1.264   2.522  16.813  0.5777  0.7057 -0.3630
  597TMC3    O1 8910   0.884   2.307  17.197 -0.4061  0.1165  0.4004
  597TMC3    O2 8911   1.385   2.508  16.827  0.6456  0.1385  0.4201
  598TMC3    C1 8912   4.244   3.146  15.170 -0.2545 -0.6641 -0.5267
  598TMC3    C2 8913   4.108   3.161  15.155 -0.2922 -0.4260 -0.6101
  598TMC3    C3 8914   4.065   3.293  15.152 -0.0357 -0.7644  0.4173
  598TMC3    C4 8915   4.329   3.251  15.188  0.1216 -0.1471  0.4722
  598TMC3    C5 8916   4.280   3.375  15.195  0.0093 -0.6738  0.3945
  598TMC3    C6 8917   4.148   3.399  15.177  0.0267  0.2238 -0.3418
  598TMC3     C 8918   4.292   3.014  15.181 -0.6982 -0.6444 -0.1848
  598TMC3     O 8919   4.228   2.928  15.126  0.2381  0.8101 -0.1404
  598TMC3     H 8920   4.041   3.082  15.124 -0.6265 -0.3326 -0.1349
  598TMC3    H1 8921   4.436   3.239  15.186  0.2475  1.0060 -0.1058
  598TMC3    H2 8922   4.114   3.501  15.197  1.7346  0.5229  1.0576
  598TMC3    C7 8923   4.372   3.465  15.257  0.2170 -0.5778  0.7238
  598TMC3    C8 8924   3.928   3.326  15.122 -0.0578  0.4643 -0.1308
  598TMC3    O1 8925   4.458   3.420  15.332  0.0294 -0.1784  0.3558
  598TMC3    O2 8926   3.905   3.443  15.089 -0.4338  0.0877 -0.7419
  599MPD2     C 8927   4.321   0.994  15.687  0.9888 -0.4951  0.3459
  599MPD2    C1 8928   4.280   0.886  15.757 -0.3392 -0.7053  0.6443
  599MPD2    C2 8929   4.181   0.908  15.852 -0.2045 -0.0748 -0.2871
  599MPD2    C3 8930   4.110   1.031  15.870 -0.2350 -0.3078  0.6070
  599MPD2    C4 8931   4.138   1.130  15.780 -0.4580 -0.7815  0.5468
  599MPD2    C5 8932   4.248   1.112  15.699 -0.0491  0.8328 -0.0488
  599MPD2     H 8933   4.175   0.825  15.922 -0.0135 -0.2233 -0.4497
  599MPD2    H1 8934   4.086   1.224  15.783 -0.6822 -0.9096  0.6715
  599MPD2    H2 8935   4.394   1.001  15.607  0.5545 -3.0686 -0.2896
  599MPD2    H3 8936   4.282   1.200  15.644  0.2376  1.0650  0.4995
  599MPD2     N 8937   4.002   1.057  15.955  0.4692  0.3772 -0.4809
  599MPD2    H5 8938   3.961   1.148  15.966 -0.0292  0.2942 -1.6411
  599MPD2    N1 8939   4.355   0.770  15.730  0.1430  0.0015 -0.7218
  599MPD2    H7 8940   4.422   0.784  15.654  0.5810  2.1205  0.0376
  600TMC3    C1 8941   3.853   1.020  16.126  0.3944 -0.0449 -0.1390
  600TMC3    C2 8942   3.749   0.948  16.185 -0.1718 -0.0779  0.3133
  600TMC3    C3 8943   3.709   0.988  16.311 -0.1019 -0.8414 -0.5696
  600TMC3    C4 8944   3.897   1.152  16.182  0.4804 -0.5642  0.9416
  600TMC3    C5 8945   3.841   1.189  16.305 -0.3873  0.1601  0.1134
  600TMC3    C6 8946   3.746   1.108  16.367 -0.0114  0.6766  0.2467
  600TMC3     C 8947   3.943   0.959  16.030  0.6625  0.0241 -0.9135
  600TMC3     O 8948   3.936   0.838  16.017 -0.7125 -0.3139  0.3149
  600TMC3     H 8949   3.716   0.858  16.135 -1.7801 -0.1020  1.4447
  600TMC3    H1 8950   3.988   1.198  16.146  0.5221 -0.7732  0.7734
  600TMC3    H2 8951   3.698   1.138  16.460 -0.4222  1.8544 -0.3531
  600TMC3    C7 8952   3.884   1.316  16.369 -0.3479  0.6575 -0.7440
  600TMC3    C8 8953   3.647   0.905  16.405 -0.1149  0.0838  0.0122
  600TMC3    O1 8954   3.913   1.424  16.306  0.1803  0.4857  0.0906
  600TMC3    O2 8955   3.660   0.940  16.520  0.2210  0.5592 -0.3787
  601MPD2     C 8956   1.752   4.019  17.700  0.8588  0.6181 -0.5017
  601MPD2    C1 8957   1.614   4.024  17.689 -0.7687  0.1206 -0.7043
  601MPD2    C2 8958   1.537   3.909  17.729 -0.2272  0.0618  0.1401
  601MPD2    C3 8959   1.598   3.796   0.028 -0.1526  0.0648 -0.1435
  601MPD2    C4 8960   1.739   3.794   0.037  0.3174 -0.2455 -0.1661
  601MPD2    C5 8961   1.814   3.907   0.004  0.6694 -0.8291 -0.0516
  601MPD2     H 8962   1.430   3.911  17.711 -0.0213  4.7298 -0.4620
  601MPD2    H1 8963   1.782   3.704   0.080 -0.5177 -2.0466 -3.0794
  601MPD2    H2 8964   1.820   4.102  17.685 -0.6996  1.9766 -0.0538
  601MPD2    H3 8965   1.922   3.909   0.009  0.5975  1.0584  0.8332
  601MPD2     N 8966   1.530   3.680   0.069 -0.3481 -0.0771  0.1998
  601MPD2    H5 8967   1.581   3.616   0.129 -1.8464  0.3866  1.9408
  601MPD2    N1 8968   1.547   4.137  17.632 -0.1664  0.0124 -0.6350
  601MPD2    H7 8969   1.446   4.128  17.643 -0.3820  1.2499 -1.5739
  602TMC3    C1 8970   1.514   4.346  17.529  0.1512 -1.1079  0.2269
  602TMC3    C2 8971   1.561   4.476  17.504 -0.4260 -0.3138  0.0704
  602TMC3    C3 8972   1.482   4.569  17.442 -0.3196  0.8960 -0.4024
  602TMC3    C4 8973   1.385   4.310  17.499  0.4857  0.0672  0.3231
  602TMC3    C5 8974   1.306   4.411  17.451 -0.1413  0.9403 -0.3358
  602TMC3    C6 8975   1.355   4.535  17.414 -0.2489 -0.1133 -0.0983
  602TMC3     C 8976   1.605   4.253  17.590  0.4199 -0.0029  0.1550
  602TMC3     O 8977   1.720   4.299  17.590  0.2319 -0.5863 -0.8681
  602TMC3     H 8978   1.661   4.507  17.531 -0.4762 -0.3606  0.3086
  602TMC3    H1 8979   1.354   4.206  17.501  0.9921 -0.0969 -0.1135
  602TMC3    H2 8980   1.278   4.610  17.397  0.1246  0.6565  1.5796
  602TMC3    C7 8981   1.190   4.365  17.374  0.0776 -0.9269  0.0628
  602TMC3    C8 8982   1.551   4.663  17.354  0.2029  0.2836 -0.2894
  602TMC3    O1 8983   1.157   4.248  17.398  0.1101 -0.0436  0.0565
  602TMC3    O2 8984   1.669   4.680  17.383 -0.6044 -0.1839  0.9371
  603TMC3    C1 8985   4.182   4.666  11.028 -0.0087  0.2661  0.0876
  603TMC3    C2 8986   4.253   4.576  11.111 -0.7255  0.0569 -0.4155
  603TMC3    C3 8987   4.389   4.589  11.118  1.1035  0.9384  0.1903
  603TMC3    C4 8988   4.244   0.014  10.947  0.4353  0.6573  0.1220
  603TMC3    C5 8989   4.383   0.017  10.960  0.2530  0.6464  0.3151
  603TMC3    C6 8990   4.454   4.680  11.045 -0.1736 -0.2403 -0.5680
  603TMC3     C 8991   4.032   4.667  11.031  0.4533 -0.1542  0.9277
  603TMC3     O 8992   3.976   4.568  11.077 -0.3869 -0.0590 -0.3203
  603TMC3     H 8993   4.214   4.497  11.175 -1.1815  1.4761  1.0644
  603TMC3    H1 8994   4.188   0.068  10.872  1.1003 -1.9203 -2.2111
  603TMC3    H2 8995   4.557   4.713  11.056 -0.2590 -0.0539 -0.3406
  603TMC3    C7 8996   4.463   0.080  10.859  0.5037  0.2343 -0.1853
  603TMC3    C8 8997   4.468   4.508  11.206 -0.3941  0.0344 -0.0061
  603TMC3    O1 8998   4.580   0.050  10.838  0.2290  0.4690 -0.3211
  603TMC3    O2 8999   4.408   4.437  11.286  0.0342  0.6620 -0.2122
  604MPD2     C 9000   0.628   3.253  16.345 -0.0059 -0.2819 -0.0711
  604MPD2    C1 9001   0.500   3.196  16.313 -0.2440 -0.2280  0.0021
  604MPD2    C2 9002   0.488   3.109  16.202 -0.7818  0.3718 -0.0274
  604MPD2    C3 9003   0.601   3.065  16.129 -0.6285  0.2379 -0.3425
  604MPD2    C4 9004   0.719   3.134  16.157 -0.2950 -0.0130 -1.0842
  604MPD2    C5 9005   0.732   3.221  16.259  0.0319  0.0153  0.4627
  604MPD2     H 9006   0.390   3.067  16.182  0.0764 -1.2329 -0.8843
  604MPD2    H1 9007   0.812   3.117  16.104  0.4775 -1.3548  0.6908
  604MPD2    H2 9008   0.638   3.322  16.428 -3.5877 -2.1641  1.9452
  604MPD2    H3 9009   0.831   3.259  16.282  0.7480 -1.8615  0.5609
  604MPD2     N 9010   0.586   2.986  16.012  0.0029  1.0151 -0.3759
  604MPD2    H5 9011   0.489   2.967  15.988  0.2341  0.7949 -1.1529
  604MPD2    N1 9012   0.396   3.240  16.393 -0.4801 -0.2417 -0.2080
  604MPD2    H7 9013   0.419   3.319  16.452 -0.4108 -2.0993  2.2489
  605TMC3    C1 9014   0.194   3.269  16.487 -0.6019 -0.0591  0.1036
  605TMC3    C2 9015   0.272   3.305  16.592 -0.3418  0.0627 -0.1829
  605TMC3    C3 9016   0.261   3.427  16.655  0.4537 -0.1636 -0.1583
  605TMC3    C4 9017   0.114   3.360  16.432 -0.1466  0.7407 -0.1308
  605TMC3    C5 9018   0.101   3.485  16.492 -0.1139  0.8637  0.1133
  605TMC3    C6 9019   0.177   3.522  16.601 -0.1115 -0.0483 -0.3890
  605TMC3     C 9020   0.267   3.198  16.392  0.1877 -0.0041  0.5176
  605TMC3     O 9021   0.206   3.117  16.324  0.0059 -0.7490  0.7677
  605TMC3     H 9022   0.344   3.234  16.630  0.3618  1.4440  1.0534
  605TMC3    H1 9023   0.069   3.336  16.336  2.2636  0.7620 -1.2596
  605TMC3    H2 9024   0.179   3.626  16.632  0.8082 -0.0075 -0.6053
  605TMC3    C7 9025   4.725   3.570  16.456  0.4229 -0.3805 -0.2423
  605TMC3    C8 9026   0.399   3.474  16.678  0.0046  0.0684 -0.8056
  605TMC3    O1 9027   4.729   3.684  16.502  0.0922  0.4739  0.2533
  605TMC3    O2 9028   0.480   3.421  16.600  0.1480 -0.0265 -0.1565
  606TMC3    C1 9029   0.435   1.163   0.456  0.0272 -0.7251  0.6974
  606TMC3    C2 9030   0.513   1.254   0.513 -0.1654  0.2572 -0.3674
  606TMC3    C3 9031   0.648   1.234   0.513 -0.4849 -0.2850  0.1274
  606TMC3    C4 9032   0.491   1.057   0.378  0.0333 -0.0296 -0.3091
  606TMC3    C5 9033   0.631   1.045   0.375  0.5333  0.2157 -0.2746
  606TMC3    C6 9034   0.707   1.125   0.457 -0.7213 -0.1993 -0.3893
  606TMC3     C 9035   0.288   1.166   0.475  0.5987 -0.2023 -0.1684
  606TMC3     O 9036   0.226   1.096   0.395  0.2448 -0.0802 -0.3167
  606TMC3     H 9037   0.488   1.328   0.588  0.7149  1.5577 -1.3509
  606TMC3    H1 9038   0.438   0.976   0.329 -3.4992  2.0275  0.1011
  606TMC3    H2 9039   0.814   1.106   0.457 -0.8287 -0.6050  3.8080
  606TMC3    C7 9040   0.696   0.947   0.290 -0.1883  0.3339 -0.7414
  606TMC3    C8 9041   0.731   1.331   0.586 -1.1017 -0.3578  0.0750
  606TMC3    O1 9042   0.814   0.925   0.312 -0.0440  0.5691  0.2758
  606TMC3    O2 9043   0.688   1.441   0.604  0.5146 -0.1790 -0.0248
  607MPD2     C 9044   3.703   4.332  11.542  0.7291 -0.1912  0.2177
  607MPD2    C1 9045   3.800   4.382  11.630 -0.4201  0.0389 -0.0084
  607MPD2    C2 9046   3.800   4.341  11.758  0.3353 -0.1464 -0.4002
  607MPD2    C3 9047   3.705   4.253  11.804 -0.2869  0.2557  1.0117
  607MPD2    C4 9048   3.607   4.209  11.717  0.0435  0.0638 -0.0920
  607MPD2    C5 9049   3.606   4.253  11.592  0.1503  0.1775  0.4082
  607MPD2     H 9050   3.873   4.382  11.827  0.0012 -0.8756  0.3833
  607MPD2    H1 9051   3.526   4.147  11.754 -1.0243 -0.6957 -3.7047
  607MPD2    H2 9052   3.689   4.358  11.438 -0.3756  0.3560  0.5063
  607MPD2    H3 9053   3.522   4.222  11.531 -0.1809 -0.0136  0.9573
  607MPD2     N 9054   3.687   4.213  11.937 -0.5224  0.0545  0.6282
  607MPD2    H5 9055   3.595   4.198  11.977  0.0772 -0.4640  1.8006
  607MPD2    N1 9056   3.893   4.478  11.599 -0.2826  0.3072 -0.6232
  607MPD2    H7 9057   3.967   4.487  11.668 -0.6277  3.2540 -0.6322
  608TMC3    C1 9058   3.967   4.681  11.517  0.1732 -0.2943 -0.0395
  608TMC3    C2 9059   3.996   4.704  11.649  0.0437 -0.2087 -0.1583
  608TMC3    C3 9060   4.115   0.037  11.678 -0.0181  0.2978 -0.0174
  608TMC3    C4 9061   4.035   4.736  11.411 -0.3655  0.8729  0.1487
  608TMC3    C5 9062   4.153   0.063  11.451 -0.0780 -0.1114  0.2432
  608TMC3    C6 9063   4.200   0.089  11.578 -0.5607 -0.6886  0.1589
  608TMC3     C 9064   3.889   4.564  11.492 -0.0473 -0.0652 -0.1277
  608TMC3     O 9065   3.862   4.536  11.377 -0.3029  0.1011 -0.2638
  608TMC3     H 9066   3.921   4.678  11.723 -1.1178  3.2997 -0.1278
  608TMC3    H1 9067   4.012   4.703  11.311 -2.7747  4.2565 -0.3911
  608TMC3    H2 9068   4.280   0.162  11.590 -0.7086 -0.5325  0.1994
  608TMC3    C7 9069   4.224   0.137  11.349 -0.6760  0.1121 -0.2796
  608TMC3    C8 9070   4.156   0.062  11.816 -0.1239  0.4367 -0.2176
  608TMC3    O1 9071   4.168   0.186  11.259 -0.2766  0.0913 -0.3225
  608TMC3    O2 9072   4.253   0.132  11.842 -0.0651 -0.0138 -0.3815
  609TMC3    C1 9073   2.282   3.771   9.343  0.0562  0.2434  0.1544
  609TMC3    C2 9074   2.167   3.727   9.284  0.7988 -0.2000 -0.3848
  609TMC3    C3 9075   2.178   3.613   9.209 -0.2829 -1.1463  0.0259
  609TMC3    C4 9076   2.409   3.723   9.315 -0.1515  0.9386 -0.4380
  609TMC3    C5 9077   2.410   3.609   9.245 -0.0854  0.4563  0.0284
  609TMC3    C6 9078   2.302   3.550   9.195  0.8031  0.6094 -0.3798
  609TMC3     C 9079   2.264   3.868   9.448  0.2582 -0.3285 -0.1838
  609TMC3     O 9080   2.154   3.876   9.500  0.1356 -0.5149 -0.4029
  609TMC3     H 9081   2.077   3.787   9.279  0.1566 -0.9349  2.4347
  609TMC3    H1 9082   2.501   3.764   9.355 -0.3056  0.5533  0.3010
  609TMC3    H2 9083   2.302   3.452   9.148  0.6794  0.4320 -0.0113
  609TMC3    C7 9084   2.542   3.552   9.229  0.7552  1.2655  0.2986
  609TMC3    C8 9085   2.060   3.541   9.147  0.0339 -0.0102 -0.1672
  609TMC3    O1 9086   2.627   3.600   9.301 -0.0388  0.7357 -0.0546
  609TMC3    O2 9087   2.091   3.446   9.072 -0.1373  0.1581  0.2271
  610TMC3    C1 9088   4.470   4.120  12.576  0.2929 -0.5992  0.9301
  610TMC3    C2 9089   4.461   4.169  12.450 -0.1632 -0.7502  0.1821
  610TMC3    C3 9090   4.574   4.226  12.401  0.7575  0.8105 -0.3994
  610TMC3    C4 9091   4.593   4.104  12.634 -0.1717 -1.2837  0.5953
  610TMC3    C5 9092   4.709   4.127  12.561 -0.0753  0.1008 -0.3352
  610TMC3    C6 9093   4.695   4.206  12.447  0.1684  0.1194  0.2079
  610TMC3     C 9094   4.355   4.069  12.656 -0.5401 -0.2096 -0.1932
  610TMC3     O 9095   4.382   3.996  12.752  0.2301 -0.3201 -0.4798
  610TMC3     H 9096   4.364   4.178  12.401 -1.0964  2.7269  2.6525
  610TMC3    H1 9097   4.616   4.057  12.729 -0.3405  0.8683  1.7110
  610TMC3    H2 9098   0.044   4.253  12.405  0.6946 -0.8155  0.2478
  610TMC3    C7 9099   0.091   4.075  12.615 -0.6806 -0.2346  0.6485
  610TMC3    C8 9100   4.541   4.341  12.318  0.0861  0.2900  0.5592
  610TMC3    O1 9101   0.085   3.985  12.694 -0.0226 -0.0930  0.1620
  610TMC3    O2 9102   4.423   4.359  12.295 -0.0783 -0.1936 -0.0305
  611MPD2     C 9103   3.485   0.054  10.501 -0.0258  0.6399 -1.2503
  611MPD2    C1 9104   3.490   0.033  10.370 -0.7864  0.1241  0.6555
  611MPD2    C2 9105   3.582   0.090  10.285  0.3552  0.0005  0.5909
  611MPD2    C3 9106   3.679   0.169  10.347 -0.0062 -0.9266 -0.1467
  611MPD2    C4 9107   3.688   0.170  10.485  0.8389 -0.3493  0.0823
  611MPD2    C5 9108   3.584   0.118  10.560 -0.0096 -0.0377 -0.1839
  611MPD2     H 9109   3.573   0.082  10.177  0.8606 -0.1524  0.5612
  611MPD2    H1 9110   3.769   0.215  10.542 -1.6223  2.5087  1.3934
  611MPD2    H2 9111   3.408   0.015  10.567 -0.4017  1.9356 -0.9220
  611MPD2    H3 9112   3.578   0.116  10.668 -0.8383  3.5421 -0.1781
  611MPD2     N 9113   3.771   0.250  10.286  0.2593 -0.5160  0.4770
  611MPD2    H5 9114   3.834   0.295  10.351 -0.6096  1.6120 -0.1574
  611MPD2    N1 9115   3.366   4.717  10.321 -0.4320  0.2115 -0.1818
  611MPD2    H7 9116   3.294   4.689  10.387  0.9897  0.8602  1.6639
  612TMC3    C1 9117   3.893   0.373  10.130  0.4584  0.2676  0.1016
  612TMC3    C2 9118   4.008   0.357  10.211 -0.4625 -0.4326 -0.1538
  612TMC3    C3 9119   4.107   0.453  10.191  0.4729 -0.1423  0.3594
  612TMC3    C4 9120   3.876   0.465  10.030  0.2893 -0.5508  0.9254
  612TMC3    C5 9121   3.981   0.551  10.021 -0.5081  0.1133 -0.0583
  612TMC3    C6 9122   4.084   0.552  10.105 -0.1813  1.2395 -0.0584
  612TMC3     C 9123   3.786   0.277  10.149  1.5336 -0.6800  0.4393
  612TMC3     O 9124   3.706   0.263  10.058  0.3400 -0.5372 -0.5223
  612TMC3     H 9125   4.030   0.270  10.272 -1.3045  1.6156  3.0560
  612TMC3    H1 9126   3.788   0.463   9.966  1.9754 -0.1667 -1.4085
  612TMC3    H2 9127   4.166   0.624  10.099  1.7356 -1.0751 -1.4953
  612TMC3    C7 9128   3.957   0.673   9.948 -0.0246  0.2001  1.3309
  612TMC3    C8 9129   4.241   0.431  10.251  0.1507  0.1308  0.5297
  612TMC3    O1 9130   3.844   0.697   9.910  0.7251  0.4297 -0.4616
  612TMC3    O2 9131   4.338   0.469  10.193 -0.1313 -0.3038  0.5568
  613MPD2     C 9132   2.069   1.838  16.528 -0.0169 -1.0110  0.7944
  613MPD2    C1 9133   2.168   1.924  16.481 -0.1002  0.3764  0.5083
  613MPD2    C2 9134   2.290   1.865  16.450 -0.4384 -0.0707 -0.9771
  613MPD2    C3 9135   2.308   1.729  16.446 -0.3741 -0.3634 -0.3161
  613MPD2    C4 9136   2.206   1.653  16.490  0.0151  0.7489  0.4682
  613MPD2    C5 9137   2.088   1.702  16.528  0.6151 -0.3599  1.3614
  613MPD2     H 9138   2.378   1.924  16.426  2.0775 -2.1644  3.1333
  613MPD2    H1 9139   2.227   1.548  16.507  2.4153  1.1410 -0.0721
  613MPD2    H2 9140   1.980   1.870  16.582 -0.2847 -0.3796 -0.0150
  613MPD2    H3 9141   2.011   1.630  16.556  1.2586 -1.7136 -0.3602
  613MPD2     N 9142   2.430   1.662  16.393 -0.3775  0.1687 -0.1155
  613MPD2    H5 9143   2.430   1.563  16.418  0.4378  0.6083  1.6493
  613MPD2    N1 9144   2.153   2.066  16.492 -0.1186  0.2253  0.9459
  613MPD2    H7 9145   2.059   2.101  16.506 -0.9434 -0.7294 -2.1620
  614TMC3    C1 9146   2.210   2.294  16.499 -0.2328 -0.7418  0.5851
  614TMC3    C2 9147   2.311   2.382  16.532  0.1004 -0.9727  0.2772
  614TMC3    C3 9148   2.301   2.502  16.480  0.7863  0.4302  0.4768
  614TMC3    C4 9149   2.100   2.334  16.427 -0.4689  0.6312  0.3714
  614TMC3    C5 9150   2.084   2.460  16.401  0.0469 -0.0118  0.2224
  614TMC3    C6 9151   2.191   2.547  16.414 -0.2786  0.0772  0.0695
  614TMC3     C 9152   2.253   2.160  16.510  0.2175 -0.3765  0.5019
  614TMC3     O 9153   2.371   2.140  16.514  0.5212 -0.1663  0.0388
  614TMC3     H 9154   2.398   2.356  16.591 -0.0881 -0.3756  0.8190
  614TMC3    H1 9155   2.016   2.269  16.404 -0.8350  0.6278  1.6734
  614TMC3    H2 9156   2.178   2.652  16.395 -0.3727  0.1330  0.4518
  614TMC3    C7 9157   2.001   2.482  16.285 -0.6762  0.4305  0.1404
  614TMC3    C8 9158   2.433   2.542  16.421  0.1675  0.3288 -0.0370
  614TMC3    O1 9159   1.882   2.455  16.283 -0.4989  0.0143  0.5270
  614TMC3    O2 9160   2.525   2.472  16.456  0.0612 -0.8362 -0.6945
  615MPD2     C 9161   2.255   3.780  15.892  0.2516  0.0493 -0.6516
  615MPD2    C1 9162   2.150   3.830  15.815 -0.4361 -0.0385  0.3600
  615MPD2    C2 9163   2.059   3.740  15.767 -0.1771  0.4900  0.2249
  615MPD2    C3 9164   2.080   3.602  15.777  0.0555  0.3778  0.6757
  615MPD2    C4 9165   2.199   3.558  15.837  0.5548 -0.0017 -0.3780
  615MPD2    C5 9166   2.280   3.643  15.908  0.3344  0.2452 -0.5284
  615MPD2     H 9167   1.976   3.778  15.709  1.1950  2.5944 -0.3766
  615MPD2    H1 9168   2.206   3.451  15.846  0.2037  0.2701  3.2213
  615MPD2    H2 9169   2.329   3.849  15.931 -0.0708 -0.3966  0.7305
  615MPD2    H3 9170   2.370   3.605  15.955 -0.5620 -1.5139 -0.2161
  615MPD2     N 9171   2.002   3.513  15.703  0.7256  0.1977 -0.7352
  615MPD2    H5 9172   1.929   3.563  15.654  0.0613  0.6925  0.7858
  615MPD2    N1 9173   2.136   3.968  15.784  0.7537 -0.6521  0.5262
  615MPD2    H7 9174   2.058   3.986  15.722  3.3784 -2.1778 -3.1725
  616TMC3    C1 9175   2.152   4.208  15.815 -0.3297  0.7285  0.3068
  616TMC3    C2 9176   2.200   4.309  15.899  0.3886 -0.9165  0.0816
  616TMC3    C3 9177   2.160   4.436  15.878 -0.4897 -0.2787  0.0293
  616TMC3    C4 9178   2.079   4.244  15.705 -0.4107 -0.1402  0.0011
  616TMC3    C5 9179   2.050   4.379  15.684 -0.5133  0.0004  1.1270
  616TMC3    C6 9180   2.079   4.477  15.773 -0.0429 -0.1247  0.1133
  616TMC3     C 9181   2.195   4.073  15.849  0.2271  0.1971 -0.3148
  616TMC3     O 9182   2.281   4.067  15.936  0.1179  0.0459  0.4764
  616TMC3     H 9183   2.264   4.285  15.984 -0.9238 -0.0443  1.3252
  616TMC3    H1 9184   2.050   4.161  15.642 -0.6334 -1.3788  1.7492
  616TMC3    H2 9185   2.062   4.583  15.755 -0.4411 -0.4374 -1.3879
  616TMC3    C7 9186   1.963   4.422  15.573  0.4333  0.3047 -0.3786
  616TMC3    C8 9187   2.224   4.548  15.947  0.4824 -0.1766  0.1761
  616TMC3    O1 9188   1.940   4.544  15.570  0.2478 -0.7695  0.1238
  616TMC3    O2 9189   2.166   4.655  15.954  0.0255  0.8105 -0.2714
  617MPD2     C 9190   0.900   1.587  13.694 -0.8566 -0.2796 -0.1677
  617MPD2    C1 9191   0.811   1.536  13.788 -0.0096  0.7166  0.3297
  617MPD2    C2 9192   0.686   1.495  13.743  0.6790 -0.3075  0.1960
  617MPD2    C3 9193   0.654   1.500  13.610 -0.0054 -0.2539  0.7347
  617MPD2    C4 9194   0.746   1.551  13.517 -0.5013  0.2393  0.3007
  617MPD2    C5 9195   0.863   1.599  13.564 -0.1072 -0.2219 -0.5677
  617MPD2     H 9196   0.616   1.471  13.822 -0.1579  0.6641 -0.2450
  617MPD2    H1 9197   0.733   1.572  13.411 -1.4288  2.8148  0.9190
  617MPD2    H2 9198   1.004   1.609  13.717 -0.3047 -2.0315 -0.9645
  617MPD2    H3 9199   0.942   1.640  13.502 -0.2801  0.7009 -0.1736
  617MPD2     N 9200   0.524   1.479  13.564  0.5983 -0.2362 -0.2083
  617MPD2    H5 9201   0.502   1.490  13.466  1.8403  1.0480 -0.3342
  617MPD2    N1 9202   0.852   1.519  13.920 -0.1082  0.2690  0.4800
  617MPD2    H7 9203   0.946   1.544  13.949  0.4937 -0.4421 -0.8227
  618TMC3    C1 9204   0.873   1.438  14.135 -0.8521  0.8199 -0.0654
  618TMC3    C2 9205   0.866   1.306  14.179 -0.3746 -0.9253 -0.0501
  618TMC3    C3 9206   0.981   1.247  14.234 -0.3388 -0.2972 -0.2837
  618TMC3    C4 9207   0.991   1.505  14.146 -0.1764 -0.1296 -0.0484
  618TMC3    C5 9208   1.093   1.435  14.204  0.0369  0.1732  0.1895
  618TMC3    C6 9209   1.097   1.313  14.254 -0.2780 -0.2932 -0.1763
  618TMC3     C 9210   0.787   1.454  14.022  0.1076 -0.2640  0.0351
  618TMC3     O 9211   0.678   1.399  14.028 -0.2740  0.1776  0.0857
  618TMC3     H 9212   0.776   1.246  14.169 -0.4485 -1.3611  3.3619
  618TMC3    H1 9213   0.995   1.607  14.109 -1.2969 -0.3454 -0.7537
  618TMC3    H2 9214   1.182   1.275  14.310  0.5293  3.3676  1.0755
  618TMC3    C7 9215   1.205   1.525  14.242 -0.8526 -0.5823 -0.5793
  618TMC3    C8 9216   0.974   1.100  14.225 -0.0600  0.3011 -0.0415
  618TMC3    O1 9217   1.170   1.641  14.256  0.0036 -0.0331 -0.3654
  618TMC3    O2 9218   0.863   1.047  14.225 -0.5128 -0.0179 -0.8107
  619MPD2     C 9219   1.437   2.091  13.706 -0.5086  0.2602 -0.0076
  619MPD2    C1 9220   1.486   2.222  13.702  0.0872  0.2442  0.4516
  619MPD2    C2 9221   1.445   2.312  13.798  0.4679 -0.2892  1.2299
  619MPD2    C3 9222   1.352   2.276  13.895 -0.0627  0.3746  0.3539
  619MPD2    C4 9223   1.298   2.150  13.887 -0.1064 -0.3594  0.0642
  619MPD2    C5 9224   1.343   2.056  13.799 -0.3747  0.0206 -0.3041
  619MPD2     H 9225   1.478   2.415  13.791  0.2935 -0.3863 -1.0107
  619MPD2    H1 9226   1.227   2.115  13.963 -0.5846 -1.5696 -0.9345
  619MPD2    H2 9227   1.471   2.008  13.644  0.9650  0.0324  1.1049
  619MPD2    H3 9228   1.292   1.961  13.793  1.2858 -0.8705 -0.2216
  619MPD2     N 9229   1.298   2.360  13.990 -0.2394  0.2476  0.1911
  619MPD2    H5 9230   1.225   2.320  14.048  0.0522 -2.3344 -1.2501
  619MPD2    N1 9231   1.582   2.264  13.608  0.1876  0.6362  0.1046
  619MPD2    H7 9232   1.607   2.363  13.607  1.1497  0.3988 -0.9395
  620TMC3    C1 9233   1.712   2.253  13.411  0.3222 -0.6347  0.5818
  620TMC3    C2 9234   1.667   2.372  13.363  0.2573  0.1267  0.2150
  620TMC3    C3 9235   1.759   2.447  13.285 -0.5122  0.4526  0.0929
  620TMC3    C4 9236   1.837   2.205  13.377  0.2967 -0.2102  0.3624
  620TMC3    C5 9237   1.920   2.275  13.299  0.0019 -0.1627 -0.1614
  620TMC3    C6 9238   1.881   2.396  13.251  0.4943 -0.0575  0.6974
  620TMC3     C 9239   1.640   2.182  13.522  0.4059 -0.0406  0.2499
  620TMC3     O 9240   1.648   2.060  13.528  0.4417  0.1142  0.1418
  620TMC3     H 9241   1.572   2.414  13.393  0.7971  2.2017 -1.0026
  620TMC3    H1 9242   1.874   2.124  13.438  2.3343 -0.8089 -1.6695
  620TMC3    H2 9243   1.954   2.454  13.195 -0.5895  0.4407 -0.1830
  620TMC3    C7 9244   2.048   2.291  13.374  0.1826  0.0261  0.1177
  620TMC3    C8 9245   1.772   2.585  13.312 -0.5494  0.1349 -0.1007
  620TMC3    O1 9246   2.120   2.195  13.394 -0.2367  0.0211 -0.5648
  620TMC3    O2 9247   1.885   2.624  13.348 -0.0103  0.0307  0.3615
  621MPD2     C 9248   2.285   2.924   9.825  0.7225  0.3690 -0.1505
  621MPD2    C1 9249   2.312   2.920   9.961  0.6601  0.2557  0.2851
  621MPD2    C2 9250   2.397   3.008  10.019  0.2864 -0.2968  0.0581
  621MPD2    C3 9251   2.453   3.110   9.949 -0.1651  0.1258 -0.2123
  621MPD2    C4 9252   2.421   3.122   9.814 -0.0324 -0.4242 -0.0667
  621MPD2    C5 9253   2.329   3.040   9.756 -0.1168 -0.4758 -0.1004
  621MPD2     H 9254   2.419   2.990  10.123 -4.0217 -2.4438  0.5734
  621MPD2    H1 9255   2.475   3.197   9.758 -0.3342 -0.8019 -0.8631
  621MPD2    H2 9256   2.216   2.853   9.781  0.3024 -1.0176  2.7542
  621MPD2    H3 9257   2.316   3.061   9.651  1.8435  0.0593 -0.2295
  621MPD2     N 9258   2.543   3.189  10.012  0.1528  0.3681  0.6269
  621MPD2    H5 9259   2.560   3.181  10.112 -0.7314  2.4202  0.9499
  621MPD2    N1 9260   2.253   2.824  10.055 -0.2495 -0.3462  0.0830
  621MPD2    H7 9261   2.287   2.818  10.150  2.2433  0.1978 -0.7577
  622TMC3    C1 9262   2.126   2.648  10.137  0.7238 -0.9502  0.0263
  622TMC3    C2 9263   2.126   2.704  10.261 -0.1163 -0.1848 -0.3529
  622TMC3    C3 9264   2.104   2.623  10.369  0.1382  0.6404  0.7034
  622TMC3    C4 9265   2.130   2.507  10.118  0.1305  0.2796 -0.8420
  622TMC3    C5 9266   2.108   2.435  10.227 -0.3162 -0.4345  0.1380
  622TMC3    C6 9267   2.097   2.483  10.359  0.0721  0.3049 -0.5972
  622TMC3     C 9268   2.168   2.726  10.019 -0.6453  0.0115  0.2899
  622TMC3     O 9269   2.140   2.674   9.911 -0.0257 -0.1214 -0.1670
  622TMC3     H 9270   2.135   2.811  10.272  0.2511 -0.4250  1.7873
  622TMC3    H1 9271   2.132   2.460  10.020 -1.5680 -0.9166 -0.3111
  622TMC3    H2 9272   2.084   2.418  10.445 -0.1877 -0.4141 -1.1845
  622TMC3    C7 9273   2.057   2.299  10.217 -0.2789  0.4259  0.3499
  622TMC3    C8 9274   2.092   2.677  10.499 -0.9440 -0.0351  0.0480
  622TMC3    O1 9275   2.059   2.223  10.320  0.1699 -0.3906  0.2777
  622TMC3    O2 9276   2.077   2.597  10.590 -0.0413 -0.5988  0.3089
  623MPD2     C 9277   0.812   3.282  15.822 -0.0817 -0.3158  0.7341
  623MPD2    C1 9278   0.732   3.358  15.904  0.7936 -0.5406  0.4861
  623MPD2    C2 9279   0.789   3.418  16.015  0.4327 -0.3684  0.5354
  623MPD2    C3 9280   0.925   3.420  16.034  0.0548  0.4017  0.8895
  623MPD2    C4 9281   1.007   3.350  15.946 -0.3185  0.3351  0.7981
  623MPD2    C5 9282   0.949   3.282  15.844  0.6260 -1.0198  0.0063
  623MPD2     H 9283   0.722   3.474  16.080  0.6792  0.2588  0.2460
  623MPD2    H1 9284   1.112   3.338  15.971  0.3087  3.1106 -0.4562
  623MPD2    H2 9285   0.763   3.222  15.747  1.4707  0.3512 -0.8300
  623MPD2    H3 9286   1.014   3.219  15.784  1.0179 -1.3328  0.7741
  623MPD2     N 9287   0.964   3.490  16.154  0.5683  0.2516  0.3479
  623MPD2    H5 9288   0.884   3.516  16.212  0.8005  1.8627 -0.0528
  623MPD2    N1 9289   0.593   3.368  15.895  0.1028  0.2886  0.4078
  623MPD2    H7 9290   0.538   3.435  15.947  0.0164  0.7009 -0.2175
  624TMC3    C1 9291   1.247   3.629  16.498  0.1248 -0.4195 -0.0098
  624TMC3    C2 9292   1.137   3.628  16.585  0.0591 -0.2369 -0.1196
  624TMC3    C3 9293   1.018   3.626  16.534  0.0232 -0.1236  0.4581
  624TMC3    C4 9294   1.227   3.603  16.360 -0.2818 -0.0747 -0.0767
  624TMC3    C5 9295   1.098   3.591  16.317 -0.4651 -0.0888  0.0060
  624TMC3    C6 9296   0.995   3.603  16.401  0.0700  0.2898  0.0164
  624TMC3     C 9297   1.369   3.572  16.558  0.1955 -0.6444 -0.2347
  624TMC3     O 9298   1.364   3.548  16.681 -0.6433 -0.2116  0.5365
  624TMC3     H 9299   1.146   3.643  16.692  0.7662 -0.6533 -0.1143
  624TMC3    H1 9300   1.312   3.598  16.292  1.3948  1.8278  1.8700
  624TMC3    H2 9301   0.891   3.588  16.374  0.9278 -3.1639 -1.3149
  624TMC3    C7 9302   1.088   3.524  16.187 -0.0022  0.2328 -0.4338
  624TMC3    C8 9303   0.902   3.591  16.619  0.0513  0.0045  0.2049
  624TMC3    O1 9304   1.186   3.517  16.112  0.1779 -0.4123 -0.0611
  624TMC3    O2 9305   0.829   3.505  16.574  0.6815  0.2905 -0.1999
  625MPD2     C 9306   1.055   4.446   0.451  1.0262 -0.4964  0.4167
  625MPD2    C1 9307   1.106   4.566   0.496  0.5458 -0.6789  0.0760
  625MPD2    C2 9308   1.238   4.573   0.538  0.9320  0.0391  0.3141
  625MPD2    C3 9309   1.334   4.475   0.515 -0.3377 -0.5511 -0.2897
  625MPD2    C4 9310   1.280   4.364   0.455  0.1070  0.0193  0.1508
  625MPD2    C5 9311   1.146   4.351   0.424 -0.2126  0.4288  0.3716
  625MPD2     H 9312   1.263   4.655   0.603 -0.0486  0.0438  0.6725
  625MPD2    H1 9313   1.343   4.277   0.435 -0.5737 -0.5988  0.6990
  625MPD2    H2 9314   0.954   4.421   0.423  1.1564  1.5585 -1.8807
  625MPD2    H3 9315   1.106   4.264   0.374 -0.8186 -0.7878  2.9729
  625MPD2     N 9316   1.463   4.496   0.560 -0.0346 -0.6552 -0.2863
  625MPD2    H5 9317   1.481   4.588   0.601  1.2384 -1.4608  0.9375
  625MPD2    N1 9318   1.022   4.676   0.517 -0.2033 -0.4464  0.6869
  625MPD2    H7 9319   1.073   0.014   0.559  0.3891 -1.7700  2.3612
  626TMC3    C1 9320   0.842   0.082   0.504 -0.4288  0.1285  0.4598
  626TMC3    C2 9321   0.731   0.117   0.442  0.5184 -0.1048  0.0298
  626TMC3    C3 9322   0.680   0.240   0.460  0.0676  0.0164  0.0133
  626TMC3    C4 9323   0.894   0.156   0.600  0.5201 -0.1752 -0.3973
  626TMC3    C5 9324   0.841   0.283   0.614  0.1806  0.0159 -0.5379
  626TMC3    C6 9325   0.728   0.322   0.545 -0.6161 -0.2702 -0.2684
  626TMC3     C 9326   0.890   4.687   0.475 -0.0259 -0.0352 -0.0569
  626TMC3     O 9327   0.818   4.606   0.419 -0.0354 -0.3895 -0.5996
  626TMC3     H 9328   0.689   0.045   0.374 -0.3494 -0.1287  0.5833
  626TMC3    H1 9329   0.974   0.126   0.667 -0.8394 -1.2995  0.7210
  626TMC3    H2 9330   0.709   0.429   0.541 -0.2799 -0.1657  0.8838
  626TMC3    C7 9331   0.892   0.369   0.712 -0.3195  0.3600  0.3316
  626TMC3    C8 9332   0.580   0.289   0.366 -0.4027 -0.3578 -0.2499
  626TMC3    O1 9333   1.011   0.368   0.739 -0.1022  0.7002 -0.0815
  626TMC3    O2 9334   0.585   0.249   0.250  0.2731  0.1540 -0.3759
  627MPD2     C 9335   4.393   0.175  13.842  0.4927 -0.4165  0.3467
  627MPD2    C1 9336   4.398   0.188  13.979  0.3133 -0.4622  0.2422
  627MPD2    C2 9337   4.317   0.099  14.051 -1.4328 -0.2212  0.5937
  627MPD2    C3 9338   4.261   4.722  13.998 -0.6056  0.7440 -0.0326
  627MPD2    C4 9339   4.255   4.712  13.861  0.5422  0.0409  0.4666
  627MPD2    C5 9340   4.314   0.077  13.787  0.6008 -0.2425 -0.3008
  627MPD2     H 9341   4.312   0.113  14.159  0.9755  0.1306  0.6735
  627MPD2    H1 9342   4.202   4.630  13.814  0.3116  0.0617  0.6942
  627MPD2    H2 9343   4.446   0.250  13.784 -0.0229 -0.8977 -0.7422
  627MPD2    H3 9344   4.308   0.079  13.679 -0.8964  0.6048 -0.2078
  627MPD2     N 9345   4.206   4.630  14.088 -0.2375  0.0941 -0.1288
  627MPD2    H5 9346   4.226   4.649  14.186 -0.5627 -0.2819  0.0084
  627MPD2    N1 9347   4.485   0.278  14.053 -0.5851  0.6575  0.6813
  627MPD2    H7 9348   4.497   0.253  14.151  1.5690 -0.0975  0.2165
  628TMC3    C1 9349   4.633   0.456  14.107 -0.1074  0.1866  0.3528
  628TMC3    C2 9350   4.691   0.374  14.196  0.2096 -0.3718 -0.2378
  628TMC3    C3 9351   0.057   0.439  14.261  0.2812 -0.1020  0.1119
  628TMC3    C4 9352   4.669   0.587  14.081  0.2115 -0.0765 -0.1023
  628TMC3    C5 9353   0.026   0.643  14.153 -0.4249 -0.5009  0.3886
  628TMC3    C6 9354   0.097   0.567  14.234  0.1099  0.2679  0.0153
  628TMC3     C 9355   4.550   0.398  14.006 -0.2135  0.1287  0.3763
  628TMC3     O 9356   4.530   0.465  13.906  0.0914  0.2427  0.4870
  628TMC3     H 9357   4.674   0.268  14.211  0.2861 -0.3847 -0.2396
  628TMC3    H1 9358   4.593   0.648  14.033  0.2445  0.3517  0.3811
  628TMC3    H2 9359   0.169   0.611  14.302 -0.2870  1.2544 -0.1991
  628TMC3    C7 9360   0.020   0.788  14.173  0.5097 -0.0473 -0.2997
  628TMC3    C8 9361   0.137   0.357  14.343  0.0144  0.4523  1.0801
  628TMC3    O1 9362   0.056   0.830  14.280 -0.5220  0.0425 -0.3756
  628TMC3    O2 9363   0.257   0.346  14.308  0.1754 -0.1881  0.1934
  629MPD2     C 9364   2.671   0.017  16.108  0.0946 -0.1953 -0.1964
  629MPD2    C1 9365   2.688   4.623  16.091  0.6679  0.2745 -0.7271
  629MPD2    C2 9366   2.578   4.554  16.027  0.3535 -0.1637 -0.0053
  629MPD2    C3 9367   2.455   4.610  16.011 -0.4044 -0.0699 -0.0236
  629MPD2    C4 9368   2.441   0.004  16.043  0.2131 -0.2290  0.3208
  629MPD2    C5 9369   2.550   0.082  16.080 -0.4564 -0.7114  0.0825
  629MPD2     H 9370   2.580   4.449  16.003  2.2061 -0.4581  1.4920
  629MPD2    H1 9371   2.344   0.049  16.027  0.4068 -0.9990 -2.9754
  629MPD2    H2 9372   2.748   0.080  16.151  0.9007 -1.0274 -0.4138
  629MPD2    H3 9373   2.534   0.189  16.087 -0.6409 -0.7462  0.1950
  629MPD2     N 9374   2.354   4.519  15.971  1.0127  0.1590  0.0018
  629MPD2    H5 9375   2.381   4.422  15.955  0.2450 -0.5179  2.9111
  629MPD2    N1 9376   2.806   4.552  16.125 -0.6195  0.4586 -0.0562
  629MPD2    H7 9377   2.872   4.613  16.172 -0.8711 -1.7016  3.0318
  630TMC3    C1 9378   2.952   4.372  16.178 -0.4650 -0.5379 -0.6754
  630TMC3    C2 9379   3.062   4.446  16.150  0.9618 -0.4816 -0.1623
  630TMC3    C3 9380   3.174   4.405  16.229 -0.1056 -0.7219  0.1531
  630TMC3    C4 9381   2.947   4.262  16.259 -0.0883  0.0053  0.4777
  630TMC3    C5 9382   3.062   4.235  16.327 -0.1582  0.0257 -0.0349
  630TMC3    C6 9383   3.177   4.300  16.310 -0.0333  0.2610 -0.0605
  630TMC3     C 9384   2.820   4.413  16.119  0.6094  0.0773  0.5195
  630TMC3     O 9385   2.735   4.325  16.107 -0.0773 -1.1659  0.1298
  630TMC3     H 9386   3.069   4.523  16.075  3.5002  0.8629  1.4468
  630TMC3    H1 9387   2.850   4.232  16.296  0.8093 -1.6861  1.4590
  630TMC3    H2 9388   3.267   4.271  16.363  0.6593  1.4804 -0.5708
  630TMC3    C7 9389   3.054   4.137  16.432  0.9372 -0.5137  0.9425
  630TMC3    C8 9390   3.306   4.473  16.208  0.1036  0.4780 -0.7284
  630TMC3    O1 9391   3.148   4.127  16.510 -0.1473 -0.6109  0.6170
  630TMC3    O2 9392   3.369   4.487  16.310 -0.2651  0.4975  0.1575
  631MPD2     C 9393   1.168   3.577  15.453  0.6328  0.0308 -0.0822
  631MPD2    C1 9394   1.252   3.640  15.363 -0.0421  0.3473  0.5284
  631MPD2    C2 9395   1.385   3.593  15.352 -0.0339 -0.0833  0.3521
  631MPD2    C3 9396   1.419   3.484  15.428 -0.5624  0.2164 -0.2621
  631MPD2    C4 9397   1.326   3.406  15.505  0.7107  0.5236  0.4079
  631MPD2    C5 9398   1.195   3.451  15.503  0.4294  0.2815  0.6153
  631MPD2     H 9399   1.463   3.654  15.308 -1.1319  0.4269 -0.9191
  631MPD2    H1 9400   1.352   3.309  15.546 -0.4097 -0.1654 -0.5278
  631MPD2    H2 9401   1.070   3.618  15.473  0.6001  0.1908 -0.5775
  631MPD2    H3 9402   1.121   3.394  15.557  0.5806  0.0372  0.5645
  631MPD2     N 9403   1.556   3.443  15.409  0.5481 -0.2151  0.2555
  631MPD2    H5 9404   1.615   3.509  15.361 -0.3661  1.2869  1.1991
  631MPD2    N1 9405   1.205   3.748  15.299  0.0444  0.4656  0.4278
  631MPD2    H7 9406   1.125   3.797  15.336 -0.4638  0.7996 -1.1076
  632TMC3    C1 9407   1.205   3.926  15.136  0.1385  0.2047  0.8517
  632TMC3    C2 9408   1.097   3.971  15.201  0.0767 -0.4283  0.2274
  632TMC3    C3 9409   1.072   4.106  15.175 -0.3104  0.2132  0.3011
  632TMC3    C4 9410   1.281   3.998  15.046  1.0510 -0.6184 -0.5772
  632TMC3    C5 9411   1.245   4.127  15.029 -0.1824 -0.1689  0.0962
  632TMC3    C6 9412   1.141   4.184  15.082 -0.8802 -0.2455  0.3924
  632TMC3     C 9413   1.267   3.804  15.188  0.0903  0.2277  0.3918
  632TMC3     O 9414   1.359   3.759  15.120  0.1963 -0.2548 -0.2319
  632TMC3     H 9415   1.033   3.912  15.265  1.1797 -1.1051  0.7058
  632TMC3    H1 9416   1.367   3.945  15.006 -0.3470 -3.0728 -0.3084
  632TMC3    H2 9417   1.114   4.285  15.054 -0.0767  0.1655  1.0809
  632TMC3    C7 9418   1.326   4.190  14.927  0.0091  0.0428  0.1635
  632TMC3    C8 9419   0.987   4.171  15.275  0.0776 -0.3358 -0.1881
  632TMC3    O1 9420   1.392   4.118  14.850  0.6452 -0.2052 -0.0527
  632TMC3    O2 9421   0.909   4.104  15.343 -0.7349 -0.1948 -0.1652
  633MPD2     C 9422   0.640   1.779  17.330  0.3092 -0.5016 -0.4148
  633MPD2    C1 9423   0.698   1.700  17.233 -0.0352 -0.5819  0.6746
  633MPD2    C2 9424   0.674   1.564  17.215  0.1829  0.9365  0.6157
  633MPD2    C3 9425   0.568   1.511  17.283 -0.0499  0.5377 -0.2377
  633MPD2    C4 9426   0.511   1.586  17.382  0.1042  0.3389  0.5069
  633MPD2    C5 9427   0.551   1.716  17.403  0.1991  0.8137  0.0278
  633MPD2     H 9428   0.735   1.512  17.142 -0.2054 -1.2064  1.8091
  633MPD2    H1 9429   0.440   1.536  17.446 -1.2753  1.9586  0.2541
  633MPD2    H2 9430   0.664   1.882  17.354  1.6944 -1.2942  1.5729
  633MPD2    H3 9431   0.505   1.768  17.486 -0.6455  1.7300 -1.0249
  633MPD2     N 9432   0.531   1.379  17.268  0.4782 -0.2628 -0.1800
  633MPD2    H5 9433   0.493   1.332  17.350 -0.2260  0.3073 -0.1869
  633MPD2    N1 9434   0.802   1.748  17.153 -0.1687 -0.5586 -0.0337
  633MPD2    H7 9435   0.841   1.683  17.085 -2.3577  1.4367 -3.1482
  634TMC3    C1 9436   0.935   1.910  17.032 -0.8974 -0.9981 -0.9874
  634TMC3    C2 9437   1.009   1.814  16.971 -0.3403 -0.2297  0.5839
  634TMC3    C3 9438   1.058   1.840  16.848  0.2138 -0.1634 -0.8518
  634TMC3    C4 9439   0.911   2.030  16.962 -1.0229  0.1328 -0.1905
  634TMC3    C5 9440   0.966   2.056  16.840 -0.5490  0.0437 -0.4293
  634TMC3    C6 9441   1.038   1.958  16.780 -0.4162  0.0750 -0.3892
  634TMC3     C 9442   0.848   1.881  17.143  0.5203 -0.3773 -0.4266
  634TMC3     O 9443   0.818   1.978  17.209 -0.0554  0.1162 -0.3658
  634TMC3     H 9444   1.037   1.726  17.029 -0.4575  0.3357  1.4955
  634TMC3    H1 9445   0.850   2.107  17.008 -1.5198  1.0209 -2.3323
  634TMC3    H2 9446   1.084   1.970  16.683 -2.0081 -3.5707 -1.6013
  634TMC3    C7 9447   0.939   2.176  16.761  0.2394 -0.6556 -0.0997
  634TMC3    C8 9448   1.126   1.726  16.785  0.4389  0.0410 -0.3007
  634TMC3    O1 9449   1.014   2.195  16.667 -0.6331  0.0440 -0.4240
  634TMC3    O2 9450   1.130   1.620  16.846 -0.0644 -0.1296 -0.1030
  635TMC3    C1 9451   0.512   2.940   0.059 -0.0834  0.4718  0.5454
  635TMC3    C2 9452   0.553   2.990   0.182 -0.3799  0.0818  0.1885
  635TMC3    C3 9453   0.461   3.070   0.247 -0.1379  0.1335 -0.6046
  635TMC3    C4 9454   0.394   2.973   0.000 -0.9146  0.6919  0.2800
  635TMC3    C5 9455   0.312   3.067   0.058  0.3757  0.4040 -0.2438
  635TMC3    C6 9456   0.337   3.111   0.184  0.8640 -0.1840 -0.3145
  635TMC3     C 9457   0.612   2.891  17.720 -0.7397  0.0905 -0.3066
  635TMC3     O 9458   0.586   2.795  17.648 -0.4117  0.0703  0.0922
  635TMC3     H 9459   0.651   2.966   0.222  0.4187  0.5692 -1.4481
  635TMC3    H1 9460   0.380   2.941  17.650 -2.7721 -0.1889  0.8021
  635TMC3    H2 9461   0.265   3.161   0.247 -0.4872 -0.3646 -1.7454
  635TMC3    C7 9462   0.192   3.116  17.740 -0.1250  0.0557  0.1635
  635TMC3    C8 9463   0.477   3.112   0.386 -0.1450  0.5043 -0.0567
  635TMC3    O1 9464   0.150   3.050  17.646 -0.6357 -0.4076  0.4055
  635TMC3    O2 9465   0.447   3.229   0.411  0.0003  0.2669 -0.5516
  636MPD2     C 9466   1.801   2.090  16.040  0.0736  0.1881 -0.3137
  636MPD2    C1 9467   1.840   2.093  16.166 -0.5207 -0.3516 -0.0025
  636MPD2    C2 9468   1.961   2.028  16.192 -0.4505 -0.8480 -1.1607
  636MPD2    C3 9469   2.039   1.975  16.088  0.4965 -0.4360 -0.1497
  636MPD2    C4 9470   1.996   1.984  15.959 -0.0343  1.1645 -0.3042
  636MPD2    C5 9471   1.877   2.035  15.936  0.7793 -0.7756  0.0287
  636MPD2     H 9472   2.002   2.028  16.292 -0.6698 -1.2277 -1.0707
  636MPD2    H1 9473   2.051   1.955  15.870 -0.5093  0.3641 -0.3367
  636MPD2    H2 9474   1.711   2.142  16.006 -0.8558 -0.6412  0.8776
  636MPD2    H3 9475   1.848   2.054  15.833  0.7763  0.2526  0.2138
  636MPD2     N 9476   2.171   1.943  16.113  0.3323  0.3968 -0.3794
  636MPD2    H5 9477   2.196   1.941  16.211 -1.1547 -2.7593 -0.0681
  636MPD2    N1 9478   1.755   2.150  16.262  0.0329  0.1950  0.6392
  636MPD2    H7 9479   1.672   2.200  16.233 -0.2727 -1.0554 -0.6578
  637TMC3    C1 9480   2.397   1.908  16.058  0.4133 -0.6358  0.6780
  637TMC3    C2 9481   2.414   1.823  16.162 -0.0417  0.6743 -0.7057
  637TMC3    C3 9482   2.522   1.829  16.243  0.9330 -0.2316  0.3868
  637TMC3    C4 9483   2.495   2.002  16.038  0.1079 -0.3870 -0.0980
  637TMC3    C5 9484   2.608   2.007  16.114 -0.0907 -0.0599 -0.3825
  637TMC3    C6 9485   2.621   1.914  16.217  0.1030  0.6638  0.1722
  637TMC3     C 9486   2.261   1.936  16.010 -0.0707 -0.4131  0.0196
  637TMC3     O 9487   2.255   1.975  15.893 -0.7045 -0.1322  0.0856
  637TMC3     H 9488   2.326   1.761  16.178 -0.7899  1.7625 -0.5746
  637TMC3    H1 9489   2.475   2.067  15.954  1.0720 -0.0837 -0.0962
  637TMC3    H2 9490   2.710   1.917  16.277  0.9936 -0.6410 -1.0660
  637TMC3    C7 9491   2.642   2.144  16.142 -0.6180  0.4555  0.0535
  637TMC3    C8 9492   2.546   1.716  16.340 -0.2286 -0.2514 -0.8715
  637TMC3    O1 9493   2.677   2.165  16.259 -0.7475  0.1373  0.4593
  637TMC3    O2 9494   2.658   1.663  16.324 -0.2830 -0.0257 -0.4040
  638MPD2     C 9495   1.928   1.266  14.358  0.5760 -0.4303 -0.1918
  638MPD2    C1 9496   1.997   1.146  14.379 -0.8370 -0.5523 -0.7489
  638MPD2    C2 9497   1.945   1.061  14.474  0.7108  0.5330 -0.9232
  638MPD2    C3 9498   1.838   1.098  14.542 -0.5193  0.4498 -0.3267
  638MPD2    C4 9499   1.758   1.199  14.512  0.3717 -0.0861 -0.3683
  638MPD2    C5 9500   1.810   1.282  14.418  0.0482  0.0459  0.3418
  638MPD2     H 9501   1.983   0.961  14.492 -0.9859 -0.1179 -0.9187
  638MPD2    H1 9502   1.662   1.226  14.555 -0.3197 -3.7507  0.3383
  638MPD2    H2 9503   1.957   1.345  14.290  1.4824 -0.8311 -0.2734
  638MPD2    H3 9504   1.754   1.374  14.404  0.0818  0.4307  2.6067
  638MPD2     N 9505   1.805   1.015  14.654 -0.2010 -0.5739 -0.5282
  638MPD2    H5 9506   1.842   0.921  14.639 -0.8844 -0.9074 -0.1286
  638MPD2    N1 9507   2.122   1.121  14.320  0.3040 -0.6343 -0.5711
  638MPD2    H7 9508   2.168   1.034  14.345 -3.2342 -2.7881 -1.5206
  639TMC3    C1 9509   1.789   0.973  14.878 -0.3326  0.4439  0.4592
  639TMC3    C2 9510   1.761   0.843  14.871 -0.5497  0.7809  0.1560
  639TMC3    C3 9511   1.862   0.756  14.909  0.9912  0.7047 -0.2643
  639TMC3    C4 9512   1.897   1.025  14.932  0.2799 -0.1532  0.4660
  639TMC3    C5 9513   1.991   0.943  14.974  0.0628 -0.4105 -0.0999
  639TMC3    C6 9514   1.983   0.810  14.953 -0.5716  0.2355  0.6625
  639TMC3     C 9515   1.737   1.057  14.769  0.0382 -0.5022  0.3638
  639TMC3     O 9516   1.713   1.173  14.797  0.0881 -0.2966  0.1341
  639TMC3     H 9517   1.677   0.804  14.815 -0.9095 -0.8080  1.8049
  639TMC3    H1 9518   1.924   1.130  14.933 -2.8691  0.6536 -0.3692
  639TMC3    H2 9519   2.059   0.739  14.984 -0.4358 -1.6731 -4.1534
  639TMC3    C7 9520   2.125   0.992  14.979  0.9515  0.9228  0.4106
  639TMC3    C8 9521   1.860   0.619  14.865  0.0566  0.5549  0.5864
  639TMC3    O1 9522   2.141   1.109  15.015 -0.2714  0.7095 -1.0271
  639TMC3    O2 9523   1.965   0.564  14.841 -1.0384 -0.2409  0.7927
  640MPD2     C 9524   3.311   0.054   9.734  0.2419 -0.4704  0.0199
  640MPD2    C1 9525   3.192   4.731   9.770 -0.2931  0.9794 -0.0381
  640MPD2    C2 9526   3.127   0.027   9.882  0.9165 -0.0756 -0.5892
  640MPD2    C3 9527   3.165   0.139   9.961 -0.6258 -0.5317  0.1238
  640MPD2    C4 9528   3.287   0.202   9.928  0.4631  0.1107  1.1573
  640MPD2    C5 9529   3.352   0.163   9.810 -1.0065  0.0867 -0.4412
  640MPD2     H 9530   3.038   4.712   9.915  1.2317  0.0116  0.3772
  640MPD2    H1 9531   3.314   0.288   9.988  2.0222  1.4964 -1.5343
  640MPD2    H2 9532   3.356   0.043   9.636 -0.3345  0.8130 -0.3922
  640MPD2    H3 9533   3.446   0.210   9.783  1.3782 -3.5851  1.5006
  640MPD2     N 9534   3.090   0.201  10.063 -0.8812  0.7700 -0.1619
  640MPD2    H5 9535   3.140   0.273  10.113 -0.7327 -0.1023  0.9425
  640MPD2    N1 9536   3.138   4.629   9.691  0.0118 -0.5938 -0.6468
  640MPD2    H7 9537   3.191   4.613   9.606 -0.7851  0.6585 -1.3935
  641TMC3    C1 9538   2.988   4.473   9.590 -0.2309  0.3002 -0.0488
  641TMC3    C2 9539   3.077   4.369   9.598 -0.2190  0.1167 -0.3498
  641TMC3    C3 9540   3.040   4.247   9.553  0.5065 -0.5829  0.1306
  641TMC3    C4 9541   2.865   4.457   9.555  0.0462  0.5450 -0.1247
  641TMC3    C5 9542   2.826   4.336   9.512  0.0778 -0.8640  0.7523
  641TMC3    C6 9543   2.913   4.231   9.495  0.8838 -0.5666  0.2173
  641TMC3     C 9544   3.011   4.578   9.689 -0.3102 -0.3098 -0.0406
  641TMC3     O 9545   2.913   4.619   9.750 -0.0196  0.1153  0.4078
  641TMC3     H 9546   3.169   4.383   9.654  1.0277  0.8928 -2.5538
  641TMC3    H1 9547   2.793   4.535   9.573 -0.7492 -0.0163 -0.8640
  641TMC3    H2 9548   2.880   4.136   9.455  0.1745 -0.5888  0.8554
  641TMC3    C7 9549   2.694   4.326   9.450 -0.0073 -0.3418  0.8509
  641TMC3    C8 9550   3.132   4.133   9.550 -0.0177  0.4748  0.0200
  641TMC3    O1 9551   2.684   4.251   9.351 -0.4446  0.7654 -0.2728
  641TMC3    O2 9552   3.109   4.041   9.470  0.2535 -0.2784  0.5376
  642TMC3    C1 9553   3.848   0.446  12.559  0.4511  0.1982  1.0365
  642TMC3    C2 9554   3.939   0.514  12.484 -0.2411  0.3397 -0.1465
  642TMC3    C3 9555   3.950   0.480  12.352 -0.6614  0.5098  0.4218
  642TMC3    C4 9556   3.776   0.342  12.515 -0.3782 -0.6955  0.2627
  642TMC3    C5 9557   3.806   0.292  12.386 -0.5368  0.4174 -0.8386
  642TMC3    C6 9558   3.885   0.367  12.308  0.2168  0.1591  0.7641
  642TMC3     C 9559   3.823   0.506  12.684  0.1937  0.2648  0.3036
  642TMC3     O 9560   3.918   0.565  12.731  0.8148  0.2882  0.9469
  642TMC3     H 9561   4.013   0.575  12.534 -1.5169  1.6370  0.1588
  642TMC3    H1 9562   3.713   0.290  12.585 -1.0098  1.4074  1.2615
  642TMC3    H2 9563   3.894   0.342  12.203 -3.3726  1.7985  0.0765
  642TMC3    C7 9564   3.704   0.218  12.316 -0.7440 -0.6325  0.4086
  642TMC3    C8 9565   4.049   0.550  12.269  0.0404 -0.0498  0.4839
  642TMC3    O1 9566   3.700   0.232  12.193  0.3233  0.3202 -0.6794
  642TMC3    O2 9567   4.096   0.497  12.168  0.5307  0.4628 -0.0976
  643TMC3    C1 9568   2.536   4.065   0.283 -0.0977  0.8021 -0.0672
  643TMC3    C2 9569   2.414   4.061   0.218  0.4443 -0.3593  0.0832
  643TMC3    C3 9570   2.409   4.067   0.077  0.0779  0.2599  0.0436
  643TMC3    C4 9571   2.655   4.051   0.215  0.2932 -0.1758 -1.3048
  643TMC3    C5 9572   2.647   4.052   0.078 -0.1714  0.1490 -0.0024
  643TMC3    C6 9573   2.526   4.066   0.006  0.4815  0.1623  0.3027
  643TMC3     C 9574   2.547   4.098   0.423  0.2624 -0.2491 -0.2034
  643TMC3     O 9575   2.442   4.164   0.453  0.2656  0.1304 -0.1728
  643TMC3     H 9576   2.325   4.044   0.277  0.4777 -0.5849  0.0690
  643TMC3    H1 9577   2.754   4.050   0.258  0.9279 -1.1472 -2.8240
  643TMC3    H2 9578   2.521   4.067  17.651  0.7058 -1.6442  0.2724
  643TMC3    C7 9579   2.725   4.162   0.019  0.5131  0.8334 -0.3470
  643TMC3    C8 9580   2.311   4.159   0.030  0.4367  0.2868 -0.1584
  643TMC3    O1 9581   2.653   4.252  17.727  0.0807 -0.4334  0.3577
  643TMC3    O2 9582   2.194   4.161   0.064  0.2135  0.0305  0.8910
  644MPD2     C 9583   2.280   4.652   9.049 -0.5484  0.2036  0.0355
  644MPD2    C1 9584   2.396   4.648   9.135  0.1306  0.2500 -0.3868
  644MPD2    C2 9585   2.388   4.726   9.246  1.0353 -0.0667 -0.5552
  644MPD2    C3 9586   2.276   0.067   9.285 -0.6128  0.4652  0.1897
  644MPD2    C4 9587   2.171   0.071   9.199  0.3748  0.6447 -0.3318
  644MPD2    C5 9588   2.171   4.724   9.087 -0.5719  0.4452  0.6352
  644MPD2     H 9589   2.473   4.722   9.314 -1.6070  0.4983  2.7500
  644MPD2    H1 9590   2.079   0.125   9.218  0.0808 -0.0656  0.2837
  644MPD2    H2 9591   2.277   4.590   8.960  0.5479 -0.3361  0.3688
  644MPD2    H3 9592   2.087   4.717   9.018 -0.9342  1.3778  0.9762
  644MPD2     N 9593   2.280   0.127   9.414  0.7478 -0.7844  0.1466
  644MPD2    H5 9594   2.363   0.110   9.470  0.6328  0.0134  0.5547
  644MPD2    N1 9595   2.509   4.588   9.089 -0.2091  0.1822  0.3361
  644MPD2    H7 9596   2.496   4.536   9.003 -0.0878  0.1479  0.3380
  645TMC3    C1 9597   2.227   0.256   9.598  0.0033  0.3337 -0.1797
  645TMC3    C2 9598   2.126   0.298   9.680  0.1794  0.3472 -0.4655
  645TMC3    C3 9599   2.149   0.401   9.768  0.0081  0.2200 -0.2905
  645TMC3    C4 9600   2.347   0.318   9.594 -0.0129 -0.0871 -0.1583
  645TMC3    C5 9601   2.364   0.426   9.672  0.2962 -0.2011 -0.0812
  645TMC3    C6 9602   2.273   0.465   9.768 -0.1534 -0.0257  0.2147
  645TMC3     C 9603   2.178   0.194   9.481 -0.2405 -0.4054 -0.3699
  645TMC3     O 9604   2.059   0.201   9.456  0.2083 -0.1492  0.1832
  645TMC3     H 9605   2.022   0.269   9.680  0.5356 -0.9336  0.0707
  645TMC3    H1 9606   2.420   0.302   9.516  0.3543 -1.5599  0.4890
  645TMC3    H2 9607   2.311   0.531   9.845 -1.8768  1.3468 -0.1257
  645TMC3    C7 9608   2.479   0.505   9.659  0.2724 -0.1336  0.5260
  645TMC3    C8 9609   2.038   0.452   9.856  0.8502  0.2563  0.1868
  645TMC3    O1 9610   2.490   0.614   9.711  0.0132  0.2992  0.4330
  645TMC3    O2 9611   1.932   0.392   9.857 -0.1384 -0.3240  0.2935
  646MPD2     C 9612   2.429   4.378  14.680 -0.1923  0.6364  0.2528
  646MPD2    C1 9613   2.390   4.485  14.757  0.1840  0.2349  0.1607
  646MPD2    C2 9614   2.317   4.584  14.696  0.7533  0.2500 -0.4334
  646MPD2    C3 9615   2.295   4.581  14.559 -0.1617 -0.8158 -0.1460
  646MPD2    C4 9616   2.332   4.474  14.487 -0.5539  0.2574 -1.1572
  646MPD2    C5 9617   2.401   4.371  14.549 -0.8227 -0.2510 -0.2456
  646MPD2     H 9618   2.272   4.665  14.751 -3.0625 -0.8784 -1.9264
  646MPD2    H1 9619   2.296   4.455  14.386  0.9764  0.6950 -1.7843
  646MPD2    H2 9620   2.477   4.296  14.731 -0.6578  0.5142  0.5008
  646MPD2    H3 9621   2.420   4.283  14.488 -1.6360 -0.5598 -0.0449
  646MPD2     N 9622   2.219   4.684  14.491  0.5252 -0.4456 -0.2925
  646MPD2    H5 9623   2.163   0.012  14.543 -0.1598 -1.5106  0.3207
  646MPD2    N1 9624   2.416   4.476  14.898 -0.1960 -0.6404  0.4812
  646MPD2    H7 9625   2.467   4.392  14.926  0.6867 -0.5207 -0.7483
  647TMC3    C1 9626   2.422   4.518  15.126  0.5358  0.2330  0.2182
  647TMC3    C2 9627   2.330   4.505  15.228  0.0000 -0.3219  0.2270
  647TMC3    C3 9628   2.385   4.473  15.349  0.4692 -0.1384 -0.5727
  647TMC3    C4 9629   2.550   4.477  15.135  1.1257  0.1733  0.3075
  647TMC3    C5 9630   2.599   4.452  15.259 -0.3125 -0.1978 -0.2249
  647TMC3    C6 9631   2.517   4.444  15.364  0.1230 -0.7063  0.6689
  647TMC3     C 9632   2.362   4.551  14.997 -0.1426  0.4111 -0.0085
  647TMC3     O 9633   2.277   4.641  14.992 -0.0414 -0.1425 -0.2587
  647TMC3     H 9634   2.228   4.542  15.224  0.1104 -0.0423  0.0041
  647TMC3    H1 9635   2.612   4.484  15.046  1.6400 -1.1576  0.5657
  647TMC3    H2 9636   2.554   4.407  15.459 -0.9057 -0.2505  1.2424
  647TMC3    C7 9637   2.700   4.352  15.261  0.1492  0.2317 -0.1099
  647TMC3    C8 9638   2.312   4.384  15.432  0.5555  1.1221 -0.6233
  647TMC3    O1 9639   2.789   4.380  15.340  0.8044  0.1570  0.1490
  647TMC3    O2 9640   2.351   4.376  15.549 -0.0800  0.6127  0.1422
  648TMC3    C1 9641   1.635   1.815  16.363  0.7577  0.3886 -0.5715
  648TMC3    C2 9642   1.742   1.731  16.357  0.7143 -0.2323 -0.2679
  648TMC3    C3 9643   1.787   1.702  16.228 -0.2379  0.7597  0.5024
  648TMC3    C4 9644   1.580   1.874  16.258  0.0815 -0.7317  0.4783
  648TMC3    C5 9645   1.611   1.820  16.134  0.3233  0.0987 -0.1013
  648TMC3    C6 9646   1.715   1.736  16.117 -0.2594  0.9404 -0.5827
  648TMC3     C 9647   1.598   1.875  16.492  0.4959 -0.1590  0.7180
  648TMC3     O 9648   1.536   1.978  16.493  0.3075 -0.2457  0.1044
  648TMC3     H 9649   1.800   1.708  16.446 -0.9430  1.4798  1.2689
  648TMC3    H1 9650   1.500   1.946  16.268  0.6963  0.0180 -0.0071
  648TMC3    H2 9651   1.760   1.719  16.020  1.9495 -2.4230  1.0258
  648TMC3    C7 9652   1.549   1.877  16.010  0.0398 -0.2164  0.1896
  648TMC3    C8 9653   1.911   1.616  16.220  0.5398 -0.3942 -0.2832
  648TMC3    O1 9654   1.601   1.855  15.905 -0.1227  0.0348  0.0496
  648TMC3    O2 9655   1.926   1.526  16.300 -0.0463  0.0860  0.2312
  649TMC3    C1 9656   0.844   2.688  13.332  0.4766 -0.6014  0.5252
  649TMC3    C2 9657   0.967   2.742  13.376 -0.1514  0.1850  0.1139
  649TMC3    C3 9658   0.968   2.793  13.506 -0.3670 -0.1475  0.4512
  649TMC3    C4 9659   0.727   2.703  13.399 -0.0621 -0.3759 -0.3706
  649TMC3    C5 9660   0.736   2.761  13.525  0.5446 -0.0548  0.3561
  649TMC3    C6 9661   0.852   2.801  13.586 -0.1109  0.5996 -0.6101
  649TMC3     C 9662   0.832   2.707  13.188 -0.4897  0.3078 -0.1415
  649TMC3     O 9663   0.728   2.756  13.143  0.3368  0.3720 -0.0031
  649TMC3     H 9664   1.049   2.758  13.307 -0.0675 -1.9486 -0.2877
  649TMC3    H1 9665   0.639   2.647  13.373 -1.1912  1.5217 -0.6339
  649TMC3    H2 9666   0.844   2.827  13.690  2.7736  0.0630 -0.2446
  649TMC3    C7 9667   0.613   2.746  13.605  0.0073 -0.0716 -0.3901
  649TMC3    C8 9668   1.053   2.898  13.549  0.1851  0.7758  0.0876
  649TMC3    O1 9669   0.578   2.845  13.663  0.0962  0.4662  0.2851
  649TMC3    O2 9670   1.063   2.999  13.483  0.1765 -0.8312 -0.1287
  650TMC3    C1 9671   3.039   4.318  12.748 -0.1320  0.7282  0.0806
  650TMC3    C2 9672   3.018   4.400  12.853 -0.2161 -0.0530 -0.1510
  650TMC3    C3 9673   2.889   4.441  12.874 -1.1914 -0.6354 -0.5155
  650TMC3    C4 9674   2.937   4.246  12.683  0.2028 -0.1635 -0.5019
  650TMC3    C5 9675   2.811   4.291  12.715  0.7947  0.5244 -0.0667
  650TMC3    C6 9676   2.782   4.378  12.821 -0.3538  0.6429 -1.2128
  650TMC3     C 9677   3.170   4.305  12.699 -0.6610  0.1807 -0.1522
  650TMC3     O 9678   3.243   4.401  12.706  0.2998  0.3760  0.0986
  650TMC3     H 9679   3.093   4.461  12.901  1.1580  0.2666 -2.6878
  650TMC3    H1 9680   2.958   4.196  12.589 -0.7548  1.4303 -1.5618
  650TMC3    H2 9681   2.682   4.385  12.863  1.7134  0.4963  3.6778
  650TMC3    C7 9682   2.701   4.245  12.643  1.0658  0.3105 -0.0521
  650TMC3    C8 9683   2.874   4.583  12.894  0.1205 -0.3021  0.0946
  650TMC3    O1 9684   2.635   4.166  12.710  0.6883  0.0041  0.6125
  650TMC3    O2 9685   2.975   4.650  12.894 -0.3794 -0.2446  0.3325
  651MPD2     C 9686   2.036   1.743  10.395  0.1878  0.0730  0.2064
  651MPD2    C1 9687   2.041   1.815  10.515  1.4153  0.9325  0.3925
  651MPD2    C2 9688   2.159   1.830  10.585 -0.5333  0.7141  0.7155
  651MPD2    C3 9689   2.271   1.768  10.548 -0.4188 -0.6203  0.3758
  651MPD2    C4 9690   2.268   1.695  10.433  0.1345 -0.4619  0.0325
  651MPD2    C5 9691   2.155   1.675  10.363 -0.1390 -0.3349 -0.2713
  651MPD2     H 9692   2.156   1.888  10.677 -2.9029 -2.7878  2.8302
  651MPD2    H1 9693   2.346   1.631  10.393  0.0684 -0.4304 -0.1467
  651MPD2    H2 9694   1.956   1.741  10.322  1.0524 -0.6495 -0.7355
  651MPD2    H3 9695   2.156   1.616  10.272  0.3602 -1.3624  0.4047
  651MPD2     N 9696   2.385   1.773  10.636  0.2679 -0.7601  0.5090
  651MPD2    H5 9697   2.374   1.816  10.728  2.0493  2.0119 -0.5551
  651MPD2    N1 9698   1.934   1.893  10.571  0.2441 -0.0054  0.7975
  651MPD2    H7 9699   1.946   1.942  10.659 -0.8965  2.2668 -0.2940
  652TMC3    C1 9700   2.825   1.755  10.803  0.4891  0.3769  1.0093
  652TMC3    C2 9701   2.733   1.734  10.704  0.1283  0.3336 -0.0774
  652TMC3    C3 9702   2.597   1.741  10.729 -0.6849 -0.0385 -0.0809
  652TMC3    C4 9703   2.784   1.785  10.932 -0.1815  0.2186 -0.7405
  652TMC3    C5 9704   2.651   1.795  10.957 -0.3478 -0.3566 -0.2909
  652TMC3    C6 9705   2.557   1.765  10.859  0.9410  0.1889  0.2352
  652TMC3     C 9706   2.963   1.757  10.766 -0.0544 -0.2367 -0.4605
  652TMC3     O 9707   3.044   1.738  10.857  0.0225  0.2039 -0.2042
  652TMC3     H 9708   2.756   1.746  10.598  1.7645  0.3089  0.2744
  652TMC3    H1 9709   2.839   1.781  11.025  0.7742  0.3971 -1.2978
  652TMC3    H2 9710   2.453   1.784  10.885  0.9701 -2.4481  2.3140
  652TMC3    C7 9711   2.618   1.913  11.036  0.7962  0.2623  0.6430
  652TMC3    C8 9712   2.510   1.728  10.616 -0.5009  0.1022 -0.0687
  652TMC3    O1 9713   2.504   1.941  11.071  0.1084 -0.0924 -0.4350
  652TMC3    O2 9714   2.555   1.695  10.507  0.2247  0.1487  0.1338
  653MPD2     C 9715   0.323   1.923   0.041  0.2894 -0.0332 -0.2685
  653MPD2    C1 9716   0.316   2.003  17.683  0.0331 -0.3483  0.2024
  653MPD2    C2 9717   0.275   1.942  17.571 -0.2555 -0.5554  0.4120
  653MPD2    C3 9718   0.252   1.806  17.562 -0.1636  0.8905  0.3379
  653MPD2    C4 9719   0.258   1.728  17.680  0.2349  0.3071  0.6396
  653MPD2    C5 9720   0.292   1.789   0.046  0.6608 -0.2086 -0.0055
  653MPD2     H 9721   0.270   2.001  17.481 -1.4498 -0.7742  0.3337
  653MPD2    H1 9722   0.243   1.620  17.679 -2.3547  0.6647 -0.5503
  653MPD2    H2 9723   0.348   1.963   0.139 -0.3267 -1.1105  0.3290
  653MPD2    H3 9724   0.296   1.741   0.143  1.4598 -1.1601 -0.5047
  653MPD2     N 9725   0.227   1.757  17.430  0.0605 -0.0222  0.3787
  653MPD2    H5 9726   0.226   1.828  17.358 -0.9812  0.0981  0.5105
  653MPD2    N1 9727   0.347   2.147  17.686  0.1542  0.1402 -0.5304
  653MPD2    H7 9728   0.350   2.190  17.594  0.3004  1.4260  0.0878
  654TMC3    C1 9729   0.144   1.610  17.276  0.4907 -0.0382  0.3673
  654TMC3    C2 9730   0.075   1.718  17.225  0.2567  0.3091 -0.0177
  654TMC3    C3 9731   0.051   1.714  17.094  0.1966 -0.6357 -0.5836
  654TMC3    C4 9732   0.177   1.495  17.208  0.4043 -0.1333  0.2761
  654TMC3    C5 9733   0.124   1.488  17.080 -0.2397  0.2632 -0.3272
  654TMC3    C6 9734   0.076   1.599  17.019  0.3962 -0.0731  0.1787
  654TMC3     C 9735   0.175   1.631  17.410 -0.8396 -0.2019 -0.5327
  654TMC3     O 9736   0.154   1.537  17.485 -0.3660  0.2298 -0.4140
  654TMC3     H 9737   0.050   1.807  17.283  0.3695 -0.8551  1.8142
  654TMC3    H1 9738   0.203   1.403  17.259  0.1196 -0.7199 -0.6278
  654TMC3    H2 9739   0.033   1.584  16.920 -0.1809 -1.6531  0.6648
  654TMC3    C7 9740   0.146   1.366  16.997 -0.0033  0.4090 -0.9368
  654TMC3    C8 9741   4.717   1.826  17.037  0.3422 -0.5003  0.3031
  654TMC3    O1 9742   0.156   1.390  16.878  0.0917 -0.3905 -0.0996
  654TMC3    O2 9743   4.664   1.905  17.110  0.4945 -0.2238 -0.1833
  655MPD2     C 9744   2.127   2.218  15.684  0.3904  0.2196 -0.0659
  655MPD2    C1 9745   2.020   2.272  15.619  0.5235 -0.5533 -0.0308
  655MPD2    C2 9746   2.015   2.279  15.483  0.2924 -0.0279 -0.0112
  655MPD2    C3 9747   2.124   2.236  15.409  0.5566 -0.0921  0.6440
  655MPD2    C4 9748   2.230   2.185  15.472 -1.0325  0.4033  0.5098
  655MPD2    C5 9749   2.226   2.167  15.610  0.2406  0.2675 -0.3981
  655MPD2     H 9750   1.925   2.311  15.432  0.5825  0.8399  0.0134
  655MPD2    H1 9751   2.321   2.146  15.429 -1.3696 -1.5349  1.5517
  655MPD2    H2 9752   2.125   2.200  15.790 -1.5372 -1.6817 -0.4301
  655MPD2    H3 9753   2.309   2.116  15.657 -1.0848 -1.9806 -0.4898
  655MPD2     N 9754   2.123   2.260  15.273 -0.2857 -0.1206 -0.8015
  655MPD2    H5 9755   2.038   2.310  15.247  0.1407 -0.5517 -3.0775
  655MPD2    N1 9756   1.911   2.326  15.687  0.3489 -0.3196 -0.1940
  655MPD2    H7 9757   1.842   2.365  15.624 -1.0262  0.9233  2.0786
  656TMC3    C1 9758   1.769   2.415  15.842 -0.0477 -0.4255  0.2093
  656TMC3    C2 9759   1.718   2.408  15.971 -0.3741 -0.0072 -0.0166
  656TMC3    C3 9760   1.592   2.457  15.995 -0.0007 -0.2333  0.3229
  656TMC3    C4 9761   1.704   2.486  15.740  0.4714  0.6239 -0.3772
  656TMC3    C5 9762   1.583   2.541  15.768 -0.2849 -0.4699 -0.0761
  656TMC3    C6 9763   1.523   2.525  15.890  0.1795 -0.1984 -0.7168
  656TMC3     C 9764   1.901   2.362  15.819  0.1434 -0.9225 -0.1976
  656TMC3     O 9765   1.957   2.325  15.921  0.3401  0.8464  0.2805
  656TMC3     H 9766   1.777   2.360  16.048  0.0786  2.0520  0.9095
  656TMC3    H1 9767   1.758   2.512  15.649  2.0571 -0.3440  0.2877
  656TMC3    H2 9768   1.425   2.569  15.904 -0.4369 -1.2396 -1.7443
  656TMC3    C7 9769   1.515   2.592  15.652  0.3011  0.3353  0.2539
  656TMC3    C8 9770   1.514   2.404  16.103  0.1793  0.3283 -0.4539
  656TMC3    O1 9771   1.578   2.615  15.547 -0.1869  0.5347  0.5494
  656TMC3    O2 9772   1.540   2.297  16.152  0.1840  0.0094 -0.1742
  657TMC3    C1 9773   0.792   1.402  14.917  0.5227  0.3714 -0.9638
  657TMC3    C2 9774   0.708   1.483  14.987 -0.1685 -0.4561 -0.2281
  657TMC3    C3 9775   0.747   1.616  15.005 -0.5690  0.3851  0.4798
  657TMC3    C4 9776   0.920   1.451  14.880  0.1785  1.1636 -1.1345
  657TMC3    C5 9777   0.955   1.582  14.905 -0.0092 -0.2815  0.3723
  657TMC3    C6 9778   0.864   1.668  14.959  0.4268  0.4150 -0.3809
  657TMC3     C 9779   0.778   1.262  14.934  0.3369  0.0051 -0.2055
  657TMC3     O 9780   0.663   1.221  14.942 -0.2226 -0.2750 -0.5932
  657TMC3     H 9781   0.619   1.432  15.020 -1.5526  1.3622 -1.1878
  657TMC3    H1 9782   0.985   1.390  14.817  0.1095 -0.2639  0.1575
  657TMC3    H2 9783   0.895   1.770  14.980 -5.2927  1.2325  4.0651
  657TMC3    C7 9784   1.072   1.638  14.844 -0.9230  0.0775 -0.2058
  657TMC3    C8 9785   0.679   1.698  15.115  0.3000  0.0113 -0.2494
  657TMC3    O1 9786   1.158   1.553  14.826 -0.6013  0.3790  0.8101
  657TMC3    O2 9787   0.719   1.815  15.129  0.1658 -0.1773  0.2252
  658MPD2     C 9788   2.520   1.947  14.688 -0.0343 -0.2710 -0.1008
  658MPD2    C1 9789   2.426   2.034  14.635 -0.3060  0.1790 -0.0265
  658MPD2    C2 9790   2.406   2.039  14.495  0.3832 -0.5329 -1.0364
  658MPD2    C3 9791   2.480   1.959  14.410  0.0906  0.1813 -0.1452
  658MPD2    C4 9792   2.576   1.874  14.463 -0.5371 -0.2930  0.5898
  658MPD2    C5 9793   2.597   1.872  14.599 -0.2315 -1.5079 -0.2414
  658MPD2     H 9794   2.332   2.103  14.448  0.5422 -0.3945 -1.0988
  658MPD2    H1 9795   2.631   1.809  14.395  0.2517  0.9397  0.0603
  658MPD2    H2 9796   2.545   1.942  14.793  0.6376 -1.0206 -0.2932
  658MPD2    H3 9797   2.675   1.819  14.653 -0.3137 -3.5749 -2.1285
  658MPD2     N 9798   2.460   1.980  14.273 -0.2937 -0.0974  0.4422
  658MPD2    H5 9799   2.389   2.048  14.249  0.0255  0.8863  2.2863
  658MPD2    N1 9800   2.336   2.103  14.725 -0.1397  0.2387 -0.1735
  658MPD2    H7 9801   2.347   2.058  14.816 -1.0652 -1.2540 -0.8033
  659TMC3    C1 9802   2.166   2.227  14.815 -0.6428  0.0812  0.4911
  659TMC3    C2 9803   2.239   2.231  14.937  0.3360  0.0993 -0.0643
  659TMC3    C3 9804   2.178   2.281  15.047 -0.6372 -0.7266  0.0217
  659TMC3    C4 9805   2.041   2.282  14.805 -0.3861  0.9252 -0.3034
  659TMC3    C5 9806   1.988   2.330  14.919  0.3045 -0.4053 -0.2516
  659TMC3    C6 9807   2.061   2.345  15.034 -0.0083  0.5927  0.7074
  659TMC3     C 9808   2.230   2.179  14.692  0.1613  0.2840  0.2946
  659TMC3     O 9809   2.186   2.201  14.581 -0.3497  0.5216 -0.3746
  659TMC3     H 9810   2.327   2.168  14.950 -0.1753 -0.7346 -0.6504
  659TMC3    H1 9811   1.986   2.247  14.718 -1.2618 -1.7134  1.3082
  659TMC3    H2 9812   2.008   2.392  15.116  1.5516  1.4683  1.2115
  659TMC3    C7 9813   1.846   2.301  14.931  0.3490 -0.5958  0.1354
  659TMC3    C8 9814   2.228   2.247  15.186  0.1074  0.4373  0.3889
  659TMC3    O1 9815   1.801   2.316  15.045 -0.6836 -0.0524 -0.0416
  659TMC3    O2 9816   2.340   2.199  15.190 -0.2976 -0.3465 -0.1980
  660MPD2     C 9817   0.162   1.653  12.092 -0.3971  0.0568  0.1355
  660MPD2    C1 9818   0.113   1.529  12.057  0.4147  0.1584  0.0271
  660MPD2    C2 9819   0.086   1.436  12.153  0.1923  0.3849 -0.0455
  660MPD2    C3 9820   0.098   1.467  12.286  0.1595  0.4393 -0.8639
  660MPD2    C4 9821   0.156   1.587  12.323 -0.6882 -0.6844  0.3974
  660MPD2    C5 9822   0.167   1.684  12.226  0.0651 -0.2387  0.0878
  660MPD2     H 9823   0.042   1.340  12.127  1.9209 -0.1042 -1.1540
  660MPD2    H1 9824   0.172   1.616  12.426 -2.4166  0.0018  0.4899
  660MPD2    H2 9825   0.198   1.725  12.019  0.5527 -0.7755 -0.2167
  660MPD2    H3 9826   0.202   1.782  12.255 -0.9491 -0.0114  0.5788
  660MPD2     N 9827   0.064   1.392  12.396  0.6428 -0.0307  0.4345
  660MPD2    H5 9828   0.085   1.435  12.486 -1.0690 -0.0774  0.8636
  660MPD2    N1 9829   0.101   1.505  11.916 -0.1125 -0.7543 -0.4117
  660MPD2    H7 9830   0.130   1.583  11.857  0.8418 -0.2414  0.7243
  661TMC3    C1 9831   4.738   1.399  11.722 -0.2674  0.0951 -0.4264
  661TMC3    C2 9832   0.063   1.487  11.639 -0.5297 -0.1108 -0.6108
  661TMC3    C3 9833   4.735   1.517  11.525  0.4617  1.0990  0.1204
  661TMC3    C4 9834   4.615   1.346  11.698  0.3389 -0.1333 -0.0641
  661TMC3    C5 9835   4.554   1.385  11.583 -0.3391  0.8008 -0.1954
  661TMC3    C6 9836   4.613   1.469  11.494  0.0915 -0.1305 -0.1388
  661TMC3     C 9837   0.042   1.392  11.865 -0.5833 -0.4546  0.6830
  661TMC3     O 9838   4.731   1.290  11.916  0.3286  0.2936  0.2180
  661TMC3     H 9839   0.162   1.526  11.658 -0.4540 -0.7228  0.2379
  661TMC3    H1 9840   4.557   1.292  11.772 -0.0800  3.1550  1.9927
  661TMC3    H2 9841   4.555   1.496  11.406 -0.9601  0.5973  0.7748
  661TMC3    C7 9842   4.412   1.368  11.569 -0.1539  0.1591 -0.2107
  661TMC3    C8 9843   0.079   1.585  11.415 -0.3453  0.0104  0.1268
  661TMC3    O1 9844   4.344   1.443  11.496  0.2801  0.7953 -0.1310
  661TMC3    O2 9845   0.196   1.551  11.424 -0.2884  0.1434  0.5255
  662MPD2     C 9846   0.205   0.513  16.653  0.2922 -0.1040  0.0275
  662MPD2    C1 9847   0.172   0.459  16.779  0.0220  0.1882 -0.6168
  662MPD2    C2 9848   0.066   0.512  16.852 -0.3128  0.7787  0.1136
  662MPD2    C3 9849   4.733   0.619  16.800  0.1304 -1.1497 -0.6129
  662MPD2    C4 9850   0.028   0.674  16.677 -0.1264  0.0095 -0.2817
  662MPD2    C5 9851   0.145   0.629  16.619 -0.0388 -0.5589  1.2146
  662MPD2     H 9852   0.048   0.475  16.953 -1.1696  0.3613 -0.1899
  662MPD2    H1 9853   4.714   0.759  16.636 -0.4838  0.6188  1.4596
  662MPD2    H2 9854   0.288   0.468  16.601  1.7016  1.2135  1.1355
  662MPD2    H3 9855   0.172   0.677  16.526 -1.0673  0.3324  1.3765
  662MPD2     N 9856   4.626   0.680  16.867  0.3287  0.3667 -0.1946
  662MPD2    H5 9857   4.580   0.753  16.814  0.4109  0.6461  0.1211
  662MPD2    N1 9858   0.247   0.358  16.844  0.4622 -0.3630  0.2682
  662MPD2    H7 9859   0.211   0.329  16.935  2.1432 -2.0889  0.4036
  663TMC3    C1 9860   0.398   0.202  16.900 -0.5465  0.9241 -0.5623
  663TMC3    C2 9861   0.383   0.253  17.031 -0.7403  0.7948  0.2870
  663TMC3    C3 9862   0.453   0.179  17.132 -0.1920 -0.2545  0.4142
  663TMC3    C4 9863   0.465   0.084  16.873  0.4797  0.0208 -0.7505
  663TMC3    C5 9864   0.504   0.007  16.974 -0.5783 -0.9146 -0.2377
  663TMC3    C6 9865   0.494   0.047  17.108 -0.1357 -0.8863 -0.0475
  663TMC3     C 9866   0.355   0.286  16.798  0.2902 -0.3266  0.4667
  663TMC3     O 9867   0.405   0.271  16.685 -0.0641  0.5178 -0.5942
  663TMC3     H 9868   0.367   0.359  17.047 -0.4237  1.0036 -0.7586
  663TMC3    H1 9869   0.473   0.058  16.768 -0.2797 -1.8652 -0.3524
  663TMC3    H2 9870   0.555   0.001  17.185  0.2002  0.2806  0.3933
  663TMC3    C7 9871   0.493   4.607  16.945 -0.3190 -0.5755 -0.0550
  663TMC3    C8 9872   0.434   0.214  17.271  0.0469 -0.7689  0.3354
  663TMC3    O1 9873   0.534   4.574  16.836 -0.1744  0.0818  0.0317
  663TMC3    O2 9874   0.523   0.180  17.344 -0.9542  0.9888  0.0396
  664MPD2     C 9875   2.587   3.454  17.324 -0.0872 -0.2291 -0.4808
  664MPD2    C1 9876   2.674   3.545  17.392  0.3113  0.3535  1.1270
  664MPD2    C2 9877   2.674   3.540  17.536 -1.2149 -0.1271 -0.3642
  664MPD2    C3 9878   2.581   3.464  17.602  0.4421 -0.5754 -0.1421
  664MPD2    C4 9879   2.488   3.387  17.531  0.1009 -0.2711  0.4679
  664MPD2    C5 9880   2.494   3.379  17.392  0.1889 -0.1236  0.2016
  664MPD2     H 9881   2.763   3.581  17.582 -1.3646 -1.9296  1.5275
  664MPD2    H1 9882   2.414   3.327  17.583  1.1788 -1.2695  0.8602
  664MPD2    H2 9883   2.578   3.449  17.216 -1.1445  1.2231 -0.4595
  664MPD2    H3 9884   2.438   3.308  17.332 -0.5207  2.2853 -1.9635
  664MPD2     N 9885   2.589   3.450  17.750 -0.3612 -0.2890  0.4740
  664MPD2    H5 9886   2.661   3.510   0.037 -1.2063  0.4793  0.8496
  664MPD2    N1 9887   2.769   3.620  17.316  0.2637  0.4418  0.2799
  664MPD2    H7 9888   2.824   3.692  17.361 -0.0294  0.2273  0.9776
  665TMC3    C1 9889   2.561   3.384   0.216 -0.0652 -0.4302 -0.2412
  665TMC3    C2 9890   2.475   3.312   0.307 -0.1418  0.2036  0.7948
  665TMC3    C3 9891   2.517   3.295   0.438  0.0910 -0.0129  0.1198
  665TMC3    C4 9892   2.691   3.418   0.253 -0.4312 -0.1293 -0.1669
  665TMC3    C5 9893   2.719   3.414   0.390 -0.3090 -0.0211 -0.0868
  665TMC3    C6 9894   2.634   3.359   0.485  0.3151 -0.4128 -0.5271
  665TMC3     C 9895   2.523   3.364   0.077 -0.1247 -0.3707 -0.3588
  665TMC3     O 9896   2.432   3.281   0.062  0.4506 -0.9092  0.2579
  665TMC3     H 9897   2.381   3.272   0.271 -0.4961  3.4594 -1.9196
  665TMC3    H1 9898   2.758   3.459   0.179  1.7480 -1.1640  1.2241
  665TMC3    H2 9899   2.663   3.358   0.590 -2.5014 -0.9549  0.2323
  665TMC3    C7 9900   2.845   3.492   0.422  0.1597  0.1601 -0.0410
  665TMC3    C8 9901   2.447   3.206   0.526  0.7232  0.1796 -0.1128
  665TMC3    O1 9902   2.927   3.519   0.337 -0.3719  0.4766 -0.5242
  665TMC3    O2 9903   2.435   3.237   0.642  0.1040  0.0678 -0.3471
  666TMC3    C1 9904   2.705   3.358  10.051  0.1690 -0.1620 -0.0604
  666TMC3    C2 9905   2.744   3.271  10.157 -0.5696  0.2699  0.3277
  666TMC3    C3 9906   2.801   3.338  10.266  0.3211 -0.5533  0.0530
  666TMC3    C4 9907   2.705   3.492  10.059 -0.2101 -0.1646 -0.0442
  666TMC3    C5 9908   2.758   3.550  10.174 -0.6244 -0.1579 -0.2260
  666TMC3    C6 9909   2.809   3.474  10.276 -0.0005  0.3660 -0.1400
  666TMC3     C 9910   2.599   3.308   9.965  0.1734  0.5789  0.2180
  666TMC3     O 9911   2.561   3.379   9.878 -0.4615  0.2804 -0.1267
  666TMC3     H 9912   2.748   3.164  10.144  0.2923  0.2056  1.1477
  666TMC3    H1 9913   2.663   3.562   9.988 -2.1666  0.6928  1.9530
  666TMC3    H2 9914   2.845   3.529  10.363 -2.3286  2.8023 -0.7289
  666TMC3    C7 9915   2.732   3.694  10.202 -0.0960 -0.0376  0.1980
  666TMC3    C8 9916   2.866   3.255  10.364 -0.6979 -0.5452  0.9351
  666TMC3    O1 9917   2.703   3.723  10.317  0.1293  0.4535  0.2878
  666TMC3    O2 9918   2.833   3.135  10.389 -0.0168 -0.2457  0.2696
  667MPD2     C 9919   4.131   3.310  14.738  0.2171  1.6736  0.2319
  667MPD2    C1 9920   4.031   3.395  14.765  0.1308 -0.1903 -0.5945
  667MPD2    C2 9921   3.908   3.344  14.776 -0.1452  0.6343 -0.2792
  667MPD2    C3 9922   3.869   3.209  14.741  0.0157 -0.1102  0.6513
  667MPD2    C4 9923   3.971   3.128  14.708 -0.4562  0.1135 -0.1818
  667MPD2    C5 9924   4.101   3.178  14.715 -0.4797  0.2492  0.4793
  667MPD2     H 9925   3.829   3.411  14.810 -0.7087  0.1822 -0.6941
  667MPD2    H1 9926   3.953   3.024  14.682 -1.4327  0.0728  0.6680
  667MPD2    H2 9927   4.231   3.349  14.720 -1.2387  4.1459 -2.4591
  667MPD2    H3 9928   4.186   3.114  14.695 -0.3967 -0.0596  1.8034
  667MPD2     N 9929   3.741   3.155  14.754  0.8125  0.5105 -0.0726
  667MPD2    H5 9930   3.736   3.055  14.769  1.8657  0.7476  1.8968
  667MPD2    N1 9931   4.053   3.529  14.806  0.3536 -0.1245 -0.0805
  667MPD2    H7 9932   3.967   3.581  14.821  0.5125 -0.4188  1.9059
  668TMC3    C1 9933   4.143   3.719  14.883  1.1110 -0.1056  0.1752
  668TMC3    C2 9934   4.234   3.815  14.864  0.5845 -0.1646  0.0187
  668TMC3    C3 9935   4.210   3.927  14.934  0.0531  0.0438 -0.6792
  668TMC3    C4 9936   4.060   3.716  14.994 -0.2279 -0.0760 -0.1572
  668TMC3    C5 9937   4.062   3.822  15.079 -1.0618  0.8529 -0.5855
  668TMC3    C6 9938   4.110   3.937  15.032  0.2700  0.3485  0.5165
  668TMC3     C 9939   4.172   3.595  14.815  0.5074  0.0970 -0.4286
  668TMC3     O 9940   4.283   3.564  14.782 -0.3063  0.2311 -0.1802
  668TMC3     H 9941   4.295   3.817  14.775  2.0088 -0.3381  0.9764
  668TMC3    H1 9942   4.022   3.620  15.027 -0.3441  0.8485  2.4149
  668TMC3    H2 9943   4.117   4.020  15.102 -1.6390  2.8379 -2.2787
  668TMC3    C7 9944   3.975   3.829  15.190  0.5085  0.2409 -0.1164
  668TMC3    C8 9945   4.261   4.055  14.878  0.1406 -0.6839 -0.4496
  668TMC3    O1 9946   4.017   3.898  15.279  0.0558 -0.3084  0.4259
  668TMC3    O2 9947   4.216   4.157  14.925 -0.5001 -0.2138 -0.1840
  669TMC3    C1 9948   2.198   3.193  15.006 -0.2755 -0.7933  0.7711
  669TMC3    C2 9949   2.083   3.184  14.930  0.0316  0.3969 -0.3929
  669TMC3    C3 9950   2.049   3.294  14.849  0.6414  0.4421  0.3197
  669TMC3    C4 9951   2.276   3.308  15.002  0.0653  0.7521 -0.2951
  669TMC3    C5 9952   2.246   3.410  14.916  0.1222 -0.0347  0.0231
  669TMC3    C6 9953   2.137   3.402  14.838 -0.1241  0.0451 -0.5360
  669TMC3     C 9954   2.223   3.114  15.122 -0.2209 -0.0834  0.2182
  669TMC3     O 9955   2.335   3.126  15.166 -0.2176  0.2631  0.5021
  669TMC3     H 9956   2.042   3.084  14.919 -0.0456  0.5829 -1.8434
  669TMC3    H1 9957   2.367   3.321  15.058 -0.7510  0.6673  1.0582
  669TMC3    H2 9958   2.131   3.485  14.769 -0.3703  0.7446  0.3297
  669TMC3    C7 9959   2.355   3.489  14.865 -0.2087 -0.2951 -0.3978
  669TMC3    C8 9960   1.961   3.277  14.736 -0.5435  0.0440 -0.3542
  669TMC3    O1 9961   2.321   3.585  14.800  0.2778  0.8056  0.3951
  669TMC3    O2 9962   2.001   3.349  14.642  0.0296 -0.2023 -0.1397
  670MPD2     C 9963   0.485   1.014  13.682  0.4094 -0.5517  0.5580
  670MPD2    C1 9964   0.563   0.907  13.722 -0.5433  0.2759 -0.4769
  670MPD2    C2 9965   0.502   0.783  13.749  0.1009 -0.1017 -0.6531
  670MPD2    C3 9966   0.362   0.775  13.762  0.7370  0.0106 -0.1335
  670MPD2    C4 9967   0.286   0.882  13.718 -0.3302  0.6901 -0.4265
  670MPD2    C5 9968   0.348   0.994  13.672 -0.0886 -0.0791  0.2828
  670MPD2     H 9969   0.553   0.697  13.792  2.1290  2.7157  2.5970
  670MPD2    H1 9970   0.178   0.880  13.727 -0.1396 -1.2818  1.4715
  670MPD2    H2 9971   0.531   1.104  13.645 -1.6800 -0.1878 -1.1755
  670MPD2    H3 9972   0.295   1.070  13.615 -1.2908 -1.8763 -1.0048
  670MPD2     N 9973   0.314   0.659  13.819  0.1462 -0.3430 -0.2859
  670MPD2    H5 9974   0.374   0.579  13.838  2.7057  1.3712 -1.1733
  670MPD2    N1 9975   0.705   0.910  13.722 -0.1625 -0.1851  0.4486
  670MPD2    H7 9976   0.752   0.830  13.764 -0.1812 -1.3486 -1.7552
  671TMC3    C1 9977   0.178   0.495  13.869 -0.4947 -0.1824 -0.1620
  671TMC3    C2 9978   0.271   0.436  13.949 -0.7148  0.0284  0.0551
  671TMC3    C3 9979   0.273   0.300  13.947 -0.5839  0.0683  0.9714
  671TMC3    C4 9980   0.087   0.426  13.800  0.4580 -0.6159 -1.0156
  671TMC3    C5 9981   0.090   0.287  13.804 -0.0308  0.9069  0.4771
  671TMC3    C6 9982   0.186   0.220  13.877  0.1809  0.8354 -0.9332
  671TMC3     C 9983   0.182   0.627  13.836 -0.2644  0.0419  0.7973
  671TMC3     O 9984   0.079   0.696  13.832  0.6337 -0.4045  0.3680
  671TMC3     H 9985   0.357   0.486  13.993  0.2205 -0.0318 -1.6905
  671TMC3    H1 9986   0.017   0.470  13.731 -1.6680 -0.3062  1.3409
  671TMC3    H2 9987   0.200   0.117  13.846 -0.0780  0.3369  0.5836
  671TMC3    C7 9988   0.087   0.237  13.668 -0.2433  0.0793 -0.3307
  671TMC3    C8 9989   0.389   0.230  13.995  0.7334  0.5353  0.1812
  671TMC3    O1 9990   0.188   0.199  13.614 -0.5839  0.3020 -0.3684
  671TMC3    O2 9991   0.436   0.164  13.903  0.0756 -0.0572  0.2265
  672MPD2     C 9992   4.394   2.327   0.826  0.1227  0.4651 -0.4704
  672MPD2    C1 9993   4.447   2.209   0.872 -0.4874  0.4476  0.4073
  672MPD2    C2 9994   4.553   2.219   0.960 -0.0998  0.1110 -0.0876
  672MPD2    C3 9995   4.602   2.334   1.008  0.2956  1.0574 -0.1427
  672MPD2    C4 9996   4.544   2.453   0.961  0.2425 -0.1727 -0.0792
  672MPD2    C5 9997   4.439   2.449   0.872  0.5803 -0.1286  0.4950
  672MPD2     H 9998   4.598   2.122   0.980  2.6518  1.5758  0.8121
  672MPD2    H1 9999   4.563   2.554   0.994  1.1258 -0.7369  1.1570
  672MPD2    H210000   4.301   2.328   0.770 -0.3801 -2.2653  0.3206
  672MPD2    H310001   4.385   2.540   0.850  1.4288  0.4180  0.7121
  672MPD2     N10002   4.707   2.344   1.102 -0.2415  0.1373  0.8907
  672MPD2    H510003   4.721   2.433   1.148 -0.5116  0.4835  0.3001
  672MPD2    N110004   4.401   2.076   0.838  0.6812 -0.0827 -0.0100
  672MPD2    H710005   4.439   1.998   0.891  0.7949  0.1119  0.1931
  673TMC3    C110006   4.278   1.913   0.714 -0.2461  0.4389 -0.1757
  673TMC3    C210007   4.252   1.826   0.818  0.0733 -0.1554  0.3623
  673TMC3    C310008   4.212   1.703   0.769  0.6138  0.7660  0.6697
  673TMC3    C410009   4.274   1.885   0.578  0.1670 -0.0620 -0.3259
  673TMC3    C510010   4.229   1.759   0.549  0.1964  0.2868 -0.3467
  673TMC3    C610011   4.202   1.663   0.639 -0.1816  0.3511 -0.9303
  673TMC3     C10012   4.300   2.050   0.747  0.6432  0.1670  0.3678
  673TMC3     O10013   4.237   2.130   0.678 -0.2705 -0.1339  0.2060
  673TMC3     H10014   4.265   1.849   0.924  1.3728  1.5799 -0.1689
  673TMC3    H110015   4.287   1.961   0.502 -1.7916  2.3700  1.7900
  673TMC3    H210016   4.177   1.563   0.605  3.2519 -0.4248 -1.1870
  673TMC3    C710017   4.219   1.715   0.406  0.5944  0.3417  0.4805
  673TMC3    C810018   4.191   1.591   0.867  0.4612 -0.0887 -0.0525
  673TMC3    O110019   4.243   1.594   0.386 -0.7697  0.0050  0.0236
  673TMC3    O210020   4.125   1.493   0.833 -0.1928  0.2175  0.4209
  674MPD2     C10021   4.565   2.088   0.523 -0.5114  0.6042 -0.0467
  674MPD2    C110022   4.644   1.983   0.569 -0.6282 -0.4819 -0.4113
  674MPD2    C210023   4.644   1.860   0.499  0.1848  0.8564  0.1408
  674MPD2    C310024   4.585   1.851   0.369  0.2543 -0.2601  0.0478
  674MPD2    C410025   4.506   1.961   0.325  0.1363 -1.9351  0.4864
  674MPD2    C510026   4.502   2.072   0.399  0.9872 -0.1523 -0.2872
  674MPD2     H10027   4.699   1.773   0.533 -0.1081  0.2669 -0.8944
  674MPD2    H110028   4.438   1.951   0.242 -0.6531  1.7052  0.6786
  674MPD2    H210029   4.548   2.179   0.579  2.2736 -0.4915  2.5795
  674MPD2    H310030   4.453   2.160   0.360  0.8907 -0.0994 -0.0461
  674MPD2     N10031   4.600   1.727   0.311 -0.6551 -0.0919  0.1850
  674MPD2    H510032   4.648   1.657   0.366 -1.9029  0.6688  2.2389
  674MPD2    N110033   4.695   2.004   0.697 -0.5910  0.2958  0.3948
  674MPD2    H710034   4.686   2.091   0.748  2.3303  0.7127  0.1631
  675TMC3    C110035   0.125   1.985   0.856 -0.0982 -0.0400  0.6555
  675TMC3    C210036   0.195   1.900   0.942  0.0656  0.5345 -0.4809
  675TMC3    C310037   0.302   1.958   1.014  0.3643 -0.3258 -1.4867
  675TMC3    C410038   0.165   2.117   0.828  0.0972 -0.0922  0.1242
  675TMC3    C510039   0.278   2.156   0.888  0.0725  0.2521  0.1312
  675TMC3    C610040   0.340   2.092   0.988  0.8946  0.1929 -0.7320
  675TMC3     C10041   0.045   1.917   0.758  0.2619  0.1959 -0.4732
  675TMC3     O10042   0.054   1.795   0.744  0.0469 -0.2589 -0.4942
  675TMC3     H10043   0.161   1.798   0.955 -0.7711  0.7288 -1.1151
  675TMC3    H110044   0.114   2.176   0.752 -0.5489  0.2449  0.8229
  675TMC3    H210045   0.425   2.133   1.039  1.8593  0.0503 -2.2281
  675TMC3    C710046   0.303   2.301   0.870  0.1157 -0.6297 -0.0243
  675TMC3    C810047   0.377   1.882   1.111  0.2020  0.1579  0.5307
  675TMC3    O110048   0.208   2.376   0.852 -0.1775  0.0003 -0.4528
  675TMC3    O210049   0.453   1.953   1.175 -0.0463  0.6417 -0.3501
  676MPD2     C10050   3.377   4.284  11.003 -0.2427  0.0946 -0.5209
  676MPD2    C110051   3.269   4.208  11.034  0.2393  0.2891 -0.4112
  676MPD2    C210052   3.259   4.080  10.987 -0.3986  0.1421  0.1629
  676MPD2    C310053   3.362   4.021  10.916  0.5144  0.1893  0.3117
  676MPD2    C410054   3.476   4.094  10.891  0.7943 -0.2143  0.6402
  676MPD2    C510055   3.481   4.223  10.944 -0.1074  0.2014  0.4835
  676MPD2     H10056   3.165   4.028  10.997 -0.7568  0.6956 -0.3567
  676MPD2    H110057   3.562   4.056  10.836  1.7012  2.1518  0.4514
  676MPD2    H210058   3.404   4.384  11.035 -0.7794 -0.7494  2.6582
  676MPD2    H310059   3.569   4.285  10.932 -0.9145  1.5099  1.2509
  676MPD2     N10060   3.355   3.899  10.851 -0.1054  1.0331  0.3843
  676MPD2    H510061   3.422   3.854  10.789 -1.2294  1.9257 -1.4673
  676MPD2    N110062   3.158   4.257  11.107 -0.3930 -0.3434 -0.5622
  676MPD2    H710063   3.083   4.194  11.134 -0.5521 -0.2656 -0.8197
  677TMC3    C110064   3.020   4.408  11.204 -0.2685  0.1450  0.5452
  677TMC3    C210065   2.916   4.324  11.186  0.3075  1.1848 -0.0814
  677TMC3    C310066   2.828   4.311  11.289  0.3236 -0.0056  0.2724
  677TMC3    C410067   3.027   4.499  11.311  0.8438 -0.3991 -0.0654
  677TMC3    C510068   2.932   4.484  11.409  0.0129  0.0752  0.5089
  677TMC3    C610069   2.827   4.395  11.401  0.4313 -0.0483  0.2333
  677TMC3     C10070   3.146   4.384  11.138  0.8468 -0.1348  0.3043
  677TMC3     O10071   3.223   4.480  11.122 -0.4709 -0.3386  0.7999
  677TMC3     H10072   2.909   4.256  11.102  2.3515  1.5286 -0.5214
  677TMC3    H110073   3.113   4.565  11.313  0.4636  0.1509 -2.0393
  677TMC3    H210074   2.752   4.384  11.479  0.7334 -0.4737  0.4593
  677TMC3    C710075   2.958   4.545  11.534 -0.3587  0.4323 -0.1731
  677TMC3    C810076   2.748   4.192  11.278 -0.1655  0.2234  0.2504
  677TMC3    O110077   2.884   4.521  11.628 -0.3781 -0.7604  0.5359
  677TMC3    O210078   2.710   4.175  11.164 -0.6915 -0.1304 -0.1534
  678MPD2     C10079   4.287   4.103   0.945 -0.6629 -0.5396 -0.6353
  678MPD2    C110080   4.239   4.046   0.828  0.5306  0.2511  0.4684
  678MPD2    C210081   4.118   3.975   0.829 -0.4996  0.3081  1.0148
  678MPD2    C310082   4.046   3.975   0.945 -0.4409  0.0099  0.2448
  678MPD2    C410083   4.093   4.041   1.053  0.7492 -0.6086 -0.4395
  678MPD2    C510084   4.213   4.106   1.062  0.2333  0.5044  0.4674
  678MPD2     H10085   4.078   3.930   0.739 -0.1001  1.5095  0.2483
  678MPD2    H110086   4.036   4.038   1.146  0.7282  0.8798 -0.3959
  678MPD2    H210087   4.385   4.150   0.947 -1.4149  1.0012  0.0652
  678MPD2    H310088   4.249   4.155   1.152 -0.2873  1.8870 -0.0897
  678MPD2     N10089   3.919   3.906   0.950  0.3671  0.7220 -0.0927
  678MPD2    H510090   3.889   3.849   0.872  0.7582 -0.5039  0.6562
  678MPD2    N110091   4.319   4.063   0.720 -0.5897  0.3683  0.3254
  678MPD2    H710092   4.402   4.121   0.714  0.2130 -0.8852 -0.6479
  679TMC3    C110093   4.455   4.056   0.275  0.2701 -0.6347 -0.3992
  679TMC3    C210094   4.404   3.992   0.385  0.7390  0.2797  0.6044
  679TMC3    C310095   4.347   4.065   0.482 -0.1475 -0.8002  0.3202
  679TMC3    C410096   4.447   4.188   0.252 -0.4319  0.5777  0.0447
  679TMC3    C510097   4.385   4.260   0.353 -0.3316  0.1038  0.2328
  679TMC3    C610098   4.340   4.199   0.471 -0.6492  0.2222  0.7914
  679TMC3     C10099   4.534   3.969   0.184 -0.2556 -0.4449 -0.3211
  679TMC3     O10100   4.494   3.856   0.165  0.1937  0.0036 -0.1982
  679TMC3     H10101   4.421   3.888   0.408 -3.0457 -0.2867  0.8944
  679TMC3    H110102   4.487   4.237   0.164  0.6646  1.3593  0.9888
  679TMC3    H210103   4.294   4.258   0.550  0.0685 -1.1809  2.2424
  679TMC3    C710104   4.345   4.393   0.315 -0.9202  0.1682 -0.0979
  679TMC3    C810105   4.293   3.998   0.598 -0.5912 -0.5976 -0.1504
  679TMC3    O110106   4.406   4.441   0.223 -0.0544  0.0128 -0.0288
  679TMC3    O210107   4.222   3.897   0.577  0.1797 -0.4091  0.2386
  680MPD2     C10108   0.024   3.263  13.602  0.4414  0.0265  0.3012
  680MPD2    C110109   0.045   3.262  13.740  0.1718  0.5027 -0.0807
  680MPD2    C210110   0.106   3.371  13.802  0.9976 -0.1824 -0.1238
  680MPD2    C310111   0.173   3.467  13.727  0.5243 -0.0981 -0.3158
  680MPD2    C410112   0.158   3.461  13.593  0.0241 -0.2136 -0.0744
  680MPD2    C510113   0.080   3.366  13.528  0.2805 -0.1105  0.8599
  680MPD2     H10114   0.119   3.360  13.910  2.3925  0.4303 -0.2278
  680MPD2    H110115   0.210   3.527  13.525  1.7015  0.6731  2.0373
  680MPD2    H210116   4.739   3.177  13.541 -0.7939  0.0265  0.7941
  680MPD2    H310117   0.072   3.361  13.420  1.5195 -0.4224  0.7825
  680MPD2     N10118   0.254   3.573  13.776  0.2129  0.4317 -1.0076
  680MPD2    H510119   0.313   3.629  13.716 -1.8185  0.7363 -2.7351
  680MPD2    N110120   4.739   3.157  13.824  0.1165 -0.0322 -1.3020
  680MPD2    H710121   0.004   3.176  13.923 -0.7311  0.4297 -1.3546
  681TMC3    C110122   4.652   2.958  13.911 -0.1195  0.5355 -0.4295
  681TMC3    C210123   4.619   3.001  14.040 -0.2329  0.1668 -0.1564
  681TMC3    C310124   4.652   2.918  14.144  0.7580  0.3435  0.0839
  681TMC3    C410125   4.707   2.835  13.889 -0.1704 -0.0846 -0.4617
  681TMC3    C510126   4.732   2.756  14.001 -0.2356 -0.5986 -0.4746
  681TMC3    C610127   4.700   2.792  14.127 -0.0318 -0.3800 -0.0324
  681TMC3     C10128   4.676   3.042  13.790  0.2644  1.0085 -0.1122
  681TMC3     O10129   4.628   3.009  13.685  0.1210  0.1393  0.0535
  681TMC3     H10130   4.584   3.102  14.062  1.1367  0.3061  1.3783
  681TMC3    H110131   0.008   2.811  13.791 -0.4916  1.0662 -0.8684
  681TMC3    H210132   4.722   2.733  14.215 -0.7987  1.1856  1.1940
  681TMC3    C710133   0.103   2.659  13.991 -0.9015  0.0933  0.0816
  681TMC3    C810134   4.661   2.962  14.275 -0.1763  0.1706  0.8246
  681TMC3    O110135   0.118   2.580  14.078  0.3546  0.1349  0.0400
  681TMC3    O210136   4.561   2.999  14.331 -0.6810 -0.1467  0.0715
  682MPD2     C10137   2.492   0.034  10.911  0.1972  0.0985  0.1464
  682MPD2    C110138   2.380   4.696  10.886  0.9514 -0.3651  0.0161
  682MPD2    C210139   2.285   4.685  10.985  0.6019 -0.2224  0.2502
  682MPD2    C310140   2.313   0.000  11.109 -0.5032 -0.0214  0.1400
  682MPD2    C410141   2.421   0.091  11.120  0.6261  0.0411 -0.4673
  682MPD2    C510142   2.507   0.110  11.021 -0.2186  0.1832 -0.0632
  682MPD2     H10143   2.206   4.613  10.967 -0.8906  1.2068  1.2079
  682MPD2    H110144   2.448   0.132  11.217 -0.4545 -0.1341 -0.0822
  682MPD2    H210145   2.560   0.044  10.827 -0.7405 -0.4689 -0.6976
  682MPD2    H310146   2.600   0.164  11.033 -1.2886  2.1164 -0.5923
  682MPD2     N10147   2.228   4.718  11.220 -0.1654  0.5813 -0.3791
  682MPD2    H510148   2.264   0.025  11.303  2.0985 -0.7610 -0.6164
  682MPD2    N110149   2.361   4.631  10.762  0.1175  1.0565  0.2108
  682MPD2    H710150   2.267   4.594  10.751  0.1502  1.1842 -0.5309
  683TMC3    C110151   2.148   4.581  11.583  0.0551  0.1488 -0.6443
  683TMC3    C210152   2.080   4.468  11.593  0.6915 -0.5037  0.0161
  683TMC3    C310153   2.010   4.426  11.489 -0.0188  0.5017  0.0360
  683TMC3    C410154   2.150   4.659  11.473  0.2902 -0.0856  0.3214
  683TMC3    C510155   2.070   4.626  11.372  0.0563 -0.2494  0.4629
  683TMC3    C610156   1.988   4.514  11.387 -0.3060  0.0007  0.4065
  683TMC3     C10157   2.226   4.627  11.692  0.1199 -1.0584  0.4311
  683TMC3     O10158   2.234   0.009  11.708 -0.2886  0.7720  0.0521
  683TMC3     H10159   2.076   4.408  11.683  0.2672  2.1015  1.7457
  683TMC3    H110160   2.214   0.008  11.477  0.5348 -0.2877  0.7876
  683TMC3    H210161   1.938   4.474  11.300  3.9106 -1.2113 -1.4918
  683TMC3    C710162   2.117   4.639  11.237  0.2897 -0.5305 -0.0173
  683TMC3    C810163   1.941   4.297  11.480 -0.0101  0.0901 -0.1964
  683TMC3    O110164   2.064   4.565  11.154  0.1635 -0.6049 -0.1917
  683TMC3    O210165   1.846   4.294  11.405 -0.3688 -0.1413  0.1272
  684MPD2     C10166   0.348   3.716  16.365 -0.1918  0.0194  0.3377
  684MPD2    C110167   0.259   3.751  16.263 -0.0793  0.4214 -0.2382
  684MPD2    C210168   0.170   3.857  16.285 -0.0539 -0.0008  0.5915
  684MPD2    C310169   0.198   3.943  16.388  0.3849 -0.1557  0.1660
  684MPD2    C410170   0.278   3.907  16.486  0.4669 -0.1359  0.3700
  684MPD2    C510171   0.356   3.794  16.478  0.0825  0.3242  0.3465
  684MPD2     H10172   0.084   3.880  16.224 -0.5889  0.0190  1.3556
  684MPD2    H110173   0.291   3.963  16.578  1.3941  0.3786 -0.0720
  684MPD2    H210174   0.415   3.632  16.350  0.9000  0.9524  0.0006
  684MPD2    H310175   0.434   3.774  16.551  0.2000 -0.8848 -0.1103
  684MPD2     N10176   0.132   4.067  16.400 -0.1181  0.3393  0.3503
  684MPD2    H510177   0.141   4.129  16.480  0.4736  1.0835 -0.2979
  684MPD2    N110178   0.240   3.678  16.138 -0.5393 -0.6723 -0.7309
  684MPD2    H710179   0.161   3.706  16.081 -0.8034  1.0406  0.4847
  685TMC3    C110180   0.297   3.528  15.967  0.5560  0.7280 -1.0774
  685TMC3    C210181   0.256   3.612  15.869  0.4368 -0.4542  0.3034
  685TMC3    C310182   0.283   3.579  15.740 -0.6260 -0.4262  0.5152
  685TMC3    C410183   0.361   3.408  15.937  0.2627  0.1126  0.1969
  685TMC3    C510184   0.392   3.379  15.808  0.4447  0.8449  0.0483
  685TMC3    C610185   0.356   3.463  15.705 -0.2500  0.5361 -0.3157
  685TMC3     C10186   0.328   3.584  16.101 -0.1799 -0.4767 -0.7412
  685TMC3     O10187   0.422   3.532  16.163  0.0000 -0.0011 -0.1547
  685TMC3     H10188   0.216   3.710  15.894  0.5974 -0.0407 -1.0799
  685TMC3    H110189   0.383   3.338  16.017  1.2146 -2.1435 -2.0525
  685TMC3    H210190   0.370   3.423  15.606 -2.3069 -0.4538 -0.1923
  685TMC3    C710191   0.523   3.322  15.788  0.4574  0.5929 -0.5943
  685TMC3    C810192   0.224   3.663  15.634 -0.2611 -0.3879  0.3376
  685TMC3    O110193   0.564   3.288  15.676  0.6293 -0.5556 -0.0577
  685TMC3    O210194   0.271   3.656  15.524  0.3339 -0.3087 -0.2053
  686MPD2     C10195   1.625   3.861  15.324 -0.3857  0.1488 -0.4408
  686MPD2    C110196   1.698   3.781  15.410 -0.4638 -0.2425  0.5861
  686MPD2    C210197   1.793   3.698  15.362 -0.3401 -0.1073  0.1760
  686MPD2    C310198   1.831   3.687  15.233  0.2296 -0.2618  0.5758
  686MPD2    C410199   1.764   3.768  15.147 -0.6362  0.5422 -0.4231
  686MPD2    C510200   1.663   3.859  15.188 -0.2326  0.8817  0.0768
  686MPD2     H10201   1.850   3.640  15.435  0.6207 -1.4764 -1.6683
  686MPD2    H110202   1.778   3.758  15.040 -0.7553  2.4363 -0.6089
  686MPD2    H210203   1.546   3.931  15.349 -0.2784  0.8427 -1.9864
  686MPD2    H310204   1.613   3.924  15.117 -1.1100  0.4595  0.3222
  686MPD2     N10205   1.941   3.611  15.185  0.1156  0.3377 -0.2986
  686MPD2    H510206   1.972   3.644  15.094 -0.2854 -0.3909 -0.6988
  686MPD2    N110207   1.637   3.764  15.535  0.0058  0.4899 -0.3471
  686MPD2    H710208   1.550   3.815  15.548  1.3830  1.6655  3.9959
  687TMC3    C110209   1.950   3.422  15.338  0.5582  0.1979 -0.7324
  687TMC3    C210210   1.815   3.400  15.337 -0.4312 -0.0996 -0.5673
  687TMC3    C310211   1.759   3.345  15.455  0.1139  0.3844  0.4056
  687TMC3    C410212   2.030   3.367  15.433 -0.2154 -0.2102 -0.0456
  687TMC3    C510213   1.970   3.333  15.552 -0.9845  1.1791  0.0112
  687TMC3    C610214   1.835   3.312  15.563  0.0744 -0.2678 -0.1502
  687TMC3     C10215   2.015   3.506  15.242 -0.8764 -0.3321 -0.5767
  687TMC3     O10216   2.121   3.455  15.200 -0.4199 -0.7574 -0.5515
  687TMC3     H10217   1.761   3.446  15.255 -0.6816  0.6237 -0.0031
  687TMC3    H110218   2.137   3.382  15.436 -0.4592  1.6546 -0.6280
  687TMC3    H210219   1.788   3.288  15.657 -2.5587  3.6973 -0.4663
  687TMC3    C710220   2.040   3.382  15.668  0.0568  0.8215  0.1355
  687TMC3    C810221   1.618   3.339  15.481  1.1291 -0.5229  0.1984
  687TMC3    O110222   2.146   3.323  15.691  0.1588  0.1368  0.2325
  687TMC3    O210223   1.577   3.278  15.583  0.1534  0.5468 -0.0351
  688MPD2     C10224   0.498   2.690  17.206  0.1712 -0.1382  0.0224
  688MPD2    C110225   0.543   2.583  17.283  0.0970  0.0613  0.0934
  688MPD2    C210226   0.658   2.512  17.239 -0.2364  0.2846 -0.7533
  688MPD2    C310227   0.721   2.548  17.118  0.0520  0.8253 -0.1226
  688MPD2    C410228   0.664   2.655  17.050  0.6890 -0.6441  0.5662
  688MPD2    C510229   0.559   2.727  17.094 -0.1191 -0.1589  0.2537
  688MPD2     H10230   0.696   2.424  17.291 -2.2285 -0.1725 -0.0676
  688MPD2    H110231   0.719   2.691  16.963  0.3193 -0.8629  0.2415
  688MPD2    H210232   0.421   2.755  17.248 -0.2552  0.8251 -2.2619
  688MPD2    H310233   0.525   2.813  17.037  1.2056 -0.1123 -0.4611
  688MPD2     N10234   0.843   2.496  17.072  0.5428 -0.2638 -0.0280
  688MPD2    H510235   0.881   2.532  16.985  0.1483 -0.9698 -0.4932
  688MPD2    N110236   0.496   2.545  17.413  0.6494 -0.1792  0.6057
  688MPD2    H710237   0.547   2.472  17.463 -0.3510 -0.8422  0.6588
  689TMC3    C110238   0.368   2.536  17.616  0.0441 -0.3961 -0.2243
  689TMC3    C210239   0.313   2.606  17.719  0.3068  0.1114 -0.9918
  689TMC3    C310240   0.311   2.554   0.092 -0.2194 -0.7511  0.8748
  689TMC3    C410241   0.383   2.402  17.639  0.6033 -0.4084  0.1156
  689TMC3    C510242   0.385   2.355   0.013 -0.1343  0.8076 -0.1794
  689TMC3    C610243   0.356   2.431   0.118  0.4809  0.1484  0.2114
  689TMC3     C10244   0.393   2.600  17.483  0.1826  0.3948 -0.0696
  689TMC3     O10245   0.317   2.691  17.447  0.1710  0.1956  0.0183
  689TMC3     H10246   0.305   2.714  17.708 -0.9566  0.2604  1.4452
  689TMC3    H110247   0.443   2.351  17.565 -0.5069  1.5528 -2.1436
  689TMC3    H210248   0.342   2.391   0.218  2.2754  0.3240  0.5450
  689TMC3    C710249   0.388   2.215   0.045  0.0162 -0.2606  0.3674
  689TMC3    C810250   0.242   2.630   0.195  0.4266 -0.2407 -0.0124
  689TMC3    O110251   0.406   2.182   0.161 -0.0906  0.4049  0.0826
  689TMC3    O210252   0.305   2.621   0.299 -0.0402  0.4204  0.0302
  690MPD2     C10253   3.405   0.236  15.484  0.8223  0.1164  0.1434
  690MPD2    C110254   3.409   0.101  15.469  0.2966  1.1805  0.3406
  690MPD2    C210255   3.505   0.039  15.394  0.7098 -0.4128 -0.3381
  690MPD2    C310256   3.600   0.113  15.325  0.6147 -0.7474  0.0066
  690MPD2    C410257   3.588   0.252  15.330 -0.3066  0.2378  0.0820
  690MPD2    C510258   3.492   0.313  15.404 -0.4619  0.0675  1.2115
  690MPD2     H10259   3.508   4.671  15.378 -0.7750 -0.3636 -0.9247
  690MPD2    H110260   3.660   0.315  15.278 -0.5236 -0.4664 -1.0760
  690MPD2    H210261   3.335   0.293  15.543 -0.4093  0.7450 -1.9059
  690MPD2    H310262   3.486   0.421  15.416 -0.9884  0.4564 -2.5662
  690MPD2     N10263   3.685   0.046  15.232 -0.8425 -0.1174 -0.1283
  690MPD2    H510264   3.675   4.686  15.213 -0.9897  0.0242 -0.7966
  690MPD2    N110265   3.309   0.019  15.519 -0.2562 -0.1603  0.0450
  690MPD2    H710266   3.313   4.657  15.504  0.8976  0.1710 -1.8021
  691TMC3    C110267   3.086   4.696  15.587  0.4815  0.2456 -0.7172
  691TMC3    C210268   2.953   4.727  15.586 -0.0258  0.4111  0.0606
  691TMC3    C310269   2.869   4.646  15.659  0.0637  0.3226 -0.4401
  691TMC3    C410270   3.136   4.584  15.646  0.9693  0.1142  0.1032
  691TMC3    C510271   3.043   4.502  15.704  0.2723  0.4711 -0.7133
  691TMC3    C610272   2.914   4.535  15.718 -0.3430  0.0405 -0.3762
  691TMC3     C10273   3.179   0.060  15.546  0.1442 -0.2595 -0.4159
  691TMC3     O10274   3.132   0.168  15.529 -0.0344  0.3256  0.7194
  691TMC3     H10275   2.924   0.072  15.522 -0.1065  1.9531  2.1052
  691TMC3    H110276   3.240   4.553  15.644  0.5523 -1.1798 -1.5256
  691TMC3    H210277   2.871   4.491  15.807  0.0632  2.1330  0.8671
  691TMC3    C710278   3.100   4.384  15.783 -0.2226  0.1990 -0.4203
  691TMC3    C810279   2.728   4.649  15.644 -0.5866 -0.2096 -0.3443
  691TMC3    O110280   3.205   4.389  15.841  0.5866  0.0774  0.1234
  691TMC3    O210281   2.669   4.547  15.688 -0.1483  0.1178  0.1577
  692TMC3    C110282   4.391   0.536  15.703 -1.0111  0.3741  0.5615
  692TMC3    C210283   4.527   0.538  15.734 -0.7629  0.5079  0.2213
  692TMC3    C310284   4.602   0.429  15.713 -0.1717  0.1942 -0.3346
  692TMC3    C410285   4.329   0.421  15.670 -0.0975 -0.2618 -0.0975
  692TMC3    C510286   4.403   0.312  15.646 -0.0696 -0.4711  0.6669
  692TMC3    C610287   4.541   0.320  15.647  0.5162 -0.3424 -0.2923
  692TMC3     C10288   4.314   0.643  15.768  0.4576 -0.1698 -0.3154
  692TMC3     O10289   4.209   0.607  15.817 -0.5431 -0.3779  0.2292
  692TMC3     H10290   4.572   0.631  15.769  1.0848 -0.9396  1.7075
  692TMC3    H110291   4.223   0.427  15.644 -0.2801  1.0434  0.9461
  692TMC3    H210292   4.595   0.226  15.639 -0.4482 -0.8765 -0.6180
  692TMC3    C710293   4.335   0.188  15.681  0.2619 -0.0582 -0.9102
  692TMC3    C810294   4.647   0.372  15.839 -0.3105  0.1786 -0.0247
  692TMC3    O110295   4.215   0.180  15.652  0.0249 -0.0810  0.3307
  692TMC3    O210296   4.701   0.263  15.834 -0.0663 -0.6905  0.0218
  693MPD2     C10297   4.469   3.771  10.758 -0.4583 -0.2580  0.4709
  693MPD2    C110298   4.422   3.686  10.851 -0.4597 -0.0569 -0.3066
  693MPD2    C210299   4.508   3.658  10.959  0.2622 -0.1078  0.0081
  693MPD2    C310300   4.641   3.698  10.954  0.0462  0.5497  0.0611
  693MPD2    C410301   4.685   3.786  10.856  0.3648  0.5223 -0.7758
  693MPD2    C510302   4.594   3.832  10.769  0.6862  0.7361 -0.5010
  693MPD2     H10303   4.468   3.597  11.040  1.2469  0.0434  0.6072
  693MPD2    H110304   0.046   3.829  10.862 -0.0510  1.6543 -1.8942
  693MPD2    H210305   4.404   3.819  10.685  1.0506 -0.3900 -0.9593
  693MPD2    H310306   4.618   3.905  10.692 -1.2036 -1.4054 -3.1081
  693MPD2     N10307   0.004   3.641  11.046 -0.6266 -0.7359 -0.5987
  693MPD2    H510308   0.103   3.652  11.027 -0.5559  0.4974  0.4085
  693MPD2    N110309   4.284   3.630  10.847 -0.1762 -0.3798 -0.2131
  693MPD2    H710310   4.255   3.582  10.931 -0.3945  1.5039  0.7809
  694TMC3    C110311   4.083   3.547  10.770 -0.1032  0.0284 -0.0342
  694TMC3    C210312   4.033   3.470  10.663  0.1981 -0.3425  0.7716
  694TMC3    C310313   3.961   3.351  10.697 -0.2581 -0.7226  0.4647
  694TMC3    C410314   4.058   3.518  10.900  0.4991  0.0158 -0.5170
  694TMC3    C510315   3.986   3.407  10.928 -0.3416 -0.6720 -1.0389
  694TMC3    C610316   3.937   3.326  10.832  0.2551 -0.5609 -0.0789
  694TMC3     C10317   4.197   3.636  10.740 -0.1817 -0.6858  0.3240
  694TMC3     O10318   4.211   3.686  10.627 -0.1968  0.3385  0.3789
  694TMC3     H10319   4.060   3.495  10.561  1.7632 -2.0787  0.7489
  694TMC3    H110320   4.091   3.568  10.991  0.2198 -1.4752  0.4067
  694TMC3    H210321   3.871   3.243  10.854  2.5932 -1.8951  1.9735
  694TMC3    C710322   3.954   3.388  11.068 -0.0583 -0.9119  0.4800
  694TMC3    C810323   3.929   3.239  10.613 -0.6168  0.2936 -0.9115
  694TMC3    O110324   3.963   3.479  11.145  0.1557  0.2269 -0.3714
  694TMC3    O210325   3.898   3.139  10.675  0.7655  0.1478 -0.2632
  695MPD2     C10326   1.062   0.278  13.132  0.3726 -0.6943  0.3744
  695MPD2    C110327   0.970   0.273  13.230  0.4910 -0.2010  0.7368
  695MPD2    C210328   0.841   0.271  13.190  0.3324  0.5591  0.5421
  695MPD2    C310329   0.801   0.281  13.059 -0.1773  0.1995 -0.3096
  695MPD2    C410330   0.895   0.282  12.958 -0.6694 -0.3193 -0.6612
  695MPD2    C510331   1.024   0.287  12.996  0.2910  0.3954 -0.0200
  695MPD2     H10332   0.762   0.264  13.265 -0.5045  1.8767 -0.2061
  695MPD2    H110333   0.876   0.292  12.852 -1.4039  1.4370 -0.3647
  695MPD2    H210334   1.170   0.274  13.138  0.3221 -0.5431  1.3306
  695MPD2    H310335   1.100   0.301  12.919 -0.6882  0.4960 -0.9734
  695MPD2     N10336   0.665   0.303  13.031  1.0355 -0.1116 -0.2646
  695MPD2    H510337   0.599   0.295  13.108  1.5581  0.4790  0.2335
  695MPD2    N110338   1.007   0.252  13.363 -0.0600 -0.2838  0.1099
  695MPD2    H710339   0.936   0.255  13.435  0.7793 -0.5051  0.9422
  696TMC3    C110340   0.468   0.368  12.911  0.2198  0.0237  0.0480
  696TMC3    C210341   0.393   0.296  13.006  0.0365  0.1963 -0.1089
  696TMC3    C310342   0.269   0.345  13.025 -0.1585 -0.0798  0.4379
  696TMC3    C410343   0.426   0.469  12.831 -0.3161  0.2012 -0.2044
  696TMC3    C510344   0.307   0.525  12.867 -0.2184 -0.2338  0.0801
  696TMC3    C610345   0.224   0.460  12.961 -0.5545 -0.5579  0.2327
  696TMC3     C10346   0.614   0.355  12.916 -0.3250  0.7283  0.9528
  696TMC3     O10347   0.674   0.406  12.825  0.0170  0.2066 -0.0852
  696TMC3     H10348   0.435   0.213  13.061  1.8403 -0.0308 -1.8480
  696TMC3    H110349   0.500   0.537  12.790  0.1759  0.9813  1.9494
  696TMC3    H210350   0.134   0.514  12.988  0.4933  1.7067 -0.8644
  696TMC3    C710351   0.296   0.669  12.840  0.2363 -0.1431  0.1434
  696TMC3    C810352   0.204   0.305  13.146  0.0963 -0.7664 -0.3012
  696TMC3    O110353   0.350   0.698  12.733  0.0394 -0.1128 -0.2371
  696TMC3    O210354   0.265   0.236  13.225  0.5338 -0.0070  0.1181
  697MPD2     C10355   0.069   2.147  15.337 -0.1588 -0.1187  0.3786
  697MPD2    C110356   4.693   2.140  15.265  0.0655  0.1666 -0.0995
  697MPD2    C210357   4.669   2.239  15.171 -0.4001 -0.0267 -0.3821
  697MPD2    C310358   0.028   2.332  15.146  0.4045 -0.0541 -0.1590
  697MPD2    C410359   0.147   2.329  15.212 -0.2774 -0.6368 -0.1960
  697MPD2    C510360   0.164   2.243  15.313 -0.5384  0.7936  0.8965
  697MPD2     H10361   4.575   2.239  15.117 -0.7734  1.1067  0.2567
  697MPD2    H110362   0.229   2.398  15.200 -1.4032  0.4079 -1.8867
  697MPD2    H210363   0.096   2.084  15.422 -0.0281  1.1624  1.2869
  697MPD2    H310364   0.255   2.241  15.372 -0.0524 -3.1753 -0.0170
  697MPD2     N10365   0.004   2.430  15.046 -0.0373 -0.3945 -0.5314
  697MPD2    H510366   4.647   2.432  15.012  0.0082 -0.2957 -0.6560
  697MPD2    N110367   4.601   2.040  15.286  0.4573 -0.1317 -0.2110
  697MPD2    H710368   4.516   2.031  15.231 -0.7170 -0.5240  1.6494
  698TMC3    C110369   0.030   2.610  14.912  1.2867 -0.0203  0.0718
  698TMC3    C210370   0.019   2.746  14.934 -0.5282  0.4971 -0.4450
  698TMC3    C310371   4.672   2.819  14.849 -0.8794  1.0147  0.0572
  698TMC3    C410372   4.679   2.547  14.830 -0.2895 -0.4440 -0.3438
  698TMC3    C510373   4.584   2.620  14.764 -0.3007 -0.2077  0.5108
  698TMC3    C610374   4.583   2.758  14.770 -0.2003 -0.1924  0.0130
  698TMC3     C10375   0.082   2.539  15.025  0.3887  0.2925  0.4509
  698TMC3     O10376   0.178   2.583  15.088  0.1534 -0.4006  0.2358
  698TMC3     H10377   0.088   2.796  15.001 -0.4843  0.0264 -0.1373
  698TMC3    H110378   4.710   2.449  14.796  1.0081 -0.9316  2.2722
  698TMC3    H210379   4.515   2.815  14.709 -0.6878 -2.4064 -1.4949
  698TMC3    C710380   4.505   2.558  14.665  0.1749  0.6548 -0.0179
  698TMC3    C810381   4.624   2.950  14.887  0.4692 -0.1931  0.2010
  698TMC3    O110382   4.456   2.633  14.580  0.1138  0.5468 -1.0797
  698TMC3    O210383   4.511   2.988  14.857 -0.2092  0.1412 -0.4016
  699TMC3    C110384   0.021   1.205  12.533 -0.0229 -0.4594 -0.2999
  699TMC3    C210385   0.052   1.073  12.553 -0.6353  0.3857 -0.1330
  699TMC3    C310386   4.731   1.013  12.662 -0.1065  0.8349  0.8096
  699TMC3    C410387   4.690   1.287  12.623 -0.3478  0.4923  0.1088
  699TMC3    C510388   4.663   1.228  12.742  0.2989  0.6986 -0.5416
  699TMC3    C610389   4.685   1.093  12.764 -0.0521  0.4335  0.7117
  699TMC3     C10390   0.030   1.261  12.399  0.5451 -0.7078 -0.0396
  699TMC3     O10391   0.018   1.178  12.309  0.6535  0.0846  0.0362
  699TMC3     H10392   0.092   1.014  12.471  0.7040  1.5113 -0.2793
  699TMC3    H110393   4.649   1.380  12.585 -0.0863  0.7224  0.4028
  699TMC3    H210394   4.692   1.060  12.866 -1.1011  1.3440  1.0880
  699TMC3    C710395   4.560   1.291  12.816  0.1542 -0.5713 -0.1411
  699TMC3    C810396   4.713   0.867  12.674 -0.4388 -0.5521  0.1738
  699TMC3    O110397   4.515   1.400  12.778  0.2113  0.0395 -0.0293
  699TMC3    O210398   4.637   0.837  12.765 -0.2172  0.4551  0.1733
  700TMC3    C110399   3.197   2.975  16.754 -0.8488  0.0746 -0.0514
  700TMC3    C210400   3.321   2.918  16.789 -0.7436 -0.3447  0.7915
  700TMC3    C310401   3.321   2.800  16.862  0.2968 -0.1167 -0.3000
  700TMC3    C410402   3.082   2.909  16.782  0.0596 -0.2198  0.3065
  700TMC3    C510403   3.086   2.797  16.858 -0.1134  0.6037  0.0147
  700TMC3    C610404   3.204   2.747  16.913  0.2950  0.1208  0.1526
  700TMC3     C10405   3.192   3.116  16.730  0.1409  0.7581  0.0511
  700TMC3     O10406   3.077   3.149  16.698 -0.0297  1.1011 -0.3756
  700TMC3     H10407   3.417   2.945  16.745 -0.3126 -2.8285  0.1992
  700TMC3    H110408   2.992   2.953  16.741  1.2253  2.3443  0.5277
  700TMC3    H210409   3.192   2.657  16.971 -0.4900  1.5810  2.2486
  700TMC3    C710410   2.964   2.718  16.883 -0.7889 -0.4830 -0.0867
  700TMC3    C810411   3.447   2.739  16.886  0.7539  0.8232 -0.3488
  700TMC3    O110412   2.981   2.598  16.854 -0.9195  0.3244 -0.2680
  700TMC3    O210413   3.524   2.740  16.794  0.5588 -0.2480  0.8220
  701TMC3    C110414   3.738   1.594  15.622 -0.3005  0.2819 -0.1322
  701TMC3    C210415   3.797   1.517  15.527  0.0830 -0.4175  0.4260
  701TMC3    C310416   3.890   1.576  15.443 -0.2742 -0.2048 -0.0542
  701TMC3    C410417   3.766   1.729  15.628  0.4563 -0.4554 -0.0800
  701TMC3    C510418   3.877   1.779  15.562 -0.0426  0.0450 -0.6986
  701TMC3    C610419   3.933   1.705  15.461 -0.3729 -0.1472  0.1770
  701TMC3     C10420   3.614   1.545  15.676 -0.1587 -0.0520 -0.2646
  701TMC3     O10421   3.580   1.427  15.669  0.0980  0.1636  0.5737
  701TMC3     H10422   3.751   1.420  15.515 -0.0116 -0.1745 -1.2681
  701TMC3    H110423   3.722   1.786  15.709  3.2351  0.0775  1.0473
  701TMC3    H210424   4.002   1.752  15.391 -0.2426  1.0238  1.0996
  701TMC3    C710425   3.915   1.914  15.584 -0.2498 -0.3898 -0.7170
  701TMC3    C810426   3.952   1.492  15.348  0.0993  0.3816 -0.6877
  701TMC3    O110427   3.978   1.977  15.499 -0.0690 -0.6983 -0.5724
  701TMC3    O210428   4.066   1.521  15.322 -0.5651 -0.2076  0.0243
  702MPD2     C10429   3.107   3.805  10.177  0.1288 -0.2071  0.2417
  702MPD2    C110430   3.131   3.884  10.295  0.4876  0.2653  0.2314
  702MPD2    C210431   3.158   4.016  10.273 -0.5808  0.6492 -0.2155
  702MPD2    C310432   3.153   4.080  10.150  0.5079 -0.2879  0.7106
  702MPD2    C410433   3.127   4.004  10.040  0.2759 -0.9829  0.1077
  702MPD2    C510434   3.100   3.874  10.053 -0.0182 -0.3348  0.4592
  702MPD2     H10435   3.171   4.073  10.364 -1.0323 -0.2748  0.4261
  702MPD2    H110436   3.123   4.042   9.938  0.9178 -1.7495 -0.2080
  702MPD2    H210437   3.087   3.698  10.182  0.0433 -0.3454 -3.0631
  702MPD2    H310438   3.076   3.819   9.963  0.1663 -0.0633  0.2431
  702MPD2     N10439   3.163   4.221  10.135  0.2101 -0.0656  0.3009
  702MPD2    H510440   3.199   4.272  10.216  1.2704 -1.3358  0.6352
  702MPD2    N110441   3.133   3.831  10.423 -0.0152 -0.5002  0.5335
  702MPD2    H710442   3.157   3.894  10.499  0.5162  0.3737 -0.3725
  703TMC3    C110443   3.111   4.432  10.059  0.6627 -0.0725 -0.1486
  703TMC3    C210444   2.999   4.468  10.125 -0.3129  0.0979  0.7272
  703TMC3    C310445   3.003   4.561  10.226  0.0234  0.5173 -0.2405
  703TMC3    C410446   3.227   4.501  10.082 -0.7293 -0.3541  0.2586
  703TMC3    C510447   3.228   4.601  10.179 -0.0464  0.6566 -0.5321
  703TMC3    C610448   3.115   4.637  10.252 -0.5219  0.7879 -0.1222
  703TMC3     C10449   3.116   4.292  10.028  0.0759  0.9325 -0.0980
  703TMC3     O10450   3.045   4.250   9.939  0.2500  0.0390  0.0290
  703TMC3     H10451   2.900   4.431  10.101  0.2838 -1.5588  0.7531
  703TMC3    H110452   3.316   4.464  10.032 -1.7743 -1.5917 -0.6943
  703TMC3    H210453   3.110   4.709  10.333 -1.7724 -0.2455  0.7246
  703TMC3    C710454   3.354   4.667  10.198 -0.0091  0.0644 -0.5020
  703TMC3    C810455   2.922   4.527  10.344  0.2392 -0.2787  0.3143
  703TMC3    O110456   3.441   4.653  10.113 -0.0382 -0.5052 -0.2491
  703TMC3    O210457   2.912   4.615  10.427 -0.2384  0.2647  0.1140
  704TMC3    C110458   0.790   1.584  12.800 -0.0655  0.2768  0.4409
  704TMC3    C210459   0.843   1.574  12.677 -0.5198 -0.0703  0.1597
  704TMC3    C310460   0.806   1.458  12.619  0.0539 -0.0772  0.0558
  704TMC3    C410461   0.728   1.485  12.874 -0.3541 -0.4787  0.1237
  704TMC3    C510462   0.698   1.367  12.809 -0.6105 -0.7459 -0.5168
  704TMC3    C610463   0.732   1.357  12.676 -0.2899  0.0089  0.0687
  704TMC3     C10464   0.762   1.721  12.841 -0.1622 -0.5046 -0.1444
  704TMC3     O10465   0.718   1.741  12.951  0.8878 -0.6442  0.0828
  704TMC3     H10466   0.922   1.638  12.641  0.7154 -0.7154  1.7325
  704TMC3    H110467   0.704   1.506  12.978 -1.0678 -1.2583  0.1196
  704TMC3    H210468   0.724   1.262  12.624 -0.1286  0.2207 -0.3510
  704TMC3    C710469   0.654   1.236  12.866 -0.1352 -0.1366 -0.0690
  704TMC3    C810470   0.888   1.405  12.507 -0.4493 -0.0595 -0.4207
  704TMC3    O110471   0.637   1.143  12.793 -0.5929  0.0332 -0.4464
  704TMC3    O210472   0.910   1.284  12.514  0.3850  0.1417 -0.0638
  705MPD2     C10473   0.157   0.062  16.630  0.3008 -0.0520  0.2402
  705MPD2    C110474   0.107   0.158  16.556 -0.3835  1.5407 -0.5451
  705MPD2    C210475   4.731   0.218  16.605 -0.3613  0.3614 -0.3652
  705MPD2    C310476   4.674   0.180  16.724 -0.0870  1.1759 -1.0877
  705MPD2    C410477   4.736   0.088  16.796  0.1607  0.3906  0.3059
  705MPD2    C510478   0.106   0.028  16.749 -0.0153  0.6495  0.1407
  705MPD2     H10479   4.685   0.305  16.560  2.0562  1.0950 -1.4074
  705MPD2    H110480   4.695   0.057  16.892  2.7748  2.9258  2.2634
  705MPD2    H210481   0.243   0.006  16.595 -0.0659 -0.6003  0.2059
  705MPD2    H310482   0.127   4.675  16.801 -2.0281 -0.4027 -0.9091
  705MPD2     N10483   4.563   0.233  16.788 -0.4063  0.2522 -0.1592
  705MPD2    H510484   4.540   0.200  16.881 -0.2570  0.4725 -0.0479
  705MPD2    N110485   0.153   0.209  16.436 -0.7532  0.5052 -0.4417
  705MPD2    H710486   0.104   0.294  16.410  0.4994  1.6989  1.0691
  706TMC3    C110487   0.264   0.213  16.023  0.0741  0.5953  0.6877
  706TMC3    C210488   0.216   0.335  16.002  0.1872  0.5858  0.4834
  706TMC3    C310489   0.198   0.417  16.107 -0.4891 -0.2305  0.1725
  706TMC3    C410490   0.298   0.173  16.147 -0.5725 -0.1303 -0.0236
  706TMC3    C510491   0.285   0.256  16.250 -0.4117 -0.5446  0.1899
  706TMC3    C610492   0.222   0.380  16.239  0.3843 -0.1498  0.0075
  706TMC3     C10493   0.323   0.153  15.915 -0.0018 -0.6832  0.5875
  706TMC3     O10494   0.445   0.143  15.916  0.1506  0.5101  0.0624
  706TMC3     H10495   0.206   0.370  15.900 -0.4084 -1.7493 -0.2696
  706TMC3    H110496   0.343   0.075  16.152  1.4167  0.8367  1.0167
  706TMC3    H210497   0.211   0.443  16.326 -0.7384 -0.4010  0.0458
  706TMC3    C710498   0.271   0.174  16.372  0.0898  0.0786 -0.3027
  706TMC3    C810499   0.164   0.554  16.073  0.3717  0.2690 -0.4722
  706TMC3    O110500   0.345   0.078  16.386  0.0020  0.1229  0.3336
  706TMC3    O210501   0.172   0.589  15.955 -0.3106  0.0555 -0.1953
  707TMC3    C110502   1.388   4.142   0.932 -0.5290 -0.0606 -0.1821
  707TMC3    C210503   1.423   4.074   1.044 -0.3918  0.6314 -0.0464
  707TMC3    C310504   1.404   3.940   1.039 -0.1122 -0.1781 -0.4265
  707TMC3    C410505   1.310   4.090   0.830 -0.4533 -0.3550  0.0290
  707TMC3    C510506   1.290   3.951   0.833  0.1263  0.8030  0.2263
  707TMC3    C610507   1.342   3.875   0.942 -0.3154  0.3319 -0.1204
  707TMC3     C10508   1.415   4.286   0.909 -0.4851 -0.3038  0.7835
  707TMC3     O10509   1.317   4.352   0.879  0.9120 -0.6172  0.5774
  707TMC3     H10510   1.482   4.116   1.125  0.9747  1.2044 -1.3413
  707TMC3    H110511   1.305   4.147   0.738 -0.4451 -0.9333 -0.3332
  707TMC3    H210512   1.345   3.767   0.943  1.4732  0.4060  0.5201
  707TMC3    C710513   1.212   3.883   0.733  0.2917 -0.8864  0.4653
  707TMC3    C810514   1.480   3.867   1.148  1.2506  0.0028 -0.5472
  707TMC3    O110515   1.201   3.759   0.741 -0.0408  0.5595  0.4485
  707TMC3    O210516   1.514   3.931   1.248 -0.9140  0.4855 -0.0359
  708MPD2     C10517   3.755   2.805  13.817 -1.1351  0.1000  0.7636
  708MPD2    C110518   3.644   2.881  13.784 -0.0133  0.6286  0.0052
  708MPD2    C210519   3.577   2.960  13.879  0.6557  0.4483  0.2034
  708MPD2    C310520   3.627   2.963  14.008  0.8152 -1.0600  0.0027
  708MPD2    C410521   3.732   2.883  14.045  0.5114 -0.0645  0.9401
  708MPD2    C510522   3.793   2.803  13.951 -0.3247 -0.3872  0.4305
  708MPD2     H10523   3.496   3.025  13.848 -0.3363 -0.9432 -0.0606
  708MPD2    H110524   3.765   2.878  14.148  1.0708  4.4290  1.0123
  708MPD2    H210525   3.801   2.736  13.747  1.3870 -0.2758  2.7928
  708MPD2    H310526   3.877   2.740  13.979  0.9761  1.9155  1.6690
  708MPD2     N10527   3.556   3.043  14.095 -0.1123 -0.0680 -0.1016
  708MPD2    H510528   3.490   3.101  14.045  2.1363  0.3242 -2.6226
  708MPD2    N110529   3.605   2.903  13.653 -0.2473  0.3988  0.8737
  708MPD2    H710530   3.515   2.947  13.639  0.5735  1.8448  0.1363
  709TMC3    C110531   3.649   2.952  13.432 -0.4743 -0.3264 -0.4581
  709TMC3    C210532   3.737   3.047  13.387 -0.4177  0.8476  0.4351
  709TMC3    C310533   3.690   3.162  13.335  0.0370 -0.2644 -0.0585
  709TMC3    C410534   3.513   2.979  13.438  0.0690  0.3568 -0.2904
  709TMC3    C510535   3.467   3.101  13.394  0.2009  0.4172 -0.0775
  709TMC3    C610536   3.555   3.189  13.335 -0.3874  1.1530 -1.0633
  709TMC3     C10537   3.697   2.885  13.549  0.4589  0.4051  0.0727
  709TMC3     O10538   3.818   2.860  13.543  0.4832  0.2591 -0.1774
  709TMC3     H10539   3.842   3.021  13.394 -0.5163 -0.0087 -1.1554
  709TMC3    H110540   3.441   2.900  13.458  0.4240  0.0043 -0.4105
  709TMC3    H210541   3.518   3.290  13.323 -2.4485  0.4158 -0.9313
  709TMC3    C710542   3.385   3.153  13.498 -0.1305  0.6775 -0.5015
  709TMC3    C810543   3.779   3.246  13.259  0.6525  0.3160 -0.4131
  709TMC3    O110544   3.401   3.092  13.600  0.3944  0.5881  0.2566
  709TMC3    O210545   3.894   3.257  13.298  0.1551 -0.3201 -0.3346
  710TMC3    C110546   4.280   0.468  17.650 -0.2645 -0.3021  0.1431
  710TMC3    C210547   4.373   0.460  17.547 -0.2075  0.2757 -0.3154
  710TMC3    C310548   4.447   0.349  17.542 -0.1271 -0.3290 -0.6084
  710TMC3    C410549   4.231   0.367  17.721  0.2315  0.3511  0.0167
  710TMC3    C510550   4.307   0.247  17.711  0.1799 -0.5353 -0.4746
  710TMC3    C610551   4.419   0.238  17.623  0.9075  0.0725  0.2157
  710TMC3     C10552   4.267   0.600  17.703 -0.1205 -0.2482 -0.5122
  710TMC3     O10553   4.370   0.664  17.692  0.0436 -0.2356  0.1987
  710TMC3     H10554   4.392   0.547  17.485 -0.7116  1.5866  1.3452
  710TMC3    H110555   4.168   0.382   0.054  0.0313 -1.0904  0.1317
  710TMC3    H210556   4.476   0.146  17.613 -1.5197 -1.7724  3.1148
  710TMC3    C710557   4.293   0.138   0.052 -0.1170 -0.0141  0.1284
  710TMC3    C810558   4.583   0.363  17.500 -0.8235 -0.2012 -0.1182
  710TMC3    O110559   4.372   0.047   0.042 -0.6524 -0.6158 -0.1350
  710TMC3    O210560   4.593   0.372  17.379 -0.0858  0.2877  0.6931
  711TMC3    C110561   4.567   0.635  14.688  0.5194 -0.5296 -0.1749
  711TMC3    C210562   4.507   0.745  14.753  0.4165 -0.3126 -0.3179
  711TMC3    C310563   4.502   0.741  14.891 -0.0037 -0.1904  0.2685
  711TMC3    C410564   4.613   0.527  14.758  0.0015 -0.6676 -0.0475
  711TMC3    C510565   4.606   0.533  14.891  0.5956 -0.1708 -0.3734
  711TMC3    C610566   4.557   0.640  14.967 -0.3742 -0.6440  0.3520
  711TMC3     C10567   4.539   0.604  14.551  0.2097  0.2523  0.2421
  711TMC3     O10568   4.559   0.490  14.510  0.0143  0.6819  0.4504
  711TMC3     H10569   4.479   0.837  14.702 -0.8656 -0.4366  0.1464
  711TMC3    H110570   4.676   0.457  14.705 -1.4264 -0.6421 -1.7623
  711TMC3    H210571   4.553   0.632  15.075  0.0953  0.2786  0.4384
  711TMC3    C710572   4.706   0.464  14.962  0.0111 -0.4451  0.1404
  711TMC3    C810573   4.444   0.861  14.948 -0.1557 -0.1911 -0.1754
  711TMC3    O110574   4.678   0.439  15.077 -0.0191 -0.3609 -0.4394
  711TMC3    O210575   4.358   0.926  14.887 -0.6817  0.0326  0.6797
  712MPD2     C10576   0.841   1.941  14.240  0.8097  0.0920 -0.4887
  712MPD2    C110577   0.772   2.005  14.139 -0.4184 -0.0644 -0.3275
  712MPD2    C210578   0.778   2.143  14.138  0.1833 -0.3039 -0.6376
  712MPD2    C310579   0.850   2.208  14.236  0.6186 -0.4674 -0.2196
  712MPD2    C410580   0.907   2.142  14.337 -0.6258 -0.2031 -0.1591
  712MPD2    C510581   0.912   2.004  14.344  0.2749  0.2580  0.1104
  712MPD2     H10582   0.733   2.202  14.059  1.4621  0.5951 -0.7023
  712MPD2    H110583   0.962   2.188  14.419 -0.4810  0.0583 -0.4051
  712MPD2    H210584   0.841   1.832  14.247  0.0951  0.1234 -0.0567
  712MPD2    H310585   0.961   1.946  14.421  1.8316  0.0591 -1.0183
  712MPD2     N10586   0.873   2.348  14.237 -0.2070  0.4054 -0.5939
  712MPD2    H510587   0.955   2.373  14.291 -1.0916 -1.1617  1.5058
  712MPD2    N110588   0.705   1.932  14.041 -0.2711 -0.2677 -0.0552
  712MPD2    H710589   0.668   1.996  13.971 -1.7966 -0.5604  0.4860
  713TMC3    C110590   0.969   2.520  14.102  0.1842 -0.4306  0.9025
  713TMC3    C210591   1.097   2.469  14.114  0.1989  0.1481  0.3825
  713TMC3    C310592   1.209   2.547  14.079  0.2453  0.2716  0.1976
  713TMC3    C410593   0.944   2.654  14.079  0.2982  0.0041  0.6513
  713TMC3    C510594   1.063   2.724  14.073 -0.4399 -0.1610  0.1086
  713TMC3    C610595   1.187   2.678  14.078  0.1428  0.0520 -0.0156
  713TMC3     C10596   0.849   2.436  14.134 -0.1584  0.0859  0.2660
  713TMC3     O10597   0.752   2.451  14.064 -0.3216  0.2877  0.1742
  713TMC3     H10598   1.102   2.362  14.132 -0.0407  0.0827  0.0652
  713TMC3    H110599   0.845   2.696  14.094 -0.8236 -2.3389 -0.1052
  713TMC3    H210600   1.259   2.753  14.048 -1.2794  1.5370  0.2980
  713TMC3    C710601   1.050   2.866  14.048  0.9993  0.1445  0.7933
  713TMC3    C810602   1.326   2.493  14.012  0.6440 -0.7203  0.3380
  713TMC3    O110603   1.143   2.935  14.088  0.4943  0.4498 -0.1768
  713TMC3    O210604   1.426   2.560  13.979  0.2049 -0.2584 -0.0123
  714MPD2     C10605   2.592   4.720   1.355 -0.2229 -0.1535  0.3400
  714MPD2    C110606   2.529   0.074   1.272  0.0291  0.1602 -0.1671
  714MPD2    C210607   2.393   0.095   1.294 -0.9067  0.4662  0.1454
  714MPD2    C310608   2.314   0.033   1.384  0.1847  0.3553 -0.1643
  714MPD2    C410609   2.384   4.677   1.462  0.1748 -0.1979 -0.7986
  714MPD2    C510610   2.516   4.657   1.452 -0.2561 -0.2468  0.0570
  714MPD2     H10611   2.351   0.168   1.226  0.1818  0.5862 -0.3954
  714MPD2    H110612   2.338   4.611   1.536  1.4955  0.9635  1.0561
  714MPD2    H210613   2.695   4.687   1.348 -0.2572 -0.0470 -0.6832
  714MPD2    H310614   2.557   4.576   1.511  1.1207 -1.8284 -3.1131
  714MPD2     N10615   2.174   0.064   1.399  0.2731 -0.6196 -0.1319
  714MPD2    H510616   2.136   0.122   1.325 -1.7352 -0.7900  0.7580
  714MPD2    N110617   2.607   0.131   1.166 -0.1528  0.3261 -0.1829
  714MPD2    H710618   2.701   0.098   1.148 -0.7032 -0.9618 -0.6675
  715TMC3    C110619   2.693   0.303   1.028  0.2167 -0.7437 -0.2340
  715TMC3    C210620   2.792   0.210   1.018  0.0494  0.1162 -0.1188
  715TMC3    C310621   2.920   0.255   1.005  0.3449 -0.3461  0.2583
  715TMC3    C410622   2.710   0.436   1.051 -0.5045 -0.8471 -0.4680
  715TMC3    C510623   2.841   0.477   1.060 -0.0353  0.2778 -0.1075
  715TMC3    C610624   2.944   0.391   1.029  0.0740  0.5412 -0.3332
  715TMC3     C10625   2.576   0.248   1.094  0.1355 -0.4509 -0.7110
  715TMC3     O10626   2.480   0.320   1.092 -0.2745  0.2430 -0.1678
  715TMC3     H10627   2.787   0.104   0.999 -2.9389  0.3256 -0.5115
  715TMC3    H110628   2.630   0.508   1.056  0.7250  0.3867  1.3357
  715TMC3    H210629   3.047   0.425   1.031 -0.4644  2.0768  1.6633
  715TMC3    C710630   2.878   0.604   1.128 -0.4102 -0.4414  0.7783
  715TMC3    C810631   3.037   0.167   0.983 -0.2193  0.1352  0.5962
  715TMC3    O110632   2.990   0.609   1.168 -0.3065  0.7055 -0.4561
  715TMC3    O210633   3.015   0.046   1.004  0.0801  0.7712 -0.4748
  716MPD2     C10634   3.403   4.034   9.786  0.3164  0.0543  0.0646
  716MPD2    C110635   3.297   4.016   9.700  0.0845 -0.1791 -0.2491
  716MPD2    C210636   3.270   3.885   9.654  0.0501  0.6853  0.5474
  716MPD2    C310637   3.347   3.782   9.691 -0.3990  0.0712  0.6588
  716MPD2    C410638   3.449   3.801   9.787  0.8521  0.1396  0.3651
  716MPD2    C510639   3.478   3.928   9.830 -0.0306  0.0322 -1.0075
  716MPD2     H10640   3.197   3.867   9.577  1.0422  0.3941 -0.3359
  716MPD2    H110641   3.502   3.718   9.833 -0.3302 -0.2513  1.0127
  716MPD2    H210642   3.429   4.131   9.826  1.9940 -1.2331  2.1292
  716MPD2    H310643   3.560   3.951   9.898 -0.5513  0.3614 -0.4950
  716MPD2     N10644   3.308   3.661   9.631  0.3269 -0.3442  0.0930
  716MPD2    H510645   3.232   3.663   9.563  1.2920 -0.4288 -0.9827
  716MPD2    N110646   3.228   4.127   9.647 -0.3472 -0.5060 -0.0921
  716MPD2    H710647   3.236   4.214   9.700  1.0402 -1.6075  1.4945
  717TMC3    C110648   3.312   3.439   9.582 -0.0372 -0.4566 -0.6555
  717TMC3    C210649   3.186   3.447   9.526 -0.4418 -0.7355  0.0812
  717TMC3    C310650   3.144   3.334   9.455  0.0892 -0.1014 -0.3523
  717TMC3    C410651   3.392   3.325   9.557 -0.6086 -0.6894  0.5133
  717TMC3    C510652   3.340   3.216   9.486  0.2923  0.0878  0.6778
  717TMC3    C610653   3.219   3.228   9.424  0.3867  0.1841  0.3760
  717TMC3     C10654   3.377   3.544   9.649 -0.1053  0.3465  0.4466
  717TMC3     O10655   3.474   3.518   9.720  0.8464 -0.4499  0.2496
  717TMC3     H10656   3.114   3.513   9.573  1.1915  1.8113 -0.9965
  717TMC3    H110657   3.489   3.317   9.604 -0.6640  1.3292  0.9812
  717TMC3    H210658   3.182   3.144   9.365 -1.2914 -0.2357  2.0162
  717TMC3    C710659   3.394   3.084   9.503 -0.0689 -0.7904  0.2740
  717TMC3    C810660   3.015   3.355   9.387  0.0397  0.3645  0.0716
  717TMC3    O110661   3.329   2.995   9.458  0.0982 -0.3884  0.5469
  717TMC3    O210662   2.959   3.460   9.412 -0.2554 -0.2753  0.6744
  718MPD2     C10663   2.766   1.986  12.903 -0.8210  0.1217 -0.3996
  718MPD2    C110664   2.718   2.017  12.779  0.2440 -0.1867  0.0497
  718MPD2    C210665   2.615   1.950  12.727 -0.3885  0.0637  0.3039
  718MPD2    C310666   2.547   1.858  12.807  0.0460 -0.1196  0.1065
  718MPD2    C410667   2.582   1.835  12.934 -0.5475  0.3263  0.2904
  718MPD2    C510668   2.701   1.891  12.976 -0.4438  0.0624 -0.7687
  718MPD2     H10669   2.585   1.945  12.623  1.3390  1.2745 -0.2625
  718MPD2    H110670   2.529   1.768  13.002 -0.9623 -0.5777 -0.9178
  718MPD2    H210671   2.851   2.039  12.944 -1.3066  1.1142 -0.6742
  718MPD2    H310672   2.739   1.865  13.074  0.0530 -0.1537 -1.0178
  718MPD2     N10673   2.434   1.800  12.745  0.0744  0.0567 -0.0260
  718MPD2    H510674   2.416   1.828  12.650  0.5197  0.5814  0.0421
  718MPD2    N110675   2.770   2.131  12.711 -0.5602 -0.5264 -0.0454
  718MPD2    H710676   2.858   2.174  12.737 -0.1262 -2.9337  2.3376
  719TMC3    C110677   2.747   2.328  12.556  0.1117 -0.6912 -0.3758
  719TMC3    C210678   2.685   2.351  12.438 -0.0027 -0.2457 -0.1431
  719TMC3    C310679   2.638   2.478  12.413 -0.7105  0.3767  0.7494
  719TMC3    C410680   2.786   2.430  12.640 -0.2872  0.0875  0.0504
  719TMC3    C510681   2.752   2.559  12.599  0.2568 -0.4587 -0.0162
  719TMC3    C610682   2.658   2.579  12.499 -0.0898 -0.0044 -0.9996
  719TMC3     C10683   2.696   2.197  12.608  0.6998 -0.9781 -0.1014
  719TMC3     O10684   2.590   2.161  12.558 -0.3705  0.5842 -0.1605
  719TMC3     H10685   2.661   2.275  12.365 -0.4811 -2.0234  1.8805
  719TMC3    H110686   2.845   2.403  12.726  0.5633  1.5904 -0.0721
  719TMC3    H210687   2.617   2.678  12.479  1.4596  0.5922 -1.1797
  719TMC3    C710688   2.870   2.647  12.579  0.8973 -0.0177 -0.4384
  719TMC3    C810689   2.507   2.478  12.361  0.0366  0.3248  0.3735
  719TMC3    O110690   2.885   2.706  12.470  0.2216 -0.1623  0.5445
  719TMC3    O210691   2.460   2.586  12.320  0.8138  0.1533  0.5813
  720MPD2     C10692   0.937   4.043  13.865 -0.6118  0.0214  0.3906
  720MPD2    C110693   1.023   4.113  13.791 -0.0418  0.7039 -0.5513
  720MPD2    C210694   1.146   4.138  13.846  0.0018  0.4963 -0.2002
  720MPD2    C310695   1.189   4.089  13.964  0.6446 -0.3033 -0.2161
  720MPD2    C410696   1.098   4.019  14.037 -0.5376 -0.4162  0.2029
  720MPD2    C510697   0.970   3.993  13.993  0.3664 -0.7508 -0.0320
  720MPD2     H10698   1.214   4.204  13.794 -1.4016  2.6842  0.7087
  720MPD2    H110699   1.125   3.974  14.132 -0.1166 -0.2443  0.1627
  720MPD2    H210700   0.834   4.031  13.835 -0.1529 -0.9416 -0.7751
  720MPD2    H310701   0.891   3.941  14.046  1.5107 -1.2000  1.2302
  720MPD2     N10702   1.319   4.121  14.001  0.3657  0.9601  0.2308
  720MPD2    H510703   1.385   4.163  13.936 -0.7464  2.2093 -0.0746
  720MPD2    N110704   0.988   4.162  13.659  0.5768 -0.3477 -0.3086
  720MPD2    H710705   1.066   4.198  13.605 -0.1590  1.9675  0.2099
  721TMC3    C110706   1.490   4.187  14.149  0.3200  0.2185 -0.0854
  721TMC3    C210707   1.494   4.277  14.246  0.5681 -0.1442  0.5189
  721TMC3    C310708   1.602   4.343  14.275 -0.0446 -0.5536  0.8631
  721TMC3    C410709   1.596   4.166  14.069 -0.4552 -0.4194  0.2247
  721TMC3    C510710   1.715   4.228  14.107 -0.2719 -0.4531 -0.2087
  721TMC3    C610711   1.716   4.328  14.197  0.0567 -0.0426  0.3866
  721TMC3     C10712   1.362   4.122  14.134 -0.2497 -0.2274 -1.0114
  721TMC3     O10713   1.315   4.089  14.240  0.2201  0.5926 -0.8048
  721TMC3     H10714   1.407   4.298  14.308  1.5888 -3.1329  3.0303
  721TMC3    H110715   1.603   4.089  13.993  3.5530 -0.8476  1.0458
  721TMC3    H210716   1.807   4.381  14.223 -1.0358  1.2282  1.6025
  721TMC3    C710717   1.835   4.212  14.035  0.5731  0.3834  0.6969
  721TMC3    C810718   1.614   4.431  14.395  0.5159 -0.3080 -0.5777
  721TMC3    O110719   1.942   4.230  14.095  0.2518 -0.4278 -0.4936
  721TMC3    O210720   1.688   4.527  14.386 -0.3143 -0.0499 -0.2142
  722MPD2     C10721   4.728   2.752  13.506 -0.2319 -0.0689 -0.9764
  722MPD2    C110722   0.028   2.828  13.401  0.1024 -0.1334  0.2408
  722MPD2    C210723   4.687   2.829  13.285  0.3902 -0.1245 -0.1760
  722MPD2    C310724   4.567   2.764  13.278  0.2649  0.9595  0.3313
  722MPD2    C410725   4.533   2.685  13.384  0.2038 -0.2330  0.1703
  722MPD2    C510726   4.611   2.687  13.495 -0.0794  0.1248  0.2139
  722MPD2     H10727   4.729   2.877  13.198  1.5434 -0.0192  0.4401
  722MPD2    H110728   4.442   2.627  13.395 -0.4362  0.8196  0.3945
  722MPD2    H210729   0.040   2.739  13.601 -2.3129  1.3550  0.3302
  722MPD2    H310730   4.578   2.642  13.588 -0.8433 -0.8807 -0.5495
  722MPD2     N10731   4.484   2.770  13.169 -0.1831 -0.7502  0.3672
  722MPD2    H510732   4.513   2.832  13.095 -0.0654  0.6751  1.6044
  722MPD2    N110733   0.157   2.898  13.405  0.1172  0.4213  0.1938
  722MPD2    H710734   0.185   2.947  13.321 -0.5418 -1.5863 -1.2160
  723TMC3    C110735   4.297   2.750  13.021  0.4028 -0.0257 -0.0889
  723TMC3    C210736   4.250   2.665  12.925  0.1156 -0.3663  0.2102
  723TMC3    C310737   4.243   2.710  12.796 -0.2238  0.0941  0.2609
  723TMC3    C410738   4.340   2.875  12.991  0.0677 -0.8848  0.5705
  723TMC3    C510739   4.331   2.918  12.864 -0.3154  0.1742  0.6016
  723TMC3    C610740   4.287   2.838  12.765  0.5695  0.6325  0.4984
  723TMC3     C10741   4.371   2.690  13.137 -0.0718  0.1582 -0.3432
  723TMC3     O10742   4.326   2.596  13.197 -0.3557  0.4453 -0.0146
  723TMC3     H10743   4.218   2.567  12.958  0.2202 -0.0968  1.1245
  723TMC3    H110744   4.367   2.950  13.064  0.4503 -0.0648 -0.4226
  723TMC3    H210745   4.291   2.864  12.660 -1.3618 -0.3166  0.1881
  723TMC3    C710746   4.303   3.060  12.830 -0.5767 -0.3414  0.5136
  723TMC3    C810747   4.181   2.641  12.691 -0.1219 -0.4581 -0.8405
  723TMC3    O110748   4.251   3.077  12.722  0.2924 -0.7758  0.2264
  723TMC3    O210749   4.136   2.710  12.601 -0.5814 -0.2698  0.9422
  724TMC3    C110750   0.601   0.760  10.447 -0.4982 -0.3346  0.1640
  724TMC3    C210751   0.516   0.829  10.363 -1.3119  0.3267  0.2168
  724TMC3    C310752   0.557   0.951  10.325  0.3068  0.2829 -0.6300
  724TMC3    C410753   0.729   0.804  10.487 -0.3239 -0.2542 -0.2313
  724TMC3    C510754   0.762   0.922  10.426 -0.2318  0.0851 -0.3428
  724TMC3    C610755   0.683   0.995  10.344  0.2483  0.1106  0.2984
  724TMC3     C10756   0.563   0.626  10.484  0.3253 -0.2147  0.3251
  724TMC3     O10757   0.621   0.568  10.578 -0.6759  0.8752  0.6181
  724TMC3     H10758   0.409   0.813  10.364 -1.2564 -0.1532 -1.5460
  724TMC3    H110759   0.790   0.742  10.551  1.6839  2.8388  0.8752
  724TMC3    H210760   0.712   1.091  10.304  2.2593 -0.3984  0.5313
  724TMC3    C710761   0.895   0.973  10.459 -0.3562  0.0754 -0.3308
  724TMC3    C810762   0.455   1.018  10.251 -0.0154  0.0827  0.5572
  724TMC3    O110763   0.932   1.077  10.404  0.1809  0.7240  0.2173
  724TMC3    O210764   0.355   0.955  10.212 -0.5773 -0.0129  0.2401
  725TMC3    C110765   2.119   4.160  12.644 -0.9841  0.0103  0.5659
  725TMC3    C210766   2.013   4.244  12.608 -1.0852  1.2095  0.2290
  725TMC3    C310767   1.888   4.205  12.660 -0.3870 -0.2306  0.1473
  725TMC3    C410768   2.093   4.038  12.692 -0.6481 -0.9892 -0.1898
  725TMC3    C510769   1.963   3.991  12.734 -0.4130 -0.4341  0.3288
  725TMC3    C610770   1.863   4.083  12.724  0.1115  0.5612 -0.0903
  725TMC3     C10771   2.203   4.237  12.726  0.3862 -0.1729 -0.6194
  725TMC3     O10772   2.195   4.360  12.731 -0.6739 -0.0433  0.2136
  725TMC3     H10773   2.037   4.344  12.572  4.0512 -0.3746 -0.7577
  725TMC3    H110774   2.174   3.970  12.715 -0.6609 -0.4032  1.5952
  725TMC3    H210775   1.769   4.072  12.778  0.8876 -0.5790  1.0201
  725TMC3    C710776   1.954   3.859  12.789 -0.2631  0.3049 -0.4592
  725TMC3    C810777   1.790   4.314  12.684  0.4917 -0.3894 -0.5258
  725TMC3    O110778   2.006   3.767  12.727 -0.0706 -0.0511 -0.2063
  725TMC3    O210779   1.702   4.303  12.771  0.0894  0.1428  1.0673
  726MPD2     C10780   4.347   1.339  10.491 -0.5755 -0.2579 -0.1371
  726MPD2    C110781   4.229   1.396  10.454  0.0313  0.0953  0.6351
  726MPD2    C210782   4.110   1.328  10.477 -0.2884 -0.3330  0.2286
  726MPD2    C310783   4.107   1.208  10.546 -0.4395  0.2572 -0.2342
  726MPD2    C410784   4.229   1.150  10.572  0.0097 -0.0914  0.2238
  726MPD2    C510785   4.346   1.215  10.548  0.1424  0.3807  0.4544
  726MPD2     H10786   4.021   1.379  10.442  0.2956  0.4375 -0.1596
  726MPD2    H110787   4.230   1.055  10.625 -0.7089 -0.1289  0.1697
  726MPD2    H210788   4.442   1.387  10.473 -1.2790  1.0875 -0.2506
  726MPD2    H310789   4.437   1.169  10.585  0.7930  1.1168 -0.2145
  726MPD2     N10790   3.996   1.158  10.616  0.2443 -0.1169 -0.3695
  726MPD2    H510791   4.005   1.076  10.675  2.1682 -0.4549 -1.1400
  726MPD2    N110792   4.216   1.522  10.390 -0.7137  0.4297  0.2692
  726MPD2    H710793   4.124   1.551  10.357 -0.9409 -0.9690 -0.3114
  727TMC3    C110794   4.280   1.725  10.308 -0.0482  0.5289 -1.1181
  727TMC3    C210795   4.347   1.842  10.331  0.3234  0.2485  0.8135
  727TMC3    C310796   4.316   1.954  10.254  0.4897  0.0251  0.4326
  727TMC3    C410797   4.204   1.707  10.193  0.1116  0.2874 -0.9443
  727TMC3    C510798   4.179   1.817  10.113 -0.2314 -0.2399  0.2860
  727TMC3    C610799   4.240   1.940  10.140  0.1061  0.0691  0.3168
  727TMC3     C10800   4.322   1.609  10.389 -0.0551  0.3035 -0.2959
  727TMC3     O10801   4.433   1.610  10.445 -0.8072 -0.3667 -0.2187
  727TMC3     H10802   4.410   1.858  10.418 -0.0141 -0.5631  1.2109
  727TMC3    H110803   4.170   1.610  10.159  1.8965 -0.2207 -1.2709
  727TMC3    H210804   4.221   2.025  10.076 -0.7578 -0.4587 -0.1183
  727TMC3    C710805   4.100   1.799   9.990 -0.8547  0.1114  0.4427
  727TMC3    C810806   4.386   2.076  10.284  0.5358 -0.6787  0.5329
  727TMC3    O110807   4.044   1.688   9.976  0.7762  0.0674 -0.3845
  727TMC3    O210808   4.484   2.067  10.362  0.7049 -0.1460  0.0258
  728TMC3    C110809   3.850   0.017  15.071  0.3411  0.1015 -0.8218
  728TMC3    C210810   3.979   0.067  15.043 -0.0066 -0.1042 -0.4911
  728TMC3    C310811   4.037   0.024  14.926  0.2002  0.5586  0.5882
  728TMC3    C410812   3.775   4.679  14.977 -0.0928 -0.9778  0.4297
  728TMC3    C510813   3.833   4.664  14.854 -0.1309  0.5588 -0.3895
  728TMC3    C610814   3.964   4.685  14.836 -0.2562 -0.0619 -0.4098
  728TMC3     C10815   3.786   0.108  15.161 -0.5359 -0.1875  0.5807
  728TMC3     O10816   3.835   0.221  15.176 -0.6665  0.0320 -0.5664
  728TMC3     H10817   4.031   0.125  15.117 -1.2692  2.1629 -1.3809
  728TMC3    H110818   3.669   4.697  14.984 -0.2627 -0.7308 -2.8802
  728TMC3    H210819   4.018   4.657  14.746 -2.7382  0.5002 -2.0739
  728TMC3    C710820   3.747   4.668  14.742  0.1191 -0.0938  0.6186
  728TMC3    C810821   4.109   0.124  14.851  0.1394 -0.1022 -1.0981
  728TMC3    O110822   3.625   4.648  14.755  0.1181 -0.1969 -0.6003
  728TMC3    O210823   4.152   0.104  14.737  0.1474  0.5798  0.3546
  729MPD2     C10824   0.734   0.648  16.506  0.2706  0.5181  0.0667
  729MPD2    C110825   0.790   0.765  16.550 -0.0933  0.4688 -0.0952
  729MPD2    C210826   0.729   0.816  16.660  0.3123  1.0645  0.3775
  729MPD2    C310827   0.615   0.758  16.724  0.1464  0.2369  0.0146
  729MPD2    C410828   0.560   0.640  16.670 -0.1386 -0.2113 -0.8485
  729MPD2    C510829   0.632   0.584  16.565  0.8167 -0.5806  0.1889
  729MPD2     H10830   0.781   0.893  16.716  0.0834  0.2329  1.7195
  729MPD2    H110831   0.465   0.595  16.699  0.9143 -1.5828  0.4852
  729MPD2    H210832   0.787   0.594  16.429  2.7738  1.8072  0.8842
  729MPD2    H310833   0.597   0.488  16.527 -1.2206  0.0799  0.3833
  729MPD2     N10834   0.550   0.821  16.835 -0.5921 -0.1280  0.3227
  729MPD2    H510835   0.486   0.764  16.889  0.6434 -0.2806  1.6212
  729MPD2    N110836   0.912   0.812  16.499 -0.1024 -0.2835 -0.7504
  729MPD2    H710837   0.958   0.761  16.425 -0.3002 -0.9263 -0.4257
  730TMC3    C110838   0.546   0.976  17.002 -0.1838 -0.1842  0.3038
  730TMC3    C210839   0.607   0.908  17.100  0.2901 -0.2807  0.1219
  730TMC3    C310840   0.614   0.971  17.222  0.1357  0.4938  0.0945
  730TMC3    C410841   0.500   1.102  17.027  0.2893  0.6906 -0.3062
  730TMC3    C510842   0.512   1.163  17.153 -0.0966  0.8272  0.9158
  730TMC3    C610843   0.573   1.097  17.252  0.7750  0.9112 -0.1097
  730TMC3     C10844   0.569   0.951  16.863  0.2302 -0.1249 -0.4399
  730TMC3     O10845   0.611   1.040  16.788 -0.0884 -0.1790  0.5886
  730TMC3     H10846   0.639   0.806  17.085  3.3170  0.5706  0.9090
  730TMC3    H110847   0.452   1.146  16.940 -2.0516 -1.7131 -0.2427
  730TMC3    H210848   0.608   1.151  17.339  0.9744 -0.9773  0.9718
  730TMC3    C710849   0.529   1.312  17.147  0.6967  0.8404 -0.8286
  730TMC3    C810850   0.677   0.886  17.328 -0.0268  0.1994  0.1967
  730TMC3    O110851   0.561   1.363  17.043  0.4788 -0.1953  0.5560
  730TMC3    O210852   0.750   0.801  17.289 -0.0531  0.5224 -0.2052
  731MPD2     C10853   1.457   3.973  12.739  0.2328 -0.0755  0.4647
  731MPD2    C110854   1.525   3.857  12.721 -0.4078  0.7315 -0.4152
  731MPD2    C210855   1.496   3.752  12.813 -0.2336  0.1471 -0.0847
  731MPD2    C310856   1.404   3.761  12.918 -0.4143 -0.2081 -0.4509
  731MPD2    C410857   1.323   3.872  12.920  0.1481  0.2807  0.0366
  731MPD2    C510858   1.355   3.974  12.835 -0.7475  0.0527 -0.1382
  731MPD2     H10859   1.537   3.652  12.800 -1.3025 -0.3177  0.0938
  731MPD2    H110860   1.230   3.878  12.974  0.5057  0.4587  0.6319
  731MPD2    H210861   1.471   4.066  12.686  0.6933  0.0031  0.7239
  731MPD2    H310862   1.286   4.058  12.838  1.3198  1.6809  1.6582
  731MPD2     N10863   1.381   3.659  13.010 -0.0432  0.5835 -0.0695
  731MPD2    H510864   1.436   3.576  12.988  1.1020  1.6662 -1.3578
  731MPD2    N110865   1.612   3.861  12.610  0.7060 -1.1452 -0.7077
  731MPD2    H710866   1.616   3.948  12.558 -0.0385  0.1514  1.3716
  732TMC3    C110867   1.763   3.783  12.440  0.4386  0.1889 -0.1501
  732TMC3    C210868   1.720   3.860  12.334  0.6284  0.5177  0.2317
  732TMC3    C310869   1.811   3.890  12.235  1.1221  0.1600  0.0484
  732TMC3    C410870   1.888   3.738  12.451 -0.3035  0.1311  0.2956
  732TMC3    C510871   1.982   3.794  12.363  0.1901  0.1396 -0.3645
  732TMC3    C610872   1.944   3.853  12.250 -0.4444  0.2655 -0.4400
  732TMC3     C10873   1.684   3.754  12.561 -0.2754  0.0148 -0.2890
  732TMC3     O10874   1.685   3.641  12.603  0.1748  0.3749 -0.1686
  732TMC3     H10875   1.625   3.911  12.331  0.0996 -0.5067 -0.4759
  732TMC3    H110876   1.921   3.674  12.531  2.1356 -0.5270 -1.2192
  732TMC3    H210877   2.018   3.877  12.174 -1.2918 -0.4439 -1.4879
  732TMC3    C710878   2.121   3.750  12.371  0.0203  0.3657 -0.1281
  732TMC3    C810879   1.774   3.899  12.095  0.6638 -0.3275  0.7480
  732TMC3    O110880   2.197   3.790  12.283 -0.1672 -0.6518  0.0798
  732TMC3    O210881   1.869   3.895  12.011 -0.1746  0.5816  0.7023
  733TMC3    C110882   1.976   1.688  12.730  0.2473  0.0889  1.2046
  733TMC3    C210883   2.100   1.673  12.785 -0.1776 -0.8471  0.3795
  733TMC3    C310884   2.210   1.711  12.714 -0.2441  0.1016 -1.1846
  733TMC3    C410885   1.957   1.767  12.621 -0.3391 -0.8224 -0.3712
  733TMC3    C510886   2.066   1.828  12.561 -0.2599 -0.0883 -0.6364
  733TMC3    C610887   2.189   1.798  12.605  0.3046  0.2534 -0.0365
  733TMC3     C10888   1.863   1.668  12.812 -0.1678  0.0116 -0.7129
  733TMC3     O10889   1.764   1.739  12.795 -0.1473 -0.6135  0.3460
  733TMC3     H10890   2.115   1.619  12.878  1.5703 -1.1507 -0.0816
  733TMC3    H110891   1.854   1.778  12.590 -0.7897  1.0844  1.8413
  733TMC3    H210892   2.269   1.844  12.548 -0.2797  1.0453 -0.2223
  733TMC3    C710893   2.039   1.951  12.489 -0.1137 -0.1177  0.0062
  733TMC3    C810894   2.332   1.734  12.804 -0.4645 -0.5049  0.0212
  733TMC3    O110895   1.944   1.945  12.413 -0.0544 -0.0601  0.5367
  733TMC3    O210896   2.314   1.717  12.927  0.1096 -0.0502  0.7439
  734MPD2     C10897   4.035   0.022  12.314  0.1320 -0.0597  0.3590
  734MPD2    C110898   3.973   4.656  12.247 -0.4803 -0.5511 -0.2868
  734MPD2    C210899   3.985   4.659  12.107  0.5548 -0.0701  0.6712
  734MPD2    C310900   4.074   0.006  12.044 -0.3003 -0.0134  0.4240
  734MPD2    C410901   4.139   0.107  12.114 -0.4066  0.2198 -0.5863
  734MPD2    C510902   4.115   0.115  12.250 -0.0367 -0.4186 -0.7029
  734MPD2     H10903   3.948   4.579  12.043 -0.6247  1.9015 -1.0787
  734MPD2    H110904   4.210   0.173  12.066 -0.8554  1.6215  0.7156
  734MPD2    H210905   4.035   0.029  12.422 -0.7028 -4.4782  0.6330
  734MPD2    H310906   4.169   0.176  12.320 -1.3132  0.7604 -0.7510
  734MPD2     N10907   4.077   4.736  11.906  0.4329 -0.2782 -0.3689
  734MPD2    H510908   4.021   4.665  11.860 -0.9473  1.8980 -2.0490
  734MPD2    N110909   3.883   4.566  12.314  0.0682 -0.2291 -0.5655
  734MPD2    H710910   3.880   4.559  12.415  1.7937 -0.7613 -0.5466
  735TMC3    C110911   3.761   4.350  12.312  0.0263  0.4306 -0.8010
  735TMC3    C210912   3.694   4.284  12.211 -0.6143  0.5730  0.2205
  735TMC3    C310913   3.751   4.167  12.162  0.0876 -0.2626  0.1446
  735TMC3    C410914   3.876   4.302  12.371 -0.3718  0.0877 -0.2407
  735TMC3    C510915   3.917   4.180  12.326  0.4236 -0.3812  0.1793
  735TMC3    C610916   3.858   4.116  12.223  0.0028 -0.1250 -0.4273
  735TMC3     C10917   3.799   4.479  12.245  0.8039  0.1247  0.7289
  735TMC3     O10918   3.767   4.481  12.125 -0.3854 -0.6785  0.6711
  735TMC3     H10919   3.602   4.327  12.172 -1.2386  0.3958  1.5096
  735TMC3    H110920   3.924   4.361  12.448 -0.5094  0.2540 -0.2821
  735TMC3    H210921   3.902   4.029  12.176  3.1067  0.3958  1.5182
  735TMC3    C710922   4.057   4.150  12.338 -0.2683 -0.0611 -0.1001
  735TMC3    C810923   3.788   4.198  12.029  0.3874 -0.3121 -0.3244
  735TMC3    O110924   4.135   4.247  12.347 -0.0769  0.1738  0.3941
  735TMC3    O210925   3.907   4.201  12.016 -0.0964  0.0693 -0.6806
  736MPD2     C10926   4.225   3.831  12.409  0.0002  0.0788  0.1935
  736MPD2    C110927   4.201   3.952  12.337  0.6981 -0.4303  0.2843
  736MPD2    C210928   4.286   3.995  12.240 -0.8519  0.4218  0.0090
  736MPD2    C310929   4.405   3.918  12.217  0.1955 -0.2657  0.0192
  736MPD2    C410930   4.428   3.802  12.287 -0.2089 -0.0809  0.4907
  736MPD2    C510931   4.342   3.763  12.387 -0.1285 -0.4138 -0.2313
  736MPD2     H10932   4.249   4.067  12.169 -1.2188  1.3619  1.1595
  736MPD2    H110933   4.524   3.752  12.280 -1.3362 -2.1698  0.1832
  736MPD2    H210934   4.157   3.805  12.490  0.7107 -1.7939  0.1924
  736MPD2    H310935   4.347   3.668  12.439 -0.3775  0.4616  1.3642
  736MPD2     N10936   4.506   3.958  12.127 -0.1708 -0.6324  0.5695
  736MPD2    H510937   4.591   3.905  12.113 -1.3763 -2.4918  0.1854
  736MPD2    N110938   4.075   4.015  12.359 -0.1457  0.4347  0.1245
  736MPD2    H710939   3.995   3.963  12.394 -0.4048 -2.2196 -4.4483
  737TMC3    C110940   4.622   4.067  11.970  0.4997 -0.5306 -0.4261
  737TMC3    C210941   4.614   4.158  11.872  0.2422  0.5215  0.4954
  737TMC3    C310942   4.705   4.160  11.769 -1.0635  0.3257 -0.0930
  737TMC3    C410943   4.712   3.959  11.969  0.3433 -0.1663 -0.6242
  737TMC3    C510944   0.053   3.961  11.857 -0.0877  0.1684 -0.3070
  737TMC3    C610945   0.043   4.050  11.750 -0.5620 -0.7126  0.1169
  737TMC3     C10946   4.498   4.060  12.042  0.9343  0.1753  0.0149
  737TMC3     O10947   4.420   4.155  12.044  0.9192 -0.2208 -0.8780
  737TMC3     H10948   4.551   4.246  11.883  0.8821  1.0467 -0.0518
  737TMC3    H110949   4.721   3.872  12.033 -0.9082 -0.9901 -1.5753
  737TMC3    H210950   0.096   4.048  11.655  0.8943 -1.7844  0.9579
  737TMC3    C710951   0.147   3.850  11.850  0.0658  0.1002  0.2959
  737TMC3    C810952   4.662   4.233  11.648  0.3577 -0.7268  0.4212
  737TMC3    O110953   0.114   3.742  11.898  0.3228 -0.0241  0.0057
  737TMC3    O210954   4.545   4.274  11.648  0.0007 -0.4901  0.5770
  738MPD2     C10955   4.604   3.237  14.948  0.0512  1.1115  0.2467
  738MPD2    C110956   4.722   3.166  14.943 -0.0316  0.4163 -0.2086
  738MPD2    C210957   0.102   3.232  14.956 -0.2344  0.5397 -0.7615
  738MPD2    C310958   0.106   3.373  14.963  0.5617 -0.2635  0.3863
  738MPD2    C410959   4.728   3.442  14.964 -0.1665  0.3956 -0.6227
  738MPD2    C510960   4.609   3.374  14.952  0.6189  0.5528  0.0063
  738MPD2     H10961   0.196   3.179  14.943 -0.5353 -0.9727  3.3285
  738MPD2    H110962   4.732   3.550  14.956 -3.1811  0.6914  1.8193
  738MPD2    H210963   4.508   3.190  14.935  0.3252  0.2867  1.1564
  738MPD2    H310964   4.514   3.425  14.953 -0.0686 -0.6863 -2.3014
  738MPD2     N10965   0.226   3.438  14.971 -0.1642  0.3146 -0.0059
  738MPD2    H510966   0.227   3.540  14.968  1.9269  0.3110  0.2849
  738MPD2    N110967   4.727   3.022  14.939 -0.8993 -0.0210  0.0366
  738MPD2    H710968   0.081   2.982  14.949 -0.8766  0.0235  0.0015
  739TMC3    C110969   0.454   3.492  14.989 -0.2826 -0.6953  0.1764
  739TMC3    C210970   0.439   3.572  14.881 -0.3720  0.6074 -0.7337
  739TMC3    C310971   0.510   3.694  14.876 -0.3717  0.3223  0.7657
  739TMC3    C410972   0.542   3.516  15.085  0.2466  0.0000 -0.2727
  739TMC3    C510973   0.612   3.633  15.078  1.1025 -0.0321  0.1162
  739TMC3    C610974   0.593   3.725  14.980  0.7653  0.9785  0.2055
  739TMC3     C10975   0.348   3.392  15.019  0.3529  0.2457  0.1566
  739TMC3     O10976   0.380   3.285  15.078 -0.1993 -0.9652 -0.4629
  739TMC3     H10977   0.377   3.538  14.799 -0.0679 -0.5129 -0.5046
  739TMC3    H110978   0.544   3.443  15.166  1.4886  2.3200  1.7944
  739TMC3    H210979   0.635   3.825  14.984  1.2866  0.7834 -0.4228
  739TMC3    C710980   0.696   3.680  15.185  0.7218  0.0460  0.5148
  739TMC3    C810981   0.502   3.770  14.749  0.3260 -0.3893 -0.2587
  739TMC3    O110982   0.768   3.769  15.155  0.2970  0.3935  0.2056
  739TMC3    O210983   0.422   3.729  14.664 -0.3710  0.4305  0.0223
  740TMC3    C110984   0.483   4.654  14.187 -0.3242  0.0058 -0.3748
  740TMC3    C210985   0.570   4.684  14.287 -0.5024 -0.2605 -0.6026
  740TMC3    C310986   0.699   4.712  14.269 -0.3444  0.5378 -0.6708
  740TMC3    C410987   0.530   4.657  14.058 -0.4824  0.7098 -0.1038
  740TMC3    C510988   0.663   4.672  14.047 -0.0049  0.2528 -0.6584
  740TMC3    C610989   0.751   4.693  14.149  0.3539 -0.0565 -0.0215
  740TMC3     C10990   0.340   4.660  14.220  0.8447 -0.2369  0.1760
  740TMC3     O10991   0.270   4.670  14.119  0.3253 -0.2351 -0.5085
  740TMC3     H10992   0.535   4.703  14.388 -0.7555  2.1548 -1.1574
  740TMC3    H110993   0.464   4.633  13.976  0.3413 -1.7846 -0.0289
  740TMC3    H210994   0.852   4.727  14.127 -0.0852 -0.9407 -3.3996
  740TMC3    C710995   0.726   4.672  13.911 -0.5275  0.0353  1.0427
  740TMC3    C810996   0.769   0.032  14.380 -0.1124  0.1623  0.6025
  740TMC3    O110997   0.848   4.656  13.902  0.2575 -0.4734  0.3171
  740TMC3    O210998   0.705   0.075  14.477 -0.0260 -0.0372  0.2147
  741TMC3    C110999   0.207   4.093  13.065  0.0927 -0.1892  0.0786
  741TMC3    C211000   0.133   4.058  13.179  0.1607  0.1698 -0.4010
  741TMC3    C311001   0.211   4.019  13.287 -0.2546 -0.0524  0.3539
  741TMC3    C411002   0.348   4.077  13.068 -0.3027  0.2621  0.5849
  741TMC3    C511003   0.419   4.035  13.180  0.0694  0.2269 -0.0979
  741TMC3    C611004   0.348   4.004  13.290  0.0200  0.4111  0.0062
  741TMC3     C11005   0.147   4.186  12.968 -0.3548  0.5520  0.0767
  741TMC3     O11006   0.220   4.244  12.888 -0.6263 -0.1525 -0.6417
  741TMC3     H11007   0.027   4.077  13.188  0.3323 -0.9284  4.0583
  741TMC3    H111008   0.406   4.100  12.979  2.4195 -2.4931  1.6425
  741TMC3    H211009   0.391   3.953  13.376 -2.4354 -1.2432  0.2603
  741TMC3    C711010   0.562   4.014  13.164  0.4954 -0.4712  0.4159
  741TMC3    C811011   0.130   3.977  13.404  0.3047  0.0999 -0.2362
  741TMC3    O111012   0.612   4.046  13.058 -0.3428 -0.0782 -0.0445
  741TMC3    O211013   0.024   3.927  13.372 -0.0797  0.1124 -0.1899
  742TMC3    C111014   0.594   2.682  15.095 -0.3379  0.8025 -0.3583
  742TMC3    C211015   0.497   2.640  15.016  0.0283  1.3210 -0.0109
  742TMC3    C311016   0.508   2.510  14.984 -0.0688 -0.4838  0.7256
  742TMC3    C411017   0.700   2.608  15.143 -0.2026 -0.4991  0.4467
  742TMC3    C511018   0.711   2.483  15.092  0.6959 -0.3915  0.1408
  742TMC3    C611019   0.618   2.435  15.008 -0.2105 -0.1471 -0.4246
  742TMC3     C11020   0.569   2.810  15.152 -0.4177  1.1307 -0.3102
  742TMC3     O11021   0.456   2.859  15.147 -0.4061  0.1228  0.1025
  742TMC3     H11022   0.406   2.698  15.000 -1.2024 -0.1834  1.5772
  742TMC3    H111023   0.781   2.648  15.203 -0.2395  0.9229 -0.4418
  742TMC3    H211024   0.624   2.332  14.978  2.2186  0.4962 -2.1230
  742TMC3    C711025   0.804   2.395  15.163 -1.0386  0.1311  0.2650
  742TMC3    C811026   0.420   2.465  14.872 -0.0252  0.7124  0.9859
  742TMC3    O111027   0.815   2.278  15.127  0.5086  0.0287 -0.2663
  742TMC3    O211028   0.391   2.343  14.869 -0.2622 -0.1004  0.0480
  743MPD2     C11029   2.083   3.012   1.661  0.5104  0.0042 -0.4159
  743MPD2    C111030   2.121   2.963   1.533 -0.5417  0.5349 -0.0508
  743MPD2    C211031   2.246   2.903   1.524 -0.1557  0.6222 -0.0428
  743MPD2    C311032   2.346   2.919   1.625  0.3113 -0.0444 -0.1535
  743MPD2    C411033   2.310   2.996   1.738  0.5787  0.1744  0.0467
  743MPD2    C511034   2.178   3.027   1.760  0.0210  0.3941  0.3856
  743MPD2     H11035   2.285   2.862   1.432 -1.5240  1.6232 -1.0703
  743MPD2    H111036   2.389   3.014   1.810 -0.0845 -0.2267  0.8762
  743MPD2    H211037   1.984   3.051   1.679  0.4395  0.9946 -3.0107
  743MPD2    H311038   2.161   3.082   1.852  0.2544  0.4501  0.3957
  743MPD2     N11039   2.477   2.876   1.598 -1.1052  0.2486  0.0792
  743MPD2    H511040   2.490   2.834   1.507 -1.3048  1.4228 -0.4893
  743MPD2    N111041   2.027   2.980   1.427  0.1623  0.8209  0.4984
  743MPD2    H711042   1.934   3.016   1.442  0.1750  0.4949  1.3285
  744TMC3    C111043   1.962   2.984   1.195 -0.0164 -0.2450 -0.7427
  744TMC3    C211044   1.879   3.095   1.223 -0.8306  0.4829  0.6790
  744TMC3    C311045   1.861   3.175   1.112 -0.5570  0.6025  0.5731
  744TMC3    C411046   2.015   2.953   1.072  0.3406  0.0295  0.6544
  744TMC3    C511047   1.995   3.040   0.969 -0.1683  0.3210  0.3070
  744TMC3    C611048   1.929   3.156   0.995  1.1212  0.3652 -0.5325
  744TMC3     C11049   2.038   2.918   1.306 -0.2620  0.6339  0.1209
  744TMC3     O11050   2.110   2.821   1.277  0.1330  0.2700  0.1010
  744TMC3     H11051   1.841   3.126   1.320 -0.2241  1.5784  0.5508
  744TMC3    H111052   2.097   2.884   1.057  0.8966  0.5954  1.0820
  744TMC3    H211053   1.913   3.230   0.917 -2.0619 -2.7695 -2.8785
  744TMC3    C711054   2.078   3.041   0.854 -0.5175 -0.3633 -1.0367
  744TMC3    C811055   1.769   3.293   1.118 -0.5536 -0.6466 -0.4211
  744TMC3    O111056   2.094   3.152   0.806  0.0016 -0.2543  0.1315
  744TMC3    O211057   1.741   3.331   1.009 -0.2859  0.3132  0.0345
  745TMC3    C111058   0.565   1.779  13.943 -0.3918  0.5095 -1.2172
  745TMC3    C211059   0.437   1.739  13.989  0.9244 -0.1747  0.0584
  745TMC3    C311060   0.330   1.727  13.903  0.0770  0.1804  0.1077
  745TMC3    C411061   0.582   1.835  13.815 -0.2286  0.3910  0.0455
  745TMC3    C511062   0.469   1.831  13.741  0.4463  0.3806  0.0816
  745TMC3    C611063   0.348   1.781  13.780  0.2775  0.1489  0.5159
  745TMC3     C11064   0.668   1.799  14.044 -0.5306  0.0030 -0.2493
  745TMC3     O11065   0.668   1.719  14.136 -0.2886 -0.1658 -0.1685
  745TMC3     H11066   0.429   1.705  14.091  2.5496 -0.2104  0.1818
  745TMC3    H111067   0.679   1.866  13.777 -1.0521  0.6681 -1.8094
  745TMC3    H211068   0.270   1.781  13.705 -0.6423  0.4900  1.4789
  745TMC3    C711069   0.478   1.856  13.598  0.2009  0.1281 -0.1497
  745TMC3    C811070   0.206   1.782  13.959  0.5134  0.2095 -0.2013
  745TMC3    O111071   0.372   1.866  13.535  0.0596 -0.6460  0.4903
  745TMC3    O211072   0.111   1.779  13.882 -0.7360 -0.4974  0.1264
  746TMC3    C111073   3.245   3.688  10.804  0.4126  0.0532 -0.6863
  746TMC3    C211074   3.233   3.724  10.671 -0.1063  0.3102 -0.2113
  746TMC3    C311075   3.125   3.676  10.602  0.0843 -0.9899 -0.1800
  746TMC3    C411076   3.154   3.605  10.864  0.5166  0.5328  0.2714
  746TMC3    C511077   3.043   3.557  10.793 -0.2377 -0.0995  1.2829
  746TMC3    C611078   3.036   3.581  10.653  0.3637  0.6347  0.1611
  746TMC3     C11079   3.264   3.801  10.899 -0.2838 -0.3312  0.8861
  746TMC3     O11080   3.211   3.795  11.008 -0.3255  0.0117  0.4542
  746TMC3     H11081   3.298   3.793  10.618  1.7535  0.4031  2.1428
  746TMC3    H111082   3.167   3.587  10.970  1.6459 -2.0914 -0.3131
  746TMC3    H211083   2.948   3.559  10.593  1.4425 -0.7120 -0.9347
  746TMC3    C711084   2.917   3.524  10.854 -0.2130 -0.5025 -0.5722
  746TMC3    C811085   3.104   3.701  10.463 -0.1977  0.0906  0.4813
  746TMC3    O111086   2.815   3.518  10.787  0.6736 -0.1157 -0.5741
  746TMC3    O211087   3.046   3.612  10.401 -0.0043 -1.3464  0.0456
  747TMC3    C111088   1.072   3.912  11.289  0.5297  0.1988  0.4206
  747TMC3    C211089   0.950   3.850  11.326  0.3610 -0.2738  0.1218
  747TMC3    C311090   0.880   3.890  11.439  0.3894 -0.4198 -0.5460
  747TMC3    C411091   1.132   3.987  11.378  0.0839  0.6083  0.3602
  747TMC3    C511092   1.068   4.003  11.501 -1.0315  0.9492  0.9011
  747TMC3    C611093   0.945   3.965  11.532  0.6344 -0.1363  0.3627
  747TMC3     C11094   1.087   3.958  11.150 -0.1626  0.0128 -0.7045
  747TMC3     O11095   1.167   4.052  11.126  0.0322 -0.0425  0.1447
  747TMC3     H11096   0.895   3.791  11.254 -0.6489 -0.8828  1.4010
  747TMC3    H111097   1.227   4.032  11.355  0.6046 -0.4474  0.4604
  747TMC3    H211098   0.891   4.007  11.616  0.8611 -0.7349  0.8113
  747TMC3    C711099   1.140   4.088  11.601 -0.0814 -0.9521 -0.0586
  747TMC3    C811100   0.770   3.798  11.474  0.1725  0.1315 -0.5340
  747TMC3    O111101   1.076   4.147  11.688  0.1438 -0.2506 -0.1070
  747TMC3    O211102   0.779   3.683  11.435 -0.0577 -0.8904 -0.3718
  748MPD2     C11103   1.349   4.665   1.701 -0.3789 -0.0007 -0.1783
  748MPD2    C111104   1.383   4.660   1.569  0.1825  0.3530  0.3133
  748MPD2    C211105   1.504   4.595   1.544  0.1233  0.4474  0.7066
  748MPD2    C311106   1.591   4.552   1.647  0.5192  0.0386 -0.3551
  748MPD2    C411107   1.545   4.561   1.775  0.1053 -0.6536 -0.2727
  748MPD2    C511108   1.418   4.607   1.796 -0.4397  1.1570 -0.3819
  748MPD2     H11109   1.534   4.596   1.440 -0.6817 -0.7456  0.4670
  748MPD2    H111110   1.602   4.526   1.861 -0.5440  1.5915  1.0784
  748MPD2    H211111   1.259   4.716   1.734 -1.1732 -1.1069 -0.6205
  748MPD2    H311112   1.391   4.611   1.900  2.6328  0.7970  0.4317
  748MPD2     N11113   1.717   4.492   1.621 -0.0913  0.5961 -0.0615
  748MPD2    H511114   1.748   4.496   1.525 -0.4866 -1.7716 -0.2814
  748MPD2    N111115   1.316   0.021   1.486  0.6567 -0.0629  0.2002
  748MPD2    H711116   1.228   0.051   1.526 -0.4088 -1.5848 -0.9727
  749TMC3    C111117   1.929   4.412   1.664  0.5962  0.3966 -0.6353
  749TMC3    C211118   1.998   4.317   1.731  0.1438  0.5758 -0.5331
  749TMC3    C311119   2.104   4.252   1.664 -0.4379 -0.2920 -0.3019
  749TMC3    C411120   1.970   4.450   1.537 -0.1012  0.1363  0.3982
  749TMC3    C511121   2.085   4.395   1.481 -0.2734 -0.6836 -0.2832
  749TMC3    C611122   2.156   4.294   1.548 -0.1503  0.8523 -0.5620
  749TMC3     C11123   1.794   4.430   1.711 -0.0722 -0.3090 -0.1689
  749TMC3     O11124   1.774   4.399   1.829  0.0289  0.3621  0.1366
  749TMC3     H11125   1.982   4.281   1.832  1.4821  0.8730 -0.2148
  749TMC3    H111126   1.913   4.522   1.479  0.7369  0.0688 -0.5060
  749TMC3    H211127   2.262   4.288   1.528 -0.0539 -2.3009  0.8280
  749TMC3    C711128   2.099   4.421   1.336 -0.4328 -0.2128  0.1833
  749TMC3    C811129   2.158   4.135   1.737  0.2960  0.3714  0.3035
  749TMC3    O111130   2.003   4.473   1.280  0.1099 -0.1869  0.0343
  749TMC3    O211131   2.120   4.112   1.853 -0.8206  0.1777  0.0384
  750MPD2     C11132   3.455   1.062  11.522 -0.0413 -0.2654 -0.2965
  750MPD2    C111133   3.365   0.991  11.591  0.2038 -0.0158 -0.0976
  750MPD2    C211134   3.305   0.878  11.544 -0.1733 -0.1280 -0.0323
  750MPD2    C311135   3.347   0.830  11.415 -1.2993 -0.0855 -0.2044
  750MPD2    C411136   3.455   0.895  11.351  0.6590 -0.2402  0.2371
  750MPD2    C511137   3.505   1.010  11.406  0.0390 -1.0049 -0.0640
  750MPD2     H11138   3.222   0.827  11.591  0.2785 -0.4551  0.4127
  750MPD2    H111139   3.506   0.862  11.261  0.3694  1.4086 -0.5442
  750MPD2    H211140   3.513   1.147  11.557 -1.7287  1.7101 -2.2540
  750MPD2    H311141   3.583   1.062  11.352 -1.1592 -0.6185 -1.4174
  750MPD2     N11142   3.311   0.711  11.357 -0.6172 -0.3445  0.8575
  750MPD2    H511143   3.345   0.696  11.263  1.5379  0.3394  1.5137
  750MPD2    N111144   3.343   1.042  11.722 -0.0179  0.3108  0.4902
  750MPD2    H711145   3.401   1.116  11.759  0.1724  0.5881 -0.3570
  751TMC3    C111146   3.205   0.503  11.323  0.2054 -0.0086  0.1343
  751TMC3    C211147   3.129   0.402  11.367 -0.3686 -0.2913  0.1069
  751TMC3    C311148   3.115   0.290  11.288 -0.1041 -0.0908 -0.0498
  751TMC3    C411149   3.282   0.494  11.210 -0.2283 -0.1524  0.4018
  751TMC3    C511150   3.276   0.380  11.136 -0.2587 -0.4099  0.3519
  751TMC3    C611151   3.194   0.273  11.178 -0.6324 -0.7303  0.6963
  751TMC3     C11152   3.231   0.617  11.411 -0.1403  0.0147  0.0266
  751TMC3     O11153   3.167   0.623  11.518 -0.0995 -0.6062  0.3785
  751TMC3     H11154   3.083   0.423  11.462  1.9356 -1.2146  1.4194
  751TMC3    H111155   3.329   0.578  11.159  0.4156 -1.9315 -1.9233
  751TMC3    H211156   3.186   0.184  11.116 -0.4612 -0.3146  0.0831
  751TMC3    C711157   3.296   0.392  10.987  1.0978  0.1776  0.0632
  751TMC3    C811158   3.013   0.184  11.310 -0.1333  0.3389 -0.4803
  751TMC3    O111159   3.372   0.478  10.945 -0.1083  0.2318  0.0683
  751TMC3    O211160   3.012   0.091  11.236 -0.0225 -0.4841  0.0150
  752TMC3    C111161   1.416   0.766  17.352  0.5876  0.3728  0.8534
  752TMC3    C211162   1.437   0.720  17.484 -0.0868  0.0316 -0.2385
  752TMC3    C311163   1.349   0.757  17.580  0.1736  0.1597  0.1567
  752TMC3    C411164   1.310   0.856  17.323  0.6798  0.1237  0.8047
  752TMC3    C511165   1.220   0.878  17.424 -0.2666 -0.2317  0.1943
  752TMC3    C611166   1.246   0.844  17.551 -0.5132 -0.5181  0.8363
  752TMC3     C11167   1.502   0.716  17.247  0.1342 -0.4540  1.0674
  752TMC3     O11168   1.606   0.658  17.274  0.3675 -0.6254 -0.1561
  752TMC3     H11169   1.518   0.648  17.493 -0.5399 -0.7605 -2.3489
  752TMC3    H111170   1.282   0.884  17.222  1.7302 -0.0199  0.4709
  752TMC3    H211171   1.182   0.860  17.637 -0.1736 -0.8459  1.1509
  752TMC3    C711172   1.125   0.979  17.395  0.5186 -0.3999 -0.4458
  752TMC3    C811173   1.332   0.688  17.701 -0.0504  0.8022  0.0823
  752TMC3    O111174   1.139   1.041  17.289  0.0774 -0.5492 -0.2790
  752TMC3    O211175   1.224   0.670   0.004  0.3488  0.3267 -0.0894
  753TMC3    C111176   3.623   1.962  13.028  0.1734 -0.4296 -0.3064
  753TMC3    C211177   3.685   1.937  13.149  0.3646  0.1185  0.1210
  753TMC3    C311178   3.664   1.803  13.195  0.9096  0.2325 -0.1317
  753TMC3    C411179   3.535   1.862  12.967  0.7788  0.2662  0.0086
  753TMC3    C511180   3.514   1.745  13.027 -0.8867 -1.0329  0.6387
  753TMC3    C611181   3.583   1.709  13.136  0.0316  0.1630  0.0357
  753TMC3     C11182   3.645   2.078  12.956 -0.1631 -0.4241  0.7597
  753TMC3     O11183   3.611   2.076  12.838 -0.0275  0.3560 -0.1284
  753TMC3     H11184   3.765   1.999  13.187 -0.6880  2.6037 -1.6745
  753TMC3    H111185   3.480   1.892  12.878  0.3353  0.8561  0.4829
  753TMC3    H211186   3.598   1.606  13.169  2.5671  0.2353 -0.8538
  753TMC3    C711187   3.426   1.651  12.967 -0.0156 -0.2256  0.5887
  753TMC3    C811188   3.698   1.781  13.328  0.3339  0.1962 -1.2891
  753TMC3    O111189   3.395   1.667  12.849  0.0261 -0.1003  0.0480
  753TMC3    O211190   3.649   1.682  13.376 -0.6018 -0.3441 -0.4634
  754MPD2     C11191   3.078   0.395  13.338  0.1195 -0.1040  0.5117
  754MPD2    C111192   3.067   0.258  13.346  0.6365  0.6168 -0.3041
  754MPD2    C211193   2.941   0.200  13.344 -0.3484  0.2213 -0.3464
  754MPD2    C311194   2.828   0.279  13.324  0.0388  0.2465 -0.3875
  754MPD2    C411195   2.840   0.415  13.305  0.1240 -0.5695 -0.1163
  754MPD2    C511196   2.963   0.468  13.316 -0.0891  0.0941  0.3466
  754MPD2     H11197   2.921   0.094  13.358  1.1105 -0.0431 -0.2783
  754MPD2    H111198   2.750   0.472  13.287  0.0928  0.0831  2.1438
  754MPD2    H211199   3.168   0.454  13.355  0.0161  1.0547 -2.8890
  754MPD2    H311200   2.977   0.575  13.316  2.5181 -0.2351 -1.3764
  754MPD2     N11201   2.698   0.231  13.327  0.4284 -0.1905 -0.2387
  754MPD2    H511202   2.626   0.300  13.310  0.8704  0.1193 -0.8612
  754MPD2    N111203   3.185   0.195  13.374 -0.6225 -0.1096 -0.2861
  754MPD2    H711204   3.269   0.247  13.349 -0.3972 -0.7705 -0.9191
  755MPD2     C11205   1.765   0.498  13.423  0.8442  0.1301  0.1416
  755MPD2    C111206   1.859   0.471  13.521  0.4687 -0.5634  0.1704
  755MPD2    C211207   1.974   0.406  13.493 -0.5504  0.2234  0.1341
  755MPD2    C311208   1.987   0.357  13.367 -0.1609  0.7908  0.9481
  755MPD2    C411209   1.890   0.379  13.270  0.6192  0.4018  0.2832
  755MPD2    C511210   1.787   0.465  13.297 -0.0666 -0.0939  0.6864
  755MPD2     H11211   2.054   0.407  13.566 -1.6413  0.2565  1.3428
  755MPD2    H111212   1.900   0.353  13.165  1.8826  0.3425  0.4227
  755MPD2    H211213   1.680   0.565  13.435  1.2493  0.9428 -1.4979
  755MPD2    H311214   1.711   0.474  13.220  1.5316  1.8693 -0.6441
  755MPD2     N11215   2.093   0.279  13.322  1.0516  0.0490  0.2527
  755MPD2    H511216   2.098   0.261  13.223  0.4983  0.4771  0.1485
  755MPD2    N111217   1.846   0.525  13.652  0.4233 -0.2410  0.0492
  755MPD2    H711218   1.927   0.527  13.714 -0.5114 -1.0926  1.2949
  756MPD2     C11219   3.058   1.865  10.162 -0.3695 -0.2470 -0.8116
  756MPD2    C111220   2.963   1.769  10.191 -0.8223 -0.3313  0.1820
  756MPD2    C211221   2.851   1.766  10.108 -0.2110 -0.3685 -0.6589
  756MPD2    C311222   2.823   1.854  10.004 -1.0573  0.4832  0.4456
  756MPD2    C411223   2.917   1.947   9.982  0.9968 -0.2455  0.0154
  756MPD2    C511224   3.035   1.952  10.057  0.2135  0.1602 -0.9653
  756MPD2     H11225   2.784   1.688  10.142  0.6801 -1.0957 -0.5551
  756MPD2    H111226   2.917   2.012   9.895 -0.2156 -0.6962 -0.3296
  756MPD2    H211227   3.146   1.884  10.223 -1.2299  2.0249 -0.2779
  756MPD2    H311228   3.115   2.017  10.025  0.2665  1.6022  2.0852
  756MPD2     N11229   2.707   1.834   9.923 -0.7125 -0.0486 -0.1743
  756MPD2    H511230   2.657   1.747   9.940  0.1707 -0.7265 -1.0507
  756MPD2    N111231   2.987   1.668  10.291  0.4661  0.1825  0.3192
  756MPD2    H711232   2.911   1.604  10.311  0.2927 -0.0230 -0.9676
  757MPD2     C11233   2.601   1.032   9.721  0.1370 -0.5106 -0.3595
  757MPD2    C111234   2.620   1.112   9.836  0.5020 -0.0967 -0.0020
  757MPD2    C211235   2.602   1.250   9.829 -0.0302  0.9424 -0.6583
  757MPD2    C311236   2.545   1.309   9.712 -1.1644 -1.2570  0.6837
  757MPD2    C411237   2.536   1.231   9.603 -0.2250 -0.2870  0.2545
  757MPD2    C511238   2.555   1.098   9.614 -0.2573  0.0397  0.1582
  757MPD2     H11239   2.621   1.313   9.915 -1.0285 -1.5087  1.3472
  757MPD2    H111240   2.516   1.270   9.504  3.0208  2.0787  0.5196
  757MPD2    H211241   2.615   0.924   9.727  3.6732 -0.1158 -1.8247
  757MPD2    H311242   2.543   1.029   9.532 -0.4275  0.0012  0.2154
  757MPD2     N11243   2.539   1.451   9.697 -0.0376  0.8886 -0.2652
  757MPD2    H511244   2.559   1.498   9.785 -0.0447 -0.9426  0.7282
  757MPD2    N111245   2.682   1.049   9.944  0.1701 -0.5434 -0.4444
  757MPD2    H711246   2.678   0.948   9.941 -0.3052 -0.5120 -1.0882
  758MPD2     C11247   2.225   0.538  15.795  0.1870  0.5961  0.6910
  758MPD2    C111248   2.335   0.497  15.872 -0.4034 -0.0700  0.5617
  758MPD2    C211249   2.323   0.474  16.009 -0.4947 -0.3906  0.6562
  758MPD2    C311250   2.199   0.495  16.067 -0.3771 -0.3339  0.4373
  758MPD2    C411251   2.089   0.535  15.991  0.0654  0.2870  0.1423
  758MPD2    C511252   2.105   0.560  15.856 -0.2645  0.3378 -0.2002
  758MPD2     H11253   2.404   0.442  16.074  0.0655 -0.3575 -0.0305
  758MPD2    H111254   1.997   0.557  16.044  0.0062  0.4260 -0.0199
  758MPD2    H211255   2.238   0.546  15.688 -1.4812 -2.4391  0.2469
  758MPD2    H311256   2.016   0.572  15.795  0.3508  0.9064 -0.9860
  758MPD2     N11257   2.182   0.477  16.213  0.5337 -1.0972 -0.0370
  758MPD2    H511258   2.097   0.519  16.249  0.6331 -0.3168 -0.7113
  758MPD2    N111259   2.463   0.460  15.819  0.2628 -0.8832  0.4956
  758MPD2    H711260   2.520   0.419  15.892  1.2968 -1.0790 -0.4122
  759MPD2     C11261   1.753   3.961  10.672  1.0662  0.0969 -0.5061
  759MPD2    C111262   1.712   3.915  10.554  0.5700  0.6914 -0.5721
  759MPD2    C211263   1.742   3.987  10.443  0.1514  0.5045 -0.1722
  759MPD2    C311264   1.809   4.109  10.446  0.6891  0.1746 -0.0540
  759MPD2    C411265   1.841   4.164  10.573  0.2212 -0.2848 -0.2705
  759MPD2    C511266   1.814   4.082  10.682 -0.0409  0.2604 -0.3023
  759MPD2     H11267   1.715   3.951  10.344 -0.5919 -1.2566  0.6727
  759MPD2    H111268   1.880   4.264  10.589 -0.0876 -0.3501  0.8939
  759MPD2    H211269   1.742   3.907  10.765  2.2713 -2.2767 -1.7557
  759MPD2    H311270   1.832   4.133  10.775  0.1575  1.1861 -0.8497
  759MPD2     N11271   1.838   4.167  10.324 -0.2954  0.2507 -0.3449
  759MPD2    H511272   1.814   4.117  10.240 -3.0950  1.6074 -0.3618
  759MPD2    N111273   1.654   3.786  10.535  0.0098  0.2753  0.4235
  759MPD2    H711274   1.609   3.764  10.447 -0.1332  1.0641  0.3001
  760MPD2     C11275   1.373   0.839  11.805  1.1519 -0.2727 -0.0789
  760MPD2    C111276   1.494   0.875  11.847  0.9638  0.0372 -0.9064
  760MPD2    C211277   1.577   0.779  11.898  0.7134 -0.2373 -0.2878
  760MPD2    C311278   1.540   0.650  11.910  0.0479  0.5546  0.6663
  760MPD2    C411279   1.414   0.613  11.863  0.4775  0.0616  0.2374
  760MPD2    C511280   1.332   0.709  11.809  0.1256 -0.2053  0.2045
  760MPD2     H11281   1.670   0.807  11.946  0.9692 -1.0510 -0.3009
  760MPD2    H111282   1.387   0.508  11.862  1.2851 -0.1081 -4.3879
  760MPD2    H211283   1.308   0.913  11.761 -0.3931 -2.2873 -1.2127
  760MPD2    H311284   1.235   0.685  11.767  1.4523 -1.4989 -2.1198
  760MPD2     N11285   1.617   0.549  11.976 -0.5635  0.3345  0.4034
  760MPD2    H511286   1.565   0.465  12.001  0.3771 -0.6656 -0.9924
  760MPD2    N111287   1.550   1.002  11.826  0.7408  0.0234  1.1254
  760MPD2    H711288   1.644   1.020  11.860  1.4445  1.2841 -1.5575
  761MPD2     C11289   2.588   4.715  11.523 -0.3158  0.3672 -0.0423
  761MPD2    C111290   2.638   4.702  11.390 -0.1335  0.1665 -0.3507
  761MPD2    C211291   2.743   0.045  11.354  0.9439 -0.1249 -0.8458
  761MPD2    C311292   2.802   0.133  11.450  0.1237 -0.2790 -0.2490
  761MPD2    C411293   2.753   0.142  11.574 -0.4539  0.7795  0.4373
  761MPD2    C511294   2.650   0.058  11.612  0.6402  0.4808  0.4017
  761MPD2     H11295   2.782   0.045  11.252 -1.4095  1.7235 -1.7320
  761MPD2    H111296   2.794   0.208  11.651  1.6461  0.8033 -0.6997
  761MPD2    H211297   2.513   4.646  11.562  0.6590 -1.6880 -1.7923
  761MPD2    H311298   2.605   0.077  11.709 -0.0269  0.0546  0.1774
  761MPD2     N11299   2.927   0.208  11.419 -0.0455 -0.0667  0.0988
  761MPD2    H511300   2.969   0.270  11.488 -0.0848 -0.3539  0.3782
  761MPD2    N111301   2.579   4.601  11.306 -0.9535  0.0226 -0.8043
  761MPD2    H711302   2.509   4.543  11.352 -1.3233  2.7789  2.0790
  762MPD2     C11303   2.743   4.137  10.617 -0.4573 -0.3501  0.2965
  762MPD2    C111304   2.740   4.274  10.638 -0.4830 -0.5804  0.7473
  762MPD2    C211305   2.802   4.363  10.552 -0.4195 -0.6747  0.0839
  762MPD2    C311306   2.859   4.308  10.438 -0.2855 -0.3781 -0.1486
  762MPD2    C411307   2.861   4.167  10.416  0.0654 -0.3297  0.3712
  762MPD2    C511308   2.802   4.081  10.509  0.3371  0.4477  0.2264
  762MPD2     H11309   2.806   4.469  10.575 -1.8874 -0.1008 -2.4099
  762MPD2    H111310   2.897   4.124  10.324 -1.9683 -0.6824 -0.2698
  762MPD2    H211311   2.693   4.064  10.679 -1.0771 -0.0533  0.1543
  762MPD2    H311312   2.788   3.974  10.497  1.6668  0.5582 -2.3428
  762MPD2     N11313   2.921   4.388  10.343  0.0704  0.3005 -0.4168
  762MPD2    H511314   2.954   4.356  10.253 -0.2589 -0.4150 -0.2822
  762MPD2    N111315   2.675   4.320  10.752  0.0270  0.0463  0.3201
  762MPD2    H711316   2.685   4.421  10.765  1.3923  0.2209 -2.1680
  763MPD2     C11317   3.620   0.447  16.034  0.0556  0.1868  0.5883
  763MPD2    C111318   3.749   0.422  16.000 -0.3036 -0.1136  0.2901
  763MPD2    C211319   3.844   0.448  16.092  0.3423  0.5567 -0.1426
  763MPD2    C311320   3.808   0.496  16.220  0.0417 -0.3940 -0.6692
  763MPD2    C411321   3.674   0.516  16.252  0.1086 -0.8915 -0.0094
  763MPD2    C511322   3.582   0.499  16.155  0.4692  0.5482 -0.6051
  763MPD2     H11323   3.946   0.421  16.065 -0.3129 -2.2430  0.1522
  763MPD2    H111324   3.638   0.552  16.348  0.2620 -1.6979  0.3466
  763MPD2    H211325   3.541   0.445  15.959 -0.1693 -1.2203  0.8497
  763MPD2    H311326   3.476   0.522  16.166  0.9217  1.6378  1.4468
  763MPD2     N11327   3.909   0.534  16.313  0.1103 -0.4041 -0.3899
  763MPD2    H511328   4.006   0.531  16.283  1.0288  2.6028  2.2633
  763MPD2    N111329   3.786   0.360  15.876 -0.0992 -0.4383  0.9890
  763MPD2    H711330   3.882   0.327  15.872 -0.1646 -0.3007 -1.9624
  764MPD2     C11331   1.973   1.228   0.658  0.3124 -0.3607 -0.0446
  764MPD2    C111332   1.838   1.222   0.617  0.6829 -0.7273 -0.3286
  764MPD2    C211333   1.739   1.211   0.706  0.4608  0.0734  0.4864
  764MPD2    C311334   1.762   1.188   0.841  0.8377  0.0729 -0.3887
  764MPD2    C411335   1.899   1.185   0.875  0.2898 -0.8423  0.0982
  764MPD2    C511336   2.004   1.206   0.791 -0.2758 -0.0731 -0.0275
  764MPD2     H11337   1.642   1.225   0.660  0.5568  0.3995  0.3791
  764MPD2    H111338   1.930   1.168   0.977 -0.2566  0.4173  0.4713
  764MPD2    H211339   2.057   1.235   0.590  0.3127  0.6457  0.0662
  764MPD2    H311340   2.106   1.204   0.828  0.3280 -0.0581 -1.6769
  764MPD2     N11341   1.652   1.148   0.925 -0.2455  0.0449 -0.2955
  764MPD2    H511342   1.560   1.158   0.882  0.4982  0.3993 -1.7858
  764MPD2    N111343   1.797   1.250   0.485 -0.6218 -0.3108  0.5034
  764MPD2    H711344   1.699   1.259   0.461 -0.6810 -0.7257  0.5988
  765MPD2     C11345   2.292   0.100  15.497 -0.8670  0.4950  0.4023
  765MPD2    C111346   2.392   0.163  15.428  0.0933 -0.5714  0.0007
  765MPD2    C211347   2.525   0.131  15.446 -0.6425  0.3777  0.5202
  765MPD2    C311348   2.552   0.031  15.532  0.6872  0.1130  0.4677
  765MPD2    C411349   2.448   4.704  15.598  0.2160 -0.2489  0.0858
  765MPD2    C511350   2.316   4.733  15.577 -0.6616 -0.2641 -0.1309
  765MPD2     H11351   2.602   0.174  15.384 -1.5291 -1.0875 -1.6127
  765MPD2    H111352   2.470   4.634  15.677  0.8068  0.2587  0.3732
  765MPD2    H211353   2.189   0.133  15.489 -0.3741  2.2992  1.4904
  765MPD2    H311354   2.227   4.688  15.620 -1.2052 -1.6686 -2.7350
  765MPD2     N11355   2.683   0.009  15.565 -0.2225  0.0162  0.2271
  765MPD2    H511356   2.748   0.063  15.509 -1.0718 -0.1484 -0.9215
  765MPD2    N111357   2.353   0.289  15.367  0.2846  0.0610 -0.3253
  765MPD2    H711358   2.260   0.326  15.379  0.5254  1.0485 -1.3900
  766MPD2     C11359   1.959   0.300  15.328  0.9913  0.3212  0.2715
  766MPD2    C111360   2.015   0.401  15.255  0.3020  0.3671 -1.1314
  766MPD2    C211361   2.105   0.371  15.154 -0.2694  0.1636 -0.2080
  766MPD2    C311362   2.137   0.235  15.128 -0.3535 -0.1862 -0.5581
  766MPD2    C411363   2.075   0.134  15.202 -0.1300  0.4521 -0.1660
  766MPD2    C511364   1.992   0.172  15.300 -0.4241 -0.5666  0.1752
  766MPD2     H11365   2.158   0.447  15.099 -1.0112  2.1631  1.8688
  766MPD2    H111366   2.105   0.032  15.182  1.6788  1.2110 -1.3530
  766MPD2    H211367   1.884   0.320  15.404  0.0589 -0.6268 -0.4030
  766MPD2    H311368   1.939   0.097  15.357 -0.5254 -0.5366  0.1193
  766MPD2     N11369   2.241   0.196  15.040  0.1980  0.7166 -0.5801
  766MPD2    H511370   2.252   0.096  15.026  0.4279  0.8224 -1.1496
  766MPD2    N111371   1.983   0.533  15.303  0.0639  0.1625  0.0386
  766MPD2    H711372   1.904   0.539  15.366  0.5046  0.5017  0.5562
  767MPD2     C11373   1.576   0.385  14.834  0.5998 -0.0776  0.0147
  767MPD2    C111374   1.701   0.430  14.812 -0.1352  1.0297 -0.1759
  767MPD2    C211375   1.783   0.371  14.719 -0.5362  0.3595 -0.5919
  767MPD2    C311376   1.737   0.262  14.649  0.6873 -0.1952 -0.4754
  767MPD2    C411377   1.612   0.210  14.675  0.4388  0.6046 -0.0445
  767MPD2    C511378   1.533   0.269  14.772  0.1120  0.2426 -0.4470
  767MPD2     H11379   1.864   0.420  14.667  1.6361 -1.7497  0.7765
  767MPD2    H111380   1.581   0.127  14.613  1.3066  1.2996 -1.4126
  767MPD2    H211381   1.510   0.446  14.895  1.7538  0.8485  0.3435
  767MPD2    H311382   1.432   0.237  14.794  0.0168 -1.6237 -3.6683
  767MPD2     N11383   1.810   0.209  14.535 -0.2742  0.3567  0.4273
  767MPD2    H511384   1.897   0.255  14.511  0.6849 -1.5549  0.1785
  767MPD2    N111385   1.733   0.557  14.878 -0.0887 -0.5630 -0.2212
  767MPD2    H711386   1.660   0.606  14.928 -0.8989 -0.2895 -1.6621
  768MPD2     C11387   2.533   3.254  10.700 -0.1368  0.3498 -0.3200
  768MPD2    C111388   2.502   3.208  10.828 -0.2094  0.6205 -0.2966
  768MPD2    C211389   2.602   3.144  10.899  0.1579  0.3623  0.0432
  768MPD2    C311390   2.735   3.147  10.858  0.0349  0.1896  0.0529
  768MPD2    C411391   2.761   3.180  10.731  0.3577 -0.3216 -0.2558
  768MPD2    C511392   2.660   3.237  10.653 -0.8521  0.2399  0.7772
  768MPD2     H11393   2.581   3.103  10.997  2.4712 -1.6611 -0.3064
  768MPD2    H111394   2.858   3.176  10.683 -0.2090  0.4388 -1.4756
  768MPD2    H211395   2.467   3.315  10.638 -0.9485  0.9814  1.1827
  768MPD2    H311396   2.685   3.290  10.563 -1.1544 -0.6517  0.1669
  768MPD2     N11397   2.842   3.108  10.940  1.1377  0.4290 -0.1162
  768MPD2    H511398   2.930   3.126  10.893  1.1966  1.5782  0.4611
  768MPD2    N111399   2.376   3.223  10.891 -0.1289  0.1712  0.4337
  768MPD2    H711400   2.373   3.192  10.987  1.2145  1.6733  0.9654
  769MPD2     C11401   3.967   1.263  14.895  0.5831 -0.3267 -0.4063
  769MPD2    C111402   3.837   1.313  14.917  0.0268 -0.6698 -0.0187
  769MPD2    C211403   3.808   1.372  15.038  0.3046 -0.0784 -0.0116
  769MPD2    C311404   3.908   1.391  15.130  0.4029 -0.1784 -1.2724
  769MPD2    C411405   4.038   1.359  15.101  0.2737  0.0989  0.3614
  769MPD2    C511406   4.064   1.289  14.987 -0.2250 -0.5723 -0.0481
  769MPD2     H11407   3.711   1.412  15.064 -0.4698 -0.8005 -1.7924
  769MPD2    H111408   4.128   1.373  15.161  0.0482  0.6873  0.5637
  769MPD2    H211409   3.988   1.208  14.804 -0.4423  0.8295 -1.3578
  769MPD2    H311410   4.166   1.258  14.967 -0.9175 -1.0703 -2.8063
  769MPD2     N11411   3.867   1.451  15.253  0.0977 -0.0777  0.2394
  769MPD2    H511412   3.769   1.465  15.272 -0.3335 -2.8998  0.1535
  769MPD2    N111413   3.747   1.311  14.802  0.2240 -0.2410  0.0724
  769MPD2    H711414   3.774   1.246  14.729 -1.7713 -0.7032 -0.2656
  770MPD2     C11415   3.332   0.584  14.306 -0.4130 -0.2793  0.3207
  770MPD2    C111416   3.227   0.659  14.360  0.5749 -0.9585 -0.4803
  770MPD2    C211417   3.248   0.794  14.395 -0.8007  0.1097 -0.4592
  770MPD2    C311418   3.369   0.855  14.370 -0.0757  0.1906 -0.2886
  770MPD2    C411419   3.467   0.788  14.305 -0.3145 -0.0675  0.1864
  770MPD2    C511420   3.448   0.651  14.276 -0.2834  0.1550 -0.1753
  770MPD2     H11421   3.176   0.864  14.438 -2.1336  0.0746 -2.6336
  770MPD2    H111422   3.554   0.839  14.265  0.8734 -2.2682 -0.0121
  770MPD2    H211423   3.325   0.480  14.278  2.0422 -0.0010 -1.3397
  770MPD2    H311424   3.519   0.598  14.213 -0.8433 -1.0530  0.2168
  770MPD2     N11425   3.382   0.988  14.409 -0.8910  0.0893  0.1264
  770MPD2    H511426   3.296   1.031  14.443 -0.9856  0.2923 -0.3688
  770MPD2    N111427   3.111   0.590  14.391 -0.2609 -0.2970 -0.0659
  770MPD2    H711428   3.118   0.488  14.391  0.3600 -0.2552 -0.4237
  771MPD2     C11429   4.700   4.459  13.372  0.5044  0.2196  0.0291
  771MPD2    C111430   4.583   4.458  13.295  0.1952  0.1068  0.6374
  771MPD2    C211431   4.494   4.352  13.308 -0.3493 -0.3473  0.2514
  771MPD2    C311432   4.535   4.249  13.396 -0.8894 -0.4804  0.0875
  771MPD2    C411433   4.663   4.248  13.459  0.5293 -0.5522  0.4426
  771MPD2    C511434   0.012   4.350  13.437 -0.0312 -0.5608  0.9538
  771MPD2     H11435   4.400   4.343  13.255 -1.1865 -1.9917  2.0101
  771MPD2    H111436   4.690   4.171  13.531  1.7970  1.2128  1.8641
  771MPD2    H211437   0.016   4.550  13.394  1.6485 -1.0085  2.1794
  771MPD2    H311438   0.108   4.358  13.486 -0.3213  1.6523  1.1604
  771MPD2     N11439   4.448   4.140  13.395  0.3051  0.4130  0.0459
  771MPD2    H511440   4.370   4.140  13.330  1.2400 -1.3163 -1.0661
  771MPD2    N111441   4.547   4.558  13.203 -0.0102  0.5115  0.2128
  771MPD2    H711442   4.454   4.543  13.165  0.9277 -2.2274 -1.0009
  772MPD2     C11443   3.970   0.208  13.001  0.0517  0.6910 -0.1770
  772MPD2    C111444   4.025   0.099  13.051 -0.1941 -0.0240 -0.3567
  772MPD2    C211445   3.949   0.004  13.120 -0.6667  0.2222  0.1215
  772MPD2    C311446   3.811   0.023  13.128 -0.1694  0.6776 -0.7146
  772MPD2    C411447   3.755   0.136  13.077 -0.4561 -0.8712 -0.0509
  772MPD2    C511448   3.835   0.220  13.005 -0.2706  0.2342  0.4801
  772MPD2     H11449   3.996   4.659  13.171  1.3849  0.6830 -1.0152
  772MPD2    H111450   3.648   0.156  13.075 -0.0615  1.2437  0.3356
  772MPD2    H211451   4.023   0.281  12.941 -0.9125  1.9420  0.4795
  772MPD2    H311452   3.783   0.299  12.952  0.0112 -0.8198 -1.3892
  772MPD2     N11453   3.734   4.654  13.185 -0.2513 -0.1778 -0.5655
  772MPD2    H511454   3.633   4.659  13.194  0.1232  4.0671  1.5310
  772MPD2    N111455   4.165   0.066  13.029 -0.4511  0.3531  0.2456
  772MPD2    H711456   4.191   4.712  13.061  2.5946  0.6836 -1.2369
  773MPD2     C11457   2.873   4.493   0.362  0.3632 -0.1236 -0.0377
  773MPD2    C111458   2.954   4.584   0.293 -0.6924 -0.0593 -0.0785
  773MPD2    C211459   3.090   4.556   0.294  0.8416  0.9170  0.2633
  773MPD2    C311460   3.139   4.452   0.362 -0.5174 -0.2082 -0.3896
  773MPD2    C411461   3.060   4.367   0.440  0.4730 -0.0823  0.0067
  773MPD2    C511462   2.922   4.399   0.438 -0.1520 -0.0381 -0.2130
  773MPD2     H11463   3.163   4.617   0.242  0.3080 -0.2274 -1.8061
  773MPD2    H111464   3.103   4.285   0.496  1.0779  0.0927 -0.1954
  773MPD2    H211465   2.769   4.520   0.377  1.3611  3.0252  1.1612
  773MPD2    H311466   2.851   4.349   0.504  0.3574  2.0458  1.9307
  773MPD2     N11467   3.282   4.433   0.350 -0.2688  0.8783  0.1064
  773MPD2    H511468   3.332   4.501   0.294 -0.8028  1.5177  0.4146
  773MPD2    N111469   2.894   4.690   0.215 -0.0467 -1.2413 -0.3903
  773MPD2    H711470   2.796   4.680   0.190 -0.8896 -2.3272  3.3449
  774MPD2     C11471   3.050   3.911  13.826  0.4802  0.0831  0.1902
  774MPD2    C111472   2.939   3.983  13.849 -0.1658  0.1049 -0.1795
  774MPD2    C211473   2.938   4.119  13.812 -0.6225 -0.2558 -0.1537
  774MPD2    C311474   3.041   4.172  13.737  0.0255 -0.2373  0.2556
  774MPD2    C411475   3.147   4.099  13.708  0.2130 -0.3628  0.3837
  774MPD2    C511476   3.150   3.968  13.758  0.5151  0.1048 -0.2791
  774MPD2     H11477   2.853   4.179  13.842 -1.5914 -1.3644 -0.6887
  774MPD2    H111478   3.223   4.132  13.639 -1.2699 -0.0785 -1.1217
  774MPD2    H211479   3.068   3.808  13.855 -1.1095 -0.2375  0.0277
  774MPD2    H311480   3.248   3.925  13.742  1.2028  0.7628  2.2385
  774MPD2     N11481   3.037   4.312  13.698  0.1528 -0.6991 -0.3004
  774MPD2    H511482   2.949   4.363  13.692  0.4894  0.1864  2.0795
  774MPD2    N111483   2.834   3.931  13.928  0.7884  1.0057 -0.0580
  774MPD2    H711484   2.855   3.856  13.994  0.9470  0.1915 -1.0391
  775MPD2     C11485   4.157   1.420  16.030  0.3660 -0.7700 -0.2324
  775MPD2    C111486   4.082   1.519  15.965  0.0154 -0.7229  0.0362
  775MPD2    C211487   4.123   1.586  15.848 -0.1303  0.2659  0.7446
  775MPD2    C311488   4.255   1.543  15.804  0.3785 -0.1958  0.1424
  775MPD2    C411489   4.334   1.452  15.877  0.0178  0.0413 -0.4977
  775MPD2    C511490   4.279   1.384  15.982  0.5722 -0.7709 -0.0369
  775MPD2     H11491   4.073   1.659  15.786 -1.4685 -2.3811 -1.2568
  775MPD2    H111492   4.432   1.419  15.846 -0.1149 -2.0239  1.3642
  775MPD2    H211493   4.123   1.375  16.123  0.6893  0.8330  0.6481
  775MPD2    H311494   4.349   1.318  16.032  0.2078  0.5091  2.1474
  775MPD2     N11495   4.317   1.582  15.683 -0.1445 -0.3012  0.0783
  775MPD2    H511496   4.393   1.529  15.642 -0.0304 -0.0446 -0.0416
  775MPD2    N111497   3.962   1.549  16.021 -0.1600 -0.3686  0.0883
  775MPD2    H711498   3.940   1.498  16.106  1.0479 -2.5446 -0.9021
  776MPD2     C11499   2.972   1.714  12.073  0.0994 -0.1352  0.1700
  776MPD2    C111500   3.068   1.642  12.007  0.2088  0.3111 -0.7353
  776MPD2    C211501   3.133   1.717  11.902  0.1721 -0.0079  0.5912
  776MPD2    C311502   3.087   1.843  11.856 -0.3775  0.4132 -0.3315
  776MPD2    C411503   2.987   1.908  11.920  0.4006  0.7199  0.1360
  776MPD2    C511504   2.925   1.838  12.022 -0.2354 -0.0755 -0.0689
  776MPD2     H11505   3.217   1.673  11.850 -0.3682 -0.3752  0.0314
  776MPD2    H111506   2.957   2.007  11.889 -1.3621  0.4215  0.8992
  776MPD2    H211507   2.912   1.671  12.153 -0.3050 -1.1862 -0.6934
  776MPD2    H311508   2.840   1.892  12.063 -0.8851  0.2654 -1.8681
  776MPD2     N11509   3.150   1.903  11.747 -0.3516 -0.0261 -0.1260
  776MPD2    H511510   3.108   1.985  11.705  0.6362 -0.2417 -1.5514
  776MPD2    N111511   3.093   1.510  12.040 -0.2513 -0.1201 -1.0325
  776MPD2    H711512   3.024   1.476  12.107 -0.4669 -0.3309 -1.3602
  777MPD2     C11513   3.161   3.701   0.769 -0.3764 -0.2506 -0.0961
  777MPD2    C111514   3.031   3.703   0.821 -0.1149 -0.1066 -0.2861
  777MPD2    C211515   2.933   3.649   0.744 -0.5795  0.7301  0.2763
  777MPD2    C311516   2.953   3.598   0.616 -0.6024  0.3002 -0.1230
  777MPD2    C411517   3.081   3.614   0.561 -0.3275 -0.5363  0.3591
  777MPD2    C511518   3.184   3.659   0.638  0.3985 -0.7727 -0.3609
  777MPD2     H11519   2.832   3.642   0.782  0.1064 -1.7238  1.6711
  777MPD2    H111520   3.102   3.575   0.462  0.5869 -0.9346  0.7026
  777MPD2    H211521   3.241   3.746   0.826 -1.2290  0.7446  0.3138
  777MPD2    H311522   3.289   3.659   0.607  1.2830 -1.1876  2.6689
  777MPD2     N11523   2.849   3.531   0.552  0.2504  0.7237 -0.2901
  777MPD2    H511524   2.761   3.511   0.598  0.5166 -1.2814 -0.6445
  777MPD2    N111525   3.007   3.761   0.948 -0.8420 -0.2809  0.1140
  777MPD2    H711526   3.089   3.801   0.994  0.1408 -0.0943 -1.8128
  778MPD2     C11527   4.372   4.231  14.674 -0.4704 -0.1287  0.3555
  778MPD2    C111528   4.443   4.131  14.734 -0.1484 -0.0952 -0.1215
  778MPD2    C211529   4.574   4.115  14.707 -0.6775  0.3647 -0.7064
  778MPD2    C311530   4.644   4.198  14.625 -0.5474  1.1264  0.3648
  778MPD2    C411531   4.574   4.296  14.559  1.2231 -0.0274 -0.0472
  778MPD2    C511532   4.440   4.316  14.584  0.6017  0.2166  0.0188
  778MPD2     H11533   4.624   4.032  14.755  1.0443  2.2879  0.8155
  778MPD2    H111534   4.617   4.363  14.485  0.1015  1.8757  1.0488
  778MPD2    H211535   4.268   4.246  14.697 -0.7203 -0.5487 -0.4876
  778MPD2    H311536   4.388   4.395  14.532  0.7360  0.7348  0.6713
  778MPD2     N11537   0.048   4.177  14.613 -0.0635 -0.1479 -0.0667
  778MPD2    H511538   0.093   4.113  14.678  1.5876  1.1106  0.0312
  778MPD2    N111539   4.378   4.036  14.818  0.1462  0.0736 -0.1653
  778MPD2    H711540   4.417   3.943  14.826  0.2046  0.2951  2.2624
  779MPD2     C11541   4.156   2.801  13.582 -0.0317 -0.1788  0.3051
  779MPD2    C111542   4.169   2.794  13.721 -0.4017  0.0380 -0.3573
  779MPD2    C211543   4.215   2.903  13.786 -0.1512 -0.2545 -0.2001
  779MPD2    C311544   4.232   3.025  13.736  0.4517 -0.4051 -0.0527
  779MPD2    C411545   4.184   3.034  13.601  0.1035  0.2457 -0.1858
  779MPD2    C511546   4.150   2.925  13.529  0.0162 -0.8588  0.1103
  779MPD2     H11547   4.238   2.897  13.892  1.7902 -0.0146 -0.6056
  779MPD2    H111548   4.188   3.124  13.540  1.7147 -0.3445 -0.9508
  779MPD2    H211549   4.137   2.711  13.525  0.9200 -1.2396  1.6759
  779MPD2    H311550   4.133   2.934  13.423  3.4465  0.0332 -0.3522
  779MPD2     N11551   4.304   3.125  13.804  0.0725 -0.2596  0.3021
  779MPD2    H511552   4.317   3.108  13.903  0.0954 -3.5809 -0.2863
  779MPD2    N111553   4.159   2.668  13.777 -0.8957  0.2128 -0.2877
  779MPD2    H711554   4.143   2.588  13.717 -0.0497 -1.2734  1.4561
  780MPD2     C11555   3.231   2.873   0.757  0.0208  0.1113 -0.5600
  780MPD2    C111556   3.130   2.829   0.675 -0.3021  0.1625 -0.1670
  780MPD2    C211557   3.156   2.837   0.537  0.2227  0.9242  0.3322
  780MPD2    C311558   3.271   2.882   0.477  0.3246 -0.7649  0.1777
  780MPD2    C411559   3.377   2.925   0.566  0.1756 -0.6739  0.2090
  780MPD2    C511560   3.355   2.914   0.705 -0.0535  0.2005 -0.4268
  780MPD2     H11561   3.083   2.793   0.470 -0.0226  1.5125  0.2098
  780MPD2    H111562   3.479   2.946   0.538 -0.0160 -1.2388 -0.8973
  780MPD2    H211563   3.218   2.872   0.865  1.6347  0.8315 -0.3683
  780MPD2    H311564   3.436   2.945   0.770 -0.5580 -0.1211  0.3577
  780MPD2     N11565   3.274   2.902   0.337  0.0911  0.1598  0.0131
  780MPD2    H511566   3.212   2.844   0.281  1.2582 -2.0572  1.0190
  780MPD2    N111567   3.021   2.767   0.735 -0.5132  0.5267  0.0476
  780MPD2    H711568   3.032   2.765   0.836  2.5643 -0.1395 -0.3220
  781MPD2     C11569   0.590   0.151  11.760 -0.3047 -0.0413 -0.0958
  781MPD2    C111570   0.673   0.102  11.860  0.5483  0.8709  0.4034
  781MPD2    C211571   0.807   0.125  11.852 -0.3714  0.2992 -0.0186
  781MPD2    C311572   0.863   0.197  11.752  0.7877 -0.2239  0.5649
  781MPD2    C411573   0.783   0.251  11.651 -0.1155 -0.1639  0.2001
  781MPD2    C511574   0.651   0.221  11.658 -0.2960 -0.2430 -0.2399
  781MPD2     H11575   0.858   0.083  11.938  0.6273  0.0064 -0.7537
  781MPD2    H111576   0.812   0.299  11.557 -0.3270 -1.1973 -0.3902
  781MPD2    H211577   0.483   0.134  11.754 -0.6341  1.6291  0.7784
  781MPD2    H311578   0.585   0.261  11.582 -1.4260  0.0063  0.8796
  781MPD2     N11579   1.007   0.209  11.751 -0.0441  0.3032  0.5136
  781MPD2    H511580   1.044   0.254  11.668  0.4183 -1.8948 -0.4803
  781MPD2    N111581   0.631   0.019  11.967  0.5252  0.0308 -0.2925
  781MPD2    H711582   0.706   4.722  12.025 -0.2162  1.2110  1.4010
  782MPD2     C11583   3.122   0.886  10.312 -0.0725  1.0780  0.3270
  782MPD2    C111584   3.255   0.875  10.277 -0.4036 -0.2021  1.0571
  782MPD2    C211585   3.346   0.950  10.350 -0.1731  0.0346  0.8957
  782MPD2    C311586   3.308   1.026  10.449 -1.0710 -0.0747  0.1676
  782MPD2    C411587   3.176   1.042  10.482 -0.1713  0.1011 -1.1839
  782MPD2    C511588   3.075   0.978  10.410  0.0312 -0.1030 -0.2943
  782MPD2     H11589   3.452   0.936  10.332 -0.9338 -3.9217 -0.5481
  782MPD2    H111590   3.139   1.104  10.562 -1.2387  1.2402 -2.5445
  782MPD2    H211591   3.049   0.835  10.250  0.5496  0.3257  0.2107
  782MPD2    H311592   2.971   0.996  10.431 -0.2094 -0.8557 -0.8073
  782MPD2     N11593   3.412   1.089  10.524  0.0112 -0.5650  0.0914
  782MPD2    H511594   3.510   1.086  10.497 -0.3828  1.9031 -1.5570
  782MPD2    N111595   3.294   0.777  10.180  0.2492  0.2388  0.3475
  782MPD2    H711596   3.241   0.692  10.164  0.0790  0.1151  1.5709
  783MPD2     C11597   3.107   0.199  10.732 -0.3048 -0.0884 -0.1486
  783MPD2    C111598   3.197   0.293  10.783 -0.6928  0.0705  0.7339
  783MPD2    C211599   3.274   0.360  10.686  0.0360  0.0753  0.5518
  783MPD2    C311600   3.262   0.333  10.552  0.0403  0.4766 -0.0213
  783MPD2    C411601   3.170   0.239  10.508 -0.1671  0.7059  0.3624
  783MPD2    C511602   3.090   0.177  10.597  0.4959  0.3173  0.7451
  783MPD2     H11603   3.351   0.430  10.717  1.1354 -1.3805  1.0745
  783MPD2    H111604   3.159   0.214  10.403 -0.4210  1.2397  0.2582
  783MPD2    H211605   3.050   0.151  10.812  2.9721 -1.3548  1.4285
  783MPD2    H311606   3.027   0.095  10.565 -0.3602  1.5747 -0.7679
  783MPD2     N11607   3.337   0.406  10.463 -0.9801  0.4345 -0.0680
  783MPD2    H511608   3.384   0.485  10.506 -0.0918  0.0791 -0.3858
  783MPD2    N111609   3.202   0.316  10.923  0.2664 -0.3513 -0.6872
  783MPD2    H711610   3.147   0.262  10.988  2.7326 -1.3044  0.6336
  784MPD2     C11611   4.294   1.276   1.265 -0.4941  0.7076  0.4310
  784MPD2    C111612   4.384   1.383   1.259 -0.2995  0.1104  0.2507
  784MPD2    C211613   4.372   1.486   1.170  0.2219 -0.0535  0.5010
  784MPD2    C311614   4.268   1.496   1.078 -0.0397  0.1899 -0.1278
  784MPD2    C411615   4.169   1.400   1.099  0.7033  0.0752  0.0137
  784MPD2    C511616   4.188   1.296   1.181 -0.3065 -0.1045 -0.7643
  784MPD2     H11617   4.448   1.563   1.160 -0.4998  0.7075  0.9421
  784MPD2    H111618   4.077   1.405   1.041  0.5072  0.2605  0.3415
  784MPD2    H211619   4.294   1.190   1.332  1.9660 -0.8161 -1.5444
  784MPD2    H311620   4.111   1.220   1.184 -0.8614  0.3388 -3.3253
  784MPD2     N11621   4.265   1.600   0.980 -0.0619 -0.5391  0.0206
  784MPD2    H511622   4.336   1.670   0.997 -1.6040  0.9056  0.4555
  784MPD2    N111623   4.503   1.380   1.326 -0.1810 -0.4108  0.2903
  784MPD2    H711624   4.575   1.444   1.293 -1.6325  0.0113 -2.0060
  785MPD2     C11625   1.577   3.995  11.275 -0.0954  0.0502 -0.3031
  785MPD2    C111626   1.605   4.051  11.151 -0.0593 -0.1884 -0.4999
  785MPD2    C211627   1.562   3.989  11.038  0.0984 -0.5670 -0.5919
  785MPD2    C311628   1.483   3.873  11.044 -0.3026  0.0176 -0.3708
  785MPD2    C411629   1.462   3.820  11.172  0.6161  0.3005  1.0668
  785MPD2    C511630   1.510   3.877  11.282  0.7371 -0.5844  0.1929
  785MPD2     H11631   1.593   4.039  10.947  0.8662 -2.1264 -1.1760
  785MPD2    H111632   1.404   3.729  11.184 -0.1703  0.3406 -2.4990
  785MPD2    H211633   1.589   4.046  11.370 -1.3289  0.5860 -0.4281
  785MPD2    H311634   1.498   3.836  11.382 -1.7747  2.7268  1.2443
  785MPD2     N11635   1.414   3.819  10.929 -0.2765  0.2222 -0.4133
  785MPD2    H511636   1.368   3.732  10.953  2.0920 -1.3129 -1.4747
  785MPD2    N111637   1.666   4.178  11.155 -0.2169 -0.2078 -0.1420
  785MPD2    H711638   1.700   4.216  11.243 -0.6356 -2.6848  1.0791
  786MPD2     C11639   0.091   2.575  14.491  0.5579 -0.2375  0.5152
  786MPD2    C111640   0.121   2.452  14.551  0.0891  0.7358  0.5089
  786MPD2    C211641   0.219   2.443  14.650 -0.3272 -0.2862  0.2124
  786MPD2    C311642   0.290   2.558  14.689  0.4223 -0.0869  0.4727
  786MPD2    C411643   0.263   2.676  14.615  0.3050  0.7907 -0.0244
  786MPD2    C511644   0.154   2.689  14.533  1.0376 -0.4454  0.1408
  786MPD2     H11645   0.239   2.346  14.694  1.3262 -0.0948 -0.0927
  786MPD2    H111646   0.314   2.769  14.637 -0.7552  1.2250  0.6133
  786MPD2    H211647   0.016   2.581  14.414  2.3204  4.1930 -0.8450
  786MPD2    H311648   0.124   2.786  14.495  1.5683  1.2266  3.9591
  786MPD2     N11649   0.394   2.564  14.784 -0.1251  0.0826 -0.3241
  786MPD2    H511650   0.445   2.651  14.796  1.4606 -0.8842 -0.0231
  786MPD2    N111651   0.049   2.324  14.525  0.4223  0.6491  1.0612
  786MPD2    H711652   0.083   2.242  14.575  2.1211  0.4213 -0.4636
  787MPD2     C11653   4.726   1.800  14.923 -0.1523 -0.2086 -0.1556
  787MPD2    C111654   4.698   1.773  14.791 -0.2773 -1.1029  0.1919
  787MPD2    C211655   4.734   1.648  14.739 -0.5684 -0.3054 -0.3352
  787MPD2    C311656   0.037   1.546  14.826  0.9897  0.3096 -0.1483
  787MPD2    C411657   0.048   1.581  14.957 -0.1934 -0.1331 -0.5154
  787MPD2    C511658   0.039   1.705  15.006 -0.0025  0.1224  0.2633
  787MPD2     H11659   4.726   1.621  14.635  0.9802 -2.8163  0.2034
  787MPD2    H111660   0.061   1.511  15.039 -0.2740 -0.3631 -0.6989
  787MPD2    H211661   4.705   1.896  14.970  2.0431  0.3305 -0.2761
  787MPD2    H311662   0.050   1.730  15.111  5.1378  0.0070 -0.2691
  787MPD2     N11663   0.056   1.415  14.781 -0.0867 -0.9049  0.0751
  787MPD2    H511664   0.049   1.403  14.680 -1.4086  1.6612 -0.1460
  787MPD2    N111665   4.646   1.874  14.707 -0.1541  0.5175  0.1477
  787MPD2    H711666   4.647   1.971  14.738  3.1112  0.5220 -0.0657
  788MPD2     C11667   1.839   0.238   0.920  0.1425  0.0531 -0.4852
  788MPD2    C111668   1.765   0.190   0.816 -0.0332  0.4606  0.1917
  788MPD2    C211669   1.691   0.282   0.741 -0.7551  0.2536  0.6008
  788MPD2    C311670   1.697   0.420   0.778 -0.0130 -0.1534  0.1937
  788MPD2    C411671   1.771   0.462   0.886 -0.5939 -0.4221  0.1101
  788MPD2    C511672   1.834   0.369   0.962 -0.1860  0.1382 -0.1787
  788MPD2     H11673   1.631   0.244   0.660  1.2773  2.5207 -1.9605
  788MPD2    H111674   1.789   0.567   0.908 -1.6320 -0.6152  1.8650
  788MPD2    H211675   1.897   0.167   0.978 -0.1582 -0.6705 -1.0737
  788MPD2    H311676   1.890   0.395   1.051  0.5353  0.5808 -0.7665
  788MPD2     N11677   1.646   0.522   0.695 -0.2981 -0.1401  0.7707
  788MPD2    H511678   1.673   0.616   0.724 -0.0881  0.4492 -1.3369
  788MPD2    N111679   1.758   0.054   0.788 -0.1221 -0.0860  0.2055
  788MPD2    H711680   1.691   0.024   0.718  1.6314 -0.8717 -1.1312
  789MPD2     C11681   2.217   0.147  17.155 -0.3425 -0.5677  0.1963
  789MPD2    C111682   2.146   0.086  17.049  1.0137 -0.2046 -0.0333
  789MPD2    C211683   2.018   0.139  17.021  0.4018  0.0084  0.3848
  789MPD2    C311684   1.971   0.243  17.095  0.2580 -0.0932  0.3664
  789MPD2    C411685   2.035   0.292  17.209 -0.3923  0.0327  0.4012
  789MPD2    C511686   2.165   0.251  17.232 -0.6700  0.2913 -0.5929
  789MPD2     H11687   1.960   0.096  16.940  1.1566 -2.0397  0.9213
  789MPD2    H111688   1.995   0.376  17.265  2.6935  2.0318 -0.3834
  789MPD2    H211689   2.317   0.115  17.180 -0.5864 -0.6663  1.0320
  789MPD2    H311690   2.209   0.289  17.323 -2.2218  1.6234 -0.3891
  789MPD2     N11691   1.853   0.310  17.070 -0.1500 -0.2046 -0.4307
  789MPD2    H511692   1.830   0.379  17.141 -1.8403  0.6045 -1.7307
  789MPD2    N111693   2.172   4.707  16.980 -0.0419 -0.3045 -0.2926
  789MPD2    H711694   2.104   4.675  16.912  1.1232 -0.6358 -1.2996
  790MPD2     C11695   3.344   1.870  13.395  0.9841  0.0623  0.2502
  790MPD2    C111696   3.268   1.756  13.397 -0.1890  0.5238 -0.3825
  790MPD2    C211697   3.181   1.733  13.292  0.1776 -0.5351 -0.4529
  790MPD2    C311698   3.190   1.820  13.186 -0.2904  0.4473  0.7244
  790MPD2    C411699   3.261   1.936  13.187  1.4173  0.1520 -0.1103
  790MPD2    C511700   3.341   1.964  13.293 -0.8957 -0.2360  0.0757
  790MPD2     H11701   3.147   1.631  13.275 -1.2004  0.0951 -1.4230
  790MPD2    H111702   3.258   2.008  13.106  2.3284  0.1201 -0.1764
  790MPD2    H211703   3.418   1.886  13.472  0.7960  1.1542  0.2061
  790MPD2    H311704   3.404   2.051  13.307  1.5056 -1.7058 -1.4365
  790MPD2     N11705   3.115   1.803  13.067 -0.0857 -0.4139 -0.0344
  790MPD2    H511706   3.130   1.868  12.991  1.5018 -0.3916  0.2775
  790MPD2    N111707   3.287   1.669  13.514  0.3394  0.0783 -0.5468
  790MPD2    H711708   3.361   1.698  13.577 -0.8149  0.8252  0.4701
  791MPD2     C11709   2.449   1.425  13.019 -0.2899 -0.1789  0.4114
  791MPD2    C111710   2.492   1.437  12.883  1.1454 -0.2806 -0.5561
  791MPD2    C211711   2.402   1.407  12.779 -0.3304 -0.4421 -0.6356
  791MPD2    C311712   2.270   1.366  12.816 -0.3937 -0.2552  0.1621
  791MPD2    C411713   2.228   1.362  12.947 -0.0187 -0.2878  0.2410
  791MPD2    C511714   2.316   1.396  13.049 -0.0327  0.0844 -0.6228
  791MPD2     H11715   2.432   1.402  12.675 -0.2970 -0.1832 -0.6386
  791MPD2    H111716   2.135   1.325  12.989  1.5594 -2.5513  1.6752
  791MPD2    H211717   2.519   1.434  13.101 -1.6995  0.4356  1.5653
  791MPD2    H311718   2.281   1.402  13.151 -0.0714 -1.4484 -0.5413
  791MPD2     N11719   2.184   1.325  12.708  0.0507  0.3321 -0.1330
  791MPD2    H511720   2.223   1.329  12.614  0.4971 -1.6922 -0.0232
  791MPD2    N111721   2.623   1.493  12.869 -0.3896 -0.5202 -0.9546
  791MPD2    H711722   2.669   1.509  12.957  0.5296 -0.2412 -1.4868
  792MPD2     C11723   3.700   1.513  11.397 -0.1866 -0.3407 -0.0790
  792MPD2    C111724   3.627   1.609  11.336  0.4753  0.0403 -0.8382
  792MPD2    C211725   3.491   1.629  11.367 -0.4584 -0.2249 -0.5219
  792MPD2    C311726   3.440   1.562  11.479 -0.2921 -0.9918  0.6790
  792MPD2    C411727   3.524   1.478  11.550  0.0190 -0.2771  0.4043
  792MPD2    C511728   3.647   1.447  11.506 -0.5059  0.1886 -0.5162
  792MPD2     H11729   3.423   1.675  11.297  0.0242 -0.4096 -1.1129
  792MPD2    H111730   3.486   1.425  11.637 -0.0868  3.3292  2.5710
  792MPD2    H211731   3.804   1.493  11.376 -0.3807 -0.9915 -0.4205
  792MPD2    H311732   3.696   1.370  11.564  0.6116  0.1233 -1.5499
  792MPD2     N11733   3.311   1.576  11.530 -0.0258  0.0363  0.0489
  792MPD2    H511734   3.295   1.531  11.620 -2.8188  0.9904  0.0305
  792MPD2    N111735   3.681   1.660  11.218  0.0328  0.4034 -1.0496
  792MPD2    H711736   3.778   1.635  11.205  0.0885 -0.3354  0.7084
  793MPD2     C11737   2.668   1.412  10.918  0.6276  0.3113 -0.0888
  793MPD2    C111738   2.803   1.428  10.937 -0.2713  0.1444  0.1091
  793MPD2    C211739   2.849   1.458  11.065  0.0283 -0.6450 -0.2214
  793MPD2    C311740   2.759   1.494  11.162  0.0679  0.5393  0.4925
  793MPD2    C411741   2.626   1.488  11.139 -0.0340  1.2571  0.3821
  793MPD2    C511742   2.576   1.441  11.018  0.3358 -0.6627  0.3704
  793MPD2     H11743   2.955   1.470  11.083  0.0179  2.3724 -2.1466
  793MPD2    H111744   2.554   1.513  11.216  0.2286 -1.2694  1.4352
  793MPD2    H211745   2.630   1.388  10.819  0.2058 -0.2279  0.2006
  793MPD2    H311746   2.473   1.425  10.988  0.5040 -1.9886  0.4803
  793MPD2     N11747   2.818   1.541  11.279  0.5415  0.0323  0.0733
  793MPD2    H511748   2.920   1.540  11.275  0.5037 -0.0848 -0.7836
  793MPD2    N111749   2.906   1.404  10.834 -0.1532  0.3333  0.2427
  793MPD2    H711750   3.004   1.411  10.858 -0.9394  2.2832  3.0170
  794MPD2     C11751   2.765   0.769  17.718 -0.9318  0.5618  0.7973
  794MPD2    C111752   2.731   0.679  17.617  0.0058  0.5964  0.1601
  794MPD2    C211753   2.661   0.728  17.504  0.5993 -0.1160  0.0635
  794MPD2    C311754   2.639   0.864  17.500 -0.1998 -0.2042 -0.7208
  794MPD2    C411755   2.678   0.946  17.599  0.2661  0.2514  0.0222
  794MPD2    C511756   2.741   0.899  17.708  0.7380  0.3845  0.3450
  794MPD2     H11757   2.636   0.661  17.423 -0.8901  1.7194 -0.9757
  794MPD2    H111758   2.671   1.054  17.597 -1.6808  0.1144 -0.6201
  794MPD2    H211759   2.815   0.739   0.057 -0.0200  0.4718  0.2822
  794MPD2    H311760   2.782   0.964   0.031  1.4135 -0.0335  0.3316
  794MPD2     N11761   2.568   0.922  17.399 -0.0942 -0.2826  0.2134
  794MPD2    H511762   2.552   1.022  17.409  0.0003 -0.4594  1.9903
  794MPD2    N111763   2.765   0.538  17.625  0.1648 -0.2726 -0.0337
  794MPD2    H711764   2.724   0.483  17.551 -0.1825  0.3561 -0.3122
  795MPD2     C11765   0.828   3.259  13.805  0.1725 -0.3640 -0.8784
  795MPD2    C111766   0.743   3.148  13.802  0.2619  0.0626  0.0178
  795MPD2    C211767   0.787   3.031  13.857  1.4338  0.1710  0.6406
  795MPD2    C311768   0.905   3.026  13.932  0.4666  1.1347 -0.3737
  795MPD2    C411769   0.986   3.138  13.948  0.2351 -0.0179  0.0334
  795MPD2    C511770   0.948   3.256  13.876 -0.7503  0.3879  0.2617
  795MPD2     H11771   0.720   2.946  13.854 -0.9588  2.0374  0.7747
  795MPD2    H111772   1.082   3.145  13.999  1.4561  0.1522 -2.2733
  795MPD2    H211773   0.799   3.350  13.754  0.3689 -0.0177 -0.3660
  795MPD2    H311774   0.996   3.352  13.891 -2.2061  1.0686  0.5628
  795MPD2     N11775   0.929   2.901  13.983 -0.2539  0.1618  0.1623
  795MPD2    H511776   0.856   2.831  13.970 -0.1344  0.0956 -0.1400
  795MPD2    N111777   0.624   3.147  13.728 -0.2908 -0.2255 -0.4473
  795MPD2    H711778   0.583   3.056  13.709 -1.8615  0.5096 -0.6023
  796MPD2     C11779   4.345   4.529  16.020 -0.1620 -0.1507 -1.0078
  796MPD2    C111780   4.464   4.591  16.025 -0.5142  0.5757 -0.6700
  796MPD2    C211781   4.493   4.699  15.946  1.4417 -0.4959 -0.6430
  796MPD2    C311782   4.396   0.004  15.852 -0.8163  0.4129  0.2744
  796MPD2    C411783   4.265   4.696  15.865 -0.2528  0.3521 -0.2867
  796MPD2    C511784   4.248   4.586  15.945  0.2760  0.2576 -0.4302
  796MPD2     H11785   4.587   0.015  15.950  0.0619  1.8839 -0.7690
  796MPD2    H111786   4.182   0.005  15.816  0.1272  2.1234  0.7801
  796MPD2    H211787   4.327   4.441  16.081 -1.5817 -0.0654 -1.3054
  796MPD2    H311788   4.150   4.542  15.957  0.0085  1.2816  1.2508
  796MPD2     N11789   4.418   0.123  15.769 -0.2663 -0.0776  0.4272
  796MPD2    H511790   4.509   0.165  15.786 -0.2915 -0.8633  2.6039
  796MPD2    N111791   4.554   4.529  16.116 -0.1471  0.1374  0.1612
  796MPD2    H711792   4.527   4.441  16.160 -1.9781  0.5369 -0.1505
  797MPD2     C11793   0.956   4.319  17.194 -0.0928  0.5162  0.4294
  797MPD2    C111794   1.034   4.436  17.199 -0.0982  0.3984  0.1396
  797MPD2    C211795   1.016   4.526  17.094  0.5707  0.2471  0.1491
  797MPD2    C311796   0.920   4.511  16.996  0.0705 -0.3319 -0.6190
  797MPD2    C411797   0.841   4.401  17.001 -0.1124  0.4116  0.4539
  797MPD2    C511798   0.858   4.304  17.094 -0.0855 -0.0960 -0.0700
  797MPD2     H11799   1.082   4.612  17.098 -0.5187  1.0624  0.7954
  797MPD2    H111800   0.766   4.392  16.923 -0.7747  0.3350  1.1081
  797MPD2    H211801   0.967   4.240  17.268  0.1499  1.3679  1.3014
  797MPD2    H311802   0.790   4.219  17.097 -0.2270  0.1328  3.2415
  797MPD2     N11803   0.905   4.594  16.881 -0.1826 -0.6915 -0.0958
  797MPD2    H511804   0.833   4.569  16.814  0.2030 -1.4333 -0.2325
  797MPD2    N111805   1.141   4.458  17.282  0.1406  0.7515 -0.1161
  797MPD2    H711806   1.189   4.546  17.265  1.4978 -0.0074 -0.1948
  798MPD2     C11807   1.565   0.018  16.842  0.1984 -0.2832 -0.0356
  798MPD2    C111808   1.434   0.026  16.887 -0.0328  0.0458 -0.7232
  798MPD2    C211809   1.411   0.019  17.026 -0.6783 -0.0024  0.4326
  798MPD2    C311810   1.508   4.734  17.119 -0.5155  0.5060  0.5207
  798MPD2    C411811   1.635   4.722  17.071  0.8222  0.0055  0.4677
  798MPD2    C511812   1.662   4.730  16.935  0.7111 -0.3722 -0.4974
  798MPD2     H11813   1.311   0.040  17.061 -0.5198 -0.7321  1.3036
  798MPD2    H111814   1.720   4.693  17.132  1.3800  0.5988 -0.0278
  798MPD2    H211815   1.592   0.029  16.737  1.4040 -0.0822  0.2957
  798MPD2    H311816   1.767   4.728  16.907  0.4777  1.1517 -1.4862
  798MPD2     N11817   1.472   4.714  17.255  0.8759 -0.1996  0.1547
  798MPD2    H511818   1.373   4.716  17.277  0.3102 -1.0710 -2.2494
  798MPD2    N111819   1.325   0.046  16.796 -0.5195 -0.4136 -0.4422
  798MPD2    H711820   1.233   0.048  16.840  0.1345 -0.4712  0.9378
  799MPD2     C11821   4.662   1.052  14.133  0.5394  0.5296  1.3049
  799MPD2    C111822   4.709   0.982  14.029  1.3261  0.4064  0.4080
  799MPD2    C211823   4.717   1.041  13.903  0.1618 -0.4523  0.5487
  799MPD2    C311824   4.702   1.177  13.886 -0.7344 -0.2506  1.3522
  799MPD2    C411825   4.675   1.251  14.002 -0.3461 -0.0757 -0.0252
  799MPD2    C511826   4.660   1.190  14.125 -0.5033 -0.6463  0.1295
  799MPD2     H11827   0.013   0.976  13.824  1.8746  1.8159 -0.5933
  799MPD2    H111828   4.680   1.360  13.997 -2.5427 -0.0470 -1.1756
  799MPD2    H211829   4.641   1.006  14.228 -0.2858 -0.0975  0.8238
  799MPD2    H311830   4.630   1.248  14.212  1.3884  0.0566  0.3151
  799MPD2     N11831   4.716   1.252  13.766  0.6046  0.0099 -0.3673
  799MPD2    H511832   4.710   1.352  13.777 -2.3282 -0.0349 -1.4475
  799MPD2    N111833   0.001   0.848  14.052  0.0660 -0.5172  0.0854
  799MPD2    H711834   4.739   0.793  13.966 -2.0212 -0.8886  0.3553
  800MPD2     C11835   0.064   2.247  14.102  0.0176  1.0897 -0.1371
  800MPD2    C111836   0.193   2.225  14.148  0.1016 -0.5945 -0.0069
  800MPD2    C211837   0.244   2.100  14.139 -0.7169 -0.3372 -0.5478
  800MPD2    C311838   0.170   2.004  14.069 -0.1114  0.0083  0.1188
  800MPD2    C411839   0.043   2.021  14.019  0.2818  0.0909 -0.0615
  800MPD2    C511840   4.727   2.143  14.054 -0.1312 -0.5714  0.1091
  800MPD2     H11841   0.346   2.079  14.168 -0.9533 -0.1909  0.4157
  800MPD2    H111842   4.717   1.950  13.969 -0.4651  1.0009 -0.3720
  800MPD2    H211843   0.015   2.342  14.123 -1.5180 -0.0977  1.6352
  800MPD2    H311844   4.628   2.159  14.013  0.4933  1.3813 -0.6206
  800MPD2     N11845   0.241   1.883  14.045 -0.4502 -0.4833  0.4465
  800MPD2    H511846   0.330   1.875  14.092 -0.1399  2.2706  0.3100
  800MPD2    N111847   0.264   2.338  14.198 -0.6536  0.2716 -0.0974
  800MPD2    H711848   0.210   2.424  14.199  0.8813  1.2363 -0.6616
  801MPD2     C11849   0.371   3.044  14.040 -0.0984 -0.1975  0.5352
  801MPD2    C111850   0.471   3.030  14.132  0.5608  0.4140  0.0937
  801MPD2    C211851   0.558   3.135  14.137 -0.1053  0.0411  1.5607
  801MPD2    C311852   0.542   3.255  14.063  0.3173 -0.1013  0.0600
  801MPD2    C411853   0.431   3.267  13.987 -0.0011  0.1286  0.0701
  801MPD2    C511854   0.356   3.164  13.965  0.1292  0.0297  0.4526
  801MPD2     H11855   0.652   3.122  14.190  1.9689  2.9107 -1.3714
  801MPD2    H111856   0.410   3.361  13.937 -1.4336 -1.1171 -1.6729
  801MPD2    H211857   0.294   2.969  14.027 -0.2671 -0.1684  1.3773
  801MPD2    H311858   0.266   3.172  13.905 -0.6175 -1.5324  1.3773
  801MPD2     N11859   0.636   3.362  14.061  1.2271 -0.5009 -0.4196
  801MPD2    H511860   0.625   3.422  13.980 -1.4364 -0.9080 -0.3777
  801MPD2    N111861   0.503   2.912  14.199 -0.0156  0.5558  0.3764
  801MPD2    H711862   0.585   2.909  14.259  1.7943  0.5142 -2.0730
  802MPD2     C11863   4.039   3.236  16.993  0.1263  0.2910 -0.2229
  802MPD2    C111864   4.125   3.256  17.102 -0.4008 -0.4920 -0.0758
  802MPD2    C211865   4.245   3.179  17.117  0.3738 -0.7653 -0.7391
  802MPD2    C311866   4.278   3.084  17.019  0.7459 -0.1651  0.1400
  802MPD2    C411867   4.185   3.064  16.913  0.0811 -0.2545  0.2348
  802MPD2    C511868   4.071   3.141  16.899 -0.0792  0.4866 -0.0960
  802MPD2     H11869   4.320   3.205  17.190 -0.7773  3.3942 -1.0175
  802MPD2    H111870   4.183   2.987  16.837  0.5857  1.6882 -1.7477
  802MPD2    H211871   3.959   3.305  16.970 -1.2657 -0.6822  1.7835
  802MPD2    H311872   4.007   3.122  16.814  0.5033 -0.4225 -0.3263
  802MPD2     N11873   4.406   3.017  17.025  0.1386  0.2081  0.1226
  802MPD2    H511874   4.477   3.060  17.084 -0.5912  0.7382  0.6107
  802MPD2    N111875   4.108   3.360  17.196  0.2754 -0.2883  0.1676
  802MPD2    H711876   4.163   3.370  17.281 -0.7863 -2.1594  1.0803
  803MPD2     C11877   0.590   0.620  12.282 -0.2722  0.0929 -0.1125
  803MPD2    C111878   0.725   0.659  12.288 -0.2443 -0.4226 -0.2270
  803MPD2    C211879   0.803   0.642  12.408 -0.2749  0.0157  0.6425
  803MPD2    C311880   0.739   0.598  12.525 -0.1346  0.4678 -0.1109
  803MPD2    C411881   0.613   0.543  12.511 -0.2744 -0.1297 -0.4480
  803MPD2    C511882   0.542   0.559  12.398  1.1075  0.0304 -0.8390
  803MPD2     H11883   0.908   0.670  12.410 -0.5610  1.4050 -2.4575
  803MPD2    H111884   0.568   0.498  12.599  1.2707  0.4515  0.6404
  803MPD2    H211885   0.529   0.649  12.198  0.4385 -1.9467 -1.3118
  803MPD2    H311886   0.435   0.540  12.395  1.3527 -1.3571 -0.9684
  803MPD2     N11887   0.805   0.583  12.649 -0.0401 -0.2937  0.1397
  803MPD2    H511888   0.755   0.532  12.721 -2.4005  1.7883  0.0006
  803MPD2    N111889   0.780   0.733  12.180  0.1031 -0.0958 -0.2206
  803MPD2    H711890   0.865   0.785  12.199 -0.9312  1.6834 -0.5177
  804MPD2     C11891   0.356   2.788  16.587  0.0193 -0.8740 -0.0776
  804MPD2    C111892   0.321   2.773  16.718 -0.0020 -0.0129  0.8057
  804MPD2    C211893   0.365   2.877  16.811  0.5287  0.7353  0.5663
  804MPD2    C311894   0.437   2.986  16.755  0.5994  0.1075 -0.5674
  804MPD2    C411895   0.469   2.993  16.616  0.4080  0.1402  0.0862
  804MPD2    C511896   0.421   2.897  16.530 -0.7100 -0.2450  1.0647
  804MPD2     H11897   0.337   2.868  16.915 -0.2642 -1.6693  0.1443
  804MPD2    H111898   0.537   3.063  16.567  0.6667 -0.2720 -0.1443
  804MPD2    H211899   0.335   2.719  16.507  0.9666  0.5234 -1.5220
  804MPD2    H311900   0.434   2.896  16.422 -0.9906  2.8306  1.0064
  804MPD2     N11901   0.504   3.081  16.833 -0.1378  0.1518 -0.9256
  804MPD2    H511902   0.576   3.138  16.789  0.4031 -1.3644 -2.0124
  804MPD2    N111903   0.252   2.656  16.765 -0.6569 -0.0228  0.5215
  804MPD2    H711904   0.220   2.656  16.861 -1.8988 -0.0555  0.1081
  805MPD2     C11905   4.310   1.030  15.153 -0.1348  1.0563  0.3717
  805MPD2    C111906   4.444   0.984  15.156 -0.1534  0.2595 -0.1260
  805MPD2    C211907   4.526   1.030  15.259  1.0172  0.3335  0.2633
  805MPD2    C311908   4.487   1.132  15.346  0.3026 -0.3697  0.5896
  805MPD2    C411909   4.351   1.172  15.341  0.5936 -0.0230  1.0247
  805MPD2    C511910   4.265   1.123  15.250  0.0704 -0.2416 -0.8932
  805MPD2     H11911   4.629   1.000  15.276  0.3772 -0.6501  2.2994
  805MPD2    H111912   4.303   1.239  15.411  0.1370  1.2088 -0.4636
  805MPD2    H211913   4.237   0.978  15.092  0.4541 -0.4149  0.9127
  805MPD2    H311914   4.158   1.143  15.250  0.1605  0.2843  0.2261
  805MPD2     N11915   4.592   1.178  15.435  0.4084 -0.7432 -0.1309
  805MPD2    H511916   4.680   1.129  15.429  1.2251  0.9563 -1.9005
  805MPD2    N111917   4.493   0.884  15.078  0.0544  0.0263  0.5815
  805MPD2    H711918   4.585   0.844  15.093  0.2471  0.2048 -0.1433
  806MPD2     C11919   0.499   1.455   1.370  0.2563 -0.0046  0.0346
  806MPD2    C111920   0.397   1.431   1.276 -0.1856  0.2201  0.0619
  806MPD2    C211921   0.347   1.528   1.197 -1.1243 -0.1026  0.6293
  806MPD2    C311922   0.394   1.659   1.205 -0.7647  0.0032  0.1454
  806MPD2    C411923   0.504   1.684   1.294 -0.5309  0.2789 -0.2197
  806MPD2    C511924   0.554   1.582   1.370 -0.3726 -0.4978  0.6970
  806MPD2     H11925   0.284   1.510   1.111  2.8243 -1.9714 -1.8533
  806MPD2    H111926   0.562   1.776   1.291 -0.5672  0.2096 -2.7340
  806MPD2    H211927   0.543   1.380   1.434  1.3272 -0.7286 -1.5568
  806MPD2    H311928   0.639   1.602   1.434 -0.3494 -1.0345  0.8284
  806MPD2     N11929   0.348   1.749   1.116  0.2061  0.5983 -0.1975
  806MPD2    H511930   0.289   1.710   1.044  1.6476 -0.8660 -0.5900
  806MPD2    N111931   0.358   1.297   1.260 -0.2988  0.1559  0.0175
  806MPD2    H711932   0.409   1.225   1.309 -0.2607 -0.3526 -0.7736
  807MPD2     C11933   4.617   0.832   0.737 -0.3433 -0.0279 -0.1151
  807MPD2    C111934   4.614   0.850   0.877  0.0970 -0.0682 -0.5225
  807MPD2    C211935   4.498   0.811   0.947 -0.5321  0.0267  0.7810
  807MPD2    C311936   4.386   0.774   0.881 -0.0069 -0.0352 -0.1237
  807MPD2    C411937   4.394   0.762   0.746  0.9144 -0.1377  0.1186
  807MPD2    C511938   4.502   0.791   0.673  0.6638  0.0323 -0.2599
  807MPD2     H11939   4.494   0.821   1.055  1.7175  0.3379  0.8353
  807MPD2    H111940   4.313   0.717   0.690  2.0307 -0.3741 -1.3040
  807MPD2    H211941   4.706   0.865   0.684 -0.3413 -1.2542 -0.8759
  807MPD2    H311942   4.502   0.775   0.566  0.0043 -0.0291 -0.2538
  807MPD2     N11943   4.266   0.722   0.948  0.0998  0.3078 -0.1278
  807MPD2    H511944   4.271   0.702   1.048 -1.1233  0.8893  0.0506
  807MPD2    N111945   4.729   0.885   0.950 -0.2943  0.5822  0.9861
  807MPD2    H711946   4.708   0.905   1.047 -1.2462  0.2009  0.8498
  808MPD2     C11947   0.702   2.153  10.504  0.1859  0.2668  0.3627
  808MPD2    C111948   0.633   2.205  10.399 -0.1731  1.0118  0.5393
  808MPD2    C211949   0.664   2.327  10.344 -0.4793  0.5348 -0.0230
  808MPD2    C311950   0.776   2.399  10.392  0.0741  0.3264  0.4106
  808MPD2    C411951   0.845   2.349  10.498  0.5799  0.6947  0.0708
  808MPD2    C511952   0.804   2.229  10.555 -0.1615 -0.8702  0.8106
  808MPD2     H11953   0.593   2.369  10.274 -1.7962 -0.6849  0.5514
  808MPD2    H111954   0.931   2.402  10.537  1.3262 -0.9580  0.6228
  808MPD2    H211955   0.687   2.052  10.541  1.1343 -0.1149 -0.3124
  808MPD2    H311956   0.867   2.187  10.633  0.0689 -1.0042  0.5529
  808MPD2     N11957   0.822   2.521  10.330 -0.0380 -0.4463 -0.2288
  808MPD2    H511958   0.901   2.570  10.370 -1.1060  1.0808  0.0103
  808MPD2    N111959   0.521   2.130  10.334 -0.2326 -0.1796  0.5484
  808MPD2    H711960   0.456   2.191  10.286  0.3713  0.3461  0.3845
  809MPD2     C11961   1.052   2.331   9.453 -0.7619 -0.0322 -0.2534
  809MPD2    C111962   1.147   2.351   9.548  0.6030  0.6053  0.0027
  809MPD2    C211963   1.118   2.429   9.651 -0.3230  0.1859  0.4622
  809MPD2    C311964   0.993   2.491   9.658  0.1984 -0.5180 -0.4917
  809MPD2    C411965   0.902   2.473   9.564  0.1177 -0.2439 -0.0443
  809MPD2    C511966   0.931   2.388   9.463 -0.4648 -0.1581  0.5655
  809MPD2     H11967   1.192   2.438   9.729  0.0942 -3.0416  0.4236
  809MPD2    H111968   0.803   2.515   9.572  0.3505  0.1560  0.7098
  809MPD2    H211969   1.078   2.281   9.360 -0.7582  2.8090 -1.7575
  809MPD2    H311970   0.856   2.379   9.385  0.7631 -0.1903 -0.6144
  809MPD2     N11971   0.963   2.585   9.759  0.0687  0.3909  0.9511
  809MPD2    H511972   0.865   2.606   9.771  0.2034  0.8685  1.2402
  809MPD2    N111973   1.275   2.289   9.540 -0.0773  0.3691 -0.0508
  809MPD2    H711974   1.344   2.306   9.613 -1.3833 -0.7548  1.4290
  810MPD2     C11975   0.445   1.726  10.681 -0.3045 -0.6690 -0.4618
  810MPD2    C111976   0.332   1.775  10.619 -0.9395 -0.1711 -0.3382
  810MPD2    C211977   0.297   1.900  10.646  0.4799 -0.5719 -0.5059
  810MPD2    C311978   0.386   1.991  10.703 -0.2037  0.8073 -0.0393
  810MPD2    C411979   0.512   1.950  10.744  0.2218  0.5419 -0.0850
  810MPD2    C511980   0.537   1.817  10.729 -0.4146 -0.0379  0.7128
  810MPD2     H11981   0.195   1.929  10.621 -0.3381 -1.3257  2.0445
  810MPD2    H111982   0.592   2.021  10.763  1.6270 -0.8979 -0.5457
  810MPD2    H211983   0.474   1.622  10.669  1.7058 -0.0092 -1.3358
  810MPD2    H311984   0.636   1.775  10.738 -1.0993 -1.1182  3.1988
  810MPD2     N11985   0.371   2.134  10.688  0.3630  0.2844  0.2163
  810MPD2    H511986   0.441   2.191  10.734  1.2845  1.7295 -2.9856
  810MPD2    N111987   0.266   1.680  10.538  0.2145 -0.4101  0.2191
  810MPD2    H711988   0.301   1.587  10.521 -1.6471 -1.1799  0.5895
  811MPD2     C11989   4.453   1.774   9.885  0.5481 -0.3190  0.5369
  811MPD2    C111990   4.560   1.808   9.962 -0.3263  0.1732 -0.7157
  811MPD2    C211991   4.599   1.940   9.959 -0.6863 -0.2127 -0.0234
  811MPD2    C311992   4.530   2.043   9.893 -0.4123 -0.4367 -0.5506
  811MPD2    C411993   4.425   1.997   9.815  0.3171 -0.0813  0.1076
  811MPD2    C511994   4.392   1.863   9.810 -0.3067  0.0626  0.2781
  811MPD2     H11995   4.681   1.970  10.023 -2.1985 -0.6140  2.0978
  811MPD2    H111996   4.370   2.069   9.754  1.4786  0.7985  0.0961
  811MPD2    H211997   4.418   1.672   9.891 -0.2592 -0.1693 -1.7727
  811MPD2    H311998   4.303   1.831   9.757 -0.6482  1.7275 -0.1646
  811MPD2     N11999   4.560   2.181   9.908  0.7833 -0.8050 -0.3144
  811MPD2    H512000   4.644   2.195   9.961  0.9170 -0.5796 -0.5866
  811MPD2    N112001   4.632   1.724  10.056  0.3149 -0.5721 -0.2499
  811MPD2    H712002   4.694   1.776  10.117  0.3236 -0.3391 -0.4582
  812MPD2     C12003   3.812   1.114  12.059 -0.2603  0.3075  0.1351
  812MPD2    C112004   3.873   1.219  12.123  0.7901  0.7251  0.2847
  812MPD2    C212005   3.837   1.237  12.257 -0.7357 -0.5531 -0.0868
  812MPD2    C312006   3.735   1.165  12.324  0.6536 -0.7119 -0.4661
  812MPD2    C412007   3.675   1.063  12.250  0.3252  0.3010 -0.0855
  812MPD2    C512008   3.717   1.040  12.123  0.0384  0.2161  0.7261
  812MPD2     H12009   3.884   1.319  12.310 -0.3242 -0.0206 -1.2872
  812MPD2    H112010   3.590   1.001  12.276 -0.1130  1.2388  0.7266
  812MPD2    H212011   3.847   1.089  11.959  0.0751 -0.9068  0.5527
  812MPD2    H312012   3.652   0.977  12.063  0.0292  0.1508  0.8045
  812MPD2     N12013   3.689   1.200  12.448  0.3321  0.0688  0.0213
  812MPD2    H512014   3.737   1.273  12.500 -0.5335  0.0994  0.7778
  812MPD2    N112015   3.962   1.303  12.051 -0.2738 -0.0079 -0.6839
  812MPD2    H712016   3.950   1.291  11.951 -3.1280  0.9700 -0.4570
  813MPD2     C12017   3.125   3.098  12.684  0.2294  0.3087 -0.2005
  813MPD2    C112018   3.155   3.229  12.694  0.3837  0.3421  0.3959
  813MPD2    C212019   3.104   3.296  12.802  0.4630 -0.2230 -0.2772
  813MPD2    C312020   3.036   3.227  12.905 -0.6841 -0.0386  0.3551
  813MPD2    C412021   2.997   3.095  12.889 -0.0258 -0.1341 -0.0483
  813MPD2    C512022   3.047   3.031  12.778 -1.0180 -0.4104  1.0640
  813MPD2     H12023   3.138   3.397  12.823 -0.8425  0.3178 -0.8518
  813MPD2    H112024   2.942   3.038  12.963  0.7303 -0.0396  0.5859
  813MPD2    H212025   3.167   3.038  12.604 -0.2266 -0.7731  0.3558
  813MPD2    H312026   3.024   2.925  12.766  0.5124 -0.4870 -1.1078
  813MPD2     N12027   2.988   3.293  13.018 -0.3857  0.1508 -0.2010
  813MPD2    H512028   3.013   3.390  13.033 -1.2972  0.1737  1.2248
  813MPD2    N112029   3.225   3.296  12.600  0.2289  0.1860 -0.3982
  813MPD2    H712030   3.255   3.389  12.627  2.2260 -0.1266 -1.5238
  814MPD2     C12031   3.382   4.577  12.289  0.2618  0.0381  0.1473
  814MPD2    C112032   3.440   4.642  12.184  0.1487  0.1428  0.3102
  814MPD2    C212033   3.531   0.004  12.218 -0.1236  0.1088 -0.3042
  814MPD2    C312034   3.553   0.027  12.357  0.3685 -0.1982 -0.1839
  814MPD2    C412035   3.511   4.685  12.456 -0.2163 -0.0549  0.1009
  814MPD2    C512036   3.417   4.589  12.423 -0.3751  0.1389  0.0197
  814MPD2     H12037   3.584   0.048  12.135 -0.1825  0.0088 -0.3941
  814MPD2    H112038   3.538   4.705  12.559 -0.9177 -0.0307  0.2783
  814MPD2    H212039   3.301   4.506  12.277 -1.2824  1.7363  0.3461
  814MPD2    H312040   3.370   4.525  12.496  1.1969 -0.5287  0.4405
  814MPD2     N12041   3.640   0.131  12.401 -0.3659 -0.0611 -0.2638
  814MPD2    H512042   3.666   0.125  12.498 -1.2908 -1.6513 -0.1165
  814MPD2    N112043   3.423   4.614  12.047 -0.6579  0.3682 -0.0116
  814MPD2    H712044   3.498   4.644  11.986  0.1012  0.3352  0.9061
  815MPD2     C12045   4.119   3.294  11.789  1.0768  0.0269 -0.0806
  815MPD2    C112046   4.089   3.168  11.759 -0.5411 -0.4970 -0.2531
  815MPD2    C212047   3.986   3.108  11.823  0.1361 -0.4105 -0.4387
  815MPD2    C312048   3.918   3.167  11.933  0.4825 -0.1798 -0.2586
  815MPD2    C412049   3.949   3.304  11.961  0.2436  0.2721  0.5908
  815MPD2    C512050   4.045   3.365  11.888 -0.0503 -0.2918  0.6670
  815MPD2     H12051   3.954   3.014  11.781 -1.7405  0.0953 -0.1498
  815MPD2    H112052   3.882   3.364  12.022 -0.7963  0.8631 -1.1421
  815MPD2    H212053   4.179   3.357  11.724 -0.9331  0.7916 -1.2171
  815MPD2    H312054   4.048   3.473  11.881  0.7219 -0.5047 -2.4212
  815MPD2     N12055   3.813   3.100  11.994 -0.1678  0.0103 -0.2954
  815MPD2    H512056   3.788   3.007  11.964 -0.4770  0.5032 -1.5721
  815MPD2    N112057   4.173   3.108  11.661  0.2722 -0.2433 -0.4214
  815MPD2    H712058   4.244   3.168  11.622 -1.3551  0.1699 -2.7578
  816MPD2     C12059   3.553   2.590  17.213 -0.1408  0.2579 -0.0974
  816MPD2    C112060   3.568   2.643  17.085 -0.0241 -0.0702 -0.0274
  816MPD2    C212061   3.689   2.637  17.022  0.0004 -0.4464  0.6396
  816MPD2    C312062   3.804   2.585  17.086 -0.1270 -0.0828  0.0431
  816MPD2    C412063   3.790   2.544  17.217  0.3210 -0.7185  0.0792
  816MPD2    C512064   3.667   2.548  17.277 -0.5987  0.2279 -0.0664
  816MPD2     H12065   3.698   2.669  16.918  3.0665 -0.7980  0.7968
  816MPD2    H112066   3.875   2.503  17.270 -0.6129  0.2249  2.2960
  816MPD2    H212067   3.458   2.593  17.266  0.4535  3.3104  0.8023
  816MPD2    H312068   3.670   2.525  17.383 -0.1122  0.6046  0.0023
  816MPD2     N12069   3.930   2.576  17.017  0.1067  0.7899  0.2658
  816MPD2    H512070   3.928   2.596  16.917  0.3380 -1.8855 -0.2528
  816MPD2    N112071   3.452   2.691  17.015  0.5908  0.2685 -0.0420
  816MPD2    H712072   3.363   2.703  17.062  0.0935  0.7804 -1.1185
  817MPD2     C12073   3.537   4.287   9.354 -0.0569  0.0406  0.0407
  817MPD2    C112074   3.452   4.181   9.359  0.9621 -0.2844 -0.2847
  817MPD2    C212075   3.324   4.201   9.306  0.6352 -0.2053  0.1482
  817MPD2    C312076   3.285   4.324   9.254 -0.0514  0.8499  0.3468
  817MPD2    C412077   3.369   4.427   9.266 -0.0567 -0.5989  0.1409
  817MPD2    C512078   3.491   4.412   9.319  0.3268  0.4190  0.6072
  817MPD2     H12079   3.260   4.114   9.303 -0.9081  0.8989  1.1054
  817MPD2    H112080   3.347   4.528   9.234  0.9151 -0.7639 -1.0142
  817MPD2    H212081   3.639   4.276   9.388 -0.5398 -0.5830  1.2796
  817MPD2    H312082   3.563   4.493   9.322  2.6057 -1.5790  0.0622
  817MPD2     N12083   3.152   4.339   9.210  0.1301  0.5344 -0.0423
  817MPD2    H512084   3.098   4.257   9.186  1.3767 -0.6888  1.3265
  817MPD2    N112085   3.492   4.055   9.416  0.3715  0.2541  0.0068
  817MPD2    H712086   3.432   3.975   9.401 -0.3728  0.8132 -0.0045
  818MPD2     C12087   2.697   4.191  10.095 -0.0925  0.6068 -0.2779
  818MPD2    C112088   2.638   4.117  10.194  0.3459  0.2016 -0.0914
  818MPD2    C212089   2.660   3.978  10.199 -0.1774  0.1613  0.5823
  818MPD2    C312090   2.734   3.921  10.100  0.6062 -0.0849 -0.1836
  818MPD2    C412091   2.788   3.995   9.998 -0.1958  0.4024  0.2463
  818MPD2    C512092   2.766   4.129   9.992  0.4300  0.1377  0.6630
  818MPD2     H12093   2.594   3.929  10.270  1.1389 -1.1902  0.8607
  818MPD2    H112094   2.844   3.942   9.922 -1.7563 -2.0176  0.7597
  818MPD2    H212095   2.698   4.299  10.092 -3.4324  0.6538  0.5719
  818MPD2    H312096   2.812   4.183   9.911 -1.1152  0.0172 -0.2828
  818MPD2     N12097   2.752   3.778  10.095 -0.6507  0.0268  0.3349
  818MPD2    H512098   2.798   3.735  10.015  0.2657  0.6847  0.5155
  818MPD2    N112099   2.552   4.172  10.293 -0.2261 -0.6755 -0.2178
  818MPD2    H712100   2.517   4.110  10.366  1.8709 -1.5209  0.0435
  819MPD2     C12101   0.427   0.808  16.047  0.0883  0.0775  0.6351
  819MPD2    C112102   0.453   0.739  15.931 -0.7897 -0.3382  0.5730
  819MPD2    C212103   0.514   0.615  15.937  0.5584  0.3892  0.1400
  819MPD2    C312104   0.556   0.558  16.060 -0.1866  0.2872 -0.1599
  819MPD2    C412105   0.534   0.630  16.169 -0.2536 -0.0845  0.4445
  819MPD2    C512106   0.467   0.753  16.168  0.2469  0.3594  0.6552
  819MPD2     H12107   0.535   0.557  15.848  0.4504  1.8525 -0.8253
  819MPD2    H112108   0.564   0.601  16.269  3.4271  0.5329 -0.4714
  819MPD2    H212109   0.372   0.901  16.059 -1.7113 -0.9820  0.5670
  819MPD2    H312110   0.434   0.813  16.252 -0.3197 -1.2924  1.6213
  819MPD2     N12111   0.614   0.428  16.063  0.5761  0.6637  0.3067
  819MPD2    H512112   0.644   0.376  15.981 -0.8651 -1.0649  0.8791
  819MPD2    N112113   0.406   0.770  15.801  0.1152  0.2980  0.9749
  819MPD2    H712114   0.401   0.702  15.726  1.6389  0.6643  0.5498
  820MPD2     C12115   0.318   0.521  14.881 -0.6850 -1.1737 -0.0359
  820MPD2    C112116   0.212   0.507  14.957  0.0920 -0.4832 -0.6434
  820MPD2    C212117   0.216   0.541  15.087  0.0437  0.0617 -0.1318
  820MPD2    C312118   0.329   0.604  15.133 -0.3844 -0.5668 -0.0351
  820MPD2    C412119   0.432   0.639  15.048  0.2607 -0.5007 -0.3459
  820MPD2    C512120   0.429   0.591  14.921  0.3726 -0.0774  0.0901
  820MPD2     H12121   0.129   0.532  15.151  0.2682  1.2966  0.3432
  820MPD2    H112122   0.511   0.708  15.076  1.4395 -1.6485 -0.8713
  820MPD2    H212123   0.301   0.503  14.776  0.8527  2.6091 -0.9320
  820MPD2    H312124   0.507   0.621  14.852  0.6901 -1.0397  0.0408
  820MPD2     N12125   0.310   0.645  15.264 -0.1541 -0.6019  0.1455
  820MPD2    H512126   0.230   0.608  15.314  1.1787 -1.5234  1.6164
  820MPD2    N112127   0.088   0.495  14.898 -0.5524 -0.1684  0.3016
  820MPD2    H712128   0.088   0.522  14.800  0.8716 -2.4100 -0.3269
  821MPD2     C12129   0.549   1.991  13.348 -0.0477  0.1495 -0.0116
  821MPD2    C112130   0.649   1.940  13.434  0.6704 -1.1661 -0.0577
  821MPD2    C212131   0.779   1.933  13.395 -0.1625 -0.2469  0.4860
  821MPD2    C312132   0.822   1.981  13.274  0.0433  0.5035  0.1857
  821MPD2    C412133   0.727   2.043  13.196 -0.6438  0.6034  0.8994
  821MPD2    C512134   0.595   2.053  13.232 -0.1559  0.4518 -0.0137
  821MPD2     H12135   0.845   1.888  13.468  0.8820 -1.4505 -1.2195
  821MPD2    H112136   0.752   2.075  13.096 -1.2221  2.7146  1.4188
  821MPD2    H212137   0.441   1.987  13.357 -0.1171  1.8589 -0.0282
  821MPD2    H312138   0.518   2.091  13.166 -1.3503  0.6962  1.5360
  821MPD2     N12139   0.958   1.975  13.229  0.0320  0.2296  0.5596
  821MPD2    H512140   0.976   2.050  13.162  2.6776 -1.6148 -0.7835
  821MPD2    N112141   0.610   1.878  13.557 -0.2470 -0.3558 -0.0917
  821MPD2    H712142   0.680   1.832  13.614  0.6647 -1.5363 -2.1512
  822MPD2     C12143   1.462   2.090  15.822  0.2430  0.6170  0.0706
  822MPD2    C112144   1.392   2.056  15.938 -0.1288  0.4513  0.2614
  822MPD2    C212145   1.271   2.127  15.964 -0.1471  0.0074  0.7426
  822MPD2    C312146   1.234   2.233  15.890 -0.4850 -0.4144 -1.2125
  822MPD2    C412147   1.317   2.278  15.787  0.3830 -0.1558  0.0796
  822MPD2    C512148   1.421   2.201  15.752  0.9416  0.3920 -0.3863
  822MPD2     H12149   1.206   2.100  16.046  0.4925  0.1388  1.2903
  822MPD2    H112150   1.285   2.364  15.729  0.9368  0.5368  0.8061
  822MPD2    H212151   1.549   2.038  15.784 -1.6028 -1.5776 -1.1328
  822MPD2    H312152   1.498   2.233  15.683  0.1924 -0.5330 -1.6454
  822MPD2     N12153   1.125   2.308  15.938 -0.2903  0.4599 -0.0088
  822MPD2    H512154   1.061   2.270  16.008  0.0073  0.0556  0.0412
  822MPD2    N112155   1.444   1.960  16.036  0.0103  0.0881 -0.5242
  822MPD2    H712156   1.398   1.967  16.126 -0.1102 -3.2444 -0.3034
  823MPD2     C12157   0.616   2.525  16.571  0.0072  0.5655  0.2533
  823MPD2    C112158   0.720   2.457  16.505  0.2136 -0.4062 -0.1835
  823MPD2    C212159   0.794   2.366  16.581  0.3898 -0.2893 -0.2050
  823MPD2    C312160   0.758   2.337  16.717  0.1028 -0.1135 -0.1234
  823MPD2    C412161   0.653   2.400  16.768 -0.1314  0.0308 -0.2755
  823MPD2    C512162   0.597   2.503  16.704 -0.1007  0.3620 -0.4113
  823MPD2     H12163   0.877   2.311  16.538 -0.3817 -1.0335 -0.7401
  823MPD2    H112164   0.620   2.382  16.870 -0.6045 -0.0851 -0.4499
  823MPD2    H212165   0.558   2.599  16.518 -0.8048 -1.4330 -1.6717
  823MPD2    H312166   0.531   2.568  16.760 -1.1378 -0.5134 -0.6019
  823MPD2     N12167   0.829   2.251  16.797  0.1592  0.1843  0.6910
  823MPD2    H512168   0.779   2.219  16.879  1.7891 -1.3358  1.1202
  823MPD2    N112169   0.734   2.481  16.370 -0.1767  0.3550 -0.1465
  823MPD2    H712170   0.680   2.557  16.329 -0.2956  0.3963  0.0833
  824MPD2     C12171   2.178   1.494  16.176 -0.3601 -0.2960  0.8143
  824MPD2    C112172   2.119   1.584  16.088  0.1798  0.2030  0.0764
  824MPD2    C212173   2.183   1.599  15.968 -0.3632  0.2976  0.7086
  824MPD2    C312174   2.300   1.534  15.939 -0.5442  0.0299 -0.7207
  824MPD2    C412175   2.350   1.436  16.019 -0.5205 -0.7257  0.1446
  824MPD2    C512176   2.294   1.427  16.141 -0.8475 -0.6953 -0.6056
  824MPD2     H12177   2.134   1.669  15.900 -0.8054 -1.1088 -0.4103
  824MPD2    H112178   2.444   1.388  15.994 -0.0382 -1.3237  3.0802
  824MPD2    H212179   2.144   1.481  16.278  2.1308 -1.6347  1.4751
  824MPD2    H312180   2.344   1.363  16.214  3.3279  2.6378 -0.5334
  824MPD2     N12181   2.363   1.559  15.813 -0.3801 -0.3152  0.2959
  824MPD2    H512182   2.347   1.645  15.762  3.6308  0.8602  1.0586
  824MPD2    N112183   2.002   1.656  16.119  0.4544 -0.0504  0.5801
  824MPD2    H712184   1.979   1.735  16.060 -1.8081  0.2288  1.8435
  825MPD2     C12185   2.841   2.045  15.296  0.3136  0.1374 -0.1585
  825MPD2    C112186   2.747   2.027  15.392  0.1982 -0.5042  0.2649
  825MPD2    C212187   2.667   2.135  15.418 -0.1162 -0.4081  0.4865
  825MPD2    C312188   2.696   2.261  15.367 -0.6148  0.2432 -0.3267
  825MPD2    C412189   2.800   2.271  15.274 -0.0929 -0.3450 -0.5947
  825MPD2    C512190   2.858   2.161  15.229 -0.7500  0.4716  0.0601
  825MPD2     H12191   2.587   2.125  15.491 -1.2649  2.6307 -0.3495
  825MPD2    H112192   2.824   2.364  15.224 -0.2237  0.3727  0.6912
  825MPD2    H212193   2.889   1.956  15.259  3.0019  1.1780  0.8196
  825MPD2    H312194   2.937   2.165  15.155 -0.4098 -1.1232  0.3425
  825MPD2     N12195   2.628   2.376  15.402  0.2137 -0.0529  0.6497
  825MPD2    H512196   2.656   2.461  15.354  1.1466 -1.4912 -1.3889
  825MPD2    N112197   2.723   1.895  15.422 -0.0038 -0.3252  0.0410
  825MPD2    H712198   2.767   1.822  15.366  1.7131  1.6636 -1.1887
  826MPD2     C12199   2.009   1.060  13.907 -0.0945  0.0363 -0.9010
  826MPD2    C112200   2.002   1.040  13.769 -0.6627  0.4362 -0.1206
  826MPD2    C212201   1.944   1.134  13.689  0.3458  0.6364  0.5512
  826MPD2    C312202   1.878   1.241  13.748  0.2291 -0.1219 -0.0456
  826MPD2    C412203   1.868   1.249  13.885 -0.3965  0.9410  0.3045
  826MPD2    C512204   1.927   1.155  13.964 -0.9622 -0.3055  0.3652
  826MPD2     H12205   1.961   1.130  13.582  0.1612 -0.2438  0.5588
  826MPD2    H112206   1.827   1.331  13.941  0.1889  0.9196  0.7651
  826MPD2    H212207   2.059   0.992  13.975  1.6463  2.5177  0.3028
  826MPD2    H312208   1.928   1.171  14.071  2.1239 -2.6299  0.7016
  826MPD2     N12209   1.830   1.362  13.682  0.1849 -0.0111  0.1624
  826MPD2    H512210   1.782   1.437  13.731  0.3729  0.2431 -0.0441
  826MPD2    N112211   2.069   0.923  13.717 -0.2380 -0.1139 -0.0112
  826MPD2    H712212   2.133   0.885  13.786  0.9912 -0.5818 -1.4059
  827MPD2     C12213   3.156   3.079  10.202 -0.1072 -0.4240  0.0332
  827MPD2    C112214   3.150   2.940  10.212  0.2527  0.0369  1.3459
  827MPD2    C212215   3.051   2.871  10.150  0.4914 -0.0109 -0.2407
  827MPD2    C312216   2.965   2.935  10.059  1.0969  0.2513 -0.1027
  827MPD2    C412217   2.979   3.069  10.038 -0.0082 -0.8357  0.6694
  827MPD2    C512218   3.068   3.145  10.115 -0.3969  0.9513  0.8176
  827MPD2     H12219   3.032   2.765  10.144  0.4657  0.0193 -0.6871
  827MPD2    H112220   2.919   3.129   9.971  0.4355 -1.6506 -0.4424
  827MPD2    H212221   3.230   3.133  10.261 -0.5347 -0.2024  0.3667
  827MPD2    H312222   3.080   3.252  10.109  1.1547  0.6675 -1.4540
  827MPD2     N12223   2.875   2.852   9.997  0.8150  0.6550  0.1022
  827MPD2    H512224   2.866   2.758  10.034 -0.9740  0.3927 -1.0198
  827MPD2    N112225   3.252   2.883  10.289  0.1048  0.6953 -0.6194
  827MPD2    H712226   3.318   2.943  10.338  0.7832  0.5197 -1.3175
  828MPD2     C12227   1.265   2.069  12.911  1.1313 -0.6976 -0.4392
  828MPD2    C112228   1.227   2.182  12.852  0.3852 -0.0681  0.0179
  828MPD2    C212229   1.312   2.250  12.765  0.4622 -0.1668  0.4239
  828MPD2    C312230   1.435   2.201  12.727 -0.1977 -0.6066  0.0579
  828MPD2    C412231   1.477   2.085  12.789  0.4753 -0.5259  0.9863
  828MPD2    C512232   1.394   2.021  12.880 -0.3162  0.0055 -0.7693
  828MPD2     H12233   1.276   2.344  12.723  1.1510 -0.4454 -0.7927
  828MPD2    H112234   1.571   2.034  12.769  0.3046 -0.6559  0.5190
  828MPD2    H212235   1.204   2.007  12.975  0.8729  0.3671  0.3292
  828MPD2    H312236   1.420   1.920  12.908 -0.0595 -0.0219 -1.0964
  828MPD2     N12237   1.521   2.269  12.640  0.1747  0.4060  0.3603
  828MPD2    H512238   1.605   2.220  12.613  0.6392  1.9136 -0.9406
  828MPD2    N112239   1.103   2.246  12.861 -0.0270  0.8313  0.6314
  828MPD2    H712240   1.081   2.326  12.803  1.2375  1.0271  0.4317
  829MPD2     C12241   0.814   2.644  12.151  0.2716 -0.6794 -0.0938
  829MPD2    C112242   0.699   2.625  12.214 -0.0945  0.3122 -0.4094
  829MPD2    C212243   0.704   2.598  12.350 -0.0392 -0.8442 -0.0683
  829MPD2    C312244   0.822   2.567  12.417  0.2042 -0.3891  1.0218
  829MPD2    C412245   0.939   2.597  12.352 -0.6184 -0.1244 -0.2869
  829MPD2    C512246   0.929   2.643  12.223 -0.0951  0.1243  0.1861
  829MPD2     H12247   0.613   2.574  12.403  0.5357 -3.4772 -0.2652
  829MPD2    H112248   1.035   2.599  12.403 -0.3983 -0.3189 -0.6957
  829MPD2    H212249   0.817   2.668  12.046  0.8028  0.0736  0.0915
  829MPD2    H312250   1.023   2.680  12.184 -0.8865  0.9336 -0.9282
  829MPD2     N12251   0.831   2.516  12.549 -0.2927  0.8512  0.3341
  829MPD2    H512252   0.924   2.497  12.585 -0.2673 -1.6406 -1.0141
  829MPD2    N112253   0.576   2.634  12.136  0.1218  0.0506  0.4766
  829MPD2    H712254   0.596   2.628  12.036 -0.4655  0.7755  0.3151
  830MPD2     C12255   1.075   0.190  15.599 -0.2487  0.8481 -0.2778
  830MPD2    C112256   1.107   0.280  15.701 -0.2268  0.8331  0.3417
  830MPD2    C212257   1.196   0.385  15.670  0.0747  0.2386 -0.2765
  830MPD2    C312258   1.237   0.410  15.539 -0.1833  0.4025 -0.0691
  830MPD2    C412259   1.195   0.326  15.443  0.3380  0.4025 -0.0392
  830MPD2    C512260   1.122   0.216  15.475  0.1182  0.0665  0.0896
  830MPD2     H12261   1.216   0.459  15.747 -1.2063  1.1202 -0.7682
  830MPD2    H112262   1.230   0.345  15.342 -2.3926  0.8740 -0.9245
  830MPD2    H212263   1.017   0.101  15.620  0.8169  0.2712  0.2405
  830MPD2    H312264   1.105   0.137  15.402  0.3088  0.8277 -0.7807
  830MPD2     N12265   1.313   0.522  15.497 -0.1589 -0.5935  0.1069
  830MPD2    H512266   1.306   0.541  15.397  2.7652 -0.6620 -0.1131
  830MPD2    N112267   1.049   0.273  15.837  1.0440 -0.4310 -0.0592
  830MPD2    H712268   1.092   0.333  15.906  1.9870 -0.4140 -0.6592
  831MPD2     C12269   1.275   2.572  16.320 -0.0349  0.3901 -0.1345
  831MPD2    C112270   1.324   2.466  16.247  0.2773  0.2903 -0.9234
  831MPD2    C212271   1.295   2.338  16.280  0.1175  0.3752  0.0796
  831MPD2    C312272   1.196   2.306  16.367  0.2462  0.2939 -0.2498
  831MPD2    C412273   1.133   2.412  16.429  0.5590 -0.8266  0.5196
  831MPD2    C512274   1.181   2.539  16.413  0.0196 -0.3260  0.2060
  831MPD2     H12275   1.323   2.259  16.210  0.7874  0.7171 -0.0288
  831MPD2    H112276   1.062   2.402  16.510 -0.4701 -1.2090 -0.4306
  831MPD2    H212277   1.293   2.678  16.303  0.8831  0.3481  0.6389
  831MPD2    H312278   1.141   2.621  16.471 -0.5592 -0.6645  0.2929
  831MPD2     N12279   1.140   2.175  16.390  0.2980  0.2181  0.1218
  831MPD2    H512280   1.055   2.175  16.445  0.5404  3.1170  0.4974
  831MPD2    N112281   1.423   2.494  16.147 -0.5385 -0.2522  0.1560
  831MPD2    H712282   1.412   2.583  16.099 -0.5471 -0.2604  0.1431
  832MPD2     C12283   4.489   3.557  17.153  0.3003  0.6510 -0.1533
  832MPD2    C112284   4.413   3.669  17.171 -0.0246 -0.3612  0.2471
  832MPD2    C212285   4.289   3.690  17.120  0.6420 -0.0553  0.6823
  832MPD2    C312286   4.252   3.611  17.019 -0.1746  0.1185  0.1466
  832MPD2    C412287   4.326   3.494  16.997 -0.1209 -0.3545 -0.1566
  832MPD2    C512288   4.447   3.466  17.062 -0.5864  0.1667  0.4142
  832MPD2     H12289   4.241   3.787  17.126 -2.0823 -1.4207  0.7649
  832MPD2    H112290   4.285   3.424  16.925  0.2163 -1.5505  0.8305
  832MPD2    H212291   4.584   3.535  17.199 -1.2624  0.5512  3.0462
  832MPD2    H312292   4.503   3.374  17.059 -0.8435 -0.0568  2.0651
  832MPD2     N12293   4.143   3.636  16.928 -0.0258  0.5477  0.0021
  832MPD2    H512294   4.114   3.554  16.874 -0.7546  0.0253  1.1727
  832MPD2    N112295   4.457   3.781  17.252 -0.4166  0.1979  0.4968
  832MPD2    H712296   4.392   3.858  17.266 -0.4747 -0.0194  1.4730
  833MPD2     C12297   1.683   0.169  12.867 -0.6262  0.5217  0.8001
  833MPD2    C112298   1.727   0.250  12.765  0.5774  0.0397  0.7146
  833MPD2    C212299   1.841   0.214  12.707  0.3583 -0.2971 -0.1024
  833MPD2    C312300   1.929   0.121  12.756 -0.2432  0.5002  0.4035
  833MPD2    C412301   1.889   0.048  12.863  0.2742  0.4716  0.9336
  833MPD2    C512302   1.767   0.070  12.920 -0.2961  0.0416  0.6218
  833MPD2     H12303   1.858   0.258  12.610  2.6940 -0.8373  0.0517
  833MPD2    H112304   1.957   4.726  12.921  1.5121  2.3115  1.3986
  833MPD2    H212305   1.586   0.181  12.916 -0.6981  0.1043  0.7638
  833MPD2    H312306   1.741   0.019  13.011 -0.5031 -0.3143  0.3617
  833MPD2     N12307   2.061   0.115  12.704 -0.1980 -0.4708  0.6421
  833MPD2    H512308   2.126   0.045  12.739 -1.1708 -2.6897 -2.0145
  833MPD2    N112309   1.633   0.338  12.713  0.0616 -0.5763  0.3144
  833MPD2    H712310   1.538   0.325  12.747  0.5172 -1.7218  1.1476
  834MPD2     C12311   2.436   4.434  11.905  0.3388 -0.0156 -0.1258
  834MPD2    C112312   2.353   4.537  11.882  0.4730  0.3951  1.0900
  834MPD2    C212313   2.334   4.642  11.974 -0.4651 -0.6493  0.1476
  834MPD2    C312314   2.393   4.634  12.100  0.6424 -0.5551  0.8037
  834MPD2    C412315   2.478   4.531  12.126 -0.1960 -0.3203  0.2272
  834MPD2    C512316   2.492   4.433  12.030 -0.0903  0.1330  0.0803
  834MPD2     H12317   2.265   4.723  11.950  0.5578 -0.0930 -0.9011
  834MPD2    H112318   2.527   4.521  12.222 -0.2738  2.1547  0.5118
  834MPD2    H212319   2.455   4.361  11.828 -3.3407 -0.3378 -0.7182
  834MPD2    H312320   2.562   4.352  12.051 -1.7085 -1.6847 -1.5187
  834MPD2     N12321   2.370   4.734  12.201 -0.2763  0.2478 -0.2209
  834MPD2    H512322   2.321   0.079  12.169 -0.7843 -0.2160 -0.6517
  834MPD2    N112323   2.287   4.525  11.759  0.3586 -0.2652  0.0462
  834MPD2    H712324   2.279   4.431  11.720  1.7826  0.6217 -2.3436
  835MPD2     C12325   1.796   3.271  11.086 -0.4543 -0.7685  0.4717
  835MPD2    C112326   1.687   3.190  11.119  0.2950  0.7338 -1.0291
  835MPD2    C212327   1.688   3.141  11.247 -0.1460  0.3946 -0.1675
  835MPD2    C312328   1.786   3.156  11.339  0.4953  0.6698  0.1883
  835MPD2    C412329   1.898   3.221  11.299 -1.2650 -0.9090 -0.1584
  835MPD2    C512330   1.896   3.283  11.177 -1.1895  0.3348 -0.4219
  835MPD2     H12331   1.598   3.087  11.273  0.3721 -0.3181  0.1238
  835MPD2    H112332   1.973   3.262  11.365 -1.4173  1.7834 -1.6373
  835MPD2    H212333   1.803   3.329  10.995 -2.0070  0.3268  1.0400
  835MPD2    H312334   1.966   3.359  11.147 -1.4456 -0.3812 -2.8440
  835MPD2     N12335   1.785   3.084  11.465  0.3929  0.0612  0.2193
  835MPD2    H512336   1.865   3.095  11.525 -0.2858  0.3646  1.0613
  835MPD2    N112337   1.587   3.160  11.021 -0.4877  0.0351 -0.4035
  835MPD2    H712338   1.522   3.085  11.044  0.6917 -0.2258  2.0924
  836MPD2     C12339   1.222   2.879  11.972  0.1886 -0.0293 -0.0853
  836MPD2    C112340   1.350   2.865  12.025  0.5529  0.3775  0.3591
  836MPD2    C212341   1.360   2.846  12.159 -0.3845  0.9754  0.0246
  836MPD2    C312342   1.260   2.874  12.246  0.2517  0.0372  0.7979
  836MPD2    C412343   1.136   2.901  12.195  0.0996  0.5924 -0.1623
  836MPD2    C512344   1.120   2.896  12.062 -0.3615 -0.0677 -0.6695
  836MPD2     H12345   1.460   2.833  12.201 -0.5692 -0.0936  0.1469
  836MPD2    H112346   1.054   2.906  12.265 -0.2523  3.1458 -0.7585
  836MPD2    H212347   1.215   2.888  11.865 -0.9954 -0.3345 -0.0398
  836MPD2    H312348   1.019   2.916  12.029 -0.3999  0.6150 -0.1353
  836MPD2     N12349   1.266   2.884  12.386 -0.5181 -0.2835 -0.1974
  836MPD2    H512350   1.180   2.887  12.440  0.5031 -0.2739  1.4196
  836MPD2    N112351   1.457   2.873  11.933 -0.2532  0.4135  0.4205
  836MPD2    H712352   1.427   2.898  11.839  0.7610 -0.2963 -0.0990
  837MPD2     C12353   0.380   2.721  10.060  0.4347  0.1709  0.2512
  837MPD2    C112354   0.268   2.776  10.013 -0.2732  0.1043 -0.7787
  837MPD2    C212355   0.257   2.910  10.019 -0.0085 -0.7303 -0.1469
  837MPD2    C312356   0.348   2.994  10.084  0.2400  0.2420  0.1267
  837MPD2    C412357   0.468   2.939  10.124 -0.2984 -1.1010 -0.8948
  837MPD2    C512358   0.480   2.796  10.118 -0.4465  0.3329  0.4056
  837MPD2     H12359   0.166   2.953   9.979 -1.0745 -1.6217  1.3148
  837MPD2    H112360   0.543   2.983  10.189 -0.2351 -1.4344 -0.7427
  837MPD2    H212361   0.401   2.616  10.047 -1.3121 -0.0847 -0.4814
  837MPD2    H312362   0.575   2.757  10.155 -0.0807  1.6592  0.8985
  837MPD2     N12363   0.307   3.126  10.098 -0.6455 -0.6280 -0.4563
  837MPD2    H512364   0.217   3.149  10.056 -1.1132 -0.9301  0.3967
  837MPD2    N112365   0.165   2.712   9.941 -0.2390  0.2176 -0.0543
  837MPD2    H712366   0.087   2.774   9.922 -0.6972 -0.6331 -1.0037
  838MPD2     C12367   3.586   0.682  12.144  0.5625 -0.0563 -0.2287
  838MPD2    C112368   3.493   0.595  12.090  0.1374  0.2763  0.3910
  838MPD2    C212369   3.432   0.507  12.169 -0.5034  0.3768  0.5514
  838MPD2    C312370   3.458   0.502  12.305  0.7135 -0.0914  0.6097
  838MPD2    C412371   3.549   0.585  12.362  0.6047  0.4087 -0.6719
  838MPD2    C512372   3.612   0.671  12.279  0.6058  0.6354 -0.5363
  838MPD2     H12373   3.356   0.442  12.129  0.4906  0.0579 -0.8356
  838MPD2    H112374   3.566   0.581  12.469 -1.2767 -0.9747 -0.4219
  838MPD2    H212375   3.653   0.742  12.084  0.7862  1.5020  1.5793
  838MPD2    H312376   3.706   0.714  12.312  0.5388 -0.6355  1.3046
  838MPD2     N12377   3.387   0.397  12.375  0.4048  0.4810 -0.2567
  838MPD2    H512378   3.324   0.347  12.313 -0.3632  1.1151 -0.0047
  838MPD2    N112379   3.460   0.595  11.954 -0.5869  0.0327  0.4782
  838MPD2    H712380   3.394   0.530  11.913  1.2436 -0.2885 -1.9884
  839MPD2     C12381   3.086   4.672  11.774  0.9566 -0.2939 -0.0281
  839MPD2    C112382   3.120   4.698  11.640 -0.3352  0.5672 -0.2262
  839MPD2    C212383   3.195   0.074  11.616  0.5272 -0.2788  0.3411
  839MPD2    C312384   3.254   0.151  11.722  0.7467  0.0353 -0.1449
  839MPD2    C412385   3.213   0.119  11.849  0.0555 -0.2863  0.1524
  839MPD2    C512386   3.135   0.010  11.878 -1.0391  0.3561  0.3392
  839MPD2     H12387   3.230   0.099  11.516 -1.1192  0.2749 -0.0948
  839MPD2    H112388   3.254   0.189  11.921 -0.5109 -1.9375  2.0605
  839MPD2    H212389   3.029   4.583  11.795 -0.2006  0.4994  0.2025
  839MPD2    H312390   3.107   4.726  11.980 -0.8829  0.1927  0.3453
  839MPD2     N12391   3.345   0.253  11.706  0.3149 -0.3962  0.0555
  839MPD2    H512392   3.372   0.305  11.788 -1.5194 -1.2305  1.1853
  839MPD2    N112393   3.068   4.632  11.532 -0.6930  0.0513 -0.3808
  839MPD2    H712394   3.104   4.650  11.438  0.8484 -0.2720  0.1383
  840MPD2     C12395   3.826   2.985  10.178 -0.4668 -0.1915  0.0123
  840MPD2    C112396   3.829   2.950  10.308 -0.0916  1.4801  0.4316
  840MPD2    C212397   3.872   3.035  10.406 -0.6782  0.2078  0.2607
  840MPD2    C312398   3.915   3.166  10.380 -0.5089 -0.0666 -0.2686
  840MPD2    C412399   3.907   3.202  10.244  0.0431  0.3512  0.0289
  840MPD2    C512400   3.862   3.112  10.148  0.4488 -0.2517 -0.1745
  840MPD2     H12401   3.890   2.991  10.504  1.3527 -1.4979 -0.8794
  840MPD2    H112402   3.930   3.305  10.222 -0.6204  1.0268  2.5507
  840MPD2    H212403   3.791   2.912  10.106  1.2250  0.0595 -1.0747
  840MPD2    H312404   3.864   3.153  10.048 -1.7023 -0.0995 -0.1614
  840MPD2     N12405   3.946   3.264  10.477 -0.4217  0.1820  0.3423
  840MPD2    H512406   3.954   3.362  10.454 -0.3921 -0.1528 -1.0904
  840MPD2    N112407   3.757   2.831  10.332  0.0797  0.5248 -0.0702
  840MPD2    H712408   3.716   2.795  10.246  1.4149 -0.5684 -0.2515
  841MPD2     C12409   2.663   2.982  14.605 -0.2749  0.7162 -0.3512
  841MPD2    C112410   2.732   2.864  14.586  0.4271 -0.2283  0.0128
  841MPD2    C212411   2.866   2.862  14.630  0.2331  0.5202 -0.5768
  841MPD2    C312412   2.935   2.973  14.665 -1.1496 -0.0895 -0.6350
  841MPD2    C412413   2.864   3.087  14.681  0.4910  0.1366 -0.1591
  841MPD2    C512414   2.733   3.090  14.649  0.1112  0.0855 -0.2569
  841MPD2     H12415   2.919   2.769  14.613  0.1804  0.4415 -0.3040
  841MPD2    H112416   2.906   3.183  14.709 -1.0317  0.1503  2.0630
  841MPD2    H212417   2.556   2.993  14.591 -0.6807  0.1783  2.3926
  841MPD2    H312418   2.677   3.181  14.668  1.7469  1.1453 -0.5202
  841MPD2     N12419   3.071   2.964  14.687  0.6837 -0.2784  0.6113
  841MPD2    H512420   3.112   2.873  14.702 -0.2356 -1.1011 -1.8394
  841MPD2    N112421   2.675   2.736  14.554  0.5296 -0.0684 -0.0002
  841MPD2    H712422   2.731   2.652  14.550 -2.0403 -1.6835 -1.7868
  842MPD2     C12423   2.801   3.872  16.444  1.0321  0.2668  0.7361
  842MPD2    C112424   2.908   3.939  16.489  0.2383 -0.0449  0.5801
  842MPD2    C212425   2.982   3.881  16.591 -0.5953  0.2939 -0.5533
  842MPD2    C312426   2.937   3.765  16.651  0.5534 -0.1487  0.0399
  842MPD2    C412427   2.824   3.698  16.609 -0.3434 -0.5128 -1.0131
  842MPD2    C512428   2.767   3.748  16.493  0.1035 -0.2963 -0.0139
  842MPD2     H12429   3.067   3.939  16.624  0.3761 -0.8036 -1.1014
  842MPD2    H112430   2.804   3.598  16.648 -0.5042 -0.5192 -1.1121
  842MPD2    H212431   2.753   3.911  16.355 -0.7835 -2.1237  0.6612
  842MPD2    H312432   2.678   3.699  16.458 -1.4951  1.1694  1.9647
  842MPD2     N12433   2.997   3.705  16.763  0.3640 -0.3015 -0.2614
  842MPD2    H512434   2.949   3.624  16.801  1.0591 -0.3268  0.5490
  842MPD2    N112435   2.946   4.062  16.425 -0.5653 -0.3411 -0.1379
  842MPD2    H712436   2.879   4.086  16.352  0.5769  1.6104 -0.5579
  843MPD2     C12437   0.608   3.968   0.071 -0.3371  0.4483  0.5102
  843MPD2    C112438   0.735   3.968   0.027  0.2150 -0.0021 -0.5446
  843MPD2    C212439   0.807   4.084   0.040 -0.2055 -0.1797  0.1865
  843MPD2    C312440   0.764   4.202   0.084 -0.6492 -1.2866 -0.2905
  843MPD2    C412441   0.635   4.201   0.122 -0.4020 -0.6174 -0.1359
  843MPD2    C512442   0.556   4.086   0.115  0.8275 -0.1170 -0.0613
  843MPD2     H12443   0.914   4.078   0.024 -0.4874 -0.7803 -1.5689
  843MPD2    H112444   0.584   4.295   0.140  2.3430  0.7099  0.7023
  843MPD2    H212445   0.559   3.873   0.052  0.4243  0.1519  0.0071
  843MPD2    H312446   0.449   4.093   0.130  1.3880  0.7763  3.6021
  843MPD2     N12447   0.841   4.319   0.098 -0.3952  0.0041 -0.2069
  843MPD2    H512448   0.785   4.397   0.132 -1.1654 -0.0009 -1.4686
  843MPD2    N112449   0.795   3.842  17.730  0.0666  0.1038 -0.2523
  843MPD2    H712450   0.740   3.757  17.727  0.2156 -0.0060  0.1999
  844MPD2     C12451   3.921   3.599  16.277  0.2062 -0.4350  1.3037
  844MPD2    C112452   4.015   3.503  16.310  0.2183  0.5635  0.0149
  844MPD2    C212453   4.117   3.540  16.388 -0.3676 -0.6893 -0.5763
  844MPD2    C312454   4.130   3.668  16.449  0.1328 -0.5323 -0.2368
  844MPD2    C412455   4.034   3.760  16.416  0.7077  0.1959  0.4200
  844MPD2    C512456   3.934   3.723  16.330  0.7567 -0.3272  0.1625
  844MPD2     H12457   4.202   3.472  16.393  0.3268  0.2575  0.4579
  844MPD2    H112458   4.043   3.863  16.450  0.1279  1.0295 -1.9992
  844MPD2    H212459   3.828   3.573  16.228  1.0126  1.0542 -1.0302
  844MPD2    H312460   3.868   3.806  16.304  1.3385  0.3555  0.8826
  844MPD2     N12461   4.242   3.695  16.534 -0.1786 -0.2504  0.7730
  844MPD2    H512462   4.296   3.619  16.575  0.0205 -1.2358 -1.3308
  844MPD2    N112463   4.013   3.377  16.242 -0.1002 -0.1380 -0.1519
  844MPD2    H712464   4.091   3.314  16.259  0.7755  1.5208  1.9281
  845MPD2     C12465   4.266   4.345  17.299 -0.7098  0.8933 -0.2913
  845MPD2    C112466   4.167   4.266  17.254  0.0170  0.6250 -0.0520
  845MPD2    C212467   4.186   4.170  17.155  0.2615  0.0873 -0.4744
  845MPD2    C312468   4.312   4.148  17.109  0.2659  0.1850  0.2835
  845MPD2    C412469   4.413   4.214  17.166 -0.5930  0.5867  0.0990
  845MPD2    C512470   4.397   4.314  17.264  1.1533  0.1190 -0.2013
  845MPD2     H12471   4.103   4.132  17.096 -2.2261  1.3993  2.1910
  845MPD2    H112472   4.514   4.207  17.127 -0.5026 -0.3918  0.5276
  845MPD2    H212473   4.263   4.423  17.374 -0.6406  0.5381  0.0786
  845MPD2    H312474   4.472   4.372  17.316 -0.6565 -0.4148  2.9910
  845MPD2     N12475   4.339   4.051  17.008 -0.2401  0.1828 -0.1033
  845MPD2    H512476   4.264   3.999  16.963 -0.3506  0.9236 -0.7572
  845MPD2    N112477   4.033   4.302  17.294 -1.2001 -0.5179  0.4371
  845MPD2    H712478   4.023   4.370  17.369 -0.3793  2.3611 -2.0836
  846MPD2     C12479   0.640   0.010  13.414 -1.0813  0.1891  0.3316
  846MPD2    C112480   0.759   4.706  13.474 -0.3372 -0.8025 -0.1474
  846MPD2    C212481   0.759   4.684  13.608  0.3499 -0.1383 -0.0520
  846MPD2    C312482   0.643   4.718  13.676 -0.8354 -0.7345  0.0729
  846MPD2    C412483   0.532   0.024  13.615 -0.2823 -0.7704  0.3916
  846MPD2    C512484   0.531   0.032  13.478  0.1213  0.1888  0.0550
  846MPD2     H12485   0.848   4.642  13.653 -0.3368  1.2461  2.6442
  846MPD2    H112486   0.439   0.037  13.669 -0.2800 -0.8988  0.4278
  846MPD2    H212487   0.629   0.045  13.312 -0.6291 -1.1660 -0.1881
  846MPD2    H312488   0.442   0.061  13.424 -0.4566 -1.9620 -0.1583
  846MPD2     N12489   0.635   4.699  13.816  0.1421  0.3280  0.4110
  846MPD2    H512490   0.547   4.730  13.855 -1.2857 -5.6834  2.0092
  846MPD2    N112491   0.885   4.678  13.406 -0.4029  0.1499 -0.0532
  846MPD2    H712492   0.965   4.664  13.466 -0.7355 -0.4419  0.2611
  847MPD2     C12493   1.005   0.295  14.964  0.2749  0.5165 -0.4152
  847MPD2    C112494   1.120   0.366  14.963 -0.8806 -0.1811 -0.0205
  847MPD2    C212495   1.233   0.311  15.020  0.0180 -0.1869  0.3214
  847MPD2    C312496   1.226   0.190  15.088  0.3458 -0.8199 -0.1337
  847MPD2    C412497   1.108   0.104  15.068 -0.0256 -0.4516  0.5553
  847MPD2    C512498   0.997   0.165  15.013 -0.0587  0.1870  0.3610
  847MPD2     H12499   1.324   0.370  15.020 -1.1270  1.5754  1.2571
  847MPD2    H112500   1.098   0.009  15.118  0.3100 -0.9080 -0.2301
  847MPD2    H212501   0.910   0.331  14.926 -0.5065 -1.9827 -0.8671
  847MPD2    H312502   0.903   0.111  15.005  0.7506 -1.2501  0.5293
  847MPD2     N12503   1.332   0.154  15.168  0.0484  0.5834 -0.0012
  847MPD2    H512504   1.405   0.225  15.177  1.6132 -0.9041 -1.0317
  847MPD2    N112505   1.133   0.499  14.907 -0.0714  0.1677  0.7372
  847MPD2    H712506   1.223   0.544  14.914 -0.0581 -0.3724  4.0938
  848MPD2     C12507   3.814   4.132  16.321 -0.5994 -0.3842  0.1826
  848MPD2    C112508   3.881   4.176  16.436  0.6420  0.4579  0.2609
  848MPD2    C212509   3.937   4.301  16.431 -0.1138 -0.3907  0.5047
  848MPD2    C312510   3.935   4.384  16.318 -0.1520  0.3857  0.7900
  848MPD2    C412511   3.869   4.340  16.207 -0.0483  0.1431  0.1400
  848MPD2    C512512   3.823   4.211  16.208 -0.3714 -0.0964  0.7148
  848MPD2     H12513   3.992   4.326  16.521  0.2976  3.6260 -0.8647
  848MPD2    H112514   3.847   4.401  16.120  0.4169  0.1978  0.0585
  848MPD2    H212515   3.779   4.030  16.308 -0.1470 -0.4659 -0.3769
  848MPD2    H312516   3.781   4.173  16.116  0.4438  0.2236  0.2126
  848MPD2     N12517   3.986   4.511  16.310  0.5000 -0.0039 -0.2933
  848MPD2    H512518   3.977   4.554  16.218  0.0658 -2.0096 -1.2009
  848MPD2    N112519   3.893   4.096  16.550 -1.0606 -0.1549  0.7383
  848MPD2    H712520   3.949   4.132  16.626  0.7697  0.7745 -1.0614
  849MPD2     C12521   3.250   3.493  13.538  0.0184 -0.2064  0.0849
  849MPD2    C112522   3.293   3.366  13.578  0.0211 -0.1328  0.0812
  849MPD2    C212523   3.294   3.337  13.712  0.8392  0.0782  0.6654
  849MPD2    C312524   3.263   3.431  13.807  0.3297  0.5865  0.2016
  849MPD2    C412525   3.228   3.557  13.763 -0.6203 -0.3221 -0.0576
  849MPD2    C512526   3.220   3.587  13.632 -0.6244 -0.4392  0.5169
  849MPD2     H12527   3.319   3.238  13.748  0.6727 -0.6940 -1.3163
  849MPD2    H112528   3.203   3.623  13.846 -0.6188  1.0887 -1.1885
  849MPD2    H212529   3.251   3.522  13.433 -0.1020 -0.1765  0.0923
  849MPD2    H312530   3.193   3.688  13.601  2.5358  0.5677  0.9899
  849MPD2     N12531   3.267   3.411  13.949 -0.0616 -0.1268 -0.0121
  849MPD2    H512532   3.259   3.488  14.014 -0.8645 -0.6520  0.5203
  849MPD2    N112533   3.329   3.276  13.479 -0.2428  0.5916  0.1355
  849MPD2    H712534   3.328   3.322  13.389 -0.7022  0.9319  0.3159
  850MPD2     C12535   1.387   2.101  14.855  0.5192 -0.2109 -0.0908
  850MPD2    C112536   1.485   2.065  14.944 -0.0489 -0.3381 -0.2693
  850MPD2    C212537   1.617   2.118  14.931  0.7902  0.0456  0.8279
  850MPD2    C312538   1.644   2.210  14.832 -0.9475 -0.0054 -0.2070
  850MPD2    C412539   1.546   2.238  14.734 -0.4043  0.6090  0.8518
  850MPD2    C512540   1.418   2.184  14.748 -0.2156  0.0423 -0.2337
  850MPD2     H12541   1.694   2.089  15.001  0.2570 -0.1639  1.3340
  850MPD2    H112542   1.587   2.309  14.664 -1.2645 -1.0868 -1.3639
  850MPD2    H212543   1.291   2.052  14.868  1.5080 -1.9117  0.8288
  850MPD2    H312544   1.336   2.204  14.681 -1.3816  0.3912  1.2975
  850MPD2     N12545   1.774   2.271  14.820 -0.1296 -0.1812 -0.0644
  850MPD2    H512546   1.805   2.294  14.726 -2.5158  0.5575 -0.6659
  850MPD2    N112547   1.441   1.979  15.047  0.3383 -0.3536  0.1702
  850MPD2    H712548   1.343   1.952  15.046 -0.3307  1.9946  0.8112
  851MPD2     C12549   1.472   1.511  15.843 -0.3598 -0.4483  0.0089
  851MPD2    C112550   1.501   1.512  15.709 -0.2102  0.2746 -0.0769
  851MPD2    C212551   1.534   1.396  15.641 -0.2321 -0.8357  0.3264
  851MPD2    C312552   1.525   1.276  15.704  0.3186 -0.4752 -0.2995
  851MPD2    C412553   1.490   1.272  15.837  0.4452  0.3743 -0.0548
  851MPD2    C512554   1.463   1.388  15.906  0.5962  0.0219  0.2867
  851MPD2     H12555   1.545   1.394  15.533 -0.8300 -1.8217  0.2821
  851MPD2    H112556   1.478   1.181  15.894  1.1588 -0.6519 -1.5527
  851MPD2    H212557   1.445   1.597  15.903 -0.3249  0.5806 -1.4371
  851MPD2    H312558   1.441   1.391  16.012  2.6381  1.5551  0.6794
  851MPD2     N12559   1.545   1.167  15.623 -0.3825  0.2772 -0.0003
  851MPD2    H512560   1.544   1.193  15.525  0.8588  0.6599  0.0867
  851MPD2    N112561   1.486   1.636  15.640 -0.1343  0.1656 -0.3925
  851MPD2    H712562   1.460   1.718  15.695  0.1867  1.2351 -1.8410
  852MPD2     C12563   1.477   4.338  10.192  0.0821 -0.3773  0.1838
  852MPD2    C112564   1.519   4.391  10.310 -0.5234 -0.1017 -0.2910
  852MPD2    C212565   1.594   4.505  10.309 -0.0114  0.2791  0.0846
  852MPD2    C312566   1.624   4.577  10.190 -0.2131  0.1531  0.3075
  852MPD2    C412567   1.569   4.532  10.070  0.0492 -0.0507 -0.8687
  852MPD2    C512568   1.512   4.409  10.081  0.4500  0.0837  0.0965
  852MPD2     H12569   1.629   4.548  10.402 -0.0353  2.0249 -0.7151
  852MPD2    H112570   1.583   4.587   9.977 -1.7413  1.1169 -0.4335
  852MPD2    H212571   1.423   4.244  10.184 -0.2313 -0.1201 -0.7469
  852MPD2    H312572   1.475   4.367   9.988  2.9141  2.0832 -1.7800
  852MPD2     N12573   1.710   4.688  10.201  0.2173  0.0052 -0.0820
  852MPD2    H512574   1.737   4.714  10.295  1.0247 -0.0631 -0.2925
  852MPD2    N112575   1.496   4.332  10.439  0.4140  0.6297  0.3376
  852MPD2    H712576   1.531   4.382  10.521  0.9013  0.2417  0.3671
  853MPD2     C12577   3.060   3.746  12.193 -0.8020  0.6134  0.0924
  853MPD2    C112578   2.929   3.719  12.155 -0.1278 -0.2441  0.6477
  853MPD2    C212579   2.907   3.687  12.022  0.1728 -0.1209 -0.1123
  853MPD2    C312580   3.012   3.687  11.936 -0.8099 -0.0519  0.3866
  853MPD2    C412581   3.136   3.727  11.975  0.6702 -0.4217  0.2435
  853MPD2    C512582   3.161   3.762  12.104 -0.0166 -0.2192  0.1395
  853MPD2     H12583   2.806   3.660  11.995  0.0223 -2.2125  2.5045
  853MPD2    H112584   3.219   3.732  11.905 -0.5029 -0.3796 -1.1457
  853MPD2    H212585   3.072   3.779  12.296 -0.6954 -1.7652  0.8366
  853MPD2    H312586   3.264   3.775  12.137  0.0094 -1.2264  0.4685
  853MPD2     N12587   3.000   3.650  11.797 -0.2870 -0.1706 -0.3272
  853MPD2    H512588   3.090   3.648  11.750  0.2683  2.1688  0.6328
  853MPD2    N112589   2.825   3.742  12.246 -0.6888 -0.1333 -0.0865
  853MPD2    H712590   2.847   3.755  12.344  0.5235  2.1584 -0.6513
  854MPD2     C12591   0.430   4.162  12.511 -0.4876  0.8370 -0.4506
  854MPD2    C112592   0.333   4.096  12.580  0.1026  0.1409  0.2850
  854MPD2    C212593   0.373   3.987  12.654 -0.0960  0.7849 -0.1438
  854MPD2    C312594   0.504   3.940  12.646 -0.2728  0.5306 -0.4155
  854MPD2    C412595   0.594   3.998  12.562  0.7630 -0.4684  0.3359
  854MPD2    C512596   0.560   4.117  12.505 -0.1231  0.3548 -0.2516
  854MPD2     H12597   0.303   3.940  12.722  0.5318 -0.3880 -0.3088
  854MPD2    H112598   0.701   3.978  12.561  0.8414 -0.0738  0.8274
  854MPD2    H212599   0.402   4.250  12.454  1.2085 -0.4328 -3.2646
  854MPD2    H312600   0.630   4.175  12.446  1.5419 -2.0104 -0.5848
  854MPD2     N12601   0.557   3.838  12.728  0.0360 -1.0357  0.1354
  854MPD2    H512602   0.649   3.803  12.703 -1.0718 -2.7043 -1.5676
  854MPD2    N112603   0.202   4.140  12.556 -0.4854  0.3284  0.7218
  854MPD2    H712604   0.193   4.228  12.505 -0.5142 -0.3850 -0.5165
  855MPD2     C12605   0.920   3.554  13.656 -0.5654  0.4084 -0.7488
  855MPD2    C112606   0.786   3.587  13.637  0.0614  0.3946  0.5189
  855MPD2    C212607   0.731   3.555  13.514 -0.2706 -0.3785  0.1914
  855MPD2    C312608   0.802   3.502  13.410 -0.0350  0.5218 -0.1802
  855MPD2    C412609   0.943   3.488  13.433 -0.2434  1.3901 -0.3139
  855MPD2    C512610   0.993   3.521  13.548 -0.3081  0.0772 -0.1340
  855MPD2     H12611   0.624   3.573  13.513  0.1911  2.3990 -1.4969
  855MPD2    H112612   1.005   3.455  13.350  1.7353  0.3305  1.5732
  855MPD2    H212613   0.965   3.576  13.752  0.8818 -1.0107 -1.0953
  855MPD2    H312614   1.101   3.527  13.556 -0.3233 -0.8227  0.7614
  855MPD2     N12615   0.752   3.495  13.274 -0.5133 -0.3803 -0.8950
  855MPD2    H512616   0.820   3.476  13.201  0.8744  0.2533  0.2191
  855MPD2    N112617   0.696   3.651  13.727  0.7167 -0.3627  0.0116
  855MPD2    H712618   0.596   3.644  13.713  0.3174  1.0912  2.1034
  856MPD2     C12619   2.531   4.352  14.090 -0.1294  0.0651  0.0078
  856MPD2    C112620   2.590   4.450  14.011  0.6428  0.0862 -0.6659
  856MPD2    C212621   2.520   4.538  13.931  0.3021  0.1681 -0.6903
  856MPD2    C312622   2.384   4.530  13.933  0.1008 -0.2787 -0.2734
  856MPD2    C412623   2.325   4.452  14.027  0.6824  0.5944  0.3744
  856MPD2    C512624   2.398   4.367  14.100  0.0197  0.6581  0.2550
  856MPD2     H12625   2.567   4.614  13.871  0.3032  0.2975 -0.5236
  856MPD2    H112626   2.217   4.449  14.039  1.0179  2.2409  3.7750
  856MPD2    H212627   2.585   4.284  14.155 -0.3471 -0.7904 -0.7042
  856MPD2    H312628   2.343   4.312  14.175  1.6090  0.8542  1.5780
  856MPD2     N12629   2.313   4.623  13.857 -0.0303 -0.5795 -0.1577
  856MPD2    H512630   2.219   4.646  13.888  0.1482  0.4934 -0.4201
  856MPD2    N112631   2.727   4.482  14.010 -0.4795  0.0709 -0.6717
  856MPD2    H712632   2.751   4.565  13.956 -0.5752 -0.2366 -1.1858
  857MPD2     C12633   4.009   2.245  12.418  0.0792  0.1956  0.0459
  857MPD2    C112634   4.025   2.198  12.542 -0.3456  0.6784 -0.1441
  857MPD2    C212635   4.075   2.286  12.648 -0.0497  0.0664 -0.1424
  857MPD2    C312636   4.107   2.419  12.622 -0.0830  0.7159  0.7400
  857MPD2    C412637   4.104   2.456  12.488 -0.2943  0.0370 -0.5458
  857MPD2    C512638   4.048   2.378  12.396  0.9234  0.6533 -0.2865
  857MPD2     H12639   4.096   2.247  12.747 -0.9210  0.2676  0.1213
  857MPD2    H112640   4.138   2.547  12.441 -1.8654  0.5322 -0.7395
  857MPD2    H212641   3.972   2.183  12.337  0.8260 -0.6982  0.3894
  857MPD2    H312642   4.041   2.421  12.297 -0.5030 -2.9296 -1.7756
  857MPD2     N12643   4.160   2.506  12.722  0.4639 -0.1238 -0.7176
  857MPD2    H512644   4.189   2.460  12.807 -1.4486  2.7272  1.4999
  857MPD2    N112645   3.996   2.063  12.566  0.4503  0.5373 -0.1536
  857MPD2    H712646   3.975   2.012  12.480 -1.6792 -1.0455  1.3165
  858MPD2     C12647   4.295   1.251  16.416 -0.4022  0.2009  0.1789
  858MPD2    C112648   4.226   1.186  16.510  0.3465  0.1534  0.1370
  858MPD2    C212649   4.197   1.251  16.631 -0.5092  0.0633  0.1206
  858MPD2    C312650   4.245   1.379  16.661  0.1019  0.1631  0.0131
  858MPD2    C412651   4.313   1.441  16.561 -0.1255 -0.0470 -1.0343
  858MPD2    C512652   4.331   1.382  16.441  0.2380  0.1700  0.0117
  858MPD2     H12653   4.132   1.204  16.704 -1.6068  0.6606 -0.4786
  858MPD2    H112654   4.333   1.547  16.565  2.8338 -0.6451  0.0127
  858MPD2    H212655   4.318   1.204  16.321 -0.9651  2.8963 -1.2934
  858MPD2    H312656   4.386   1.433  16.363  0.5286 -3.5026 -2.1854
  858MPD2     N12657   4.216   1.451  16.779  0.4816  0.1605 -0.7405
  858MPD2    H512658   4.228   1.552  16.780 -4.5485  0.7737 -1.9886
  858MPD2    N112659   4.197   1.052  16.491  0.3569  0.0073 -0.2603
  858MPD2    H712660   4.245   1.008  16.414  0.1469 -0.8648  0.1122
  859MPD2     C12661   3.022   3.335  16.010 -0.5415  0.5184 -0.7913
  859MPD2    C112662   3.122   3.355  15.913 -0.6167 -0.9575 -0.8222
  859MPD2    C212663   3.207   3.251  15.887  1.0886  0.2382 -0.6479
  859MPD2    C312664   3.204   3.134  15.965  0.5651 -0.6287  0.1344
  859MPD2    C412665   3.118   3.130  16.072  0.0967  0.0350 -0.1628
  859MPD2    C512666   3.019   3.218  16.083  0.6348 -0.2309  0.5975
  859MPD2     H12667   3.270   3.255  15.799 -1.8629  2.0069 -2.6856
  859MPD2    H112668   3.119   3.040  16.132 -1.3774  0.6471  0.8116
  859MPD2    H212669   2.959   3.419  16.037 -1.0957 -0.0075 -0.4303
  859MPD2    H312670   2.948   3.210  16.164 -1.2270 -1.8876 -1.1885
  859MPD2     N12671   3.295   3.023  15.946  0.2672 -0.3052  0.1962
  859MPD2    H512672   3.294   2.946  16.012  1.8347 -2.2401 -1.9845
  859MPD2    N112673   3.135   3.483  15.855 -0.0823  0.5470  0.2730
  859MPD2    H712674   3.065   3.555  15.871  0.6056  1.2454  0.1352
  860MPD2     C12675   1.647   3.812  11.832  0.2010  0.0004 -0.2831
  860MPD2    C112676   1.583   3.831  11.951 -0.2208  0.5849  0.6676
  860MPD2    C212677   1.446   3.822  11.966 -0.1210  0.1483  0.3236
  860MPD2    C312678   1.370   3.787  11.859  0.3755  0.4979  0.8493
  860MPD2    C412679   1.430   3.775  11.734  0.7060  0.3833  0.3263
  860MPD2    C512680   1.569   3.787  11.720 -0.1789 -0.3735  0.6659
  860MPD2     H12681   1.391   3.832  12.059  0.7548  0.7885  0.7737
  860MPD2    H112682   1.380   3.748  11.642  0.9416  3.3162 -0.6417
  860MPD2    H212683   1.754   3.804  11.813  0.0204 -1.9267 -0.4863
  860MPD2    H312684   1.620   3.777  11.625  1.6660 -2.2325  1.8349
  860MPD2     N12685   1.235   3.758  11.885  0.2675  0.4299 -1.2550
  860MPD2    H512686   1.211   3.770  11.983 -0.2884 -1.0785 -1.2079
  860MPD2    N112687   1.645   3.861  12.075 -0.3489 -0.1585 -0.9241
  860MPD2    H712688   1.578   3.860  12.151  0.3332 -0.8138 -0.3294
  861MPD2     C12689   0.258   2.501  10.924 -0.0149 -0.2390 -0.1642
  861MPD2    C112690   0.181   2.393  10.894  0.0746  0.5808  0.6225
  861MPD2    C212691   0.080   2.412  10.804 -0.0716  1.0299  0.5823
  861MPD2    C312692   0.041   2.535  10.746  0.5574 -0.1960  0.5026
  861MPD2    C412693   0.122   2.641  10.781  0.1479  0.3220 -0.3149
  861MPD2    C512694   0.232   2.626  10.872 -0.5795 -0.3463 -0.5996
  861MPD2     H12695   0.017   2.329  10.777  2.1380  0.4972 -3.0664
  861MPD2    H112696   0.100   2.738  10.738  0.7697  0.2308 -0.8324
  861MPD2    H212697   0.332   2.488  11.002 -0.2218  0.3778  0.1379
  861MPD2    H312698   0.283   2.712  10.913  0.5329 -1.8831  1.2225
  861MPD2     N12699   4.667   2.556  10.665 -0.2282  0.0101  0.8842
  861MPD2    H512700   4.633   2.651  10.662 -1.9339 -0.6559 -0.8126
  861MPD2    N112701   0.195   2.267  10.962  0.3658 -0.0228  0.3694
  861MPD2    H712702   0.121   2.201  10.943  2.5523 -1.7355 -2.1541
  862MPD2     C12703   3.991   2.053  10.457 -0.2097  0.2942  0.4277
  862MPD2    C112704   4.112   2.056  10.526 -0.2128 -0.3542  0.7752
  862MPD2    C212705   4.151   1.938  10.588  0.5288  0.5971  0.1733
  862MPD2    C312706   4.071   1.831  10.588 -0.4691 -0.3620 -0.5341
  862MPD2    C412707   3.941   1.837  10.535  0.2998  0.3255 -0.1849
  862MPD2    C512708   3.905   1.944  10.464 -0.9917 -0.2497 -0.3078
  862MPD2     H12709   4.250   1.938  10.632 -0.1667  1.4363  1.7358
  862MPD2    H112710   3.871   1.756  10.547  1.2967 -0.5206 -0.0833
  862MPD2    H212711   3.951   2.142  10.411 -0.0844  0.2272  0.1877
  862MPD2    H312712   3.810   1.948  10.412 -0.2662  1.1266 -1.5373
  862MPD2     N12713   4.096   1.711  10.665  0.7627  0.1140 -0.3551
  862MPD2    H512714   4.018   1.645  10.668  0.6467  0.1914 -1.4431
  862MPD2    N112715   4.193   2.174  10.533  0.8699  0.3269  0.6413
  862MPD2    H712716   4.272   2.170  10.597  1.1854 -1.9786  0.1143
  863MPD2     C12717   2.494   4.676  16.711  0.2814 -0.8076  0.2426
  863MPD2    C112718   2.488   0.066  16.765 -0.2857 -0.2129 -0.4219
  863MPD2    C212719   2.585   0.094  16.868  0.0552 -0.1623 -0.5236
  863MPD2    C312720   2.666   4.734  16.915 -0.4468 -0.1804  0.1916
  863MPD2    C412721   2.669   4.613  16.860 -0.2954 -0.1667  0.3418
  863MPD2    C512722   2.576   4.578  16.762 -0.0924  0.6321  0.2346
  863MPD2     H12723   2.587   0.187  16.924 -0.3968 -0.7376  0.4705
  863MPD2    H112724   2.740   4.542  16.901  0.9751  0.9460  0.0620
  863MPD2    H212725   2.426   4.648  16.631 -0.0341  0.8826 -0.0740
  863MPD2    H312726   2.570   4.480  16.717 -1.2809  0.6884  0.2527
  863MPD2     N12727   2.758   0.005  17.021  0.0710  0.1178 -0.3080
  863MPD2    H512728   2.790   4.655  17.059 -1.2221  0.4567  1.5603
  863MPD2    N112729   2.392   0.160  16.709 -0.3371 -0.2542  0.4668
  863MPD2    H712730   2.346   0.128  16.625  0.9764 -2.2199  0.4778
  864MPD2     C12731   3.039   2.120  16.909 -0.4872 -0.1123  0.2045
  864MPD2    C112732   3.092   2.003  16.866  0.2593  0.0640 -0.5034
  864MPD2    C212733   3.221   2.007  16.804  0.1437  0.1326  0.3481
  864MPD2    C312734   3.282   2.124  16.772 -0.4988  0.1837  0.5658
  864MPD2    C412735   3.224   2.236  16.809 -0.4492 -0.9404 -0.6365
  864MPD2    C512736   3.100   2.236  16.874 -0.6449 -0.5630 -0.0384
  864MPD2     H12737   3.260   1.911  16.770  1.2429  1.1779 -1.3248
  864MPD2    H112738   3.273   2.329  16.784 -2.1715  0.1263 -0.0151
  864MPD2    H212739   2.947   2.130  16.967 -1.2448  2.5758 -1.4641
  864MPD2    H312740   3.058   2.328  16.913 -0.5074 -0.8367  0.7728
  864MPD2     N12741   3.414   2.137  16.724  0.5637 -0.6124 -0.2837
  864MPD2    H512742   3.448   2.232  16.713  0.0641 -0.3130  0.8654
  864MPD2    N112743   3.027   1.885  16.905 -0.3753  0.3336  0.0535
  864MPD2    H712744   2.941   1.890  16.960  0.4139  2.4753  1.0585
  865MPD2     C12745   3.432   2.186  16.204 -0.2087  0.1725  0.0718
  865MPD2    C112746   3.564   2.129  16.203 -0.4026 -0.5410  0.3648
  865MPD2    C212747   3.668   2.185  16.275 -0.3160 -1.2230  0.1492
  865MPD2    C312748   3.648   2.301  16.338  0.5664 -0.1974 -0.3651
  865MPD2    C412749   3.530   2.367  16.323 -0.0357  0.7030  0.0318
  865MPD2    C512750   3.421   2.304  16.273 -0.3562  0.4468 -0.9595
  865MPD2     H12751   3.770   2.148  16.278  0.7642  1.7982  0.6716
  865MPD2    H112752   3.512   2.467  16.362  0.7132  0.2741  1.5004
  865MPD2    H212753   3.341   2.148  16.159  0.3932 -2.1096  0.7819
  865MPD2    H312754   3.323   2.350  16.282 -0.1263  0.6123  0.6759
  865MPD2     N12755   3.749   2.361  16.414 -0.4629 -0.2637  0.3139
  865MPD2    H512756   3.754   2.462  16.425  2.7485 -0.4099  0.0863
  865MPD2    N112757   3.594   1.998  16.162  0.1103  0.5457  0.1130
  865MPD2    H712758   3.690   1.964  16.171 -0.5782 -1.3632  0.3801
  866MPD2     C12759   0.559   2.531  11.398 -0.4192  0.7104  0.4713
  866MPD2    C112760   0.541   2.590  11.278 -0.1665  0.8358 -0.6495
  866MPD2    C212761   0.408   2.619  11.252  0.0217 -0.1642  0.6722
  866MPD2    C312762   0.301   2.581  11.329  0.0235 -0.5623  0.4017
  866MPD2    C412763   0.326   2.487  11.431 -0.3980  0.1743 -0.8656
  866MPD2    C512764   0.456   2.473  11.464  0.2797 -0.3317  0.8001
  866MPD2     H12765   0.386   2.675  11.161 -0.0192  0.8073  1.2735
  866MPD2    H112766   0.252   2.441  11.496  0.0176  1.0422  0.2349
  866MPD2    H212767   0.651   2.508  11.450 -1.9353 -1.1746  2.3377
  866MPD2    H312768   0.461   2.426  11.561 -1.2455  1.5979  1.8320
  866MPD2     N12769   0.163   2.614  11.290  0.2714 -0.4076 -0.2244
  866MPD2    H512770   0.089   2.558  11.331 -2.1018  1.6358 -1.7206
  866MPD2    N112771   0.657   2.617  11.207  0.1232  0.6577 -0.5413
  866MPD2    H712772   0.750   2.586  11.230  0.4630  0.9458 -1.5262
  867MPD2     C12773   1.934   1.436  17.167 -0.4541 -0.8997 -1.2498
  867MPD2    C112774   1.990   1.334  17.242  0.7659  0.0075  0.3780
  867MPD2    C212775   1.932   1.315  17.369  0.5609 -0.1571 -0.4537
  867MPD2    C312776   1.820   1.381  17.409 -0.1728 -0.1390  0.3830
  867MPD2    C412777   1.749   1.469  17.317  0.3941 -1.0187 -0.0035
  867MPD2    C512778   1.824   1.508  17.203  0.2856 -0.3516  0.3407
  867MPD2     H12779   1.991   1.256  17.438 -1.7880 -1.0594  0.7639
  867MPD2    H112780   1.659   1.519  17.350  0.6909 -0.0611 -0.6403
  867MPD2    H212781   1.990   1.467  17.080  0.0789 -1.4750 -1.1114
  867MPD2    H312782   1.790   1.593  17.145 -1.9692 -1.3798  0.1604
  867MPD2     N12783   1.783   1.383  17.549 -0.1595 -0.4602  0.2214
  867MPD2    H512784   1.695   1.429  17.572 -1.5984 -3.5593  0.9134
  867MPD2    N112785   2.106   1.269  17.190 -0.2610 -0.3012  0.3278
  867MPD2    H712786   2.143   1.295  17.099  1.7178 -0.6425  1.0281
  868MPD2     C12787   4.330   1.321  13.016  0.4962  0.0325  0.3213
  868MPD2    C112788   4.380   1.201  12.970  0.1008 -1.0690  0.3504
  868MPD2    C212789   4.323   1.082  13.005 -0.3211 -0.0376 -0.0962
  868MPD2    C312790   4.212   1.077  13.084  0.6492 -0.0628  0.3103
  868MPD2    C412791   4.162   1.192  13.133  0.6981 -0.1845  0.3018
  868MPD2    C512792   4.223   1.312  13.101 -0.5653  0.3817 -0.1316
  868MPD2     H12793   4.378   1.001  12.957  0.5760  0.1931  0.5338
  868MPD2    H112794   4.081   1.195  13.206 -0.7784  0.8318 -1.3748
  868MPD2    H212795   4.365   1.418  12.983  0.4948 -0.6166 -1.5610
  868MPD2    H312796   4.187   1.410  13.131  1.2195  1.4580 -1.5205
  868MPD2     N12797   4.157   0.949  13.107 -0.2740 -0.0192 -0.4154
  868MPD2    H512798   4.198   0.873  13.054 -1.4028  0.3952 -1.8607
  868MPD2    N112799   4.491   1.195  12.879 -0.2688  0.0421 -0.7012
  868MPD2    H712800   4.537   1.105  12.864 -0.0761 -0.1969  1.4283
  869MPD2     C12801   4.152   2.922  17.458  0.0060  0.1057  0.1410
  869MPD2    C112802   4.152   3.029  17.538 -0.4170 -0.4321  0.0364
  869MPD2    C212803   4.246   3.131  17.518 -0.4811 -0.3731 -0.3861
  869MPD2    C312804   4.349   3.104  17.437  0.3604 -0.7029  0.1767
  869MPD2    C412805   4.351   2.994  17.353  0.1434  0.2785 -0.1438
  869MPD2    C512806   4.249   2.903  17.367 -0.2215  0.0404 -0.4295
  869MPD2     H12807   4.263   3.203  17.598 -1.2329  1.0251 -1.4858
  869MPD2    H112808   4.422   2.964  17.276  1.0881 -0.4800  1.0362
  869MPD2    H212809   4.073   2.849  17.475 -1.2151  1.2023 -0.8336
  869MPD2    H312810   4.250   2.817  17.302 -2.3072  0.0029 -0.4108
  869MPD2     N12811   4.453   3.205  17.438 -0.4090  0.5099  0.1999
  869MPD2    H512812   4.455   3.281  17.505 -1.5423  2.3750 -1.8769
  869MPD2    N112813   4.062   3.023  17.647 -0.3114 -0.2434  0.5447
  869MPD2    H712814   3.995   2.947  17.649 -1.7050  0.9750  0.3386
  870MPD2     C12815   4.597   2.927   1.141  0.0687  0.2727  0.1949
  870MPD2    C112816   4.488   2.873   1.085  0.1282  0.5968  0.4435
  870MPD2    C212817   4.435   2.941   0.981 -0.2488 -0.0339 -0.2964
  870MPD2    C312818   4.494   3.046   0.917  0.4282 -0.5995  0.1136
  870MPD2    C412819   4.602   3.110   0.984 -0.6865 -0.0693  0.0549
  870MPD2    C512820   4.647   3.047   1.098 -0.5562 -0.5945 -0.5661
  870MPD2     H12821   4.354   2.891   0.929  0.5922 -0.8957 -0.7716
  870MPD2    H112822   4.655   3.198   0.948  2.0696 -1.2578  1.2482
  870MPD2    H212823   4.643   2.881   1.227  0.3490 -1.7122 -1.0183
  870MPD2    H312824   0.006   3.071   1.136 -0.1856 -1.7354 -0.7873
  870MPD2     N12825   4.447   3.094   0.792 -0.2134 -0.5325  0.4142
  870MPD2    H512826   4.364   3.054   0.750  0.6620 -1.3048 -0.5579
  870MPD2    N112827   4.435   2.758   1.159  0.3275  0.6960 -0.0200
  870MPD2    H712828   4.489   2.731   1.241  0.3784 -1.3904 -0.7350
  871MPD2     C12829   1.295   1.734  16.461 -0.0550 -0.5065  0.1340
  871MPD2    C112830   1.240   1.675  16.571  0.2018  0.1388  0.2853
  871MPD2    C212831   1.214   1.541  16.567  0.8753  0.7829 -0.3733
  871MPD2    C312832   1.257   1.463  16.462 -0.1702  0.3281  0.0713
  871MPD2    C412833   1.317   1.529  16.351  0.2277 -0.1977  0.0752
  871MPD2    C512834   1.323   1.664  16.345 -0.3283 -0.0005 -0.8032
  871MPD2     H12835   1.162   1.495  16.651 -0.8617 -0.9698 -2.3913
  871MPD2    H112836   1.352   1.478  16.262 -0.0912 -2.2057  1.0915
  871MPD2    H212837   1.303   1.842  16.456  1.8422 -0.7606 -2.6327
  871MPD2    H312838   1.361   1.726  16.264  1.3172  1.4956  1.1143
  871MPD2     N12839   1.234   1.325  16.463  0.0758 -0.4435 -0.2001
  871MPD2    H512840   1.167   1.296  16.533 -1.4979 -0.0291 -1.5511
  871MPD2    N112841   1.186   1.758  16.673  0.0962  0.6696 -0.3882
  871MPD2    H712842   1.185   1.859  16.658 -0.6024  0.9274  1.4378
  872MPD2     C12843   2.088   4.209  13.609  0.2740 -0.5639 -0.0534
  872MPD2    C112844   2.129   4.173  13.734  0.3610 -0.0448  0.1988
  872MPD2    C212845   2.036   4.156  13.836  1.1352  0.2347 -0.7430
  872MPD2    C312846   1.903   4.176  13.807  0.6528  0.8550  0.6802
  872MPD2    C412847   1.857   4.195  13.682 -0.5989  0.2999 -0.8203
  872MPD2    C512848   1.950   4.214  13.584 -0.0605  0.3645  0.0414
  872MPD2     H12849   2.080   4.135  13.933 -0.6735  2.6063  0.6102
  872MPD2    H112850   1.749   4.200  13.675 -0.7185 -0.1093  0.8572
  872MPD2    H212851   2.154   4.234  13.527  0.2789 -0.0175  0.1210
  872MPD2    H312852   1.925   4.223  13.479 -0.7510  4.2343  0.5421
  872MPD2     N12853   1.808   4.185  13.909  0.4443 -0.0539  0.2612
  872MPD2    H512854   1.710   4.187  13.882  0.3930 -0.0422  0.4480
  872MPD2    N112855   2.265   4.158  13.763 -1.0155 -0.1889  0.4687
  872MPD2    H712856   2.281   4.107  13.849  0.8027  1.3424  1.0316
  873MPD2     C12857   3.692   3.482   0.601  0.0152  0.6786 -0.7483
  873MPD2    C112858   3.590   3.505   0.685  0.2753 -0.3056 -0.3514
  873MPD2    C212859   3.476   3.430   0.653  0.2172  0.1910  0.1137
  873MPD2    C312860   3.469   3.346   0.543 -0.1482 -0.5133 -0.1598
  873MPD2    C412861   3.568   3.345   0.447 -0.6633 -0.1517  0.7165
  873MPD2    C512862   3.682   3.410   0.484 -0.0636 -0.5850  0.5859
  873MPD2     H12863   3.390   3.436   0.719 -0.8040 -1.7330 -1.0465
  873MPD2    H112864   3.562   3.293   0.353  1.2021 -0.9244  1.0336
  873MPD2    H212865   3.795   3.511   0.619 -0.3086  1.8700 -0.8151
  873MPD2    H312866   3.775   3.388   0.433  1.3598  2.9287  1.6529
  873MPD2     N12867   3.351   3.276   0.517  0.1703  0.0519 -0.2189
  873MPD2    H512868   3.349   3.234   0.424 -3.5678  1.8473 -0.9509
  873MPD2    N112869   3.609   3.593   0.792  0.4112  0.2561 -0.0459
  873MPD2    H712870   3.695   3.647   0.793 -1.1093  2.7345 -1.7443
  874MPD2     C12871   3.425   4.621  15.894  0.2603 -0.2871  0.3455
  874MPD2    C112872   3.425   4.592  16.028 -0.1800  0.0699  0.4018
  874MPD2    C212873   3.523   4.648  16.106  0.0164 -0.6941  0.1662
  874MPD2    C312874   3.630   4.718  16.047 -0.9536  0.3521  0.0774
  874MPD2    C412875   3.636   4.731  15.908  1.5476  0.2654 -0.2507
  874MPD2    C512876   3.527   4.692  15.838  0.1376  0.0094  0.0874
  874MPD2     H12877   3.522   4.644  16.215  0.5781  1.1540  0.2253
  874MPD2    H112878   3.713   0.050  15.857  0.0505  0.9360 -1.7370
  874MPD2    H212879   3.341   4.585  15.836 -1.0815 -0.2519  2.2605
  874MPD2    H312880   3.534   4.686  15.730 -1.0070  0.1021  0.0043
  874MPD2     N12881   3.723   0.036  16.132  0.5012  0.2215 -1.0347
  874MPD2    H512882   3.697   0.043  16.230  0.2882 -3.2418 -0.8295
  874MPD2    N112883   3.320   4.517  16.078  0.4194 -0.5018  0.1166
  874MPD2    H712884   3.262   4.469  16.010  1.1443 -2.0989  0.6288
  875MPD2     C12885   4.189   2.188  14.523 -0.2637 -0.8203 -0.1901
  875MPD2    C112886   4.234   2.301  14.456  0.1372 -0.5388  0.1381
  875MPD2    C212887   4.322   2.381  14.521  0.4737 -0.2920 -0.6458
  875MPD2    C312888   4.374   2.345  14.644  0.4556  0.1176  0.6936
  875MPD2    C412889   4.330   2.233  14.710  0.6979  0.0232 -0.2394
  875MPD2    C512890   4.239   2.156  14.646 -1.3530  0.4027  0.0599
  875MPD2     H12891   4.365   2.460  14.461  2.3605 -0.3351  0.6456
  875MPD2    H112892   4.385   2.194  14.795 -2.1570 -1.0483  1.1291
  875MPD2    H212893   4.112   2.128  14.475 -1.0952 -0.0357  0.1530
  875MPD2    H312894   4.216   2.054  14.677 -0.0641  0.2446  0.4912
  875MPD2     N12895   4.473   2.427  14.707 -0.0879 -0.0374 -0.3470
  875MPD2    H512896   4.521   2.395  14.790 -0.2174 -0.8629 -0.5854
  875MPD2    N112897   4.200   2.337  14.319  0.6107 -0.3786  0.1112
  875MPD2    H712898   4.259   2.408  14.276  2.0955 -1.2120  0.7775
  876MPD2     C12899   3.435   4.064  16.128  0.5225  0.7880 -0.8555
  876MPD2    C112900   3.505   3.996  16.032 -0.1076 -0.0671 -0.1174
  876MPD2    C212901   3.510   3.861  16.026  0.5243 -0.4335 -0.5754
  876MPD2    C312902   3.424   3.787  16.102 -0.0158 -0.3396  0.7270
  876MPD2    C412903   3.362   3.854  16.206  0.4455 -0.8143 -0.7015
  876MPD2    C512904   3.364   3.992  16.222 -0.5404  0.0125 -0.0982
  876MPD2     H12905   3.577   3.816  15.955  0.5803 -3.2756  1.2854
  876MPD2    H112906   3.298   3.804  16.279  1.1306 -1.7743 -0.7522
  876MPD2    H212907   3.439   4.172  16.142 -2.3848  0.6852  0.5581
  876MPD2    H312908   3.313   4.043  16.302  0.3233 -2.2834  1.9102
  876MPD2     N12909   3.418   3.647  16.081 -0.1190  0.1914  0.3553
  876MPD2    H512910   3.488   3.611  16.017 -1.4757 -0.3721 -0.8037
  876MPD2    N112911   3.578   4.058  15.927 -0.2111 -0.7156 -0.1584
  876MPD2    H712912   3.629   3.998  15.862  0.1168 -0.3682 -0.2184
  877MPD2     C12913   3.380   4.445  15.292 -0.0237  0.4030  0.2151
  877MPD2    C112914   3.519   4.429  15.291  0.1290  0.4184 -0.4236
  877MPD2    C212915   3.584   4.415  15.168  0.3948  0.8733  0.2443
  877MPD2    C312916   3.512   4.424  15.046  0.9120 -0.4398 -0.2804
  877MPD2    C412917   3.380   4.463  15.055 -0.1173  0.6229 -0.7896
  877MPD2    C512918   3.316   4.477  15.172  0.0840  0.1346  0.4017
  877MPD2     H12919   3.688   4.386  15.165 -0.4268 -2.1452  0.5962
  877MPD2    H112920   3.335   4.484  14.958 -0.2505 -1.3631 -1.1519
  877MPD2    H212921   3.324   4.449  15.385  0.2086  0.7688  0.3367
  877MPD2    H312922   3.211   4.503  15.181  0.1206  0.4464 -0.0542
  877MPD2     N12923   3.564   4.397  14.913  0.1943  0.4373 -0.1108
  877MPD2    H512924   3.498   4.397  14.836 -0.3672 -0.6229  0.3809
  877MPD2    N112925   3.603   4.416  15.408 -0.0396  0.3510  0.2103
  877MPD2    H712926   3.702   4.402  15.392 -0.0700 -0.4017  0.6751
  878MPD2     C12927   3.902   3.509  12.834  0.5953  0.2428 -0.4931
  878MPD2    C112928   3.797   3.424  12.806 -0.2892  0.0299 -0.0831
  878MPD2    C212929   3.760   3.332  12.897 -0.6026  0.0480  0.1798
  878MPD2    C312930   3.803   3.339  13.028 -0.3941 -0.8596 -0.7690
  878MPD2    C412931   3.907   3.427  13.058  0.1703  0.1319 -0.5918
  878MPD2    C512932   3.951   3.508  12.961 -0.2652 -0.2263 -0.2512
  878MPD2     H12933   3.687   3.255  12.873 -1.2337  0.9449 -0.8017
  878MPD2    H112934   3.937   3.440  13.162  0.4560  0.3372 -0.7012
  878MPD2    H212935   3.928   3.589  12.766  1.0502  1.0535  0.6297
  878MPD2    H312936   4.030   3.575  12.995  1.1295 -1.3521 -1.2798
  878MPD2     N12937   3.746   3.253  13.127 -0.3001 -0.0805  0.1281
  878MPD2    H512938   3.665   3.196  13.107  0.4372 -1.5231  1.2081
  878MPD2    N112939   3.740   3.435  12.675 -0.9217  0.0071  0.4724
  878MPD2    H712940   3.781   3.490  12.601  0.3629 -1.2726  0.2291
  879MPD2     C12941   3.164   0.550  17.036  0.5157 -0.8952  0.1177
  879MPD2    C112942   3.201   0.427  17.073  0.7207 -0.3673  0.1120
  879MPD2    C212943   3.172   0.312  17.004 -0.0150 -0.8299  0.5867
  879MPD2    C312944   3.107   0.321  16.884 -0.1924  0.1533  0.1507
  879MPD2    C412945   3.074   0.445  16.838 -0.1898  0.1152 -0.4282
  879MPD2    C512946   3.107   0.559  16.908 -0.4320 -0.3887  0.6400
  879MPD2     H12947   3.213   0.215  17.029 -0.0876 -1.2298 -0.8688
  879MPD2    H112948   3.032   0.449  16.738  1.4589  0.4520 -1.1078
  879MPD2    H212949   3.193   0.637  17.095  0.8886 -0.8097 -0.1949
  879MPD2    H312950   3.076   0.652  16.863  1.0835  0.0544  0.5255
  879MPD2     N12951   3.102   0.216  16.784 -0.5022 -0.6653  0.2828
  879MPD2    H512952   3.058   0.246  16.698  0.1631  0.6311  0.4070
  879MPD2    N112953   3.296   0.425  17.182  0.5073  0.6479 -1.6224
  879MPD2    H712954   3.329   0.507  17.231  0.7057  0.3976 -1.3363
  880MPD2     C12955   4.161   1.823  17.667 -0.3809  0.3578 -0.9323
  880MPD2    C112956   4.117   1.934  17.742  0.6126 -0.0632  0.4896
  880MPD2    C212957   4.128   1.923   0.126  0.2287 -0.0067  0.2957
  880MPD2    C312958   4.157   1.809   0.188  0.6785  0.1360  0.3447
  880MPD2    C412959   4.193   1.697   0.113 -0.5343 -0.4875 -0.2001
  880MPD2    C512960   4.197   1.705  17.726 -0.0502  0.8302  0.6602
  880MPD2     H12961   4.106   2.007   0.191 -1.3450 -0.9627  1.0246
  880MPD2    H112962   4.214   1.602   0.159  1.9477  0.0344 -0.2485
  880MPD2    H212963   4.166   1.829  17.559  2.8924  0.4015 -0.7680
  880MPD2    H312964   4.236   1.624  17.665 -2.0429  0.0317  0.4588
  880MPD2     N12965   4.165   1.813   0.332 -0.0001 -0.1386 -0.3164
  880MPD2    H512966   4.135   1.893   0.387 -0.4954 -0.2231 -0.4655
  880MPD2    N112967   4.078   2.055  17.677  0.2014  0.3126  0.3827
  880MPD2    H712968   4.091   2.061  17.577  0.3891 -0.5956  0.3531
  881MPD2     C12969   4.727   2.694  17.301 -0.2691  0.3321  0.3325
  881MPD2    C112970   4.678   2.572  17.256  0.6926 -0.3934  0.1169
  881MPD2    C212971   4.558   2.532  17.308  0.2377 -0.3365 -0.4569
  881MPD2    C312972   4.495   2.604  17.407 -0.6247 -0.8961  0.1801
  881MPD2    C412973   4.534   2.726  17.446 -0.2660 -0.0954 -0.0579
  881MPD2    C512974   4.654   2.769  17.386  0.0078 -0.3187 -0.3227
  881MPD2     H12975   4.511   2.447  17.260 -1.9254 -0.5581  2.0229
  881MPD2    H112976   4.499   2.787  17.528 -0.1709  1.4371 -1.1509
  881MPD2    H212977   0.081   2.736  17.263 -0.0494 -0.9081 -0.5253
  881MPD2    H312978   4.697   2.866  17.408  0.7879 -0.3670 -1.6597
  881MPD2     N12979   4.377   2.558  17.479  0.1762 -0.1450 -0.1099
  881MPD2    H512980   4.345   2.627  17.546  1.5138  0.3722 -0.0087
  881MPD2    N112981   4.735   2.516  17.141  0.1440 -0.2971  0.2100
  881MPD2    H712982   0.085   2.557  17.115  0.1779 -0.8926 -0.6010
  882MPD2     C12983   3.504   4.154  14.084  0.3155  0.5912 -0.1459
  882MPD2    C112984   3.479   4.198  14.212 -0.4201 -0.1496 -0.0912
  882MPD2    C212985   3.351   4.185  14.263  0.2289 -0.0597 -0.0628
  882MPD2    C312986   3.254   4.117  14.194 -0.3284  0.1297 -0.5576
  882MPD2    C412987   3.286   4.072  14.074 -0.5823  0.2609  0.0030
  882MPD2    C512988   3.406   4.092  14.018  0.0874  0.0740  0.6419
  882MPD2     H12989   3.314   4.218  14.359 -0.3244  1.3223 -0.7473
  882MPD2    H112990   3.226   4.029  13.994 -1.7678  0.0444  1.0093
  882MPD2    H212991   3.603   4.155  14.040  1.2866 -0.2604  1.9985
  882MPD2    H312992   3.413   4.061  13.914  0.3677 -0.3117  0.7787
  882MPD2     N12993   3.126   4.099  14.244  0.1253  0.3860  0.1428
  882MPD2    H512994   3.107   4.156  14.326  0.2709  1.6571 -0.7036
  882MPD2    N112995   3.589   4.253  14.292  0.0836  0.5811 -0.0145
  882MPD2    H712996   3.677   4.263  14.242 -0.3389  0.4512 -0.7817
  883MPD2     C12997   0.541   4.186  16.454  0.1610 -0.0415  0.0147
  883MPD2    C112998   0.643   4.239  16.382  0.2201  0.4350 -0.1945
  883MPD2    C212999   0.774   4.262  16.439  0.2255  0.2938  0.6909
  883MPD2    C313000   0.800   4.215  16.565  0.1656  0.1494  0.2639
  883MPD2    C413001   0.701   4.145  16.629  0.6118  0.2207 -0.1094
  883MPD2    C513002   0.576   4.132  16.579  0.7418 -0.0350  0.3506
  883MPD2     H13003   0.855   4.298  16.377  2.0774 -1.1818  2.2664
  883MPD2    H113004   0.718   4.107  16.728  0.9189 -0.1211 -0.2939
  883MPD2    H213005   0.446   4.154  16.414 -0.1691  0.0029  0.7788
  883MPD2    H313006   0.501   4.084  16.642 -0.8759  1.7589 -0.2156
  883MPD2     N13007   0.932   4.247  16.614 -0.2463 -0.6124  0.9082
  883MPD2    H513008   0.999   4.294  16.554 -0.9420  1.0518  1.4217
  883MPD2    N113009   0.619   4.286  16.254 -0.6406 -0.6713 -0.6928
  883MPD2    H713010   0.689   4.338  16.203 -3.2748  2.0805 -1.5053
  884MPD2     C13011   2.609   0.971  14.839 -0.2568  0.2340 -0.7085
  884MPD2    C113012   2.548   0.855  14.790 -0.3524 -0.3926 -0.0589
  884MPD2    C213013   2.415   0.834  14.817 -0.3812  0.9755 -0.0116
  884MPD2    C313014   2.347   0.924  14.891  0.7215 -0.1865 -0.0015
  884MPD2    C413015   2.402   1.045  14.929  0.4392 -0.4410  1.0297
  884MPD2    C513016   2.533   1.066  14.899 -0.1824 -0.2897  0.0565
  884MPD2     H13017   2.358   0.752  14.776  2.5915 -0.9079 -0.3852
  884MPD2    H113018   2.349   1.126  14.978 -0.2401 -0.5890  0.5377
  884MPD2    H213019   2.715   0.989  14.828  0.0870 -1.0245  0.5181
  884MPD2    H313020   2.579   1.161  14.922 -3.0979  0.8415  1.2220
  884MPD2     N13021   2.208   0.899  14.919 -0.2799 -0.2976 -0.3801
  884MPD2    H513022   2.163   0.825  14.867 -0.8182 -0.1718 -0.0919
  884MPD2    N113023   2.626   0.761  14.720  0.2158 -0.2162 -0.4358
  884MPD2    H713024   2.725   0.778  14.704  0.0701  0.5824 -0.5032
  885MPD2     C13025   0.387   0.607   0.369 -0.3683 -0.0542 -0.9207
  885MPD2    C113026   0.458   0.503   0.321  0.1468  0.2619  0.0627
  885MPD2    C213027   0.465   0.496   0.180  0.1562 -0.4112 -0.3299
  885MPD2    C313028   0.411   0.591   0.099  0.8702 -0.3041 -0.1547
  885MPD2    C413029   0.359   0.704   0.159  0.0870  0.0988 -0.4171
  885MPD2    C513030   0.338   0.701   0.287 -0.2546 -0.0486 -0.2566
  885MPD2     H13031   0.532   0.427   0.132 -1.4391 -0.0019 -3.1175
  885MPD2    H113032   0.322   0.791   0.107 -0.3093  0.1276 -0.0867
  885MPD2    H213033   0.360   0.618   0.473 -0.7774  2.9453 -1.3611
  885MPD2    H313034   0.278   0.778   0.334 -1.1399 -0.6530 -0.3873
  885MPD2     N13035   0.428   0.571  17.709 -0.4570  0.3238 -1.1999
  885MPD2    H513036   0.496   0.498  17.690 -0.4857 -0.4558  1.6983
  885MPD2    N113037   0.514   0.404   0.405  0.1269 -0.7708 -0.0029
  885MPD2    H713038   0.505   0.414   0.506  1.3863 -1.1105  0.1530
  886MPD2     C13039   2.181   3.887  15.425  0.0530  1.0152  0.2717
  886MPD2    C113040   2.284   3.951  15.480 -0.2937 -0.4687 -0.9643
  886MPD2    C213041   2.287   4.089  15.470  0.5952 -0.2710 -0.2006
  886MPD2    C313042   2.198   4.170  15.391 -0.3918 -0.0960  0.3401
  886MPD2    C413043   2.097   4.100  15.332  0.2643  0.2019  0.1502
  886MPD2    C513044   2.096   3.964  15.344  0.1081  0.2965 -0.3384
  886MPD2     H13045   2.372   4.145  15.507  2.1132 -1.8954 -1.1756
  886MPD2    H113046   2.031   4.141  15.256 -0.3715 -0.4177  0.3746
  886MPD2    H213047   2.172   3.780  15.408 -1.0927  0.9823  1.0590
  886MPD2    H313048   2.022   3.911  15.287  0.0031  0.8666 -0.7331
  886MPD2     N13049   2.230   4.302  15.360 -0.0195  0.0167  0.1517
  886MPD2    H513050   2.213   4.330  15.264 -2.8468  0.3154  0.7343
  886MPD2    N113051   2.383   3.886  15.559  0.3102 -0.7109  0.0853
  886MPD2    H713052   2.447   3.947  15.609 -0.8224  0.6624 -0.1317
  887MPD2     C13053   3.012   3.910  15.980  0.1801  0.5707 -0.3098
  887MPD2    C113054   2.904   3.952  15.909 -0.1316  0.7303  0.1012
  887MPD2    C213055   2.907   4.080  15.852  0.2882  0.3503  0.0258
  887MPD2    C313056   3.013   4.169  15.865 -0.7361 -0.7033 -0.1285
  887MPD2    C413057   3.119   4.120  15.939  0.2900  0.1456  0.3871
  887MPD2    C513058   3.117   3.995  15.983  0.4358 -0.5921 -0.0675
  887MPD2     H13059   2.820   4.106  15.793  0.0117  3.0044  1.6107
  887MPD2    H113060   3.210   4.178  15.940 -0.0306  0.6770 -2.0122
  887MPD2    H213061   3.022   3.808  16.016 -3.9688  0.6194  0.9340
  887MPD2    H313062   3.207   3.957  16.031  1.6025  1.2746 -0.8006
  887MPD2     N13063   3.002   4.291  15.794 -0.0389  0.5064 -0.0134
  887MPD2    H513064   2.929   4.294  15.724 -0.0810  1.1602  0.0628
  887MPD2    N113065   2.782   3.878  15.886 -0.2503 -0.1913 -0.3066
  887MPD2    H713066   2.698   3.929  15.861  0.1224  0.5254 -0.0983
  888MPD2     C13067   4.603   3.636  15.206  0.4667  0.1957 -0.8189
  888MPD2    C113068   4.475   3.684  15.190 -0.3124 -0.1108  1.0524
  888MPD2    C213069   4.455   3.820  15.167  0.1933  0.3682 -0.4242
  888MPD2    C313070   4.565   3.901  15.145 -0.1576  0.3380  0.2131
  888MPD2    C413071   4.687   3.842  15.142 -0.0817 -0.2932  0.5957
  888MPD2    C513072   4.709   3.714  15.177 -0.4380  0.0366  0.2404
  888MPD2     H13073   4.356   3.863  15.158  0.3018  0.3027 -1.9371
  888MPD2    H113074   0.042   3.896  15.134  0.1311 -0.7429  0.0150
  888MPD2    H213075   4.626   3.530  15.215  1.3149  0.5279  0.8705
  888MPD2    H313076   0.073   3.681  15.172 -0.8149 -1.4044  1.8935
  888MPD2     N13077   4.542   4.041  15.118 -0.4008  0.1941 -0.7413
  888MPD2    H513078   4.449   4.076  15.140  1.5898  3.9165  1.5976
  888MPD2    N113079   4.363   3.595  15.196  0.2313 -0.1308 -0.3281
  888MPD2    H713080   4.278   3.615  15.144  0.1799 -3.1521 -1.4090
  889MPD2     C13081   4.288   3.349  12.798  0.6820  0.1453  0.3063
  889MPD2    C113082   4.317   3.296  12.926 -0.0813  0.0249 -0.1346
  889MPD2    C213083   4.351   3.367  13.036 -0.0762 -0.5014 -0.5450
  889MPD2    C313084   4.321   3.505  13.034 -0.0883 -0.1947 -0.0319
  889MPD2    C413085   4.285   3.559  12.908  0.1157  0.3297 -0.5814
  889MPD2    C513086   4.268   3.483  12.796  0.1555 -0.2632  0.5129
  889MPD2     H13087   4.373   3.322  13.132 -0.8730 -0.0639 -0.1578
  889MPD2    H113088   4.253   3.662  12.905 -0.9781  0.0989  2.3474
  889MPD2    H213089   4.232   3.295  12.722  1.3094 -1.5859  1.0994
  889MPD2    H313090   4.217   3.530  12.713  0.6151  2.3591  1.7104
  889MPD2     N13091   4.337   3.573  13.154 -0.0357 -0.0055 -0.1201
  889MPD2    H513092   4.343   3.522  13.242  1.0839  1.9720  0.9610
  889MPD2    N113093   4.347   3.156  12.923  1.0717  0.0410 -0.2756
  889MPD2    H713094   4.386   3.119  13.009  0.0371  0.6419  0.4415
  890MPD2     C13095   3.622   4.713  14.242 -0.0083 -0.2455  0.4632
  890MPD2    C113096   3.755   0.010  14.258 -0.1948 -0.0331 -0.4317
  890MPD2    C213097   3.818   0.004  14.388  0.3035 -0.4887 -0.1204
  890MPD2    C313098   3.738   4.718  14.497 -0.2806  0.7801  1.0604
  890MPD2    C413099   3.605   4.687  14.477  0.3936  0.6432  1.0260
  890MPD2    C513100   3.551   4.681  14.355  0.0080 -0.7918 -0.2331
  890MPD2     H13101   3.919   0.036  14.412  0.2652  0.3406 -1.0485
  890MPD2    H113102   3.537   4.652  14.554 -0.7858 -2.3458 -1.3550
  890MPD2    H213103   3.581   4.708  14.142 -0.0743 -1.7832  0.5693
  890MPD2    H313104   3.448   4.653  14.340 -0.6056  1.7594 -0.7490
  890MPD2     N13105   3.807   4.708  14.625 -0.2542  0.4997 -0.4538
  890MPD2    H513106   3.907   4.720  14.631 -0.4566  1.9636  0.0238
  890MPD2    N113107   3.818   0.082  14.150  0.7313  0.2090  0.4508
  890MPD2    H713108   3.763   0.143  14.089 -0.2278 -0.2676  0.8358
  891MPD2     C13109   1.658   3.438  16.377  0.1829  0.9371 -0.2706
  891MPD2    C113110   1.579   3.456  16.486 -0.1416 -0.5249 -0.1157
  891MPD2    C213111   1.598   3.368  16.593 -0.0651  0.2949  0.9160
  891MPD2    C313112   1.704   3.277  16.600  0.4596  0.9446 -0.0699
  891MPD2    C413113   1.786   3.267  16.491 -0.0375  0.7716 -0.2223
  891MPD2    C513114   1.768   3.351  16.380 -0.0706  0.0181  0.2725
  891MPD2     H13115   1.521   3.364  16.669  2.3000  0.7956  3.3308
  891MPD2    H113116   1.871   3.200  16.487 -0.8854 -0.5005  3.2132
  891MPD2    H213117   1.640   3.487  16.282 -1.2842  1.7982  0.4453
  891MPD2    H313118   1.833   3.342  16.294  0.0988  0.1018  0.3928
  891MPD2     N13119   1.705   3.187  16.715 -0.0007  0.8686  0.0800
  891MPD2    H513120   1.628   3.198  16.780  0.8305 -3.0071  1.6849
  891MPD2    N113121   1.472   3.546  16.469  0.1382 -0.0977  0.2929
  891MPD2    H713122   1.481   3.601  16.384 -0.7600  0.6096  0.6478
  892MPD2     C13123   2.845   4.484  14.964 -0.2679 -0.2478 -0.5052
  892MPD2    C113124   2.778   4.506  14.846 -0.6043  0.1980  0.7807
  892MPD2    C213125   2.758   4.411  14.749 -0.2445  0.0847 -0.1157
  892MPD2    C313126   2.824   4.291  14.761 -0.1997 -0.1906 -0.3831
  892MPD2    C413127   2.899   4.264  14.878  0.2441  0.4219  0.9132
  892MPD2    C513128   2.897   4.357  14.978 -1.5132 -0.2613  0.5879
  892MPD2     H13129   2.692   4.437  14.667 -1.4869  2.2498  1.5739
  892MPD2    H113130   2.959   4.176  14.895 -0.5608 -0.5087 -1.0609
  892MPD2    H213131   2.850   4.561  15.040  0.4531  0.3305 -1.1388
  892MPD2    H313132   2.939   4.339  15.076  1.1940  1.0757 -0.3437
  892MPD2     N13133   2.821   4.190  14.662 -0.1819  0.8385  0.1815
  892MPD2    H513134   2.857   4.102  14.698  0.2500  0.5368 -0.9702
  892MPD2    N113135   2.704   4.628  14.811  0.2601  0.2537  0.6302
  892MPD2    H713136   2.681   4.640  14.713  0.5401 -0.6290  0.4520
  893MPD2     C13137   3.847   3.832   1.615 -0.3684  0.4882 -0.1366
  893MPD2    C113138   3.782   3.737   1.533  0.2540  0.5391  0.2519
  893MPD2    C213139   3.660   3.692   1.571 -0.5955 -0.8200 -0.1390
  893MPD2    C313140   3.593   3.741   1.679  0.1697 -0.1860 -0.1528
  893MPD2    C413141   3.659   3.837   1.758 -0.7796 -0.7863  0.2164
  893MPD2    C513142   3.791   3.870   1.733  0.6977 -0.4038  0.5427
  893MPD2     H13143   3.614   3.619   1.506  0.9256 -0.3059 -1.7791
  893MPD2    H113144   3.611   3.884   1.843  3.0306  1.0265  1.3377
  893MPD2    H213145   3.947   3.863   1.587 -0.5847  0.8065 -0.5696
  893MPD2    H313146   3.843   3.940   1.797  3.5411 -1.9184 -0.1100
  893MPD2     N13147   3.461   3.710   1.719 -0.4316 -0.4553 -0.1032
  893MPD2    H513148   3.421   3.756   1.800 -1.5180 -1.5379 -0.0228
  893MPD2    N113149   3.849   3.695   1.418  0.2319 -0.0870  0.5910
  893MPD2    H713150   3.949   3.707   1.424 -0.1249  2.0233  2.2282
  894MPD2     C13151   1.280   0.357   1.891 -0.0878  0.4136 -0.4743
  894MPD2    C113152   1.304   0.413   1.770  0.2012  0.4009  0.4486
  894MPD2    C213153   1.416   0.369   1.701  0.1897  0.3748 -0.1031
  894MPD2    C313154   1.502   0.288   1.765  0.7157 -0.5295  0.3708
  894MPD2    C413155   1.479   0.238   1.889  0.5611  0.1526  0.0136
  894MPD2    C513156   1.363   0.269   1.952  0.0671 -0.2410  0.5222
  894MPD2     H13157   1.437   0.415   1.605  0.5070  2.3105  0.9046
  894MPD2    H113158   1.551   0.166   1.927  0.5177 -0.7050 -1.5254
  894MPD2    H213159   1.193   0.375   1.954  0.3581  1.1784 -0.0689
  894MPD2    H313160   1.335   0.231   2.049 -3.1709 -1.3289 -0.8504
  894MPD2     N13161   1.624   0.269   1.694  0.2459  0.3062  0.4956
  894MPD2    H513162   1.623   0.314   1.603 -2.3467 -0.1544  0.3078
  894MPD2    N113163   1.214   0.492   1.695 -0.4979 -0.1601  0.1553
  894MPD2    H713164   1.233   0.512   1.598 -3.6835  2.7182  0.1605
  895MPD2     C13165   2.351   2.618  13.609 -0.7709 -0.4961 -0.1247
  895MPD2    C113166   2.232   2.677  13.588 -0.3631 -0.1410  0.3313
  895MPD2    C213167   2.127   2.603  13.541  0.1062 -0.3174  0.2421
  895MPD2    C313168   2.151   2.477  13.496  0.1056 -0.3315  0.1975
  895MPD2    C413169   2.271   2.414  13.524  0.2748 -0.5641  0.1578
  895MPD2    C513170   2.376   2.489  13.570  0.2441 -0.0830 -0.9059
  895MPD2     H13171   2.043   2.663  13.508  0.3420 -0.1805 -0.1156
  895MPD2    H113172   2.294   2.310  13.508  0.4916 -0.5128  0.1429
  895MPD2    H213173   2.439   2.671  13.643 -0.5242 -0.9976  0.0108
  895MPD2    H313174   2.473   2.449  13.601  1.4200  1.2531 -2.8907
  895MPD2     N13175   2.045   2.420  13.428  0.4102 -0.1257 -0.3056
  895MPD2    H513176   1.967   2.482  13.409 -0.1549 -0.8278 -0.2848
  895MPD2    N113177   2.214   2.812  13.590  0.2415  0.3270 -0.4271
  895MPD2    H713178   2.120   2.845  13.567 -0.6186 -1.5245  0.4553
  896MPD2     C13179   3.325   1.436   1.256  0.3339 -0.5520 -0.9344
  896MPD2    C113180   3.341   1.378   1.137  0.1029  0.0711  0.0257
  896MPD2    C213181   3.238   1.313   1.072 -0.4026 -0.2666  0.0374
  896MPD2    C313182   3.115   1.300   1.137  0.3423 -0.3827 -0.1925
  896MPD2    C413183   3.105   1.346   1.267  0.3980  0.6845 -0.9844
  896MPD2    C513184   3.204   1.421   1.321 -0.3516  0.4722  0.4638
  896MPD2     H13185   3.248   1.280   0.969 -0.1180 -2.1463  0.6659
  896MPD2    H113186   3.019   1.314   1.325  0.0796 -0.3388 -2.0099
  896MPD2    H213187   3.394   1.508   1.299 -2.1726  0.8473  0.7817
  896MPD2    H313188   3.193   1.464   1.419  1.4812 -1.2075  1.3942
  896MPD2     N13189   3.010   1.220   1.084 -0.0444 -0.5934 -0.2188
  896MPD2    H513190   3.031   1.163   1.002  0.5402 -2.3487  1.1596
  896MPD2    N113191   3.463   1.412   1.069  0.7101  0.5899  0.8631
  896MPD2    H713192   3.532   1.470   1.117  1.8378 -0.4158  0.4809
  897MPD2     C13193   0.410   3.043  10.668  0.2403 -0.3055 -0.0853
  897MPD2    C113194   0.457   3.173  10.693  0.0245  0.2316  0.1729
  897MPD2    C213195   0.441   3.233  10.823 -0.5704 -0.0877  0.0576
  897MPD2    C313196   0.366   3.169  10.919 -0.5057  0.3577  0.2648
  897MPD2    C413197   0.315   3.043  10.894  0.8137 -0.2390  0.3043
  897MPD2    C513198   0.343   2.982  10.774  0.1058 -0.2814 -0.0590
  897MPD2     H13199   0.474   3.334  10.842 -1.1205  0.2181 -0.6218
  897MPD2    H113200   0.253   2.993  10.968  0.3750  0.2850  0.2919
  897MPD2    H213201   0.430   2.990  10.576 -0.7485 -1.4020  0.3417
  897MPD2    H313202   0.313   2.881  10.746  0.3356  0.0203 -1.3977
  897MPD2     N13203   0.335   3.255  11.032  0.2065 -0.0370 -0.1134
  897MPD2    H513204   0.373   3.349  11.030 -0.2274  0.1553  0.7711
  897MPD2    N113205   0.521   3.239  10.586 -0.6104 -0.6002  0.2990
  897MPD2    H713206   0.551   3.180  10.508 -0.9736  0.8484 -0.9292
  898MPD2     C13207   1.582   3.886  17.299 -0.3248 -0.6676  0.2094
  898MPD2    C113208   1.709   3.871  17.339 -0.4239  0.1975  0.0483
  898MPD2    C213209   1.789   3.987  17.338 -0.2242 -0.7387  0.5263
  898MPD2    C313210   1.753   4.114  17.301  0.0638 -0.3519 -0.1920
  898MPD2    C413211   1.619   4.134  17.267 -0.4319  0.0386  0.5387
  898MPD2    C513212   1.539   4.024  17.265 -0.2191  1.0200 -0.1147
  898MPD2     H13213   1.893   3.984  17.371 -0.7981  0.6473  2.5130
  898MPD2    H113214   1.578   4.232  17.247  0.4812  0.1626 -0.6789
  898MPD2    H213215   1.515   3.801  17.298 -2.5874  1.0774  2.3584
  898MPD2    H313216   1.442   4.056  17.228 -0.1427 -0.1286 -1.3142
  898MPD2     N13217   1.858   4.216  17.309 -0.8257  0.7184  0.1571
  898MPD2    H513218   1.941   4.196  17.364 -1.9890 -3.0153  0.5925
  898MPD2    N113219   1.756   3.744  17.380  0.3765 -0.2869 -0.2931
  898MPD2    H713220   1.857   3.732  17.375  0.1826 -1.2290 -2.0675
  899MPD2     C13221   3.139   4.453  17.707  0.0012  0.4601 -0.4699
  899MPD2    C113222   3.017   4.477  17.664 -0.5987 -0.1919  0.3326
  899MPD2    C213223   2.924   4.378  17.687  0.6550 -0.4819  0.0684
  899MPD2    C313224   2.954   4.262   0.014  0.2789 -1.2641 -0.2175
  899MPD2    C413225   3.079   4.252   0.071  0.1567  0.2676  0.7559
  899MPD2    C513226   3.168   4.350   0.037 -0.3974 -0.1816  0.3225
  899MPD2     H13227   2.834   4.397  17.631  0.2948  2.2013  1.5442
  899MPD2    H113228   3.121   4.173   0.133  0.2436 -0.3201 -0.0538
  899MPD2    H213229   3.217   4.524  17.684 -1.0319  1.2004 -1.6340
  899MPD2    H313230   3.267   4.351   0.081 -0.0165 -0.7031 -0.5107
  899MPD2     N13231   2.857   4.162   0.054  0.0592 -1.1092 -0.7645
  899MPD2    H513232   2.896   4.082   0.102  2.2836 -1.5762 -3.3511
  899MPD2    N113233   3.001   4.584  17.573 -0.6677  0.2065 -0.0377
  899MPD2    H713234   3.091   4.625  17.551 -1.4079  1.9231  0.0758
  900MPD2     C13235   3.140   1.158  12.639 -0.1809  0.1655 -1.1344
  900MPD2    C113236   3.027   1.088  12.642 -0.1895 -0.2132  0.3762
  900MPD2    C213237   2.917   1.132  12.562  0.9095  0.0356  0.7666
  900MPD2    C313238   2.927   1.246  12.488 -0.5078  0.6387  0.1192
  900MPD2    C413239   3.043   1.315  12.490 -0.1714  0.3932  0.2045
  900MPD2    C513240   3.141   1.274  12.568  0.1145 -0.2499  0.3854
  900MPD2     H13241   2.822   1.079  12.561  1.7404 -1.4276 -1.4264
  900MPD2    H113242   3.059   1.406  12.432  1.5788  1.0365  1.7016
  900MPD2    H213243   3.228   1.131  12.695 -0.1237  1.4089 -0.6293
  900MPD2    H313244   3.234   1.329  12.567 -0.3916  0.5957 -0.5652
  900MPD2     N13245   2.808   1.296  12.424 -0.3847 -0.5249  0.4555
  900MPD2    H513246   2.726   1.236  12.436 -0.8421 -0.5990 -2.9068
  900MPD2    N113247   3.034   0.970  12.725 -0.9102 -0.3534 -0.0055
  900MPD2    H713248   3.118   0.960  12.780 -0.2922 -0.0936 -0.9059
  901MPD2     C13249   2.557   0.031  12.881 -0.5217  0.8925  0.4373
  901MPD2    C113250   2.697   0.015  12.879 -0.3691 -0.0223  1.4617
  901MPD2    C213251   2.773   0.131  12.901 -0.0289 -0.3596 -0.4137
  901MPD2    C313252   2.709   0.250  12.928 -0.2193 -0.5667  0.7237
  901MPD2    C413253   2.576   0.265  12.927 -0.5053 -0.4919 -0.4646
  901MPD2    C513254   2.497   0.153  12.906  0.1758 -1.1022 -0.3921
  901MPD2     H13255   2.882   0.131  12.900 -0.0411 -1.3761 -1.2585
  901MPD2    H113256   2.520   0.356  12.946  0.8812 -0.6455  4.4099
  901MPD2    H213257   2.489   4.691  12.850 -0.3674  1.1222 -0.4990
  901MPD2    H313258   2.390   0.170  12.916  0.1506 -0.1506 -2.2376
  901MPD2     N13259   2.795   0.357  12.945 -0.1907  0.5023  0.1109
  901MPD2    H513260   2.893   0.344  12.922 -0.1896  0.7809 -0.0417
  901MPD2    N113261   2.743   4.617  12.878 -0.2972 -0.4354  0.1958
  901MPD2    H713262   2.675   4.542  12.881 -2.0886  1.1072 -1.1486
  902MPD2     C13263   1.759   3.761  13.088 -0.3039 -1.5998  0.0984
  902MPD2    C113264   1.857   3.746  12.990  0.2476 -0.1128  0.9977
  902MPD2    C213265   1.927   3.626  12.981  0.0837  0.1588  0.4447
  902MPD2    C313266   1.897   3.516  13.066  0.0947 -1.2070 -0.0702
  902MPD2    C413267   1.796   3.528  13.159  0.1412  1.0031  0.6543
  902MPD2    C513268   1.728   3.653  13.164  0.6687  0.4458 -0.4930
  902MPD2     H13269   1.991   3.623  12.893  0.4120 -1.9953  0.7347
  902MPD2    H113270   1.770   3.446  13.224 -1.4532  0.5325 -0.5896
  902MPD2    H213271   1.697   3.850  13.086  0.9597 -0.7198  0.4513
  902MPD2    H313272   1.660   3.664  13.248  0.7020  1.0633 -0.5538
  902MPD2     N13273   1.959   3.387  13.053  0.6172  0.5466  0.8152
  902MPD2    H513274   1.931   3.309  13.111  0.8078 -1.4386 -1.7418
  902MPD2    N113275   1.866   3.853  12.897  0.2092 -0.2678  0.2439
  902MPD2    H713276   1.810   3.932  12.930 -1.6503 -1.2138 -0.6374
  903MPD2     C13277   2.413   3.359  12.493 -0.5583  0.2905 -0.8562
  903MPD2    C113278   2.328   3.393  12.600 -0.4785 -0.5265 -1.0383
  903MPD2    C213279   2.256   3.507  12.599  0.7862 -0.0172 -0.2469
  903MPD2    C313280   2.256   3.585  12.489 -0.1219 -0.9672 -0.6501
  903MPD2    C413281   2.346   3.560  12.386  0.1824 -0.0729 -1.0962
  903MPD2    C513282   2.418   3.442  12.393  0.4441  0.1354  0.1407
  903MPD2     H13283   2.199   3.532  12.688 -0.1332  1.9107 -1.3891
  903MPD2    H113284   2.371   3.624  12.302  2.2088  0.8938  0.2427
  903MPD2    H213285   2.485   3.279  12.505 -2.9322 -1.5473  1.1075
  903MPD2    H313286   2.491   3.419  12.316  1.9268 -0.6163  1.7611
  903MPD2     N13287   2.152   3.684  12.485  0.9289  0.0947  0.4617
  903MPD2    H513288   2.090   3.690  12.564 -1.3178  4.6803 -1.6614
  903MPD2    N113289   2.311   3.309  12.714 -0.1590  0.1429  0.0447
  903MPD2    H713290   2.261   3.350  12.792 -1.4961  0.4029 -0.9407
  904MPD2     C13291   2.378   2.643  13.980  0.7609 -0.2877 -0.5459
  904MPD2    C113292   2.360   2.765  14.039 -0.0420  0.6926 -0.4249
  904MPD2    C213293   2.470   2.822  14.108 -0.0913 -0.4289 -0.6195
  904MPD2    C313294   2.589   2.749  14.115  0.1504 -0.5201  0.0128
  904MPD2    C413295   2.596   2.625  14.055  0.4586 -0.0615 -0.5926
  904MPD2    C513296   2.494   2.579  13.978 -0.2972 -0.1110 -0.4506
  904MPD2     H13297   2.466   2.921  14.153  0.8918 -0.0797 -1.2786
  904MPD2    H113298   2.681   2.559  14.049  0.9060  0.3375  1.5124
  904MPD2    H213299   2.304   2.591  13.920 -0.1592  2.0105 -1.4081
  904MPD2    H313300   2.509   2.487  13.923  1.3317 -0.9641  1.4157
  904MPD2     N13301   2.689   2.807  14.190 -0.0346 -0.1592  0.7815
  904MPD2    H513302   2.681   2.902  14.227 -1.1460 -0.0004  0.1489
  904MPD2    N113303   2.234   2.827  14.003  0.3702  0.1070 -0.0553
  904MPD2    H713304   2.163   2.764  13.967  2.6730 -3.2822  1.2721
  905MPD2     C13305   1.550   2.981  13.521 -0.5227 -0.3119  0.3884
  905MPD2    C113306   1.669   2.921  13.552  0.7250 -0.4027 -0.0962
  905MPD2    C213307   1.706   2.804  13.485 -0.4421 -0.5271 -0.0623
  905MPD2    C313308   1.617   2.758  13.384 -0.0576  0.1380 -0.1751
  905MPD2    C413309   1.496   2.813  13.362  0.1554 -0.1035 -0.1222
  905MPD2    C513310   1.464   2.926  13.431 -0.6111 -0.3248  0.4002
  905MPD2     H13311   1.783   2.738  13.524 -0.8381 -1.2931 -0.5688
  905MPD2    H113312   1.430   2.782  13.283 -0.6555 -0.1231  0.5631
  905MPD2    H213313   1.522   3.072  13.574  0.2151 -0.6898  1.4374
  905MPD2    H313314   1.377   2.984  13.399 -0.2890 -0.2388 -0.3358
  905MPD2     N13315   1.650   2.644  13.307  0.0831  0.0451 -0.3241
  905MPD2    H513316   1.578   2.601  13.249 -1.6880  2.2354  0.2659
  905MPD2    N113317   1.728   2.968  13.670 -0.3707 -0.2965  0.2431
  905MPD2    H713318   1.667   3.017  13.735  1.1727  0.3353  1.2291
  906MPD2     C13319   3.901   3.250  11.341 -0.0628 -0.6098  0.0680
  906MPD2    C113320   3.953   3.184  11.231  0.2402  0.4609 -0.1064
  906MPD2    C213321   3.972   3.049  11.234 -0.4747  0.1519 -0.2701
  906MPD2    C313322   3.952   2.968  11.345 -0.5817 -0.2345 -0.4168
  906MPD2    C413323   3.893   3.032  11.458 -0.3252 -0.6219  0.2612
  906MPD2    C513324   3.888   3.174  11.456 -0.3821  0.1787 -1.0681
  906MPD2     H13325   4.008   3.000  11.144 -0.9402 -1.2365  0.3012
  906MPD2    H113326   3.881   2.969  11.545 -1.4461 -1.0108 -0.1778
  906MPD2    H213327   3.868   3.353  11.334 -2.1134 -1.2647  0.1040
  906MPD2    H313328   3.846   3.223  11.542  0.5351  2.0672 -1.6972
  906MPD2     N13329   3.943   2.828  11.340  0.3032 -0.8832  0.3338
  906MPD2    H513330   3.887   2.781  11.411  2.3051 -2.0348  1.1408
  906MPD2    N113331   3.958   3.254  11.103 -0.0903 -0.1557  0.5249
  906MPD2    H713332   3.983   3.188  11.030  0.5603  0.6858 -0.0159
  907MPD2     C13333   1.955   2.707  15.827 -0.2242 -0.1514  0.1091
  907MPD2    C113334   2.082   2.651  15.838 -0.5469 -0.8654 -0.1439
  907MPD2    C213335   2.123   2.590  15.959  0.0786  0.3944  0.5002
  907MPD2    C313336   2.035   2.592  16.062  0.0015  0.1464 -0.2422
  907MPD2    C413337   1.912   2.656  16.059  0.3710 -0.5566 -0.5527
  907MPD2    C513338   1.871   2.705  15.937 -0.2282 -0.4552  0.1611
  907MPD2     H13339   2.216   2.535  15.966  0.0926  0.4121  0.4548
  907MPD2    H113340   1.842   2.654  16.141  0.3225 -3.8501 -0.6695
  907MPD2    H213341   1.918   2.742  15.731 -1.2569 -1.8978 -0.1472
  907MPD2    H313342   1.774   2.752  15.938 -0.0681 -0.1550  1.1736
  907MPD2     N13343   2.081   2.530  16.181 -0.1404  0.1192 -1.1852
  907MPD2    H513344   2.177   2.498  16.188 -0.2418 -0.0008 -0.3034
  907MPD2    N113345   2.171   2.639  15.736  0.5226  0.8610 -0.1301
  907MPD2    H713346   2.257   2.591  15.759  0.4874  0.4489 -0.8502
  908MPD2     C13347   0.809   2.990   9.804 -0.4989 -0.3295 -0.4443
  908MPD2    C113348   0.690   3.055   9.827  0.2494 -0.2126  0.4332
  908MPD2    C213349   0.680   3.139   9.937 -0.4117 -0.7190 -0.7673
  908MPD2    C313350   0.789   3.163  10.015 -0.1131 -0.4496  0.5657
  908MPD2    C413351   0.914   3.127   9.972  0.2872 -0.6404  0.3133
  908MPD2    C513352   0.927   3.038   9.868  0.4390 -0.3295 -0.5335
  908MPD2     H13353   0.581   3.174   9.962  0.0474  0.9115 -1.2171
  908MPD2    H113354   1.004   3.158  10.023  1.2935 -1.2357 -1.0953
  908MPD2    H213355   0.821   2.913   9.729  0.6330 -2.0212  1.4893
  908MPD2    H313356   1.023   3.000   9.835 -0.3280 -2.8120  0.1422
  908MPD2     N13357   0.769   3.236  10.135  0.7030  0.7034  0.3881
  908MPD2    H513358   0.676   3.262  10.168  0.1403  2.1807 -2.3376
  908MPD2    N113359   0.576   3.009   9.749 -0.4934 -0.2323 -0.0021
  908MPD2    H713360   0.594   2.922   9.699 -1.3002  1.1404 -2.6726
  909MPD2     C13361   0.744   1.099  11.632 -0.2629  0.4537 -0.6496
  909MPD2    C113362   0.805   1.223  11.635  0.6172  0.5881 -0.5714
  909MPD2    C213363   0.776   1.308  11.737 -0.2354 -0.0984  0.8877
  909MPD2    C313364   0.698   1.269  11.844 -0.0576 -0.0405 -0.2631
  909MPD2    C413365   0.641   1.142  11.845 -0.9664  0.0422 -0.0553
  909MPD2    C513366   0.658   1.060  11.733 -0.9319 -0.0015  0.2340
  909MPD2     H13367   0.820   1.407  11.738 -0.7708  0.1488  0.0729
  909MPD2    H113368   0.574   1.117  11.926 -0.4858  1.1105  0.6834
  909MPD2    H213369   0.750   1.025  11.553  0.4189 -0.0820 -0.0904
  909MPD2    H313370   0.615   0.960  11.727 -1.0652  0.1904 -2.0218
  909MPD2     N13371   0.673   1.368  11.937  0.1360  0.2302  0.2203
  909MPD2    H513372   0.728   1.452  11.921  1.9506 -0.4940  2.5419
  909MPD2    N113373   0.899   1.258  11.535 -0.3305  0.4593  0.6002
  909MPD2    H713374   0.934   1.353  11.537 -1.6038  0.9700 -1.2400
  910MPD2     C13375   1.752   2.839  16.362  0.2173 -0.3252 -0.2340
  910MPD2    C113376   1.650   2.758  16.314 -0.3159 -0.5859 -0.4267
  910MPD2    C213377   1.589   2.792  16.197  0.0171 -0.0841 -0.1707
  910MPD2    C313378   1.639   2.897  16.119  0.0134  0.2340  0.1364
  910MPD2    C413379   1.736   2.984  16.176  0.2331 -0.2950  0.2004
  910MPD2    C513380   1.794   2.953  16.296 -0.0479  0.4587  0.1343
  910MPD2     H13381   1.504   2.732  16.164  0.1990 -0.6922  0.4528
  910MPD2    H113382   1.766   3.076  16.128 -1.6842 -0.0213 -0.4474
  910MPD2    H213383   1.809   2.810  16.449  0.5755  0.1430 -0.3112
  910MPD2    H313384   1.877   3.018  16.320  1.3883 -0.7723 -1.5973
  910MPD2     N13385   1.592   2.932  15.995 -0.0341 -0.1693 -0.7294
  910MPD2    H513386   1.640   3.012  15.954 -0.3337 -1.1166 -2.9156
  910MPD2    N113387   1.608   2.635  16.381  0.3035  0.0781  0.0443
  910MPD2    H713388   1.539   2.576  16.335 -1.1659  0.7073  1.4604
  911MPD2     C13389   4.451   3.439  16.257  0.0818 -0.1769 -0.0859
  911MPD2    C113390   4.516   3.539  16.323 -0.5180 -0.1428  0.5161
  911MPD2    C213391   4.480   3.668  16.294  0.1382  0.0598  0.5148
  911MPD2    C313392   4.380   3.703  16.205 -0.3171  0.2690  0.3561
  911MPD2    C413393   4.323   3.597  16.135 -0.8382 -0.2727  0.5819
  911MPD2    C513394   4.360   3.465  16.161  0.4490  0.5393 -0.1202
  911MPD2     H13395   4.528   3.740  16.359 -3.2172  1.1020  1.8489
  911MPD2    H113396   4.256   3.617  16.053  1.2301 -2.1396 -1.5409
  911MPD2    H213397   4.485   3.336  16.263 -1.0033 -0.5651 -0.7030
  911MPD2    H313398   4.319   3.380  16.108 -0.3392  0.9804 -0.2172
  911MPD2     N13399   4.336   3.834  16.184  0.2352 -0.5788 -0.2684
  911MPD2    H513400   4.261   3.833  16.115 -0.3919 -1.6735  0.4213
  911MPD2    N113401   4.626   3.497  16.399  0.1103  0.5248 -0.5549
  911MPD2    H713402   4.631   3.395  16.395  0.6346  0.5187  0.2221
  912MPD2     C13403   4.135   3.760  15.570 -0.8755 -0.2599  0.6641
  912MPD2    C113404   4.112   3.771  15.706  0.5849 -0.4376  0.3149
  912MPD2    C213405   4.063   3.661  15.763 -0.1409 -0.3243 -0.2413
  912MPD2    C313406   4.067   3.534  15.706 -0.4066 -0.9179  0.3373
  912MPD2    C413407   4.097   3.522  15.573 -0.3998  0.2357 -0.3845
  912MPD2    C513408   4.123   3.641  15.504  0.4076 -0.5917  0.3434
  912MPD2     H13409   4.033   3.665  15.866 -1.7485  0.1305 -0.7365
  912MPD2    H113410   4.111   3.432  15.514  0.4629 -1.5700  2.5494
  912MPD2    H213411   4.169   3.840  15.505  2.2547 -2.1282 -0.0152
  912MPD2    H313412   4.161   3.630  15.403 -0.4142 -0.8394  0.0687
  912MPD2     N13413   4.040   3.421  15.786  0.2715  0.1950  0.3827
  912MPD2    H513414   4.015   3.437  15.883 -1.6051 -3.5186  0.4897
  912MPD2    N113415   4.126   3.907  15.769  0.1435 -0.3080  0.5371
  912MPD2    H713416   4.132   3.986  15.705 -0.4526 -0.1200  0.7155
  913MPD2     C13417   0.468   4.590  11.019  0.3920 -0.1552 -0.2923
  913MPD2    C113418   0.580   4.668  10.993 -0.1054  0.3255  0.2604
  913MPD2    C213419   0.600   4.711  10.867 -0.1242 -0.0212 -0.4062
  913MPD2    C313420   0.510   4.694  10.766  0.4983  0.1548  0.2049
  913MPD2    C413421   0.400   4.615  10.792  0.4120 -0.5102 -1.0979
  913MPD2    C513422   0.381   4.559  10.919 -0.6797  0.0102  0.0248
  913MPD2     H13423   0.690   0.027  10.843  1.0660 -1.9446 -0.3148
  913MPD2    H113424   0.328   4.599  10.713  0.8900  1.7741 -2.0070
  913MPD2    H213425   0.443   4.550  11.117 -0.5594  1.4791  0.1215
  913MPD2    H313426   0.290   4.506  10.943  0.1436 -0.6148  1.7039
  913MPD2     N13427   0.523   4.737  10.633 -0.1988 -0.2859  1.0395
  913MPD2    H513428   0.456   4.707  10.563  0.2765 -0.0692  0.4835
  913MPD2    N113429   0.662   4.694  11.101 -0.0683  0.0883 -0.2438
  913MPD2    H713430   0.631   4.656  11.190  0.2270  0.6378  0.0951
  914MPD2     C13431   2.898   4.552  12.273 -0.9844 -0.5314 -0.3925
  914MPD2    C113432   2.898   4.574  12.411  0.2376  0.3184 -0.5240
  914MPD2    C213433   2.822   4.484  12.487  1.1086 -0.0654 -0.0988
  914MPD2    C313434   2.754   4.374  12.431  0.9469  0.4124 -0.3660
  914MPD2    C413435   2.759   4.355  12.297 -0.4414  0.0512 -0.4474
  914MPD2    C513436   2.830   4.444  12.221 -0.6072 -0.6907 -0.4805
  914MPD2     H13437   2.815   4.509  12.592  2.1565 -0.0113 -0.0385
  914MPD2    H113438   2.697   4.281  12.248  0.4278 -0.1970 -1.1813
  914MPD2    H213439   2.945   4.620  12.203  0.1228 -0.6652  0.2088
  914MPD2    H313440   2.845   4.429  12.114  0.8399 -1.7769 -0.1242
  914MPD2     N13441   2.678   4.278  12.509  0.2398 -0.1335  0.4534
  914MPD2    H513442   2.608   4.233  12.452  0.5460 -1.0371  0.8041
  914MPD2    N113443   2.973   4.674  12.478 -0.1230 -0.2487 -0.1456
  914MPD2    H713444   2.948   4.687  12.576  3.2217 -0.4972  0.7443
  915MPD2     C13445   0.310   4.680  15.456 -0.0534 -0.6244  0.3464
  915MPD2    C113446   0.187   4.736  15.472 -0.1147  0.7996 -0.3327
  915MPD2    C213447   0.170   0.054  15.592 -0.6210 -0.2850  0.3758
  915MPD2    C313448   0.258   0.054  15.702  0.3361 -0.0421  0.2049
  915MPD2    C413449   0.382   4.732  15.677  1.2646 -0.1557 -0.5327
  915MPD2    C513450   0.407   4.676  15.557 -0.2778  0.2855 -0.7681
  915MPD2     H13451   0.078   0.112  15.596  0.4199  1.5015 -1.4154
  915MPD2    H113452   0.462   4.735  15.749  0.9714  1.5233 -0.2641
  915MPD2    H213453   0.325   4.630  15.361 -2.6573  0.5663 -0.6924
  915MPD2    H313454   0.506   4.634  15.540  0.4212  1.2318  0.9387
  915MPD2     N13455   0.229   0.125  15.819 -0.3414  0.2757  0.3361
  915MPD2    H513456   0.139   0.169  15.828 -0.8280 -0.8562  1.0153
  915MPD2    N113457   0.090   0.008  15.366  0.0956  0.2240 -0.3502
  915MPD2    H713458   0.118   4.724  15.271  1.2934 -3.0668  0.7738
  916MPD2     C13459   3.700   3.348  15.638 -0.4150 -0.2089 -0.1326
  916MPD2    C113460   3.679   3.243  15.727  0.1508  0.2506 -0.4310
  916MPD2    C213461   3.732   3.119  15.700  0.2859  0.0801  0.5467
  916MPD2    C313462   3.808   3.095  15.590  0.0269  0.5474  0.7898
  916MPD2    C413463   3.820   3.198  15.501 -0.4475 -0.3988 -0.0467
  916MPD2    C513464   3.762   3.323  15.518  0.3216  0.0265  0.4242
  916MPD2     H13465   3.714   3.035  15.766  0.3088 -2.3791 -2.5696
  916MPD2    H113466   3.874   3.176  15.410  0.2803 -0.2259  0.3464
  916MPD2    H213467   3.669   3.451  15.648  0.3389 -0.1303  1.3910
  916MPD2    H313468   3.779   3.402  15.447  1.6385 -0.2014  0.4931
  916MPD2     N13469   3.882   2.977  15.582 -0.2403 -0.0410 -0.5406
  916MPD2    H513470   3.886   2.914  15.661 -0.9580 -0.0190 -0.4807
  916MPD2    N113471   3.610   3.278  15.844 -0.2421 -0.0987 -0.1009
  916MPD2    H713472   3.547   3.358  15.842  1.7687  1.5139  0.3965
  917MPD2     C13473   4.535   0.215  11.770  0.2193 -0.3444 -0.5058
  917MPD2    C113474   4.498   0.345  11.744  0.3904 -0.2510  0.1939
  917MPD2    C213475   4.561   0.410  11.636 -0.0994  0.1566 -0.5216
  917MPD2    C313476   4.661   0.360  11.556  0.5629 -0.2605 -0.0999
  917MPD2    C413477   4.707   0.236  11.593  0.2398  0.1861  0.6539
  917MPD2    C513478   4.646   0.167  11.699 -0.4163 -0.3236 -0.6362
  917MPD2     H13479   4.529   0.508  11.604  0.8226 -0.3031 -2.8384
  917MPD2    H113480   0.058   0.192  11.550  1.0053  5.3994 -3.0265
  917MPD2    H213481   4.493   0.160  11.854 -0.1972 -1.5790 -1.5281
  917MPD2    H313482   4.690   0.072  11.728  0.0096 -0.3985 -1.5209
  917MPD2     N13483   4.726   0.422  11.444 -0.5652  0.6341 -0.4938
  917MPD2    H513484   0.042   0.360  11.385  0.7634 -1.5112  2.9962
  917MPD2    N113485   4.375   0.391  11.803 -0.6989  0.0893  0.0166
  917MPD2    H713486   4.319   0.323  11.854  0.3091 -2.0514 -1.7252
  918MPD2     C13487   4.135   1.250  11.586  0.1019  1.0029 -0.2431
  918MPD2    C113488   4.246   1.194  11.653 -0.4621  0.6690  0.1236
  918MPD2    C213489   4.230   1.093  11.735  0.3302  0.5119  0.8962
  918MPD2    C313490   4.109   1.039  11.754  0.1703 -0.9369 -0.2886
  918MPD2    C413491   4.001   1.089  11.698  0.0395  0.2037 -0.3856
  918MPD2    C513492   4.009   1.203  11.615 -0.3775  0.3008 -0.3955
  918MPD2     H13493   4.316   1.043  11.779  1.5168  0.7425 -1.1779
  918MPD2    H113494   3.900   1.051  11.712  0.4882  0.3729  3.1965
  918MPD2    H213495   4.130   1.340  11.526  0.3519 -0.6270 -2.6925
  918MPD2    H313496   3.922   1.253  11.574 -0.8817  1.6295  2.3344
  918MPD2     N13497   4.102   0.927  11.843 -0.3295 -0.0671  0.4270
  918MPD2    H513498   4.179   0.905  11.905  0.2522  0.8206  0.0210
  918MPD2    N113499   4.375   1.253  11.639 -0.0861 -0.4751  0.0350
  918MPD2    H713500   4.453   1.202  11.678  1.2513  0.2062 -1.7462
  919MPD2     C13501   0.167   4.288  11.378 -0.0219  0.1597  0.9171
  919MPD2    C113502   0.048   4.303  11.442 -0.1332  0.4039 -0.4074
  919MPD2    C213503   4.681   4.377  11.384 -0.4831  0.1463 -0.1609
  919MPD2    C313504   4.701   4.434  11.258  0.0032  0.3780 -0.5549
  919MPD2    C413505   0.078   4.411  11.194  0.0269  0.0122  0.1004
  919MPD2    C513506   0.180   4.348  11.262 -0.2788 -0.8928  0.8838
  919MPD2     H13507   4.597   4.398  11.450 -0.5203 -1.5463  0.3530
  919MPD2    H113508   0.089   4.452  11.094  1.6971 -1.5487 -0.3555
  919MPD2    H213509   0.254   4.236  11.419  1.2941  1.3441 -0.3720
  919MPD2    H313510   0.276   4.330  11.214  0.7339  0.6549  2.3215
  919MPD2     N13511   4.601   4.510  11.183 -0.0939  0.0453  0.1425
  919MPD2    H513512   4.630   4.546  11.092 -0.9281 -0.8056 -0.4669
  919MPD2    N113513   0.038   4.259  11.576  0.4806 -0.4151 -0.2261
  919MPD2    H713514   0.128   4.229  11.614 -0.7137 -1.5275  1.7113
  920MPD2     C13515   4.469   0.342  10.412  1.5037 -0.4562  0.5420
  920MPD2    C113516   4.337   0.328  10.457  0.2995 -0.6398 -0.5494
  920MPD2    C213517   4.310   0.267  10.579 -0.1636 -0.1391 -0.6205
  920MPD2    C313518   4.416   0.212  10.651 -0.0760 -0.1263  0.3837
  920MPD2    C413519   4.541   0.210  10.597 -0.5587 -0.3200 -0.0853
  920MPD2    C513520   4.568   0.275  10.479 -0.5316  0.3627  0.0481
  920MPD2     H13521   4.215   0.273  10.630 -0.2594 -1.0716 -0.6778
  920MPD2    H113522   4.628   0.178  10.653  1.1766  1.2999 -1.8476
  920MPD2    H213523   4.494   0.383  10.315  0.8423 -0.2109  0.4737
  920MPD2    H313524   4.671   0.279  10.443 -0.4780 -0.5973  0.0955
  920MPD2     N13525   4.385   0.155  10.778 -0.1652 -0.6769  0.2025
  920MPD2    H513526   4.292   0.172  10.815  1.1778  0.8764  2.8985
  920MPD2    N113527   4.232   0.365  10.373  0.3960 -0.0682  0.0166
  920MPD2    H713528   4.137   0.344  10.401  0.3546 -2.1013 -1.6942
  921MPD2     C13529   0.740   3.805  16.881 -1.0393 -1.1166 -0.3700
  921MPD2    C113530   0.751   3.713  16.780 -0.1690  0.2113 -0.2114
  921MPD2    C213531   0.637   3.637  16.748 -1.3560  0.1738 -0.2190
  921MPD2    C313532   0.513   3.651  16.809 -0.7030  0.3391 -0.1759
  921MPD2    C413533   0.506   3.748  16.910 -0.0640  0.2576 -0.1265
  921MPD2    C513534   0.616   3.835  16.929  0.3998  0.2938  0.2391
  921MPD2     H13535   0.645   3.548  16.686  0.4101  0.3941 -0.3034
  921MPD2    H113536   0.410   3.767  16.956 -1.1666 -1.9662 -1.5165
  921MPD2    H213537   0.828   3.865  16.902 -1.0659 -1.3453  0.3716
  921MPD2    H313538   0.610   3.903  17.013 -0.0780 -0.9999  1.2564
  921MPD2     N13539   0.401   3.574  16.772  0.3359  0.0230  0.9347
  921MPD2    H513540   0.316   3.596  16.823 -1.4521 -1.5009 -1.4389
  921MPD2    N113541   0.876   3.689  16.715  0.0179 -0.8915 -0.1017
  921MPD2    H713542   0.954   3.750  16.739  0.3905 -2.3657  2.5291
  922MPD2     C13543   0.786   0.791   0.065 -0.1840 -0.1839  0.2009
  922MPD2    C113544   0.679   0.879   0.058  0.2247  0.1542  0.4455
  922MPD2    C213545   0.639   0.913  17.687  0.4875 -0.0987  0.1393
  922MPD2    C313546   0.696   0.866  17.571  0.3253  0.1918  0.5247
  922MPD2    C413547   0.797   0.765  17.577 -0.5889  0.7425  0.4536
  922MPD2    C513548   0.845   0.737  17.703 -0.1751 -0.0120 -0.2299
  922MPD2     H13549   0.559   0.986  17.688  0.1447 -0.4543 -2.5603
  922MPD2    H113550   0.860   0.730  17.496 -0.2965 -0.8190  1.3558
  922MPD2    H213551   0.843   0.782   0.157  1.0568  2.1252 -0.3334
  922MPD2    H313552   0.936   0.683  17.724  0.1244 -0.1813 -2.0302
  922MPD2     N13553   0.643   0.921  17.454 -0.1000 -0.5930  0.9624
  922MPD2    H513554   0.576   0.995  17.473  1.6315  0.4812  2.9168
  922MPD2    N113555   0.626   0.938   0.172 -0.2170  0.2165 -0.0940
  922MPD2    H713556   0.546   0.998   0.158 -0.2974  0.2968  0.6931
  923MPD2     C13557   2.674   3.299   9.000 -0.0936 -0.6619 -0.8319
  923MPD2    C113558   2.661   3.373   9.118  0.5729 -0.7234 -0.6410
  923MPD2    C213559   2.766   3.361   9.211  0.1801  0.4474 -0.5622
  923MPD2    C313560   2.868   3.264   9.201  0.9707  0.3674 -0.3783
  923MPD2    C413561   2.878   3.191   9.085  0.5377 -0.3479 -0.1723
  923MPD2    C513562   2.784   3.214   8.988  0.1871 -0.2826 -0.0004
  923MPD2     H13563   2.768   3.433   9.292  0.7892  1.5880 -1.5957
  923MPD2    H113564   2.953   3.115   9.066  2.1769  1.6771 -1.8463
  923MPD2    H213565   2.606   3.311   8.916  0.1138 -0.8768 -1.0318
  923MPD2    H313566   2.791   3.153   8.899 -3.6860 -2.1351  0.9572
  923MPD2     N13567   2.980   3.257   9.294  0.0784  1.3198 -0.0031
  923MPD2    H513568   3.044   3.180   9.277  0.3093  1.3895  0.5468
  923MPD2    N113569   2.552   3.459   9.129  0.6478  0.1807  0.0419
  923MPD2    H713570   2.479   3.454   9.058 -0.5839  1.9230  1.1712
  924MPD2     C13571   2.565   2.435  15.933 -0.4307 -0.2675  0.4422
  924MPD2    C113572   2.570   2.363  16.048 -0.3823  0.0356 -0.1796
  924MPD2    C213573   2.518   2.421  16.166 -0.6218 -0.2435 -0.7600
  924MPD2    C313574   2.463   2.549  16.179  0.0060  0.9423 -0.5518
  924MPD2    C413575   2.465   2.624  16.065  0.2275  0.0929 -0.5049
  924MPD2    C513576   2.516   2.569  15.949 -0.7510  0.5161  0.8318
  924MPD2     H13577   2.523   2.363  16.257 -1.6115 -0.2393 -0.7054
  924MPD2    H113578   2.434   2.728  16.057 -0.9051 -0.2187 -0.1877
  924MPD2    H213579   2.601   2.407  15.834 -1.8530 -0.0075 -0.1436
  924MPD2    H313580   2.521   2.637  15.864  0.8154  2.3981  2.4421
  924MPD2     N13581   2.411   2.597  16.300  0.0914  0.4330 -0.1832
  924MPD2    H513582   2.348   2.676  16.285 -0.1738 -0.0552 -1.6826
  924MPD2    N113583   2.616   2.232  16.039 -0.3544 -0.1025 -0.4747
  924MPD2    H713584   2.616   2.192  15.945  1.5438  1.0397 -0.9643
  925MPD2     C13585   1.559   4.558  14.665 -0.0563  0.3497  0.4350
  925MPD2    C113586   1.511   4.439  14.626  0.1241 -1.0504 -0.2788
  925MPD2    C213587   1.432   4.363  14.713  0.1505  0.0039  0.4805
  925MPD2    C313588   1.400   4.405  14.841 -0.7079  1.0272 -0.1252
  925MPD2    C413589   1.435   4.528  14.871  0.3948  0.3832  0.6714
  925MPD2    C513590   1.516   4.604  14.788  0.1933  0.0873 -0.5019
  925MPD2     H13591   1.394   4.266  14.684  2.8755 -1.4193  1.6500
  925MPD2    H113592   1.399   4.571  14.964 -1.6540  1.8076 -0.7744
  925MPD2    H213593   1.616   4.625  14.601  1.8464 -0.7652  0.9986
  925MPD2    H313594   1.541   4.704  14.819  0.8955  0.1281 -1.2050
  925MPD2     N13595   1.335   4.323  14.943 -0.3092 -0.1558  0.2796
  925MPD2    H513596   1.309   4.365  15.031 -0.7272 -0.4913  0.3138
  925MPD2    N113597   1.541   4.383  14.500  0.6211 -0.3500 -0.5827
  925MPD2    H713598   1.511   4.287  14.485 -0.1213 -0.3834  1.0870
  926MPD2     C13599   0.278   2.462  13.872 -0.2425  0.4151  0.5746
  926MPD2    C113600   0.281   2.597  13.840 -0.0383 -0.4547  0.0862
  926MPD2    C213601   0.384   2.648  13.755  0.3206 -0.0236 -0.5991
  926MPD2    C313602   0.473   2.563  13.697  0.6706 -0.2082  0.1181
  926MPD2    C413603   0.471   2.423  13.727 -0.4135  0.1009 -0.1788
  926MPD2    C513604   0.374   2.378  13.814 -0.2709 -0.0643 -0.8533
  926MPD2     H13605   0.401   2.754  13.739  1.9793 -0.3111 -0.6813
  926MPD2    H113606   0.537   2.353  13.679 -0.1752 -0.2088  0.5990
  926MPD2    H213607   0.206   2.419  13.940  0.8189  0.7580  1.9155
  926MPD2    H313608   0.374   2.275  13.848 -1.5277  0.5801  1.1575
  926MPD2     N13609   0.579   2.612  13.621  0.9079 -0.2804 -0.2330
  926MPD2    H513610   0.634   2.541  13.573  0.9722 -0.4528  0.0978
  926MPD2    N113611   0.189   2.690  13.886  0.0040  0.0663  0.0563
  926MPD2    H713612   0.200   2.783  13.846  1.2803 -0.3078 -0.4589
  927MPD2     C13613   0.149   0.311  17.686  0.0033  0.3850  0.0465
  927MPD2    C113614   0.068   0.326  17.577 -0.0108  0.0662 -0.5938
  927MPD2    C213615   0.130   0.308  17.452  0.5668  0.3184  0.2031
  927MPD2    C313616   0.267   0.288  17.438  0.1591  0.4687  0.2311
  927MPD2    C413617   0.346   0.287  17.548  0.4614 -0.0328 -0.6877
  927MPD2    C513618   0.284   0.286  17.667  0.3359 -0.2602  0.2129
  927MPD2     H13619   0.063   0.291  17.369  0.9126  2.0551 -0.4215
  927MPD2    H113620   0.453   0.270  17.540  1.0341  1.6814  3.6926
  927MPD2    H213621   0.122   0.308   0.038  2.5305 -0.5441  0.6711
  927MPD2    H313622   0.346   0.273   0.002  1.1040  1.7875 -0.0100
  927MPD2     N13623   0.313   0.272  17.307 -0.1733  0.0792 -0.3230
  927MPD2    H513624   0.239   0.283  17.238 -0.6162  1.8790  0.4357
  927MPD2    N113625   4.669   0.346  17.597  0.4937 -0.1430 -0.0011
  927MPD2    H713626   4.621   0.334  17.686  0.8960  3.9991  0.7685
  928MPD2     C13627   2.236   2.780   0.665 -0.0205 -0.2906 -0.6310
  928MPD2    C113628   2.209   2.907   0.698 -0.2552 -0.2953 -0.2782
  928MPD2    C213629   2.271   3.007   0.628  0.3257 -0.3123 -0.8011
  928MPD2    C313630   2.337   2.984   0.515 -0.9447 -0.0523  0.4447
  928MPD2    C413631   2.350   2.857   0.466 -0.3367 -0.8321 -0.3835
  928MPD2    C513632   2.310   2.752   0.546 -0.3455 -0.3541  0.6577
  928MPD2     H13633   2.252   3.108   0.663 -2.2297 -1.3088  0.6823
  928MPD2    H113634   2.409   2.832   0.378 -0.4199 -1.9001 -0.1340
  928MPD2    H213635   2.199   2.698   0.725  0.7830 -0.9681 -1.0524
  928MPD2    H313636   2.327   2.652   0.509  2.0992  0.4164 -0.3368
  928MPD2     N13637   2.415   3.087   0.457 -0.4174  0.2945 -0.2511
  928MPD2    H513638   2.449   3.063   0.364  2.1326 -0.6461  0.9382
  928MPD2    N113639   2.119   2.921   0.805 -0.0916 -0.6726 -0.0551
  928MPD2    H713640   2.085   2.835   0.847  0.3096  0.2514  2.1414
  929MPD2     C13641   3.278   3.195  10.647 -0.2276  0.1694  0.4145
  929MPD2    C113642   3.176   3.109  10.632  0.2390  0.2155  0.3518
  929MPD2    C213643   3.081   3.136  10.533 -0.5364 -0.2886 -0.0036
  929MPD2    C313644   3.082   3.259  10.474  0.2755 -0.1200 -0.0557
  929MPD2    C413645   3.191   3.343  10.479 -0.2639  0.6372  0.8894
  929MPD2    C513646   3.291   3.305  10.561 -0.8838 -0.6417 -0.6260
  929MPD2     H13647   2.998   3.068  10.515  0.1919 -1.2484  0.2848
  929MPD2    H113648   3.193   3.440  10.429 -0.4902  0.0990 -0.1574
  929MPD2    H213649   3.356   3.197  10.722  2.1944 -0.5688 -2.0990
  929MPD2    H313650   3.369   3.375  10.589 -0.8323 -0.7712 -0.4429
  929MPD2     N13651   2.979   3.317  10.407  0.5723 -0.1495  0.3950
  929MPD2    H513652   2.995   3.413  10.376  0.8531 -0.2489  0.2327
  929MPD2    N113653   3.170   2.985  10.704 -0.4078  0.3335 -0.2616
  929MPD2    H713654   3.256   2.967  10.754  0.9708  2.6653 -1.7881
  930MPD2     C13655   4.530   0.264  13.459  1.0744 -0.9216 -0.2410
  930MPD2    C113656   4.663   0.257  13.486  0.2329  0.4651  0.2043
  930MPD2    C213657   0.016   0.272  13.381  0.3156 -0.9687 -0.5663
  930MPD2    C313658   4.718   0.288  13.253 -0.4857 -0.1272  0.0509
  930MPD2    C413659   4.589   0.282  13.230 -0.6742  0.3824  0.3870
  930MPD2    C513660   4.497   0.276  13.327  0.4860 -0.0169  0.6753
  930MPD2     H13661   0.123   0.280  13.400  0.2569  0.1382 -0.6850
  930MPD2    H113662   4.547   0.286  13.130 -0.1239 -1.0191  0.0989
  930MPD2    H213663   4.451   0.269  13.534  1.4078 -0.6415  0.0915
  930MPD2    H313664   4.392   0.294  13.306  0.6171  1.4928  1.3263
  930MPD2     N13665   0.065   0.316  13.143  0.3078 -0.4958 -0.0932
  930MPD2    H513666   0.016   0.363  13.067 -0.0161 -1.0190 -0.2081
  930MPD2    N113667   4.702   0.264  13.621 -0.0505  0.1997 -0.4753
  930MPD2    H713668   4.630   0.284  13.690 -1.3318  1.4738 -2.2076
  931MPD2     C13669   4.066   0.093   0.345 -0.3296  0.1619 -0.6819
  931MPD2    C113670   4.171   0.059   0.258  0.2575 -0.2700 -0.3820
  931MPD2    C213671   4.233   4.674   0.279  0.7079  0.2331  0.2697
  931MPD2    C313672   4.187   4.580   0.366  0.4050 -0.5067  0.7344
  931MPD2    C413673   4.080   4.622   0.455 -0.1083  0.0388  0.4261
  931MPD2    C513674   4.025   0.009   0.449 -0.0494 -0.2580  0.3691
  931MPD2     H13675   4.309   4.640   0.210 -1.0372  0.4043 -1.7346
  931MPD2    H113676   4.042   4.552   0.528  0.3141 -1.2624 -0.5924
  931MPD2    H213677   4.018   0.190   0.333  1.1692  0.8864 -0.9091
  931MPD2    H313678   3.950   0.041   0.520  0.6166  2.4645 -0.1737
  931MPD2     N13679   4.235   4.447   0.386  0.6349 -0.3843 -0.5803
  931MPD2    H513680   4.191   4.398   0.463  2.7635  0.6363  1.2666
  931MPD2    N113681   4.201   0.155   0.159  0.3573 -0.5653  0.2257
  931MPD2    H713682   4.132   0.230   0.158  0.1375 -0.7592  0.8044
  932MPD2     C13683   1.861   4.005  11.476  1.2233 -0.7043  0.0233
  932MPD2    C113684   1.955   4.058  11.565 -0.1775 -0.1244 -0.3583
  932MPD2    C213685   2.036   3.978  11.637 -0.1738 -0.3809 -0.1433
  932MPD2    C313686   2.007   3.838  11.646  1.0328  0.1157 -0.6311
  932MPD2    C413687   1.906   3.787  11.563  0.2651  0.6206  0.1160
  932MPD2    C513688   1.837   3.866  11.479  0.5494  0.3814 -0.3038
  932MPD2     H13689   2.122   4.017  11.690  0.9055 -1.3694 -1.1798
  932MPD2    H113690   1.885   3.682  11.548  0.0190  1.0760 -2.6877
  932MPD2    H213691   1.799   4.074  11.421  0.7177 -1.0919  0.1140
  932MPD2    H313692   1.756   3.815  11.426  1.0116 -0.0421 -0.6009
  932MPD2     N13693   2.093   3.746  11.714  0.1327 -0.1331  0.4051
  932MPD2    H513694   2.068   3.648  11.703  1.6323 -0.3724 -0.9042
  932MPD2    N113695   1.995   4.193  11.559  0.0578 -0.1705 -0.4795
  932MPD2    H713696   2.078   4.203  11.616  0.0795 -3.0667  0.0194
  933MPD2     C13697   1.621   3.465   1.414  0.0406  0.8267  0.2473
  933MPD2    C113698   1.661   3.447   1.285 -0.3918  0.3995 -0.0535
  933MPD2    C213699   1.627   3.538   1.187 -0.1367 -0.7570  0.2161
  933MPD2    C313700   1.544   3.643   1.219  0.8354  0.0568  0.0749
  933MPD2    C413701   1.505   3.662   1.352 -0.2473 -0.5743  0.8994
  933MPD2    C513702   1.545   3.573   1.449  0.9220  0.7785 -0.2520
  933MPD2     H13703   1.657   3.526   1.083  0.5828 -0.2135  0.3642
  933MPD2    H113704   1.439   3.738   1.392  1.1351  1.2993 -0.3543
  933MPD2    H213705   1.652   3.401   1.496 -0.1189 -0.9748 -1.1226
  933MPD2    H313706   1.523   3.592   1.553  0.1119 -0.4020 -0.2014
  933MPD2     N13707   1.509   3.739   1.118  0.9001 -0.1458 -0.2412
  933MPD2    H513708   1.514   3.710   1.021  0.4550  0.7986 -0.5500
  933MPD2    N113709   1.733   3.338   1.247  0.1974  0.1000  0.3362
  933MPD2    H713710   1.751   3.279   1.328  1.0670  2.7108  2.0228
  934MPD2     C13711   2.768   1.031   1.390 -0.4090 -0.4900  0.8810
  934MPD2    C113712   2.887   0.959   1.381 -0.0193  0.3230  0.3365
  934MPD2    C213713   2.891   0.845   1.297 -0.2469 -0.5084  0.7091
  934MPD2    C313714   2.777   0.804   1.237  0.3040  0.5047 -0.5270
  934MPD2    C413715   2.656   0.860   1.272  0.2795  0.1114  0.0235
  934MPD2    C513716   2.648   0.972   1.350 -0.1931 -0.8035 -0.6744
  934MPD2     H13717   2.989   0.804   1.277 -0.5864 -0.2815 -1.4497
  934MPD2    H113718   2.560   0.818   1.243  0.6124  0.5364 -1.6480
  934MPD2    H213719   2.757   1.123   1.446 -2.0144 -0.0500 -0.1455
  934MPD2    H313720   2.559   1.032   1.365  1.2692  1.4217 -0.7307
  934MPD2     N13721   2.771   0.690   1.152  1.0385 -0.3148  0.4573
  934MPD2    H513722   2.684   0.669   1.105 -0.3758  1.2904  2.3545
  934MPD2    N113723   3.013   1.012   1.437 -0.5368  0.5222  0.5110
  934MPD2    H713724   3.098   0.960   1.414 -1.0625 -0.3561  0.5543
  935MPD2     C13725   3.439   0.028   0.684  0.6654  0.1908  0.1034
  935MPD2    C113726   3.351   4.696   0.770  1.0707 -0.1918  0.5780
  935MPD2    C213727   3.262   0.025   0.852 -0.5000 -0.6216 -0.5795
  935MPD2    C313728   3.242   0.159   0.835  0.3272  0.1607  0.3141
  935MPD2    C413729   3.329   0.230   0.757  0.6771  0.4091 -0.4478
  935MPD2    C513730   3.424   0.162   0.682  0.4861 -0.0869  0.2596
  935MPD2     H13731   3.204   4.701   0.918  2.4176  0.5824  3.1259
  935MPD2    H113732   3.316   0.337   0.746 -0.3156  0.3048 -0.3467
  935MPD2    H213733   3.512   4.716   0.623  0.1619  0.3613 -0.6488
  935MPD2    H313734   3.491   0.214   0.614 -2.1381  1.7403 -0.9310
  935MPD2     N13735   3.134   0.228   0.902  0.1153  0.4756  1.1708
  935MPD2    H513736   3.124   0.327   0.881  0.3025  0.5420  1.3989
  935MPD2    N113737   3.357   4.556   0.783 -0.3031  0.4060 -0.6198
  935MPD2    H713738   3.281   4.514   0.837  0.2484  0.0993 -0.0837
  936MPD2     C13739   2.073   2.201  12.334 -0.5517 -0.6499 -0.1246
  936MPD2    C113740   2.160   2.152  12.429 -0.7108 -0.0766 -0.2590
  936MPD2    C213741   2.281   2.207  12.443 -0.4169  0.6555  0.0803
  936MPD2    C313742   2.316   2.313  12.364 -0.1498 -0.5582  0.4646
  936MPD2    C413743   2.228   2.365  12.270 -0.1818  0.4343 -0.3668
  936MPD2    C513744   2.105   2.308  12.257  0.1610  0.8355  0.0024
  936MPD2     H13745   2.343   2.167  12.522 -0.3576  0.0941 -0.2517
  936MPD2    H113746   2.250   2.440  12.195  2.7690  0.0688  0.1196
  936MPD2    H213747   1.977   2.151  12.325 -0.2781 -1.6860  2.9210
  936MPD2    H313748   2.040   2.343  12.178  1.5785  3.4884  0.0346
  936MPD2     N13749   2.444   2.363  12.391 -0.3776 -0.4201  0.0047
  936MPD2    H513750   2.504   2.301  12.444 -0.7300 -1.0854 -0.3854
  936MPD2    N113751   2.141   2.041  12.509  0.9542 -0.6878 -0.0531
  936MPD2    H713752   2.219   2.006  12.564  2.0976 -1.5438 -2.2075
  937MPD2     C13753   0.337   3.684  11.707  0.0982  0.3482 -0.0644
  937MPD2    C113754   0.360   3.813  11.745  0.1616 -0.5065  0.2502
  937MPD2    C213755   0.468   3.874  11.680 -1.6172  0.1265 -0.5451
  937MPD2    C313756   0.562   3.796  11.613 -0.0297  0.3437 -0.6658
  937MPD2    C413757   0.541   3.658  11.608  0.4508 -0.1602 -0.2381
  937MPD2    C513758   0.422   3.605  11.642  0.4947  0.0782 -0.2337
  937MPD2     H13759   0.471   3.982  11.671  0.8802  0.0504 -0.7553
  937MPD2    H113760   0.603   3.587  11.553 -2.1819 -1.5774 -1.3482
  937MPD2    H213761   0.245   3.630  11.724  1.0837 -1.6278 -1.0085
  937MPD2    H313762   0.411   3.500  11.616 -3.0953  0.8954 -1.9800
  937MPD2     N13763   0.681   3.858  11.564 -0.4480  0.0679 -0.0080
  937MPD2    H513764   0.704   3.957  11.572 -1.0079  0.2900 -1.0324
  937MPD2    N113765   0.260   3.900  11.793 -0.2398  0.2043  0.0924
  937MPD2    H713766   0.269   4.001  11.781  3.0539 -0.1058  0.1482
  938MPD2     C13767   2.321   4.402   0.877  0.1212  0.3061 -0.0201
  938MPD2    C113768   2.267   4.511   0.946  0.5491 -0.1287  0.3884
  938MPD2    C213769   2.211   4.494   1.073 -0.2651  0.6468 -0.1215
  938MPD2    C313770   2.225   4.372   1.137 -0.4681  0.0032  0.9505
  938MPD2    C413771   2.305   4.275   1.078  0.0263  0.0457  0.7946
  938MPD2    C513772   2.346   4.292   0.948  0.6446 -0.2943  0.1204
  938MPD2     H13773   2.164   4.578   1.123 -0.8120  0.3243 -0.1023
  938MPD2    H113774   2.331   4.187   1.138 -1.4836 -0.3304  0.8820
  938MPD2    H213775   2.352   4.404   0.773 -3.4480 -2.1158 -1.1328
  938MPD2    H313776   2.403   4.210   0.905 -0.6292 -0.4870 -1.1880
  938MPD2     N13777   2.192   4.355   1.271 -0.0817  0.3356 -0.4643
  938MPD2    H513778   2.243   4.280   1.318 -0.0548  2.9886  3.7223
  938MPD2    N113779   2.264   4.635   0.886  0.6058 -0.4047 -0.5776
  938MPD2    H713780   2.215   4.712   0.932  2.6040  0.6460 -0.1717
  939MPD2     C13781   3.100   1.593   0.912  0.1974  0.2813  0.7526
  939MPD2    C113782   3.206   1.680   0.937  0.0406  0.4022  0.6844
  939MPD2    C213783   3.303   1.704   0.843  0.2341 -0.0007  0.4932
  939MPD2    C313784   3.294   1.634   0.722 -0.0626  0.5737  0.2292
  939MPD2    C413785   3.202   1.533   0.713  0.4317  0.0819  0.2982
  939MPD2    C513786   3.105   1.506   0.807  0.8588  0.4067 -0.1690
  939MPD2     H13787   3.379   1.778   0.864  0.2501  0.1098  0.0408
  939MPD2    H113788   3.201   1.476   0.620 -0.1943 -1.2957  1.1470
  939MPD2    H213789   3.019   1.584   0.984  1.3729 -1.5309  1.8636
  939MPD2    H313790   3.019   1.441   0.791  2.0878 -0.8212 -1.8523
  939MPD2     N13791   3.395   1.652   0.623  1.0970  0.0630 -0.3507
  939MPD2    H513792   3.459   1.730   0.631  0.4920  0.4219  0.8785
  939MPD2    N113793   3.211   1.745   1.065 -0.3401  0.4755 -0.3496
  939MPD2    H713794   3.126   1.733   1.119 -0.1276 -0.7794 -0.2766
  940MPD2     C13795   3.326   2.434  13.050 -0.2766  0.0746  0.4638
  940MPD2    C113796   3.203   2.372  13.037  0.2863  0.3509 -0.5715
  940MPD2    C213797   3.165   2.323  12.905 -0.1084  1.0183  0.2711
  940MPD2    C313798   3.255   2.334  12.796 -0.4082  0.0751  0.6971
  940MPD2    C413799   3.380   2.382  12.823  0.4366 -0.1328  0.4791
  940MPD2    C513800   3.411   2.434  12.945 -0.2584  0.1208  0.1863
  940MPD2     H13801   3.066   2.282  12.888  0.1310  0.1786  0.9050
  940MPD2    H113802   3.454   2.381  12.744 -1.6050  0.8725 -1.4767
  940MPD2    H213803   3.354   2.486  13.140 -0.1592  3.1600 -1.3525
  940MPD2    H313804   3.509   2.482  12.947 -0.4273  0.4755  0.0252
  940MPD2     N13805   3.233   2.301  12.663 -0.1396  0.4114 -0.0117
  940MPD2    H513806   3.305   2.326  12.597  0.6496 -1.5498  0.1009
  940MPD2    N113807   3.111   2.354  13.142  0.8428 -0.0998 -0.2757
  940MPD2    H713808   3.020   2.314  13.119  0.2867  0.9020  0.1827
  941MPD2     C13809   2.229   1.806   9.903  0.2278 -0.3549  0.0985
  941MPD2    C113810   2.330   1.767   9.991 -0.2801  0.0101  0.0844
  941MPD2    C213811   2.353   1.638  10.011 -0.2663  0.4414  0.1220
  941MPD2    C313812   2.282   1.539   9.943  0.0450 -0.6782  0.1576
  941MPD2    C413813   2.189   1.579   9.844 -0.0874  0.2391  0.5229
  941MPD2    C513814   2.158   1.709   9.831 -0.6495  0.4154  0.0623
  941MPD2     H13815   2.430   1.615  10.083 -0.1614 -0.6391 -0.3385
  941MPD2    H113816   2.145   1.508   9.775  1.3227 -1.9574  1.8974
  941MPD2    H213817   2.195   1.908   9.894  1.4105  0.1417  1.2886
  941MPD2    H313818   2.088   1.741   9.755  0.5503 -3.8577 -2.8374
  941MPD2     N13819   2.297   1.400   9.963 -0.3187  0.5924  0.2787
  941MPD2    H513820   2.228   1.348   9.910  0.7379 -0.7612  0.2330
  941MPD2    N113821   2.408   1.856  10.067 -0.2876  0.7171  0.1869
  941MPD2    H713822   2.475   1.813  10.131  2.6482  1.1972 -2.5197
  942MPD2     C13823   2.110   3.968  10.105  0.3687 -0.7807  0.3640
  942MPD2    C113824   2.066   3.893   9.997 -0.4772  0.1890 -0.4543
  942MPD2    C213825   2.155   3.819   9.919  0.0531  0.0210  0.3108
  942MPD2    C313826   2.293   3.827   9.943 -0.1713 -0.1008 -0.1182
  942MPD2    C413827   2.331   3.909  10.049  0.2925  0.2096 -0.1567
  942MPD2    C513828   2.242   3.972  10.135  0.5078  0.0210 -0.3000
  942MPD2     H13829   2.115   3.759   9.838 -1.2844  0.3849  0.6983
  942MPD2    H113830   2.437   3.913  10.072  0.4658 -0.2538 -0.8699
  942MPD2    H213831   2.043   4.029  10.164  1.0792 -0.2232  0.5886
  942MPD2    H313832   2.289   4.020  10.221 -0.2298 -3.1459  1.8832
  942MPD2     N13833   2.391   3.761   9.866 -0.1453 -0.2995 -0.4490
  942MPD2    H513834   2.485   3.770   9.903 -0.5330  0.0717  0.4409
  942MPD2    N113835   1.934   3.882   9.944  0.5098  0.0656  0.2567
  942MPD2    H713836   1.921   3.840   9.853 -0.0881  1.0594 -0.1188
  943MPD2     C13837   1.002   1.612   9.880  0.6088  0.1355  0.9705
  943MPD2    C113838   1.031   1.476   9.857  0.2699  0.4083  0.2616
  943MPD2    C213839   1.143   1.426   9.914  0.3315  0.0090  0.3619
  943MPD2    C313840   1.234   1.505   9.988 -1.0529 -0.1381 -0.5130
  943MPD2    C413841   1.218   1.639   9.993 -0.3088 -0.7790 -0.2575
  943MPD2    C513842   1.100   1.690   9.944 -0.5224 -0.5048  0.5602
  943MPD2     H13843   1.166   1.321   9.899 -0.1843 -0.3130  1.8035
  943MPD2    H113844   1.288   1.702  10.047 -0.3600 -2.5978  1.9297
  943MPD2    H213845   0.916   1.659   9.835  2.1371  0.0214 -2.0387
  943MPD2    H313846   1.080   1.794   9.964  0.8985 -0.4683  1.8284
  943MPD2     N13847   1.358   1.448  10.038  0.0436 -0.0301 -0.2835
  943MPD2    H513848   1.424   1.509  10.085 -0.3630  0.4018 -0.2633
  943MPD2    N113849   0.923   1.393   9.811  0.5214 -0.5225 -0.5331
  943MPD2    H713850   0.833   1.439   9.818  0.1625 -1.1232 -1.2667
  944MPD2     C13851   0.953   1.066  10.862  0.6450  0.3652 -0.1953
  944MPD2    C113852   0.868   1.084  10.968 -0.4244  0.7879  0.4032
  944MPD2    C213853   0.842   1.213  11.004  0.6757  0.1255  0.5798
  944MPD2    C313854   0.874   1.321  10.926 -0.0837  0.4209  0.4472
  944MPD2    C413855   0.953   1.295  10.821 -0.0862 -0.3762 -0.8959
  944MPD2    C513856   0.993   1.173  10.780 -0.7585  1.0149  0.5614
  944MPD2     H13857   0.775   1.242  11.084  1.1435  1.5350  0.4534
  944MPD2    H113858   0.965   1.375  10.748 -1.3360  2.1180  1.5962
  944MPD2    H213859   0.985   0.965  10.840 -2.4477 -0.0085 -2.9962
  944MPD2    H313860   1.054   1.163  10.691 -0.9475 -0.3995  0.5792
  944MPD2     N13861   0.826   1.448  10.949  0.2011  0.2448  0.1159
  944MPD2    H513862   0.744   1.464  11.008  0.2248 -1.6634  0.6717
  944MPD2    N113863   0.823   0.975  11.036  0.6244  0.1245  0.0143
  944MPD2    H713864   0.845   0.889  10.987 -2.0046 -0.3688 -0.3191
    1TMC1    C113865   3.986   1.100  14.192  0.5056  0.2703  0.6890
    1TMC1    C213866   3.854   1.076  14.170  0.2038 -0.5858  0.1017
    1TMC1    C313867   3.829   1.030  14.042  0.2830  0.6099 -0.3310
    1TMC1    C413868   4.088   1.078  14.108  0.2960 -0.0124  0.1871
    1TMC1    C513869   4.052   1.033  13.983  0.2564 -0.3119  0.1637
    1TMC1    C613870   3.925   1.010  13.948  0.1304  0.1055 -0.1146
    1TMC1     C13871   4.021   1.155  14.314  0.6773 -0.0875 -0.5847
    1TMC1     O13872   4.127   1.130  14.362  0.2027 -0.1203  0.4045
    1TMC1     H13873   3.777   1.072  14.246  1.7718 -3.3412  1.5329
    1TMC1    H113874   4.191   1.085  14.142  0.6813 -4.5629  0.0562
    1TMC1    H213875   3.902   0.969  13.850 -2.2549 -1.0363  0.9137
    1TMC1    C713876   4.145   1.006  13.876  0.6429  0.4946 -0.1832
    1TMC1    C813877   3.689   0.997  14.013  0.3339 -0.0379  0.1192
    1TMC1    O113878   4.117   0.950  13.772  0.6485 -0.3113 -0.0365
    1TMC1    O213879   3.599   1.067  14.060 -0.4759 -0.1067  0.8056
    1TMC1    O313880   4.243   1.096  13.889 -0.4620  0.2677  0.8420
    1TMC1    H313881   4.233   1.173  13.949 -3.3941  0.3111  0.3200
    1TMC1    O513882   3.689   0.864  14.022 -0.3482  0.3664  0.0746
    1TMC1    H513883   3.774   0.824  13.995 -0.2822 -0.6571  1.7667
    2MPD2     C13884   3.956   1.558  14.630  0.0992 -0.3196 -0.1743
    2MPD2    C113885   3.844   1.541  14.557  0.0375  0.1917  0.2621
    2MPD2    C213886   3.840   1.444  14.457  0.8005 -0.5714 -0.3293
    2MPD2    C313887   3.941   1.343  14.462 -0.1584 -0.1225  0.1723
    2MPD2    C413888   4.050   1.356  14.541  0.1030  0.4684 -0.5720
    2MPD2    C513889   4.051   1.462  14.628  0.3089 -0.0685 -0.4331
    2MPD2     H13890   3.755   1.432  14.391 -0.0455  2.2859  0.2288
    2MPD2    H113891   4.122   1.275  14.553  2.3885  2.6569  0.4864
    2MPD2    H213892   3.956   1.635  14.706 -0.4685 -0.0387 -0.4544
    2MPD2    H313893   4.131   1.475  14.701  0.7451  2.6986 -1.4229
    2MPD2     N13894   3.931   1.256  14.352 -0.4124  1.0698 -0.1105
    2MPD2    H513895   3.856   1.277  14.286 -0.2697 -1.5722 -1.0847
    2MPD2    N113896   3.742   1.635  14.580 -0.3965  0.4259 -0.5617
    2MPD2    H713897   3.766   1.706  14.649 -0.9459  1.8538 -1.8343
    3TMC2    C113898   3.534   1.749  14.553 -0.0639 -0.6525 -0.1529
    3TMC2    C213899   3.504   1.754  14.688 -0.2376  0.6719  0.4291
    3TMC2    C313900   3.393   1.824  14.729 -0.1299  0.1813  0.4858
    3TMC2    C413901   3.457   1.816  14.462 -0.5892 -0.0148 -0.0751
    3TMC2    C513902   3.337   1.869  14.502  0.1304 -1.5747  0.0341
    3TMC2    C613903   3.303   1.868  14.633 -0.2299 -0.2765  0.6829
    3TMC2     C13904   3.634   1.655  14.494  0.2025  0.1559  0.5346
    3TMC2     O13905   3.621   1.614  14.378 -0.4598 -0.1850 -0.5324
    3TMC2     H13906   3.559   1.701  14.764  0.3948  0.8956  0.1337
    3TMC2    H113907   3.480   1.813  14.356 -2.0773 -1.1777 -0.3709
    3TMC2    H213908   3.208   1.911  14.661 -0.0297  1.6355 -1.5949
    3TMC2    C713909   3.228   1.876  14.404  0.1935  0.3107  0.6438
    3TMC2    C813910   3.370   1.854  14.861  0.6568 -0.4673  0.0315
    3TMC2    O113911   3.112   1.887  14.439  0.3790  0.1588 -0.0170
    3TMC2    O213912   3.457   1.888  14.938 -0.2921  0.2468  0.7005
    3TMC2    O513913   3.244   1.813  14.895 -0.5326  0.1683 -0.4900
    3TMC2    H513914   3.204   1.757  14.825  0.8836  1.2019 -2.1289
    4TMC2    C113915   3.416   2.404  13.684 -0.3264 -0.1813  0.2382
    4TMC2    C213916   3.503   2.402  13.569 -0.4527  0.4821 -0.4204
    4TMC2    C313917   3.559   2.276  13.540 -0.4776  0.6429 -0.0622
    4TMC2    C413918   3.399   2.288  13.764  0.1676 -0.6485  0.0047
    4TMC2    C513919   3.456   2.174  13.725 -0.2841  0.3539 -0.3790
    4TMC2    C613920   3.536   2.166  13.613 -0.4265 -0.3342  0.3669
    4TMC2     C13921   3.376   2.521  13.744  0.7811  0.0113  0.1447
    4TMC2     O13922   3.371   2.522  13.867 -0.2180 -0.6004 -0.0037
    4TMC2     H13923   3.530   2.488  13.509 -2.1971  0.6275 -0.9968
    4TMC2    H113924   3.327   2.292  13.845 -1.4680  2.3766 -1.5754
    4TMC2    H213925   3.591   2.075  13.593 -1.1518 -0.5989 -0.3889
    4TMC2    C713926   3.412   2.057  13.805 -0.2301 -0.0973 -0.3613
    4TMC2    C813927   3.620   2.253  13.408  0.1933 -0.1917  0.8262
    4TMC2    O113928   3.488   1.964  13.829 -0.5258 -0.1499 -0.0183
    4TMC2    O213929   3.694   2.161  13.366 -0.3698  0.0121  0.1117
    4TMC2    O513930   3.537   2.317  13.323 -0.0296 -0.5281  0.1838
    4TMC2    H513931   3.452   2.353  13.355  1.1627  2.5318 -0.0359
    5MPD2     C13932   3.131   2.957  13.736 -0.5513  0.2919 -0.1884
    5MPD2    C113933   3.111   2.895  13.613  0.2382  0.6059 -0.5442
    5MPD2    C213934   3.184   2.787  13.586  0.1224  0.1350  1.8294
    5MPD2    C313935   3.267   2.728  13.682 -0.5103  0.4530 -0.4505
    5MPD2    C413936   3.271   2.784  13.812  0.2730  0.5567  0.4448
    5MPD2    C513937   3.206   2.897  13.835  0.6611  0.1111 -0.1301
    5MPD2     H13938   3.180   2.737  13.490 -0.8377 -0.8444  2.3700
    5MPD2    H113939   3.337   2.747  13.889 -0.8730  0.6146  1.4451
    5MPD2    H213940   3.103   3.058  13.761 -0.6759  0.6238 -1.6582
    5MPD2    H313941   3.216   2.955  13.926 -1.2656  1.0474 -0.5198
    5MPD2     N13942   3.334   2.607  13.645 -0.4081  0.1453 -0.0800
    5MPD2    H513943   3.342   2.574  13.550 -0.7324  1.4008 -0.5470
    5MPD2    N113944   3.018   2.953  13.532  0.5625 -0.0216 -0.0732
    5MPD2    H713945   2.963   3.029  13.571  0.8680  0.4368 -0.5344
    6MPD1     C13946   1.575   4.088  13.213 -1.0145  0.2244 -0.2860
    6MPD1    C113947   1.624   4.001  13.307  0.3416 -0.4415 -0.4403
    6MPD1    C213948   1.768   3.984  13.320  0.2177 -0.1486  0.3523
    6MPD1    C313949   1.852   4.069  13.247 -0.1438  0.3776  0.2232
    6MPD1    C413950   1.799   4.156  13.157  0.0945  0.3152  0.0863
    6MPD1    C513951   1.664   4.169  13.140  0.3252  0.4243 -0.1410
    6MPD1     H13952   1.803   3.899  13.378 -2.5764 -1.0208  0.8023
    6MPD1    H113953   1.858   4.218  13.091 -0.8523 -0.3513 -1.3973
    6MPD1    H213954   1.471   4.105  13.191 -0.4338  0.1022 -3.1065
    6MPD1    H313955   1.629   4.237  13.064 -1.2273  1.4886  1.5080
    6MPD1     N13956   1.993   4.054  13.257  0.5077 -0.6169 -0.2025
    6MPD1    H513957   2.057   4.119  13.212  0.3971 -1.0235 -0.9482
    6MPD1    N113958   1.530   3.914  13.368 -0.6375  0.1464  0.0908
    6MPD1    H613959   1.459   3.873  13.308  0.1987  0.9345 -1.4170
    6MPD1    H713960   1.579   3.845  13.425 -0.1167  2.3247  2.3114
    7MPD2     C13961   2.532   3.602  13.767  0.2125  0.0232  0.9563
    7MPD2    C113962   2.476   3.561  13.644  0.5362  0.2045 -0.8688
    7MPD2    C213963   2.494   3.425  13.610 -0.1198 -0.6292  0.1271
    7MPD2    C313964   2.561   3.334  13.692  0.0316 -0.7216 -0.5774
    7MPD2    C413965   2.586   3.375  13.817 -0.8262 -0.8986 -1.0856
    7MPD2    C513966   2.570   3.505  13.857 -0.2637  0.0314  0.1010
    7MPD2     H13967   2.463   3.397  13.510  0.3038 -0.3184 -0.0919
    7MPD2    H113968   2.624   3.310  13.895 -1.2827 -4.1638 -3.5623
    7MPD2    H213969   2.525   3.703  13.807 -2.2866 -0.2237  1.1366
    7MPD2    H313970   2.604   3.528  13.957 -0.9550  2.0465 -0.1214
    7MPD2     N13971   2.597   3.211  13.648 -0.0015 -0.6730  0.2012
    7MPD2    H513972   2.660   3.166  13.713  1.5192 -0.2970 -1.0154
    7MPD2    N113973   2.420   3.648  13.547 -0.3734  0.3016  0.0703
    7MPD2    H713974   2.388   3.604  13.461 -0.1406 -0.5372  0.4226
    8TMC3    C113975   2.624   3.028  13.477 -0.6128  0.1454  0.3519
    8TMC3    C213976   2.754   2.999  13.497  0.2681 -0.6548 -0.5181
    8TMC3    C313977   2.831   2.951  13.392 -0.5809  0.5122 -0.2865
    8TMC3    C413978   2.575   3.000  13.350  0.0739  0.2297 -0.1490
    8TMC3    C513979   2.658   2.966  13.251 -0.2068  0.3284  0.6996
    8TMC3    C613980   2.785   2.938  13.268 -0.0849 -0.7225 -0.0117
    8TMC3     C13981   2.571   3.156  13.521 -0.0846 -0.3759  0.1235
    8TMC3     O13982   2.498   3.199  13.431  0.1886  0.1934  0.3828
    8TMC3     H13983   2.789   3.019  13.598 -2.1131 -1.9878  0.5735
    8TMC3    H113984   2.468   3.002  13.329 -0.0654 -0.9573  0.4339
    8TMC3    H213985   2.854   2.909  13.189 -0.4226 -0.3249 -0.4537
    8TMC3    C713986   2.646   3.050  13.138  0.1849  0.0258  0.3223
    8TMC3    C813987   2.966   2.902  13.413 -0.1553  0.2089 -0.6706
    8TMC3    O113988   2.710   3.024  13.036  0.4079 -0.0679  0.6616
    8TMC3    O213989   3.009   2.809  13.337 -0.6606 -0.2711 -0.7025
    9TMC3    C113990   2.205   3.952  13.309  0.4248 -0.0562  0.3235
    9TMC3    C213991   2.243   3.897  13.188 -0.1209  0.3761  0.3308
    9TMC3    C313992   2.332   3.801  13.201  0.6777  0.0164 -0.1668
    9TMC3    C413993   2.275   3.936  13.420 -0.5186 -0.2988  0.4260
    9TMC3    C513994   2.372   3.843  13.428 -0.9688  0.0294  0.6404
    9TMC3    C613995   2.401   3.771  13.316  0.0464 -0.1574 -0.0273
    9TMC3     C13996   2.057   3.959  13.333 -0.1880  0.5808 -0.0228
    9TMC3     O13997   2.025   3.882  13.423 -0.2063  0.0275  0.1960
    9TMC3     H13998   2.184   3.897  13.097  3.0141 -1.6044 -1.6775
    9TMC3    H113999   2.249   3.986  13.513  1.4506  2.9396 -0.7941
    9TMC3    H214000   2.489   3.709  13.324  0.2273  0.2087  0.8439
    9TMC3    C714001   2.406   3.786  13.557  0.0932  0.5163  0.0942
    9TMC3    C814002   2.367   3.718  13.087  0.8893 -0.1154  0.3816
    9TMC3    O114003   2.398   3.857  13.660 -0.5157 -0.0516  0.2401
    9TMC3    O214004   2.362   3.762  12.972 -0.2164  0.4890 -0.2388
   10MPD2     C14005   2.603   3.286  12.958 -0.2866  0.1836  0.3970
   10MPD2    C114006   2.542   3.267  13.081 -0.3960 -0.2691 -0.5113
   10MPD2    C214007   2.465   3.369  13.128 -0.1428  0.0411 -0.1933
   10MPD2    C314008   2.449   3.486  13.057 -0.2290  0.1346  0.2076
   10MPD2    C414009   2.503   3.501  12.928  0.5955 -0.2466  0.8868
   10MPD2    C514010   2.586   3.402  12.884 -0.3913 -0.1669 -0.5717
   10MPD2     H14011   2.428   3.361  13.230 -1.3925 -1.4214 -0.7630
   10MPD2    H114012   2.497   3.591  12.868 -0.6565 -2.1125 -1.7955
   10MPD2    H214013   2.663   3.209  12.911  2.5798  2.0381  1.0206
   10MPD2    H314014   2.631   3.407  12.786  0.3527  1.1351 -0.1631
   10MPD2     N14015   2.386   3.593  13.132 -0.5074 -1.0133 -0.7347
   10MPD2    H514016   2.340   3.574  13.221  1.0601 -0.6652  0.1454
   10MPD2    N114017   2.563   3.150  13.166 -0.0106  0.3549  0.1809
   10MPD2    H714018   2.514   3.154  13.255  0.4474 -0.9351  0.4949
   11MPD2     C14019   3.071   1.915  14.150 -0.5619 -0.9508 -0.1164
   11MPD2    C114020   3.212   1.917  14.156 -0.2224  0.5645  0.5147
   11MPD2    C214021   3.279   1.956  14.046 -0.3576 -0.3705  0.2756
   11MPD2    C314022   3.210   1.995  13.935  0.2444 -0.1755  0.1455
   11MPD2    C414023   3.074   1.982  13.922 -0.1646 -0.3500  0.3614
   11MPD2    C514024   3.003   1.943  14.032  0.7118  0.6523 -0.3235
   11MPD2     H14025   3.387   1.957  14.044 -0.3751  0.4829 -0.2330
   11MPD2    H114026   3.027   2.000  13.826 -2.1536 -0.7820  1.2643
   11MPD2    H214027   3.013   1.890  14.238 -0.3010  1.3152  0.7050
   11MPD2    H314028   2.895   1.937  14.032  0.7328  0.2443 -0.6993
   11MPD2     N14029   3.275   2.060  13.829  0.7087 -0.5012  0.2379
   11MPD2    H514030   3.216   2.119  13.771 -0.1013  0.3002  1.8814
   11MPD2    N114031   3.278   1.894  14.274  0.7456  0.8250  0.3472
   11MPD2    H714032   3.378   1.900  14.259  0.5859  2.9328  0.1848
    1MPD1     C14033   0.318   4.015  15.736 -0.1565 -0.8318 -0.1091
    1MPD1    C114034   0.361   3.997  15.871  0.3601  0.7315  0.3184
    1MPD1    C214035   0.489   3.974  15.901  0.1626 -0.3293 -0.2435
    1MPD1    C314036   0.586   3.986  15.795  0.4106  0.2350 -0.3175
    1MPD1    C414037   0.546   3.996  15.663  0.1196  0.3717 -0.2240
    1MPD1    C514038   0.413   3.997  15.631 -0.5389  0.0458  0.0761
    1MPD1     H14039   0.515   3.937  15.999  0.0189  0.4991  0.1130
    1MPD1    H114040   0.620   3.989  15.584  0.4197 -1.3786  0.1983
    1MPD1    H214041   0.212   4.024  15.713 -0.4471 -0.2035  1.5431
    1MPD1    H314042   0.392   3.994  15.525 -1.3278  0.5982  0.2179
    1MPD1     N14043   0.727   3.993  15.825 -0.0070 -0.3433 -0.0086
    1MPD1    H514044   0.791   3.987  15.746  0.4589  2.4701  0.1644
    1MPD1    N114045   0.264   3.977  15.971  0.5528 -0.3606 -0.0478
    1MPD1    H614046   0.169   4.006  15.948  0.2724 -2.5689 -1.7035
    1MPD1    H714047   0.287   4.016  16.062  2.2884  1.2671 -1.1825
    2MPD1     C14048   1.304   3.952  16.680  0.7202 -0.2989 -0.0812
    2MPD1    C114049   1.169   3.955  16.655  0.2996  0.0710  0.0520
    2MPD1    C214050   1.119   3.968  16.524 -0.3353 -0.0056 -0.1374
    2MPD1    C314051   1.210   3.987  16.424  0.2010  0.1487  0.7827
    2MPD1    C414052   1.343   4.001  16.448 -0.3673 -0.2891  0.1292
    2MPD1    C514053   1.392   3.985  16.580 -0.2826  0.0035  0.4241
    2MPD1     H14054   1.014   3.964  16.500  0.0312 -2.6236 -1.2660
    2MPD1    H114055   1.411   4.036  16.371  0.9213  1.0302  1.8750
    2MPD1    H214056   1.345   3.933  16.779  0.0501  2.5453  0.7360
    2MPD1    H314057   1.494   3.996  16.615 -0.2130 -0.7906  0.4715
    2MPD1     N14058   1.150   3.979  16.291 -0.1936  0.0885  0.2882
    2MPD1    H514059   1.050   3.961  16.286  0.0326 -0.9323 -0.7396
    2MPD1    N114060   1.083   3.908  16.759  0.1033 -0.2747 -0.0482
    2MPD1    H614061   1.133   3.924  16.846  1.9567  0.4985 -1.2509
    2MPD1    H714062   0.997   3.961  16.752  0.1060 -0.2791 -0.1167
    3TMC3    C114063   1.131   4.030  16.070  0.7969 -0.3720  0.3566
    3TMC3    C214064   1.191   4.095  15.965 -0.2610  0.1525 -0.2426
    3TMC3    C314065   1.112   4.125  15.860 -0.1716 -0.3242 -0.2796
    3TMC3    C414066   1.000   3.992  16.064 -0.1111 -0.2718  0.2612
    3TMC3    C514067   0.930   4.017  15.955  0.0012  0.2647  0.6026
    3TMC3    C614068   0.982   4.088  15.859  0.0232 -0.5524 -0.7979
    3TMC3     C14069   1.217   3.984  16.171  0.1444 -0.7139  0.8225
    3TMC3     O14070   1.335   4.007  16.147  0.2873  0.1497  0.4194
    3TMC3     H14071   1.297   4.112  15.950 -0.1797  1.9420  2.2514
    3TMC3    H114072   0.956   3.927  16.139  1.4304 -0.2710  1.1772
    3TMC3    H214073   0.933   4.113  15.765 -1.8644  0.1756  0.3885
    3TMC3    C714074   0.785   4.013  15.951 -0.2377 -0.7435 -0.9362
    3TMC3    C814075   1.166   4.189  15.752  0.0629 -0.1191  0.6072
    3TMC3    O114076   0.717   4.009  16.056 -0.1668  0.0628 -0.2818
    3TMC3    O214077   1.143   4.137  15.646  0.1249 -0.4643 -0.1333
    4MPD1     C14078   1.559   4.460  15.553 -0.2070  1.0262  0.0942
    4MPD1    C114079   1.547   4.497  15.687 -0.2988 -0.1296 -0.2087
    4MPD1    C214080   1.455   4.421  15.764  0.3546 -0.1242 -0.1753
    4MPD1    C314081   1.357   4.345  15.701 -0.2297  0.3133  0.1767
    4MPD1    C414082   1.370   4.314  15.568  0.2344  0.3534 -0.6226
    4MPD1    C514083   1.477   4.359  15.497 -0.2209 -0.1449  1.1209
    4MPD1     H14084   1.457   4.428  15.872  1.9863 -1.9219 -0.0835
    4MPD1    H114085   1.301   4.258  15.505  0.1296 -1.0061  0.7059
    4MPD1    H214086   1.633   4.514  15.494  0.7831 -0.8089 -0.3434
    4MPD1    H314087   1.491   4.346  15.390 -0.5484 -0.2395  1.0898
    4MPD1     N14088   1.253   4.287  15.784 -0.0878  0.0724 -0.0957
    4MPD1    H514089   1.261   4.320  15.879  1.1738  0.5089 -0.3552
    4MPD1    N114090   1.639   4.579  15.747 -0.3840  0.7552  0.1055
    4MPD1    H614091   1.678   4.646  15.680  0.1940  2.2017  1.8847
    4MPD1    H714092   1.614   4.626  15.834 -0.2505 -1.4472  1.3318
    1TCq1    O114093   1.997   2.959  12.360  0.4953  0.0415  0.0648
    1TCq1    C114094   2.102   2.958  12.281 -0.0269  0.7044  0.0633
    1TCq1    O214095   2.214   2.980  12.326  0.0870 -1.0729 -0.3727
    1TCq1    C214096   2.068   2.970  12.140 -0.5850 -0.8104  0.1151
    1TCq1    C314097   2.168   2.943  12.052  0.0331  0.2755 -0.0430
    1TCq1    C414098   2.165   3.002  11.929  0.0290 -0.0882  0.7507
    1TCq1    C514099   2.065   3.086  11.893  0.0146  0.0714  0.1326
    1TCq1    C614100   1.967   3.109  11.977  0.1731 -0.2050 -0.1166
    1TCq1    C714101   1.963   3.051  12.109  0.6119 -0.4787  0.0353
    1TCq1    C814102   1.850   3.187  11.930 -0.1633 -0.5666 -0.0731
    1TCq1    O414103   1.857   3.250  11.824  0.2889  0.2673 -0.0819
    1TCq1    C914104   2.285   3.002  11.845  0.2116  0.4069 -0.1085
    1TCq1    O514105   2.288   3.105  11.768  0.0486 -0.0515  0.3183
    1TCq1    O614106   2.386   2.950  11.901  0.2548  0.0809 -0.1727
    1TCq1    H114107   1.919   2.912  12.322  0.4196 -0.4566  0.8157
    1TCq1    H214108   2.266   2.914  12.091 -0.7185  1.1064  2.4614
    1TCq1    H314109   2.061   3.128  11.793 -2.4319 -1.3095 -0.3622
    1TCq1    H414110   1.897   3.083  12.189  0.1222 -1.0691 -0.1333
    2MPD1     C14111   1.388   3.389  12.037  0.1767  0.0341  0.6276
    2MPD1    C114112   1.400   3.266  12.096 -0.2037 -0.3752 -0.5807
    2MPD1    C214113   1.524   3.203  12.097  0.1094  0.2808 -0.1562
    2MPD1    C314114   1.623   3.248  12.010  0.1871 -0.4144  0.3047
    2MPD1    C414115   1.601   3.357  11.932  0.3859  1.0472  0.7272
    2MPD1    C514116   1.490   3.433  11.955 -0.4674 -0.4281 -0.1900
    2MPD1     H14117   1.540   3.114  12.157  0.5289  0.8174  0.5286
    2MPD1    H114118   1.676   3.395  11.864  1.8533 -2.5321  0.3381
    2MPD1    H214119   1.300   3.452  12.039  1.8278  2.2790  1.7335
    2MPD1    H314120   1.475   3.530  11.908 -0.7125 -0.5714 -0.4065
    2MPD1     N14121   1.745   3.173  12.007 -0.0582 -0.5695 -0.4419
    2MPD1    H514122   1.750   3.091  12.065 -0.0078 -0.0652  0.2665
    2MPD1    N114123   1.287   3.219  12.170 -0.0532 -0.1993  0.2375
    2MPD1    H614124   1.198   3.257  12.141  0.7920  0.4477 -1.5637
    2MPD1    H714125   1.290   3.118  12.185  0.0202 -0.0117  1.4539
    1TMC1    C114126   0.618   1.338   0.973  0.8621  0.2976 -0.2140
    1TMC1    C214127   0.693   1.313   1.085 -0.5753 -0.7623  0.4611
    1TMC1    C314128   0.756   1.419   1.139  0.3144  0.4182  0.3547
    1TMC1    C414129   0.594   1.468   0.931  0.0063  0.3021 -0.5808
    1TMC1    C514130   0.665   1.573   0.986  0.5671  0.0920 -0.1178
    1TMC1    C614131   0.740   1.548   1.090  0.4194 -0.2835  0.2910
    1TMC1     C14132   0.555   1.236   0.890 -0.1661 -0.4264  0.3586
    1TMC1     O14133   0.461   1.262   0.817  0.1870  0.3371  0.2309
    1TMC1     H14134   0.679   1.220   1.139 -1.7970 -2.6421 -3.0685
    1TMC1    H114135   0.556   1.476   0.830 -0.1448 -0.1051 -0.5583
    1TMC1    H214136   0.790   1.630   1.139  1.2804  0.3101 -1.5733
    1TMC1    C714137   0.630   1.710   0.945  1.2788  0.3977  0.2482
    1TMC1    C814138   0.864   1.392   1.233 -0.2684  0.0327 -0.1952
    1TMC1    O114139   0.700   1.805   0.976 -0.1790  0.2075  0.0166
    1TMC1    O214140   0.939   1.479   1.274  0.3500 -0.5406  0.3463
    1TMC1    O314141   0.547   1.709   0.836  0.5352  0.2550 -0.1840
    1TMC1    H314142   0.472   1.648   0.852 -0.1057  0.9813 -0.4490
    1TMC1    O514143   0.890   1.260   1.239  0.3333 -0.8174  0.0232
    1TMC1    H514144   0.836   1.199   1.184 -0.2285 -1.5692  1.4055
    2MPD1     C14145   0.624   0.801   0.630  1.0578 -0.8511  0.3669
    2MPD1    C114146   0.744   0.837   0.686  0.3326 -0.3400 -0.1792
    2MPD1    C214147   0.744   0.937   0.782 -0.2133 -0.4869  0.9808
    2MPD1    C314148   0.630   1.016   0.809  0.2221 -0.3333  0.1642
    2MPD1    C414149   0.512   0.985   0.734 -0.6954  0.0584  0.1178
    2MPD1    C514150   0.516   0.871   0.661 -0.8636 -0.3902  0.1949
    2MPD1     H14151   0.837   0.967   0.829 -1.3033  1.0778  2.1739
    2MPD1    H114152   0.417   1.037   0.736  0.5097  2.2512  0.1436
    2MPD1    H214153   0.616   0.732   0.547 -0.3419 -0.4392  0.1720
    2MPD1    H314154   0.423   0.843   0.611 -0.4643 -1.0146 -0.2071
    2MPD1     N14155   0.640   1.130   0.891 -0.0693 -0.0734 -0.4239
    2MPD1    H514156   0.724   1.133   0.950 -0.2209 -2.4546 -0.0719
    2MPD1    N114157   0.859   0.774   0.646 -0.9392 -0.0302 -0.0119
    2MPD1    H614158   0.914   0.748   0.727  0.0423 -3.6345 -1.8594
    2MPD1    H714159   0.850   0.684   0.600 -0.4150 -0.8261  1.4786
    1MPD1     C14160   4.693   2.918  11.432  0.3840  0.1967  0.4764
    1MPD1    C114161   4.643   3.035  11.386  0.2401  0.0039 -0.1775
    1MPD1    C214162   4.588   3.128  11.475 -0.0981  0.1667  0.3234
    1MPD1    C314163   4.577   3.102  11.610 -0.4321 -0.1725  0.0426
    1MPD1    C414164   4.624   2.971  11.645  1.0235 -0.3946  0.3284
    1MPD1    C514165   4.679   2.887  11.561  0.6407 -0.0417 -0.4170
    1MPD1     H14166   4.564   3.227  11.439  2.2977  1.0295  1.0680
    1MPD1    H114167   4.636   2.934  11.746  1.6008  0.2892  0.5050
    1MPD1    H214168   0.005   2.849  11.365 -1.1416  0.6739 -1.1583
    1MPD1    H314169   4.718   2.793  11.597 -0.6236 -0.9835 -1.4877
    1MPD1     N14170   4.521   3.191  11.694  0.2536  0.1768 -0.1047
    1MPD1    H514171   4.516   3.286  11.659 -1.1512  0.9313  2.2150
    1MPD1    N114172   4.652   3.061  11.251 -0.0595 -0.6778  0.3290
    1MPD1    H614173   0.012   3.060  11.225 -0.2745 -0.2678 -0.4965
    1MPD1    H714174   4.622   3.147  11.208  0.1303 -0.4382  0.6735
    2MPD1     C14175   3.412   3.368  10.229  0.3462  0.3355 -0.0844
    2MPD1    C114176   3.541   3.327  10.240 -0.5038 -1.1416 -0.0350
    2MPD1    C214177   3.642   3.402  10.298 -0.0007 -0.1797 -0.0352
    2MPD1    C314178   3.602   3.540  10.318 -0.5968 -0.3639 -0.0239
    2MPD1    C414179   3.478   3.589  10.295 -0.4955 -0.6411 -0.8411
    2MPD1    C514180   3.384   3.502  10.250  0.1429  0.9381 -0.3616
    2MPD1     H14181   3.735   3.359  10.332 -0.8752 -0.1662  2.3464
    2MPD1    H114182   3.447   3.691  10.316  0.2863 -1.1909  3.0431
    2MPD1    H214183   3.329   3.301  10.211  0.4879  0.5459 -1.5028
    2MPD1    H314184   3.281   3.529  10.232  0.2684  1.1778 -0.7304
    2MPD1     N14185   3.691   3.632  10.392 -0.7979 -0.4735  0.9100
    2MPD1    H514186   3.659   3.728  10.401 -0.8227 -0.2000 -2.2314
    2MPD1    N114187   3.559   3.192  10.225 -0.2203  0.4551  0.2924
    2MPD1    H614188   3.511   3.172  10.138 -1.8370 -1.1714  1.5410
    2MPD1    H714189   3.657   3.167  10.210 -0.5326 -1.0829  0.8262
    3MPD1     C14190   4.581   4.197  10.540  0.4831  0.5874 -0.6215
    3MPD1    C114191   4.534   4.158  10.659  0.2665  0.1159  0.2414
    3MPD1    C214192   4.404   4.112  10.660 -0.2661 -0.1707  0.7367
    3MPD1    C314193   4.333   4.091  10.541  0.6422  0.8292  0.1286
    3MPD1    C414194   4.389   4.133  10.424 -0.0187 -0.2903  0.2527
    3MPD1    C514195   4.511   4.196  10.425 -0.9096 -0.1223  0.1009
    3MPD1     H14196   4.350   4.094  10.752  1.5277 -0.7493  1.6725
    3MPD1    H114197   4.342   4.125  10.327 -1.5432 -2.1925  1.1550
    3MPD1    H214198   4.684   4.232  10.544  1.5350 -2.8403  2.6530
    3MPD1    H314199   4.543   4.233  10.329  0.3182  1.8690  1.2857
    3MPD1     N14200   4.201   4.026  10.546  0.0783  0.4309 -0.1002
    3MPD1    H514201   4.169   3.988  10.635 -1.3815  1.3890 -0.2129
    3MPD1    N114202   4.612   4.186  10.772  0.1071 -0.3717 -0.0220
    3MPD1    H614203   4.597   4.121  10.848  1.1385  0.3128  0.7719
    3MPD1    H714204   4.712   4.185  10.750  0.1277 -0.6719  0.0829
    4MPD2     C14205   4.056   3.593  12.143  0.3269  1.1701  0.5390
    4MPD2    C114206   4.165   3.632  12.064  0.3290 -0.3256  0.0522
    4MPD2    C214207   4.149   3.740  11.976 -0.2144  0.6424  0.4992
    4MPD2    C314208   4.022   3.800  11.960 -0.1180  0.4594 -0.3681
    4MPD2    C414209   3.914   3.754  12.028  0.2957 -0.0388  0.0327
    4MPD2    C514210   3.934   3.648  12.116 -0.7551 -0.2190  0.0778
    4MPD2     H14211   4.234   3.771  11.918 -1.1617 -0.4979 -1.5005
    4MPD2    H114212   3.814   3.795  12.015 -0.4486 -1.8511  0.0724
    4MPD2    H214213   4.062   3.502  12.202 -4.3656  2.4188  2.8983
    4MPD2    H314214   3.844   3.610  12.162  0.0053 -0.4498  1.3874
    4MPD2     N14215   4.014   3.915  11.872  0.5001  0.0172  0.1761
    4MPD2    H514216   4.103   3.943  11.831  0.0381  0.3757 -0.5817
    4MPD2    N114217   4.298   3.575  12.077 -0.0100 -0.2403 -0.1768
    4MPD2    H714218   4.366   3.619  12.016  0.6267  0.8463  1.3047
    5TMC3    C114219   4.467   3.422  12.101  0.0191 -0.2627  0.0374
    5TMC3    C214220   4.445   3.309  12.028  0.1762  0.5947 -0.8382
    5TMC3    C314221   4.498   3.301  11.899  0.3241 -0.1546 -0.2946
    5TMC3    C414222   4.539   3.524  12.052  0.5462  0.2319  0.4987
    5TMC3    C514223   4.583   3.514  11.920 -0.3504  0.5550 -0.4790
    5TMC3    C614224   4.568   3.407  11.845  0.2472 -0.5554 -0.5830
    5TMC3     C14225   4.337   3.462  12.149  0.1995  0.2376 -0.6039
    5TMC3     O14226   4.272   3.394  12.225  0.0386 -0.0290 -0.0008
    5TMC3     H14227   4.388   3.230  12.076 -1.0960  0.7552 -2.0636
    5TMC3    H114228   4.552   3.611  12.115  3.0498  1.5708 -1.9366
    5TMC3    H214229   4.602   3.409  11.742 -1.6540  1.7758 -1.1716
    5TMC3    C714230   4.569   3.642  11.857 -0.6386  0.2454  0.0058
    5TMC3    C814231   4.512   3.177  11.834  0.2401  0.7082 -0.5193
    5TMC3    O114232   4.485   3.714  11.908  0.1588 -0.0001  0.5761
    5TMC3    O214233   4.511   3.077  11.907  0.1776 -0.3050  0.0158
    6TMC3    C114234   3.881   3.728  10.490 -0.2427 -0.1176  0.1264
    6TMC3    C214235   3.982   3.797  10.430 -0.7435 -0.7129  0.2794
    6TMC3    C314236   4.010   3.920  10.489  0.4048 -0.0808 -0.5902
    6TMC3    C414237   3.815   3.758  10.605  0.4317 -0.7146 -0.0345
    6TMC3    C514238   3.853   3.881  10.659 -0.5665 -0.3351 -0.4689
    6TMC3    C614239   3.952   3.958  10.604 -0.1556  0.2671  0.1041
    6TMC3     C14240   3.829   3.619  10.409  0.0587 -0.4983  0.6195
    6TMC3     O14241   3.905   3.527  10.381  0.6486  0.2757 -0.9718
    6TMC3     H14242   4.027   3.761  10.338 -1.0905 -1.8650  0.5634
    6TMC3    H114243   3.755   3.681  10.653 -0.0661  0.3996  1.1119
    6TMC3    H214244   3.995   4.041  10.658 -1.3642  0.1514  1.2397
    6TMC3    C714245   3.831   3.896  10.799  0.0070 -0.6758  0.3556
    6TMC3    C814246   4.129   3.986  10.436  0.4644  0.1751 -0.8786
    6TMC3    O114247   3.907   3.965  10.861 -0.1416  0.0660  0.0514
    6TMC3    O214248   4.173   3.969  10.322  0.1612 -0.5344 -0.1530
    7MPD2     C14249   4.580   3.975  11.461  0.1860  0.1150  0.3698
    7MPD2    C114250   4.476   3.953  11.545 -0.4041  0.0984  0.4712
    7MPD2    C214251   4.489   3.844  11.635  0.2222 -0.0347 -0.1145
    7MPD2    C314252   4.599   3.762  11.639 -0.0611 -0.1986  0.0201
    7MPD2    C414253   4.695   3.787  11.541 -0.1188  0.7328 -0.4954
    7MPD2    C514254   4.685   3.889  11.450  0.0406 -0.0368  0.1756
    7MPD2     H14255   4.400   3.817  11.691  0.8516 -0.8157  0.5035
    7MPD2    H114256   0.049   3.733  11.549 -0.7590 -0.0444  1.8443
    7MPD2    H214257   4.570   4.059  11.393 -0.4970  0.3959  0.8212
    7MPD2    H314258   0.032   3.907  11.385 -1.0230 -0.4866 -1.3496
    7MPD2     N14259   4.631   3.659  11.738  0.4728  0.0812 -0.3039
    7MPD2    H514260   4.703   3.589  11.719 -0.6782 -1.3297  0.5058
    7MPD2    N114261   4.360   4.032  11.542 -0.1274 -0.2416 -0.3008
    7MPD2    H714262   4.344   4.095  11.463  1.2546  1.0657  0.4565
    8TMC3    C114263   4.122   4.088  11.603 -0.3561  0.1851 -0.3097
    8TMC3    C214264   4.083   4.041  11.481  0.1775  0.0461 -0.1627
    8TMC3    C314265   3.952   4.001  11.469  1.2670 -0.3257  0.6473
    8TMC3    C414266   4.043   4.085  11.708 -0.1699  0.3623 -0.5845
    8TMC3    C514267   3.918   4.038  11.701  0.5076 -0.4477  0.8430
    8TMC3    C614268   3.870   3.999  11.579  0.7241  0.1209 -0.0682
    8TMC3     C14269   4.256   4.041  11.640 -0.5648  0.1808  0.7005
    8TMC3     O14270   4.252   3.997  11.756  0.4449 -0.0825  0.3007
    8TMC3     H14271   4.147   4.045  11.393 -0.2805  1.4477 -0.4325
    8TMC3    H114272   4.078   4.121  11.804  0.3477 -0.1869 -0.5624
    8TMC3    H214273   3.773   3.951  11.574  0.0575  1.7256 -2.6077
    8TMC3    C714274   3.896   3.954  11.815  0.0103  0.9992  0.5149
    8TMC3    C814275   3.902   3.975  11.337  0.2188  0.3494 -0.5211
    8TMC3    O114276   3.785   3.897  11.819  0.1154  0.3409 -0.5208
    8TMC3    O214277   3.972   4.016  11.242 -0.4224  0.5197 -0.5067
    9MPD2     C14278   3.632   3.737  11.250 -0.5809 -0.4102  0.8019
    9MPD2    C114279   3.739   3.828  11.228 -0.5685  0.2924 -0.1807
    9MPD2    C214280   3.766   3.856  11.092  0.3383 -0.9526 -0.4198
    9MPD2    C314281   3.700   3.794  10.983 -0.2654 -0.5584  0.6940
    9MPD2    C414282   3.598   3.714  11.010 -0.4031 -0.1037 -0.1176
    9MPD2    C514283   3.556   3.695  11.140 -1.0948  0.6167 -0.4113
    9MPD2     H14284   3.836   3.936  11.068 -0.3510  0.2016  1.4240
    9MPD2    H114285   3.541   3.680  10.925 -0.1701  1.4138 -0.8688
    9MPD2    H214286   3.601   3.709  11.350  1.4393 -0.0862  1.5046
    9MPD2    H314287   3.468   3.637  11.168 -0.4640  0.3190  0.9427
    9MPD2     N14288   3.730   3.815  10.846 -0.5388  0.4503 -0.5038
    9MPD2    H514289   3.672   3.764  10.780 -0.8556  0.9080 -0.5809
    9MPD2    N114290   3.791   3.894  11.341 -0.0102 -0.0993 -0.2938
    9MPD2    H714291   3.752   3.876  11.433  1.5001  0.0087  0.3694
    1MPD1     C14292   2.767   1.747  15.941 -0.6987 -0.3439  0.2225
    1MPD1    C114293   2.767   1.611  15.950  0.2403 -0.9699 -0.2162
    1MPD1    C214294   2.833   1.541  15.851 -0.9683  0.0850 -0.6097
    1MPD1    C314295   2.905   1.607  15.746  0.9776 -0.0702 -0.7230
    1MPD1    C414296   2.902   1.742  15.747 -0.0761  0.1455  0.4421
    1MPD1    C514297   2.832   1.815  15.843 -0.0837 -0.0268  0.6597
    1MPD1     H14298   2.832   1.433  15.861  2.3767  0.1376  0.3444
    1MPD1    H114299   2.944   1.804  15.668  0.2895 -0.0215  0.5087
    1MPD1    H214300   2.713   1.793  16.023 -2.4465 -0.6049 -0.7986
    1MPD1    H314301   2.822   1.923  15.842  0.0058 -0.0267 -0.3954
    1MPD1     N14302   2.993   1.544  15.652  0.2589 -0.4266  0.1258
    1MPD1    H514303   3.061   1.601  15.603  1.3911 -3.4173 -1.7535
    1MPD1    N114304   2.711   1.551  16.063  0.2438  0.5525  0.6556
    1MPD1    H614305   2.688   1.453  16.053  0.5486  0.6642 -1.1847
    1MPD1    H714306   2.631   1.601  16.102  1.0487  2.8091 -0.5610
    2TMC2    C114307   3.280   1.440  15.401  0.4717  0.1099  0.1301
    2TMC2    C214308   3.268   1.321  15.335 -0.1192 -0.5129  0.0828
    2TMC2    C314309   3.180   1.231  15.389 -0.9546 -0.5559  0.3971
    2TMC2    C414310   3.218   1.476  15.521  0.1536  0.1445  0.2507
    2TMC2    C514311   3.134   1.381  15.566  0.2932 -0.4174 -0.4647
    2TMC2    C614312   3.120   1.253  15.507 -0.0568  0.4975  0.3876
    2TMC2     C14313   3.396   1.527  15.369 -0.4485 -0.9378 -0.3676
    2TMC2     O14314   3.493   1.473  15.321 -0.4454  0.0963  0.0446
    2TMC2     H14315   3.320   1.304  15.242 -0.4117  0.1641 -0.2092
    2TMC2    H114316   3.232   1.570  15.573 -0.0329  1.7947 -2.6671
    2TMC2    H214317   3.058   1.181  15.559 -1.7905  0.5046 -1.6694
    2TMC2    C714318   3.030   1.413  15.660  0.9391 -0.2033 -0.8390
    2TMC2    C814319   3.163   1.090  15.338 -0.1088  0.0530  0.2699
    2TMC2    O114320   2.964   1.321  15.709 -0.7461 -0.0299  0.1804
    2TMC2    O214321   3.142   0.993  15.411 -0.1186  0.6601 -0.2531
    2TMC2    O514322   3.192   1.079  15.205 -1.0115 -0.0803 -0.1281
    2TMC2    H514323   3.191   1.167  15.162  1.2975  0.0845  0.1471
    3MPD1     C14324   3.662   1.979  15.331  0.2839 -0.3095 -0.2523
    3MPD1    C114325   3.539   2.002  15.390  0.0859  0.1000  0.2679
    3MPD1    C214326   3.452   1.894  15.412  0.3784 -0.1671  0.7469
    3MPD1    C314327   3.488   1.768  15.372 -0.4618  0.3003  0.9677
    3MPD1    C414328   3.608   1.750  15.309  0.5773  1.0554  0.2070
    3MPD1    C514329   3.695   1.853  15.290 -0.6651 -0.4309 -0.9963
    3MPD1     H14330   3.367   1.912  15.477  1.3617 -0.5928  2.1542
    3MPD1    H114331   3.624   1.654  15.262  1.2458  1.0562  0.4374
    3MPD1    H214332   3.738   2.056  15.318 -0.5652  0.5109 -0.2932
    3MPD1    H314333   3.791   1.845  15.240  0.3674 -0.3827  0.9460
    3MPD1     N14334   3.386   1.662  15.404 -0.0110  0.5431  0.5221
    3MPD1    H514335   3.302   1.693  15.451  0.2189  0.6769  0.8487
    3MPD1    N114336   3.508   2.121  15.455  0.4830 -0.0352 -0.4316
    3MPD1    H614337   3.410   2.147  15.451  0.6408  0.3191 -1.9351
    3MPD1    H714338   3.570   2.201  15.448 -0.7631  0.8060 -1.8204
    1TMC1    C114339   1.628   0.958  13.355  0.9125 -0.6636  0.5189
    1TMC1    C214340   1.513   0.906  13.305 -0.0040 -0.3123 -1.0747
    1TMC1    C314341   1.433   0.843  13.397  0.2085  0.0593  0.0883
    1TMC1    C414342   1.659   0.965  13.492  0.0564  0.3430  0.1507
    1TMC1    C514343   1.567   0.913  13.568  0.0257 -0.3197 -0.0062
    1TMC1    C614344   1.458   0.847  13.527  0.5675  0.1445 -0.1004
    1TMC1     C14345   1.724   1.011  13.253 -0.5943 -0.1759 -0.6123
    1TMC1     O14346   1.682   1.018  13.140  0.0386 -0.3232 -0.2927
    1TMC1     H14347   1.500   0.893  13.199 -2.6250  0.7979 -0.8951
    1TMC1    H114348   1.745   1.018  13.532  0.1535 -2.1021  3.1345
    1TMC1    H214349   1.385   0.816  13.601 -1.2371 -1.8664 -2.7033
    1TMC1    C714350   1.559   0.970  13.706 -0.2968  0.6255 -0.1167
    1TMC1    C814351   1.296   0.828  13.367 -0.9160 -0.0958  0.6950
    1TMC1    O114352   1.504   0.919  13.803  0.0589 -0.2633 -0.0116
    1TMC1    O214353   1.240   0.891  13.280 -0.5129 -0.1817 -0.7739
    1TMC1    O314354   1.570   1.105  13.692 -0.1423  0.0776  0.1345
    1TMC1    H314355   1.560   1.124  13.597  1.0570 -1.2058 -0.2443
    1TMC1    O514356   1.229   0.739  13.448  0.3421 -0.1832 -0.5978
    1TMC1    H514357   1.286   0.690  13.511  1.1870  1.9538  0.3060
    2MPD2     C14358   1.970   1.060  13.091  0.0855 -0.3077 -0.2199
    2MPD2    C114359   1.965   1.055  13.228  0.5548 -0.1725 -0.2637
    2MPD2    C214360   2.077   1.080  13.304  0.0921  0.1288 -0.1189
    2MPD2    C314361   2.201   1.094  13.243 -0.4494 -0.1704 -0.3418
    2MPD2    C414362   2.208   1.081  13.107 -0.9400 -0.1624 -0.1084
    2MPD2    C514363   2.091   1.079  13.033 -0.0576  0.2307 -0.7615
    2MPD2     H14364   2.063   1.066  13.411  1.9604 -0.0500  0.1117
    2MPD2    H114365   2.303   1.085  13.054 -0.1088  0.1495  1.3980
    2MPD2    H214366   1.883   1.047  13.029 -1.3332 -0.7393  1.8668
    2MPD2    H314367   2.087   1.073  12.924 -0.0348  0.1489 -0.7581
    2MPD2     N14368   2.321   1.096  13.315  0.5946  0.1360 -0.4989
    2MPD2    H514369   2.414   1.106  13.276  0.7409 -2.2968 -0.7984
    2MPD2    N114370   1.846   1.038  13.306  0.4307 -0.3402  0.2476
    2MPD2    H714371   1.872   1.030  13.404  3.3551 -1.4436 -0.5924
    3TCq1    O114372   2.514   0.795  13.881 -0.3903  0.2347  0.3638
    3TCq1    C114373   2.460   0.906  13.841  0.4188  0.0003 -0.6522
    3TCq1    O214374   2.343   0.942  13.874 -0.1949  0.3117  0.1390
    3TCq1    C214375   2.509   0.921  13.706  0.4245 -0.2099  0.0223
    3TCq1    C314376   2.572   0.827  13.635  0.0578 -0.0429 -0.1552
    3TCq1    C414377   2.559   0.820  13.501 -0.0097  0.0118 -0.2797
    3TCq1    C514378   2.487   0.915  13.439  0.0567  0.4215  0.0446
    3TCq1    C614379   2.443   1.024  13.506 -0.2593 -0.5345 -0.1552
    3TCq1    C714380   2.446   1.025  13.644  0.3941 -0.8550 -0.4086
    3TCq1    C814381   2.329   1.096  13.454  0.1586 -0.6186 -0.3689
    3TCq1    O414382   2.245   1.128  13.538  0.1972 -0.0850  0.0206
    3TCq1    C914383   2.598   0.705  13.425 -0.4581  0.1235  0.0130
    3TCq1    O514384   2.634   0.609  13.494 -0.5602  0.2541  0.1688
    3TCq1    O614385   2.553   0.692  13.311  0.0607  0.0290 -1.0093
    3TCq1    H114386   2.596   0.762  13.838 -0.2290 -1.5799  2.0720
    3TCq1    H214387   2.609   0.734  13.676 -0.8824  0.1680  1.1484
    3TCq1    H314388   2.483   0.898  13.332 -0.4896  1.2277 -0.0606
    3TCq1    H414389   2.403   1.109  13.698 -1.2047 -0.5273 -2.1783
    1MPD2     C14390   1.532   3.483  15.033  0.0033  0.0457  0.5598
    1MPD2    C114391   1.433   3.392  15.078  0.2352 -0.1375  0.1542
    1MPD2    C214392   1.470   3.258  15.081 -0.1058  0.1381 -0.9950
    1MPD2    C314393   1.601   3.223  15.065  0.0148  0.4776 -0.0432
    1MPD2    C414394   1.695   3.311  15.021 -0.1314 -0.4525  0.0542
    1MPD2    C514395   1.659   3.442  15.007 -0.0080  0.4171  0.1814
    1MPD2     H14396   1.402   3.173  15.088  2.1864 -1.4218  2.0689
    1MPD2    H114397   1.801   3.290  15.013 -0.1464  0.3610 -2.2584
    1MPD2    H214398   1.503   3.586  15.015 -3.4086 -1.0701 -0.3800
    1MPD2    H314399   1.736   3.511  14.977  0.1963 -1.0740 -2.7357
    1MPD2     N14400   1.629   3.086  15.083  0.2867 -0.3632  0.0524
    1MPD2    H514401   1.545   3.033  15.107  0.1566 -0.6420 -1.0051
    1MPD2    N114402   1.292   3.429  15.087 -0.0552  0.3477  0.5795
    1MPD2    H714403   1.266   3.527  15.082 -0.9709  0.0912  0.3007
    2TMC3    C114404   1.065   3.406  15.114 -0.1873  0.5576 -0.1381
    2TMC3    C214405   0.975   3.303  15.139 -0.0395  0.0650 -0.4027
    2TMC3    C314406   0.871   3.278  15.050  0.6578 -0.2186  0.0874
    2TMC3    C414407   1.036   3.494  15.009  0.2216 -0.2216  0.5251
    2TMC3    C514408   0.921   3.474  14.934  0.8139  0.1120 -0.0680
    2TMC3    C614409   0.843   3.366  14.951  0.3913 -0.2104 -0.0869
    2TMC3     C14410   1.197   3.345  15.135  0.3771  0.9054  0.6033
    2TMC3     O14411   1.200   3.226  15.168 -0.3071 -0.0972  0.1425
    2TMC3     H14412   0.981   3.243  15.229 -0.5138  0.1588 -0.3126
    2TMC3    H114413   1.090   3.587  14.995  0.9552 -0.7227 -0.0040
    2TMC3    H214414   0.769   3.330  14.880  0.4078  0.1368 -0.2767
    2TMC3    C714415   0.880   3.554  14.817  0.0183 -0.0774  0.8714
    2TMC3    C814416   0.869   3.135  15.013  0.3164  0.4439  0.4356
    2TMC3    O114417   0.760   3.549  14.786 -0.2826 -0.4203 -0.2529
    2TMC3    O214418   0.772   3.090  14.953 -0.1184 -0.4978  0.2400
    3TCq1    O114419   1.766   3.828  13.961 -0.6932  0.4197 -0.0764
    3TCq1    C114420   1.653   3.759  13.946 -0.6830 -0.8639 -0.1947
    3TCq1    O214421   1.591   3.771  13.840  0.0224 -0.4137  0.3555
    3TCq1    C214422   1.594   3.745  14.084  0.6275 -0.0829  0.3895
    3TCq1    C314423   1.681   3.775  14.189 -0.0968  0.2528  0.1542
    3TCq1    C414424   1.626   3.805  14.310  0.6908 -0.1450 -0.1030
    3TCq1    C514425   1.490   3.801  14.335 -0.1104 -0.0666 -0.4040
    3TCq1    C614426   1.413   3.772  14.224 -0.1319 -0.0351 -0.5392
    3TCq1    C714427   1.461   3.747  14.098 -0.2331 -0.2725 -0.4341
    3TCq1    C814428   1.267   3.769  14.240 -0.6840  0.2880 -0.3404
    3TCq1    O414429   1.199   3.737  14.142  0.3739  0.1953 -0.2499
    3TCq1    C914430   1.720   3.832  14.417  0.7615  0.2084 -0.0843
    3TCq1    O514431   1.841   3.840  14.391  0.6463  0.6325 -0.0945
    3TCq1    O614432   1.665   3.845  14.533 -0.7005  0.2079 -0.4673
    3TCq1    H114433   1.787   3.838  14.056 -0.1589 -1.8390  0.0583
    3TCq1    H214434   1.788   3.758  14.186 -0.1784 -0.1831 -0.3602
    3TCq1    H314435   1.463   3.837  14.433 -1.4661  1.5041 -1.3490
    3TCq1    H414436   1.391   3.725  14.019 -0.9213 -2.9341  0.9292
    4MPD2     C14437   0.989   3.753  14.343  0.8461 -0.1990  0.4416
    4MPD2    C114438   1.105   3.737  14.417  0.0488  0.0716 -0.1858
    4MPD2    C214439   1.101   3.687  14.542 -0.5279  0.0474  0.3359
    4MPD2    C314440   0.983   3.653  14.605  0.2483 -0.0281  0.5397
    4MPD2    C414441   0.865   3.667  14.526  0.5674  0.4767  0.8559
    4MPD2    C514442   0.871   3.714  14.402  0.3017 -0.1350 -0.4109
    4MPD2     H14443   1.191   3.666  14.599  1.7926  1.2005 -2.9138
    4MPD2    H114444   0.765   3.648  14.562  0.7963  0.3473  1.4219
    4MPD2    H214445   0.988   3.792  14.242 -0.5818 -4.8389 -1.3224
    4MPD2    H314446   0.779   3.733  14.348  0.0278  2.3842  0.9431
    4MPD2     N14447   0.983   3.614  14.744  0.5880  0.0001 -0.2479
    4MPD2    H514448   1.079   3.601  14.772  0.7522 -1.1709 -1.3711
    4MPD2    N114449   1.237   3.765  14.371  0.1453  0.5995  0.5277
    4MPD2    H714450   1.315   3.770  14.435  0.5268 -0.7520  0.1593
    5TMC2    C114451   1.531   2.731  15.126  0.4173  0.1337 -0.0314
    5TMC2    C214452   1.612   2.662  15.210  0.8280 -0.2753 -0.3986
    5TMC2    C314453   1.743   2.699  15.231  0.0478 -0.7436 -0.3722
    5TMC2    C414454   1.583   2.838  15.052 -0.2205  0.6461 -0.0514
    5TMC2    C514455   1.716   2.877  15.071 -0.4161  0.1575  0.5650
    5TMC2    C614456   1.795   2.793  15.148 -0.4850  0.7261  1.0954
    5TMC2     C14457   1.392   2.764  15.164 -0.0298  0.4237  0.4079
    5TMC2     O14458   1.388   2.849  15.249  0.0894 -0.8373 -0.1482
    5TMC2     H14459   1.572   2.584  15.274 -0.3542  1.3177  0.7775
    5TMC2    H114460   1.521   2.881  14.973  0.2191 -0.7787 -1.1609
    5TMC2    H214461   1.898   2.821  15.166 -0.8868  2.0032  1.4313
    5TMC2    C714462   1.744   3.017  15.066 -0.3843 -0.0436 -0.8029
    5TMC2    C814463   1.839   2.608  15.284  0.5357 -0.4112  0.4312
    5TMC2    O114464   1.859   3.053  15.050  0.1425 -0.1335  0.7997
    5TMC2    O214465   1.949   2.582  15.231 -0.4267 -0.1765  0.3181
    5TMC2    O514466   1.780   2.550  15.384  0.4149 -0.5737 -0.1552
    5TMC2    H514467   1.695   2.591  15.410  1.8021  0.7466  2.2992
    6MPD2     C14468   0.924   2.841  14.967  0.0131  0.9008 -0.0750
    6MPD2    C114469   1.016   2.925  15.029 -0.0318  0.0619 -0.1689
    6MPD2    C214470   1.137   2.878  15.076  0.0271 -0.0302 -0.2848
    6MPD2    C314471   1.172   2.746  15.054  0.3227 -0.2002  0.5433
    6MPD2    C414472   1.078   2.661  14.996  1.3949 -0.4840 -0.1680
    6MPD2    C514473   0.956   2.712  14.960 -0.4351  0.2229  0.1706
    6MPD2     H14474   1.197   2.940  15.142 -0.7358  1.9706 -1.4717
    6MPD2    H114475   1.093   2.555  14.974 -1.2312 -1.2783  1.9657
    6MPD2    H214476   0.830   2.874  14.924  1.0578  1.6543 -1.7641
    6MPD2    H314477   0.897   2.639  14.906 -0.4276  0.3156  0.0376
    6MPD2     N14478   1.304   2.696  15.081  0.0215  0.4277  0.2370
    6MPD2    H514479   1.334   2.609  15.037  2.5275  1.8532 -0.8630
    6MPD2    N114480   0.986   3.068  15.049  0.1831 -0.4241 -0.1748
    6MPD2    H714481   1.047   3.131  15.100 -0.3610 -0.7117  0.8324
  945NH3     N114482   3.040   3.292  15.560 -0.3869 -0.2551  0.0606
  945NH3     H214483   3.009   3.293  15.657 -1.6021  2.9526 -0.3620
  945NH3     H314484   3.129   3.338  15.572 -0.9329  0.9643 -0.5558
  945NH3     H414485   2.991   3.375  15.528  2.8784  1.9981  0.9392
  946SOD     NA14486   4.363   3.605   8.045 -0.1717  0.0151 -0.0568
  947SOD     NA14487   3.853   4.426  11.193 -0.6048  0.0787  0.2121
  948SOD     NA14488   3.407   1.666   5.048 -0.1417 -0.2807 -0.3470
  949SOD     NA14489   3.416   1.099   9.741 -0.6056  0.7395 -0.2596
  950SOD     NA14490   2.539   3.001  12.057 -0.5209  0.5391  0.1373
  951SOD     NA14491   2.358   1.135  15.726 -0.4838  0.0402 -0.1508
  952SOD     NA14492   2.972   3.450  15.238 -0.6702 -0.2530  0.1051
  953SOD     NA14493   2.476   0.383  17.301  0.2337  0.0733  0.0189
  954SOL     OW14494   0.143   1.463  16.019  0.0292  0.0415  0.6838
  954SOL    HW114495   0.094   1.541  16.044 -0.7029 -0.7223  1.6257
  954SOL    HW214496   0.164   1.481  15.927 -3.6485  1.9303  0.2347
  955SOL     OW14497   3.756   0.965   4.026 -0.2506 -0.5390  0.6023
  955SOL    HW114498   3.765   1.053   4.063 -0.7838 -0.3730  0.3331
  955SOL    HW214499   3.849   0.939   4.026 -0.0755  0.0924  0.7456
  956SOL     OW14500   0.372   2.251   4.538  0.2877  0.2009 -0.0024
  956SOL    HW114501   0.308   2.237   4.468  1.1834 -3.6368 -0.0369
  956SOL    HW214502   0.325   2.257   4.621 -0.2899  0.4576 -0.3503
  957SOL     OW14503   3.929   3.573   2.833  0.0864 -0.4320 -0.7941
  957SOL    HW114504   4.012   3.562   2.786  1.4984 -1.1957  1.8784
  957SOL    HW214505   3.883   3.617   2.763 -2.2355  0.2512  1.1605
  958SOL     OW14506   4.327   0.879   2.538  0.2873  0.0472 -0.1853
  958SOL    HW114507   4.270   0.835   2.476 -0.1366 -0.9203  0.8980
  958SOL    HW214508   4.407   0.864   2.488  0.7464 -1.4139  0.9792
  959SOL     OW14509   0.708   1.807   9.911  0.6150  0.8097 -0.4595
  959SOL    HW114510   0.755   1.887   9.934  1.2508  0.2762  0.1106
  959SOL    HW214511   0.641   1.839   9.851 -0.4000 -0.7355 -0.1418
  960SOL     OW14512   0.376   1.539   8.464 -0.3362  0.6688 -0.4980
  960SOL    HW114513   0.312   1.521   8.395  1.1867 -0.3477 -1.6562
  960SOL    HW214514   0.350   1.486   8.540 -0.8076  2.3091  0.4800
  961SOL     OW14515   2.468   1.924   5.139  0.1072 -0.7257  0.2891
  961SOL    HW114516   2.434   1.940   5.051 -0.7250  0.8554  0.9143
  961SOL    HW214517   2.506   1.838   5.121 -0.0496 -1.1287  1.9058
  962SOL     OW14518   0.265   4.357   2.903 -0.0076  0.0244 -0.0545
  962SOL    HW114519   0.220   4.364   2.820  0.8349  1.8370 -0.3601
  962SOL    HW214520   0.256   4.450   2.926 -0.9170  0.6827 -3.1599
  963SOL     OW14521   1.421   3.675   8.296  0.0968  0.4574 -0.1815
  963SOL    HW114522   1.409   3.655   8.389 -0.8728  0.5204 -0.2902
  963SOL    HW214523   1.391   3.766   8.303  3.0551  1.4277 -0.3131
  964SOL     OW14524   3.260   0.042  17.628 -0.5554 -0.0635  0.2238
  964SOL    HW114525   3.277   4.731  17.548 -1.8260 -1.6385  0.9419
  964SOL    HW214526   3.343   0.037  17.676  0.2651 -1.2508 -1.3037
  965SOL     OW14527   0.194   0.290   6.830 -0.3185  0.0118 -0.7136
  965SOL    HW114528   0.180   0.220   6.767  1.4821  0.8096 -2.0265
  965SOL    HW214529   0.103   0.310   6.852 -0.0801  0.2334  0.0801
  966SOL     OW14530   3.133   3.465   2.455  0.7996  0.0045  0.0009
  966SOL    HW114531   3.084   3.545   2.438  0.3745 -0.5338 -1.3452
  966SOL    HW214532   3.192   3.500   2.522  2.5204 -0.0196 -1.4911
  967SOL     OW14533   2.942   1.430   6.077 -0.3140  0.6369 -0.2371
  967SOL    HW114534   2.851   1.419   6.052 -0.1876  2.3169 -1.4393
  967SOL    HW214535   2.955   1.522   6.055 -0.1625  0.0668 -2.5390
  968SOL     OW14536   0.366   3.833   7.566  0.5677 -0.3309  0.1177
  968SOL    HW114537   0.296   3.894   7.543 -0.2656 -2.0614 -1.9203
  968SOL    HW214538   0.397   3.872   7.648  1.0805  0.3313 -0.3915
  969SOL     OW14539   1.406   4.060  13.584  0.0163  0.7469 -0.0185
  969SOL    HW114540   1.341   3.992  13.600  2.4011 -1.5096 -0.0170
  969SOL    HW214541   1.464   4.023  13.517  1.0846  0.6269  0.9741
  970SOL     OW14542   1.283   0.789  16.048 -0.2595  0.3842  1.1643
  970SOL    HW114543   1.287   0.855  16.118 -1.7382  2.3398 -0.6128
  970SOL    HW214544   1.372   0.754  16.043 -0.0893  1.2331 -1.5664
  971SOL     OW14545   3.549   4.211   2.136 -0.1432 -0.2925  0.1259
  971SOL    HW114546   3.454   4.212   2.149  0.0644 -2.6381  1.7090
  971SOL    HW214547   3.560   4.117   2.124  0.4669 -0.0298 -1.4519
  972SOL     OW14548   3.450   4.352   9.732 -0.3467  0.4453 -0.1905
  972SOL    HW114549   3.521   4.317   9.678 -0.5832  1.3397 -1.0840
  972SOL    HW214550   3.494   4.348   9.817 -0.2469  0.2219 -0.2504
  973SOL     OW14551   3.959   2.639   4.952  0.0015 -0.5426  0.0107
  973SOL    HW114552   3.886   2.606   4.900  0.3470 -1.0807 -0.1333
  973SOL    HW214553   4.034   2.585   4.927  0.4539 -0.5254  1.2881
  974SOL     OW14554   4.061   2.221   2.267 -0.6087  0.0687  0.7189
  974SOL    HW114555   4.061   2.218   2.172  0.8956 -1.2057  0.7600
  974SOL    HW214556   3.970   2.197   2.286 -0.3878 -0.4635  1.0928
  975SOL     OW14557   2.559   1.290   1.496 -0.1151  0.9081  0.9197
  975SOL    HW114558   2.466   1.294   1.475  0.6512  2.2659 -2.1598
  975SOL    HW214559   2.572   1.228   1.568  0.6551  2.2058  1.9094
  976SOL     OW14560   3.194   2.751   2.214 -0.1975 -0.2636 -0.6874
  976SOL    HW114561   3.273   2.739   2.267 -2.4812  0.6166  2.9059
  976SOL    HW214562   3.230   2.785   2.132  0.6074 -0.6595 -0.4955
  977SOL     OW14563   2.327   3.487   5.998  0.0394  0.0551  0.0554
  977SOL    HW114564   2.249   3.496   6.053  0.2210  4.8202 -0.4641
  977SOL    HW214565   2.340   3.578   5.970  3.6094  0.4334  2.9068
  978SOL     OW14566   3.623   4.234   4.708  0.0828  0.4127  0.1388
  978SOL    HW114567   3.622   4.327   4.730  0.8199  0.1778  1.1876
  978SOL    HW214568   3.709   4.204   4.736 -0.9466 -0.3168  2.6013
  979SOL     OW14569   1.521   0.898   6.281 -0.4653 -0.6367  0.0507
  979SOL    HW114570   1.550   0.968   6.223 -0.2364 -1.0550 -0.3449
  979SOL    HW214571   1.593   0.836   6.272 -0.2968 -0.2648 -1.1808
  980SOL     OW14572   4.537   3.813   2.070 -0.3016  0.2301  0.3768
  980SOL    HW114573   4.594   3.747   2.032 -0.6862  2.1022 -3.3966
  980SOL    HW214574   4.561   3.889   2.017 -2.8793  1.3942  0.8972
  981SOL     OW14575   2.941   1.780   1.201  0.2979  0.4056 -0.3197
  981SOL    HW114576   2.915   1.794   1.292 -0.1135 -0.1385 -0.3532
  981SOL    HW214577   2.904   1.693   1.187  1.0295  0.3875 -2.1672
  982SOL     OW14578   0.570   4.617   7.212  0.7903 -0.2322 -0.3323
  982SOL    HW114579   0.546   4.687   7.272 -0.0636 -1.5353  0.8549
  982SOL    HW214580   0.597   4.553   7.278 -1.6053  2.4826  3.2770
  983SOL     OW14581   0.475   4.608  14.605 -0.2402  0.1506  0.0000
  983SOL    HW114582   0.440   4.614  14.694 -0.3808 -0.1776 -0.0332
  983SOL    HW214583   0.569   4.617  14.618  0.3978 -0.7282 -3.9182
  984SOL     OW14584   3.208   4.039  15.164 -0.1220 -0.8352 -0.0904
  984SOL    HW114585   3.121   4.011  15.134  0.5701 -1.2850 -1.6500
  984SOL    HW214586   3.188   4.087  15.245  0.8640  0.8520 -0.8393
  985SOL     OW14587   4.147   0.281   2.830  0.1033 -0.0688 -0.0684
  985SOL    HW114588   4.232   0.283   2.875  0.5672 -1.9364 -0.8714
  985SOL    HW214589   4.131   0.192   2.860 -1.8585  0.0925 -0.6632
  986SOL     OW14590   0.590   2.866   4.358 -0.2615  0.2248  0.1003
  986SOL    HW114591   0.603   2.774   4.384 -0.4177  1.3347  4.1350
  986SOL    HW214592   0.635   2.896   4.437  0.9742  0.7699 -0.8183
  987SOL     OW14593   1.114   1.448   4.702 -0.0993  0.4691  0.4708
  987SOL    HW114594   1.080   1.452   4.792  1.0103 -2.7649  1.0217
  987SOL    HW214595   1.056   1.389   4.653 -1.7020  1.8791  0.6455
  988SOL     OW14596   0.810   2.401   2.985 -0.2078  0.4126 -0.2689
  988SOL    HW114597   0.904   2.383   2.985 -0.5536 -1.3187 -2.5296
  988SOL    HW214598   0.809   2.493   2.958  0.0252  0.8689  1.2479
  989SOL     OW14599   3.182   1.964   8.089 -0.4141  0.1744  0.2283
  989SOL    HW114600   3.260   1.910   8.075 -0.3945  0.1807  0.3131
  989SOL    HW214601   3.229   2.045   8.109  0.5229 -0.5706  1.0662
  990SOL     OW14602   3.776   2.816  16.751 -0.4983 -0.5244 -0.6407
  990SOL    HW114603   3.693   2.769  16.760  0.2096 -1.9150 -1.4645
  990SOL    HW214604   3.776   2.874  16.827 -0.9398 -1.4197  0.0337
  991SOL     OW14605   2.985   2.168   3.665  0.2873 -0.4517 -0.0879
  991SOL    HW114606   2.961   2.083   3.701 -1.8361  0.8349  1.5529
  991SOL    HW214607   3.069   2.183   3.708 -1.2294  2.0362  2.0583
  992SOL     OW14608   4.063   1.597   7.761 -0.0053 -0.2047 -0.0350
  992SOL    HW114609   4.106   1.671   7.804 -0.4071  0.3622 -0.6037
  992SOL    HW214610   4.096   1.521   7.808  0.6952 -0.7623 -1.4054
  993SOL     OW14611   4.468   0.005   5.134  0.2604  0.2243  0.0073
  993SOL    HW114612   4.423   0.023   5.051  0.2548  0.8512  0.1468
  993SOL    HW214613   4.549   4.701   5.106  1.2245  2.0842 -0.0673
  994SOL     OW14614   1.198   1.036   4.104  0.4768  0.3927 -0.4173
  994SOL    HW114615   1.281   1.070   4.068 -0.1411  2.6701  0.2986
  994SOL    HW214616   1.158   1.123   4.114  0.8818  0.4278  0.9102
  995SOL     OW14617   2.446   2.998   7.787 -0.4058 -0.1198 -0.6179
  995SOL    HW114618   2.512   2.972   7.723  0.9013 -0.7320  1.0007
  995SOL    HW214619   2.474   3.089   7.796 -0.6131 -0.0017 -1.1472
  996SOL     OW14620   1.936   2.077   8.678 -0.1408  0.5109 -0.1142
  996SOL    HW114621   1.864   2.115   8.628 -0.6110  0.1878  0.3107
  996SOL    HW214622   1.898   2.075   8.766 -0.0162  1.9630 -0.0259
  997SOL     OW14623   0.511   2.621   3.068  0.0824  0.0855  0.2316
  997SOL    HW114624   0.599   2.653   3.047  0.0744  1.6455  2.5536
  997SOL    HW214625   0.478   2.686   3.130 -1.3007 -2.6382  2.3576
  998SOL     OW14626   2.627   1.835  11.679  0.9060  0.0334 -0.2455
  998SOL    HW114627   2.671   1.776  11.740 -0.7408 -0.4703  0.4555
  998SOL    HW214628   2.561   1.778  11.642  0.5770 -0.8720  1.7439
  999SOL     OW14629   3.373   2.214   1.619 -0.6679 -0.4892  0.1655
  999SOL    HW114630   3.373   2.193   1.713 -1.3415  0.5181  0.3841
  999SOL    HW214631   3.442   2.281   1.620 -0.4006 -0.8082  2.6863
 1000SOL     OW14632   3.159   0.024   9.068 -0.0379 -0.0164  0.2503
 1000SOL    HW114633   3.242   0.062   9.096 -0.0496  0.5222 -0.4307
 1000SOL    HW214634   3.167   4.676   9.107  0.7521 -0.2727 -0.4905
 1001SOL     OW14635   1.683   2.620  17.329 -0.4199  0.0921 -0.4734
 1001SOL    HW114636   1.646   2.640  17.243  2.5670 -2.2088 -2.3276
 1001SOL    HW214637   1.734   2.699  17.344 -0.2307 -0.5360  2.2824
 1002SOL     OW14638   4.309   3.332   7.183  0.1876  0.1027  0.0662
 1002SOL    HW114639   4.297   3.304   7.092  2.9852  0.0188 -0.2964
 1002SOL    HW214640   4.221   3.342   7.217  1.2145  2.1231  2.1065
 1003SOL     OW14641   3.395   2.556   3.669  0.3760 -0.2851 -0.3991
 1003SOL    HW114642   3.372   2.506   3.747  1.2561  0.2795  0.2115
 1003SOL    HW214643   3.310   2.546   3.624  0.7661  0.1442 -1.2234
 1004SOL     OW14644   4.702   4.334  15.832  0.1042 -0.9218 -0.6230
 1004SOL    HW114645   0.035   4.381  15.789 -1.0059 -0.1250 -1.5751
 1004SOL    HW214646   0.020   4.309  15.905  2.2813 -1.0019 -2.3437
 1005SOL     OW14647   0.315   2.936  12.227 -0.2539  0.5972 -0.1066
 1005SOL    HW114648   0.246   2.875  12.199 -1.1825  0.2628  2.9194
 1005SOL    HW214649   0.289   2.936  12.319  0.5413 -0.3114  0.1184
 1006SOL     OW14650   2.218   1.038  11.575 -0.0090  0.2032 -0.7275
 1006SOL    HW114651   2.187   0.988  11.650 -0.7023 -1.9631 -2.4666
 1006SOL    HW214652   2.278   0.976  11.533 -1.7912 -0.3655 -2.4322
 1007SOL     OW14653   3.975   4.456  16.934  0.1283 -0.1384  0.2134
 1007SOL    HW114654   4.030   4.429  17.007  1.6705  1.3848 -0.3737
 1007SOL    HW214655   3.915   4.513  16.982  0.9640  1.8859 -1.1525
 1008SOL     OW14656   3.394   0.065   9.211 -0.3313 -0.6984 -0.3700
 1008SOL    HW114657   3.445   0.020   9.279 -0.0948 -2.2675 -1.6017
 1008SOL    HW214658   3.461   0.106   9.157 -1.1135  1.9520  0.6838
 1009SOL     OW14659   1.826   1.048  11.974  0.0389 -0.1662  0.2054
 1009SOL    HW114660   1.768   1.060  12.049 -0.7735 -0.0369 -0.4500
 1009SOL    HW214661   1.909   1.053  12.021  0.2027  1.1824 -0.2180
 1010SOL     OW14662   3.540   2.984   7.936 -0.3359  0.5719  0.5387
 1010SOL    HW114663   3.467   3.016   7.990 -1.2215 -1.6936  0.6884
 1010SOL    HW214664   3.559   3.054   7.874 -0.9072  1.3325  1.2207
 1011SOL     OW14665   1.084   2.584  10.424 -0.2766 -0.4681 -0.3823
 1011SOL    HW114666   1.128   2.589  10.509 -0.0524  2.6640 -0.6566
 1011SOL    HW214667   1.160   2.581  10.365 -0.5877 -0.2449 -0.7903
 1012SOL     OW14668   2.179   0.573   4.161  0.3517  0.5875  0.0532
 1012SOL    HW114669   2.148   0.582   4.071 -2.0274 -0.9585  0.7233
 1012SOL    HW214670   2.269   0.540   4.153  0.0457 -0.2149 -0.0617
 1013SOL     OW14671   0.207   2.936  17.419  0.0255  0.0408  0.6158
 1013SOL    HW114672   0.198   2.971  17.508 -0.3405 -0.1587  0.6559
 1013SOL    HW214673   0.220   2.845  17.445 -2.1653 -1.0227 -1.9599
 1014SOL     OW14674   0.324   1.071  14.008 -0.0981  0.2936 -0.1741
 1014SOL    HW114675   0.323   1.031  13.921 -2.6422 -0.0549  0.0291
 1014SOL    HW214676   0.409   1.116  14.012  0.4044 -0.8832  2.3298
 1015SOL     OW14677   4.360   4.293   2.499 -0.2382  0.0141  0.2942
 1015SOL    HW114678   4.274   4.257   2.516 -0.7961  1.1905 -0.0198
 1015SOL    HW214679   4.415   4.225   2.538  1.7837  0.2980 -2.0627
 1016SOL     OW14680   1.563   3.087   3.171  0.2671  0.0904 -0.4761
 1016SOL    HW114681   1.586   3.087   3.078  0.0746  3.9089 -0.5476
 1016SOL    HW214682   1.646   3.061   3.211  0.1969 -0.0725 -0.4353
 1017SOL     OW14683   0.475   3.674   5.027  0.7754  0.0125  0.5058
 1017SOL    HW114684   0.526   3.735   4.973  0.6587  0.2748  0.6934
 1017SOL    HW214685   0.541   3.645   5.090  0.8788 -1.1643 -0.1561
 1018SOL     OW14686   0.643   3.498  11.287  0.0144 -0.2299 -0.0680
 1018SOL    HW114687   0.670   3.563  11.351 -2.1530  0.2145  0.4023
 1018SOL    HW214688   0.651   3.421  11.344 -1.7015 -0.7215 -0.4709
 1019SOL     OW14689   1.225   3.952   7.655  0.1116 -0.2750 -0.0999
 1019SOL    HW114690   1.212   3.863   7.622  0.5893 -0.4048  0.0666
 1019SOL    HW214691   1.141   3.961   7.701  0.4439  0.7306  0.3064
 1020SOL     OW14692   4.403   0.253   5.969  0.0590  0.0144  0.2528
 1020SOL    HW114693   4.498   0.247   5.968  0.0570 -0.0138  0.1918
 1020SOL    HW214694   4.384   0.161   5.985  1.2158 -0.5910 -1.8814
 1021SOL     OW14695   4.119   4.425   9.046  0.0410  0.5897  0.1171
 1021SOL    HW114696   4.153   4.336   9.051  0.3479  0.7398  0.6812
 1021SOL    HW214697   4.199   4.471   9.022 -1.2642  2.5165 -0.5939
 1022SOL     OW14698   0.570   0.970   2.643 -0.1259  0.6695  0.5874
 1022SOL    HW114699   0.493   0.918   2.621  1.5751 -1.2552 -0.8660
 1022SOL    HW214700   0.582   1.029   2.569  1.0235 -2.4727 -1.7338
 1023SOL     OW14701   4.280   3.560   6.535  0.3988  0.0512  0.3467
 1023SOL    HW114702   4.243   3.625   6.595  0.9965  1.5421 -0.8904
 1023SOL    HW214703   4.361   3.536   6.581  0.0869  0.2283  0.9894
 1024SOL     OW14704   4.371   2.210   3.543 -0.0595 -0.0715  0.2047
 1024SOL    HW114705   4.462   2.204   3.515 -0.0681 -1.2174  0.4480
 1024SOL    HW214706   4.330   2.186   3.460  2.9076  1.3244 -1.6866
 1025SOL     OW14707   4.450   2.058   4.486 -0.3525  0.5365 -0.6560
 1025SOL    HW114708   4.483   2.124   4.425 -0.5289  0.9641 -0.2946
 1025SOL    HW214709   4.361   2.087   4.504 -0.7483 -1.7280  0.9875
 1026SOL     OW14710   3.904   1.073   4.856 -0.5643 -0.0094 -0.1643
 1026SOL    HW114711   3.839   1.003   4.853  0.9304 -1.3121 -2.3125
 1026SOL    HW214712   3.887   1.096   4.947 -2.1304  3.0255 -1.2214
 1027SOL     OW14713   4.302   3.124   1.577 -0.2082  0.0024  0.0325
 1027SOL    HW114714   4.381   3.119   1.523  0.2613 -2.2690  0.9255
 1027SOL    HW214715   4.241   3.132   1.504  0.4887  1.1688 -0.4136
 1028SOL     OW14716   2.690   1.388   8.253 -0.1536 -0.0734  0.2848
 1028SOL    HW114717   2.757   1.420   8.193  0.9532  1.2346  2.2204
 1028SOL    HW214718   2.715   1.426   8.338  1.7933 -0.6232 -0.0286
 1029SOL     OW14719   4.413   4.625  10.573 -0.1029 -0.1102 -0.0031
 1029SOL    HW114720   4.431   4.643  10.481 -0.5266 -1.8690 -0.4232
 1029SOL    HW214721   4.464   4.695  10.614  0.1525  1.4380 -2.9898
 1030SOL     OW14722   2.275   3.653   8.252  0.2852  0.1390  0.4183
 1030SOL    HW114723   2.293   3.562   8.275 -2.0948 -0.0137  1.6729
 1030SOL    HW214724   2.300   3.690   8.336 -1.9440  4.8684 -1.0152
 1031SOL     OW14725   3.747   1.381   8.375  0.3089 -0.0312  0.1926
 1031SOL    HW114726   3.765   1.360   8.467 -0.2903  1.5572  0.6644
 1031SOL    HW214727   3.815   1.330   8.331 -1.2749 -0.5339 -1.6751
 1032SOL     OW14728   1.715   1.695   9.380  0.1855  0.3601  0.2131
 1032SOL    HW114729   1.638   1.671   9.328 -0.1720  0.1274  0.8503
 1032SOL    HW214730   1.766   1.747   9.317 -1.0117  0.0124 -1.0515
 1033SOL     OW14731   1.747   1.938   6.168 -0.2054  0.5041 -0.0543
 1033SOL    HW114732   1.834   1.976   6.156  0.8819 -1.9078  0.3093
 1033SOL    HW214733   1.697   2.019   6.157 -0.5188  0.4262  0.8212
 1034SOL     OW14734   4.191   3.002   6.723  0.1765 -0.0092  0.0082
 1034SOL    HW114735   4.179   3.089   6.686  1.2419 -0.9699 -2.6682
 1034SOL    HW214736   4.110   2.957   6.697  0.4641 -1.4688  1.6435
 1035SOL     OW14737   0.287   0.602  11.515 -0.1086 -0.2993 -0.4520
 1035SOL    HW114738   0.206   0.620  11.563  0.7034  0.1841  0.7384
 1035SOL    HW214739   0.335   0.672  11.559 -0.4216  0.2299 -0.9535
 1036SOL     OW14740   3.646   0.516   6.327  0.3536 -0.2373 -0.1616
 1036SOL    HW114741   3.613   0.557   6.406  0.0202 -0.8333  0.0061
 1036SOL    HW214742   3.671   0.434   6.370  1.3792 -0.2423 -0.7459
 1037SOL     OW14743   0.740   2.093  15.502  0.0813  0.3070 -0.1271
 1037SOL    HW114744   0.813   2.132  15.549  1.8608 -0.1721 -2.5099
 1037SOL    HW214745   0.774   2.015  15.458  1.6971 -0.4857  2.5183
 1038SOL     OW14746   4.015   4.292  10.806 -0.0497  0.1524  0.5510
 1038SOL    HW114747   4.020   4.286  10.710 -0.3664 -0.3440  0.5645
 1038SOL    HW214748   4.103   4.321  10.830 -0.1716  0.7560  0.2673
 1039SOL     OW14749   4.519   1.635   2.473  0.3791 -0.6432 -0.0213
 1039SOL    HW114750   4.600   1.675   2.506 -0.3867  0.1082  0.9397
 1039SOL    HW214751   4.509   1.566   2.538 -0.0690 -0.5302  0.0264
 1040SOL     OW14752   1.435   2.733   4.327 -0.1616 -0.3656  0.0340
 1040SOL    HW114753   1.397   2.701   4.409  0.6758 -3.7232 -0.8966
 1040SOL    HW214754   1.516   2.773   4.358  0.1917 -0.9483 -0.1547
 1041SOL     OW14755   4.111   4.344   6.275 -0.5472  0.1844 -0.0538
 1041SOL    HW114756   4.126   4.257   6.239 -0.2860  0.5184 -0.7478
 1041SOL    HW214757   4.149   4.402   6.209 -0.1013  0.5080  0.4807
 1042SOL     OW14758   2.194   0.609   0.837 -0.2816 -0.2422  0.1361
 1042SOL    HW114759   2.268   0.548   0.846  0.3969  0.3815 -1.2503
 1042SOL    HW214760   2.139   0.577   0.909 -0.5387  0.0101  0.0501
 1043SOL     OW14761   4.206   2.450   9.074  0.0727  0.6275  0.2371
 1043SOL    HW114762   4.258   2.529   9.063 -0.3298  0.3991 -3.1005
 1043SOL    HW214763   4.189   2.424   8.984 -0.5352 -1.4824  0.9511
 1044SOL     OW14764   3.755   3.904  13.992 -0.5471  0.4153  0.8977
 1044SOL    HW114765   3.805   3.985  13.980 -0.8924  0.5948  0.6727
 1044SOL    HW214766   3.823   3.851  14.032 -0.7701 -0.7237 -0.2238
 1045SOL     OW14767   0.498   2.572   6.097  0.6710  0.6206  0.2640
 1045SOL    HW114768   0.422   2.631   6.094  2.5539  3.0662  0.3216
 1045SOL    HW214769   0.461   2.494   6.056  1.1948  0.7115 -0.3953
 1046SOL     OW14770   1.792   3.405   7.281 -0.7911  0.0404  0.2770
 1046SOL    HW114771   1.757   3.354   7.354 -0.8947  1.2070  1.0507
 1046SOL    HW214772   1.808   3.493   7.316 -0.1282  0.7836 -1.9325
 1047SOL     OW14773   0.453   0.848   7.267 -0.3467 -0.2100 -0.1824
 1047SOL    HW114774   0.488   0.899   7.340  0.0991  0.2660 -0.7318
 1047SOL    HW214775   0.473   0.759   7.297 -0.2032 -0.4175 -0.9118
 1048SOL     OW14776   3.896   0.116   3.071 -0.7192  0.2141  0.0014
 1048SOL    HW114777   3.819   0.059   3.077 -0.0401 -0.7695 -0.5755
 1048SOL    HW214778   3.966   0.055   3.052 -1.2785 -0.6110  0.6039
 1049SOL     OW14779   2.028   2.502   7.937  0.4520 -0.3274  0.3803
 1049SOL    HW114780   1.990   2.582   7.974  1.8141 -0.0016  1.0763
 1049SOL    HW214781   2.113   2.503   7.981  0.7690  2.4243 -0.2693
 1050SOL     OW14782   1.304   2.330   4.722 -0.2551 -0.4120 -0.4205
 1050SOL    HW114783   1.389   2.325   4.765  0.7869 -0.3047 -2.4549
 1050SOL    HW214784   1.242   2.366   4.785  2.4426 -0.4441  2.2814
 1051SOL     OW14785   0.583   1.097  16.198 -0.8114 -0.0016 -0.0165
 1051SOL    HW114786   0.526   1.111  16.273  0.8087  0.7482  1.0736
 1051SOL    HW214787   0.663   1.071  16.244 -0.7745 -0.8198 -0.5356
 1052SOL     OW14788   1.838   4.162   6.458 -0.0637  1.2264  0.3477
 1052SOL    HW114789   1.909   4.105   6.431 -0.4861  1.0439 -0.3547
 1052SOL    HW214790   1.815   4.205   6.376 -0.0035  1.7075  0.5815
 1053SOL     OW14791   1.751   0.385  16.105  0.0271  0.0985 -0.2930
 1053SOL    HW114792   1.773   0.453  16.042  3.2499 -0.4462  0.2033
 1053SOL    HW214793   1.764   0.308  16.049 -0.2176 -0.8483  0.9520
 1054SOL     OW14794   2.196   3.532  13.318  0.4628 -0.1663  0.0819
 1054SOL    HW114795   2.120   3.512  13.264 -0.5792 -1.0764  1.8733
 1054SOL    HW214796   2.152   3.537  13.403  1.0397  1.9861  0.2601
 1055SOL     OW14797   3.071   2.188   9.508  0.3412 -0.0007 -0.2728
 1055SOL    HW114798   2.990   2.136   9.504  1.0377 -1.0481 -0.8245
 1055SOL    HW214799   3.063   2.233   9.593  1.2630  0.3784 -0.3866
 1056SOL     OW14800   2.115   3.429   9.659  0.0901  0.7251  0.1982
 1056SOL    HW114801   2.163   3.415   9.741 -0.6023 -1.0923  0.2752
 1056SOL    HW214802   2.117   3.524   9.648  1.6991  0.7290  0.5900
 1057SOL     OW14803   2.718   0.468  17.314  0.4023  0.4202  0.7783
 1057SOL    HW114804   2.704   0.534  17.246 -2.2658 -0.5862  0.3451
 1057SOL    HW214805   2.811   0.449  17.304  0.5270  0.8231  1.1737
 1058SOL     OW14806   2.124   3.573  17.739  0.0619 -0.2488  0.4020
 1058SOL    HW114807   2.194   3.636   0.002 -1.7606  1.9903 -0.4938
 1058SOL    HW214808   2.108   3.548   0.077 -0.8551 -0.2234  0.2469
 1059SOL     OW14809   3.962   1.844   8.627 -0.4397 -0.3471  0.0459
 1059SOL    HW114810   3.952   1.754   8.657 -0.0874 -0.4851 -0.2501
 1059SOL    HW214811   4.027   1.817   8.563 -0.1571 -0.3976  0.3572
 1060SOL     OW14812   1.871   0.824   9.338 -0.2428 -1.0028  0.3391
 1060SOL    HW114813   1.807   0.758   9.312 -0.3890  0.5817 -3.4215
 1060SOL    HW214814   1.825   0.876   9.403  0.9831  0.6508 -0.1129
 1061SOL     OW14815   3.732   0.661   9.282  0.3444 -0.1706 -0.0985
 1061SOL    HW114816   3.719   0.584   9.338  1.1136  0.7122  1.2756
 1061SOL    HW214817   3.643   0.694   9.292  0.4191  0.2258 -0.7102
 1062SOL     OW14818   2.290   2.974  13.183  0.3143  0.5549  0.2587
 1062SOL    HW114819   2.309   2.963  13.090  1.6751  2.7407  0.2865
 1062SOL    HW214820   2.227   2.903  13.198 -0.1043  0.9499  0.3784
 1063SOL     OW14821   2.687   3.219   7.334 -0.7803  0.4206 -0.1413
 1063SOL    HW114822   2.719   3.131   7.316  1.5698  1.1369  0.5918
 1063SOL    HW214823   2.600   3.227   7.295 -0.1136 -0.5091 -1.7833
 1064SOL     OW14824   4.241   1.813  13.396 -0.3453  0.0400  0.5262
 1064SOL    HW114825   4.225   1.907  13.388 -0.7007  0.0239  1.0620
 1064SOL    HW214826   4.331   1.818  13.430  0.3431 -0.1242 -1.2544
 1065SOL     OW14827   0.550   0.264   7.049  0.4217  0.5582  0.3245
 1065SOL    HW114828   0.468   0.236   7.089 -0.6932  0.8968 -1.7288
 1065SOL    HW214829   0.541   0.239   6.957  1.3764 -2.5323  1.0902
 1066SOL     OW14830   3.823   2.012   6.691 -0.1737 -0.1741  0.9420
 1066SOL    HW114831   3.811   1.918   6.705 -1.1787 -0.0944  0.6603
 1066SOL    HW214832   3.896   2.033   6.749 -0.2768  0.0349  0.9967
 1067SOL     OW14833   0.555   3.584   9.510  0.1202  0.2690 -0.2556
 1067SOL    HW114834   0.463   3.587   9.535  0.6554 -1.0515  1.8067
 1067SOL    HW214835   0.567   3.665   9.460  0.1707 -0.4821 -1.4621
 1068SOL     OW14836   1.486   1.236  13.480  0.3500 -0.3627  0.0475
 1068SOL    HW114837   1.494   1.307  13.543  0.8521 -1.4923  1.2545
 1068SOL    HW214838   1.391   1.225  13.490 -0.1718  2.0962 -2.0704
 1069SOL     OW14839   3.628   2.871   6.127  0.1640 -0.6374  0.0800
 1069SOL    HW114840   3.713   2.850   6.167  0.0734 -1.2253 -0.0324
 1069SOL    HW214841   3.633   2.800   6.062  2.7863 -0.0783 -0.3506
 1070SOL     OW14842   3.849   4.435   7.634  0.5128  0.3005  0.4009
 1070SOL    HW114843   3.785   4.395   7.575  1.7448 -0.4072 -0.4637
 1070SOL    HW214844   3.795   4.460   7.709 -0.1013  1.9758 -0.5841
 1071SOL     OW14845   0.943   2.102  16.040  0.3785 -0.2794  0.3216
 1071SOL    HW114846   0.958   2.058  15.956 -3.4790 -0.7891 -0.1121
 1071SOL    HW214847   0.875   2.047  16.078  0.3310 -1.0874 -0.9303
 1072SOL     OW14848   2.962   4.251   1.528  0.2305 -0.1814 -0.2603
 1072SOL    HW114849   2.955   4.156   1.519  3.0541 -0.4086 -0.2153
 1072SOL    HW214850   3.056   4.259   1.545 -0.1215  2.4336  0.4022
 1073SOL     OW14851   0.952   3.059   3.799 -0.3198 -0.1529 -0.5294
 1073SOL    HW114852   0.981   3.118   3.868  1.2967 -1.0180 -0.4537
 1073SOL    HW214853   0.990   3.100   3.721  2.2133  1.6271  1.6558
 1074SOL     OW14854   4.186   0.936   3.382 -0.3969 -0.6350  0.2883
 1074SOL    HW114855   4.147   1.022   3.403 -1.4897 -0.1091 -3.9311
 1074SOL    HW214856   4.111   0.885   3.349 -0.6530 -0.1628  0.1300
 1075SOL     OW14857   2.002   3.587   8.284  0.1494  0.1716  0.3807
 1075SOL    HW114858   1.945   3.568   8.358  0.0706 -0.5439  0.1414
 1075SOL    HW214859   2.017   3.680   8.299  1.2642 -0.0574  0.6950
 1076SOL     OW14860   3.589   2.200   5.371 -0.0138  0.5609 -0.0264
 1076SOL    HW114861   3.633   2.264   5.427  4.8170 -3.2112  0.4619
 1076SOL    HW214862   3.652   2.128   5.375  0.5816  1.1509  1.1247
 1077SOL     OW14863   1.513   1.865   7.698  0.3144  0.1648 -0.3225
 1077SOL    HW114864   1.519   1.960   7.699 -1.3572  0.2779 -2.1222
 1077SOL    HW214865   1.418   1.857   7.704  0.2288  3.2211  2.5419
 1078SOL     OW14866   1.481   0.871   7.590 -0.7888  0.2946  0.9448
 1078SOL    HW114867   1.398   0.892   7.631 -0.2180  1.7325  1.3801
 1078SOL    HW214868   1.486   0.778   7.612  0.4732  0.0690 -0.3114
 1079SOL     OW14869   3.316   2.862   1.998  0.3205 -0.1035 -0.0284
 1079SOL    HW114870   3.240   2.907   1.960  0.4646  1.3940  1.4353
 1079SOL    HW214871   3.375   2.934   2.020 -1.1476  1.3008 -0.6462
 1080SOL     OW14872   0.656   1.286  10.470 -0.3553 -0.3268 -0.5398
 1080SOL    HW114873   0.671   1.242  10.554 -2.1158  2.7884  1.3990
 1080SOL    HW214874   0.742   1.306  10.434 -0.2838  1.7809  0.8262
 1081SOL     OW14875   2.046   2.094  16.822 -1.0168 -0.0670 -0.1653
 1081SOL    HW114876   1.955   2.121  16.841 -1.2995 -1.2993  0.2118
 1081SOL    HW214877   2.038   1.999  16.817  2.0591 -0.3288  0.1918
 1082SOL     OW14878   0.064   2.536  15.680 -0.8840  0.2459 -0.4409
 1082SOL    HW114879   0.158   2.554  15.672 -1.0041  0.5869 -1.0602
 1082SOL    HW214880   0.054   2.485  15.600 -3.0559  0.4236 -0.2601
 1083SOL     OW14881   2.586   2.099   8.561  0.5912  0.5848  0.7819
 1083SOL    HW114882   2.604   2.013   8.523 -0.4810  0.5661  0.3233
 1083SOL    HW214883   2.495   2.105   8.533  0.7857  0.4743  0.1190
 1084SOL     OW14884   4.179   4.044   6.803  0.3698 -0.3294  0.3536
 1084SOL    HW114885   4.155   4.089   6.884 -0.4630 -0.7005  0.3108
 1084SOL    HW214886   4.263   4.003   6.824  0.4306  0.4845  1.6671
 1085SOL     OW14887   1.472   2.102   8.214  0.3038 -0.5458  0.1192
 1085SOL    HW114888   1.548   2.159   8.229 -0.5935  0.5681  0.4820
 1085SOL    HW214889   1.403   2.163   8.240 -0.3881 -1.6185  0.7666
 1086SOL     OW14890   2.437   0.013   8.568 -0.4782 -0.4137  0.3499
 1086SOL    HW114891   2.387   0.040   8.491 -0.1623  1.1643  0.6889
 1086SOL    HW214892   2.455   4.659   8.554  0.6232 -0.3002  0.9611
 1087SOL     OW14893   0.023   4.311   3.039 -0.1711 -0.3211 -0.1659
 1087SOL    HW114894   0.090   4.346   2.980  0.8346 -0.9196  0.6125
 1087SOL    HW214895   4.684   4.363   3.020 -0.1310  0.5311  2.0076
 1088SOL     OW14896   4.364   0.676   1.209  0.2217  0.7560  0.9128
 1088SOL    HW114897   4.362   0.766   1.241 -1.1835  0.2950  2.1126
 1088SOL    HW214898   4.319   0.640   1.285  2.7692  0.1065  2.1298
 1089SOL     OW14899   4.033   4.302  11.243 -0.1662  0.2266 -0.3786
 1089SOL    HW114900   4.079   4.246  11.306 -2.0937 -0.5257  0.3312
 1089SOL    HW214901   4.052   4.244  11.170 -1.5768  0.0865 -0.6173
 1090SOL     OW14902   2.419   0.327   3.913 -0.6046 -0.5545 -0.9211
 1090SOL    HW114903   2.373   0.256   3.957 -0.1520  0.4598  1.1721
 1090SOL    HW214904   2.369   0.349   3.834 -1.2432  0.2532 -0.3024
 1091SOL     OW14905   0.594   3.676   0.569  0.6384 -0.3511  0.1462
 1091SOL    HW114906   0.558   3.679   0.480 -0.4817 -3.0884  0.5227
 1091SOL    HW214907   0.687   3.679   0.545  0.7865 -0.5617  0.7037
 1092SOL     OW14908   4.074   2.544   5.831 -0.4725  0.2748  1.2420
 1092SOL    HW114909   4.024   2.601   5.889 -1.5582 -0.4368  1.0012
 1092SOL    HW214910   4.030   2.551   5.746 -1.3988 -2.0003  1.5420
 1093SOL     OW14911   1.304   3.832   5.388 -0.0054  0.4549 -0.0089
 1093SOL    HW114912   1.380   3.827   5.446 -1.5839 -1.7905  1.8854
 1093SOL    HW214913   1.288   3.740   5.367 -1.5906  0.9399 -0.8927
 1094SOL     OW14914   1.829   3.734   2.998  0.9511 -0.4300 -0.3947
 1094SOL    HW114915   1.764   3.750   2.929  1.2910  0.6084 -0.4724
 1094SOL    HW214916   1.778   3.662   3.035 -0.9973  0.6315 -0.9999
 1095SOL     OW14917   0.494   3.762   1.345  0.2258 -0.2881  0.1414
 1095SOL    HW114918   0.440   3.842   1.343  2.3688  1.1921  1.6608
 1095SOL    HW214919   0.585   3.791   1.340  0.4818 -0.5599  3.1088
 1096SOL     OW14920   3.941   0.545   7.837 -0.0056 -0.3116 -0.3417
 1096SOL    HW114921   3.929   0.623   7.892  1.6920 -1.5839  1.8137
 1096SOL    HW214922   3.939   0.576   7.747 -0.7322  2.4605  0.6216
 1097SOL     OW14923   0.011   3.587   3.740 -0.3378 -0.1592  0.6274
 1097SOL    HW114924   4.664   3.612   3.706  0.1425  2.3574  1.2657
 1097SOL    HW214925   0.007   3.493   3.754 -1.2897  0.2201  2.8148
 1098SOL     OW14926   2.220   2.963   2.498  0.1487  0.3154 -0.1159
 1098SOL    HW114927   2.273   3.023   2.445 -1.2559  2.5206  0.9942
 1098SOL    HW214928   2.265   2.883   2.470  0.1020  0.9018 -1.8756
 1099SOL     OW14929   1.485   3.993   2.015  0.1372 -0.2644  0.1054
 1099SOL    HW114930   1.437   3.930   1.960  0.2144  0.1216 -0.4004
 1099SOL    HW214931   1.437   3.992   2.098 -1.8544  1.7523 -1.0249
 1100SOL     OW14932   0.781   1.409   6.987 -0.6033 -0.3332 -0.3530
 1100SOL    HW114933   0.719   1.337   6.993  0.6110 -1.3758 -0.4080
 1100SOL    HW214934   0.817   1.395   7.075 -1.3470  1.0649  0.1792
 1101SOL     OW14935   2.750   3.248   2.587  0.0232 -0.6869 -0.2971
 1101SOL    HW114936   2.705   3.164   2.589 -2.4869  0.6905  0.8476
 1101SOL    HW214937   2.737   3.275   2.496  0.9079  0.4484 -0.0905
 1102SOL     OW14938   2.053   1.864   4.444  0.2179 -0.0648  0.0736
 1102SOL    HW114939   2.128   1.875   4.502  0.2540  0.7894 -0.1296
 1102SOL    HW214940   2.081   1.893   4.357  1.2261 -0.9471  0.1002
 1103SOL     OW14941   1.471   3.092   8.072 -0.5579 -0.6893 -0.2780
 1103SOL    HW114942   1.463   3.169   8.129 -0.9544 -1.9386  1.3620
 1103SOL    HW214943   1.524   3.026   8.117  1.4312  3.1809  3.0832
 1104SOL     OW14944   3.156   2.258  10.974 -0.0720  0.9120 -0.5378
 1104SOL    HW114945   3.134   2.166  10.963  2.1886  0.5069 -1.7456
 1104SOL    HW214946   3.247   2.258  10.944  1.2612  0.1036  3.5116
 1105SOL     OW14947   3.742   3.133   8.408  0.0048  0.0078  0.4381
 1105SOL    HW114948   3.654   3.109   8.378 -0.1949  2.1405 -0.7238
 1105SOL    HW214949   3.735   3.227   8.390 -1.7676 -0.0026  1.1122
 1106SOL     OW14950   3.428   2.404   9.680 -0.5469  0.3891 -0.3466
 1106SOL    HW114951   3.383   2.369   9.757  0.1888  0.8463  0.2864
 1106SOL    HW214952   3.427   2.331   9.618  2.0342 -1.4285  1.7206
 1107SOL     OW14953   4.457   2.430  14.109 -0.6391  0.3225 -0.3781
 1107SOL    HW114954   4.516   2.451  14.182 -0.7304 -2.3431  0.4382
 1107SOL    HW214955   4.513   2.440  14.032  0.5995 -2.2778  0.1837
 1108SOL     OW14956   0.258   2.162  15.729 -0.5153  0.1640 -0.1241
 1108SOL    HW114957   0.346   2.127  15.713 -1.1054  0.1517 -3.2916
 1108SOL    HW214958   0.274   2.256  15.724 -1.5443  0.3742  0.5290
 1109SOL     OW14959   2.319   1.937  14.966 -0.6369  0.3931 -0.3897
 1109SOL    HW114960   2.371   1.935  15.046 -0.8132 -0.1333 -0.2837
 1109SOL    HW214961   2.241   1.889  14.994 -0.4268  0.0603 -0.3736
 1110SOL     OW14962   3.015   0.210   5.489  0.0228 -0.5717 -1.0399
 1110SOL    HW114963   3.036   0.289   5.539  0.5872 -1.0212 -0.5779
 1110SOL    HW214964   3.020   0.137   5.550 -0.7382  0.5940  0.4403
 1111SOL     OW14965   4.638   1.459   7.390  0.1115 -0.1161  0.2598
 1111SOL    HW114966   4.559   1.477   7.441 -0.1438  1.1728 -0.5798
 1111SOL    HW214967   4.666   1.547   7.366 -0.2340  0.6601  2.7384
 1112SOL     OW14968   4.598   4.199   7.498  0.2995 -0.5022  0.5967
 1112SOL    HW114969   4.678   4.216   7.448  0.3435  1.1481  1.2197
 1112SOL    HW214970   4.602   4.103   7.496  2.2930 -0.4343  2.2893
 1113SOL     OW14971   3.179   3.511  15.366  0.6805 -0.0968 -0.0359
 1113SOL    HW114972   3.228   3.583  15.324  1.2213 -0.8949 -0.7772
 1113SOL    HW214973   3.247   3.446  15.383 -0.0679 -1.2078 -1.2478
 1114SOL     OW14974   1.692   1.115   2.047  0.1193  0.1232 -0.0498
 1114SOL    HW114975   1.608   1.069   2.043  0.0785  0.0387  2.0207
 1114SOL    HW214976   1.694   1.127   2.142  0.6659 -1.2250  0.0994
 1115SOL     OW14977   2.012   4.196  17.556 -0.0949  0.0288  0.4731
 1115SOL    HW114978   1.938   4.239  17.600 -2.0350  0.6870 -3.4184
 1115SOL    HW214979   2.077   4.216  17.623 -0.4282  0.5490  0.6383
 1116SOL     OW14980   1.469   0.368  13.087  0.1543  0.0741 -0.1848
 1116SOL    HW114981   1.452   0.346  12.995  0.1232 -0.1710 -0.1197
 1116SOL    HW214982   1.417   0.447  13.098  0.4634  0.3963 -1.0618
 1117SOL     OW14983   4.729   4.615   0.780 -0.3202  0.6794 -0.3010
 1117SOL    HW114984   4.640   4.651   0.776 -1.1593 -1.2996  0.3084
 1117SOL    HW214985   4.708   4.539   0.834 -1.5163  0.2896 -1.3203
 1118SOL     OW14986   2.816   4.295   2.192  0.3613 -0.0062  0.2867
 1118SOL    HW114987   2.799   4.238   2.267 -3.0533 -0.4408 -0.8213
 1118SOL    HW214988   2.772   4.379   2.207  0.9926  0.5227 -0.8005
 1119SOL     OW14989   3.659   0.905  10.481 -0.0299  0.4663 -0.6947
 1119SOL    HW114990   3.688   0.950  10.402  1.9982  0.9049  0.2942
 1119SOL    HW214991   3.743   0.870  10.511  0.4258  0.1420 -2.4054
 1120SOL     OW14992   2.623   2.412   2.032  0.2597  0.4286  0.2225
 1120SOL    HW114993   2.703   2.408   2.084 -0.1115 -2.0879  0.5796
 1120SOL    HW214994   2.622   2.504   2.005 -1.2674  0.0005 -1.1910
 1121SOL     OW14995   1.451   3.547  12.473  0.0011 -0.7548  0.0780
 1121SOL    HW114996   1.397   3.519  12.547  0.3355  1.2240  1.0884
 1121SOL    HW214997   1.513   3.607  12.515  1.7051 -1.8366 -0.9142
 1122SOL     OW14998   3.964   1.941  12.307  0.1293 -0.1901  0.4240
 1122SOL    HW114999   4.011   1.915  12.228 -2.7582 -1.4544 -0.8719
 1122SOL    HW215000   3.891   1.990  12.270 -0.7672 -2.4049 -0.7399
 1123SOL     OW15001   3.478   1.325   9.725  0.1108  0.0084 -0.3712
 1123SOL    HW115002   3.452   1.416   9.713  0.4488 -0.0238 -1.3051
 1123SOL    HW215003   3.572   1.338   9.719  0.1077  0.2301  0.0598
 1124SOL     OW15004   2.686   0.997   6.790 -0.1669  0.1197 -0.6042
 1124SOL    HW115005   2.594   0.973   6.785 -0.4707  1.2499 -0.3723
 1124SOL    HW215006   2.708   1.044   6.709 -0.6495 -1.1932 -1.4981
 1125SOL     OW15007   0.072   0.832   8.745  0.2232 -0.4416 -0.0267
 1125SOL    HW115008   4.715   0.825   8.738 -0.0222  0.9102  2.1943
 1125SOL    HW215009   0.098   0.743   8.720 -1.1558 -0.6835 -0.6514
 1126SOL     OW15010   2.448   2.839   7.093 -0.0537 -0.0424 -0.3775
 1126SOL    HW115011   2.460   2.845   7.188 -0.1257 -1.7072 -0.2664
 1126SOL    HW215012   2.392   2.762   7.090 -2.0110  1.3804 -0.0720
 1127SOL     OW15013   4.513   2.133   6.349 -0.5066 -0.2009  0.1229
 1127SOL    HW115014   4.419   2.114   6.345 -0.8258  1.1412  1.1564
 1127SOL    HW215015   4.529   2.188   6.271  0.9485 -5.0711 -2.9980
 1128SOL     OW15016   0.493   3.790   0.790  0.2666 -0.3849 -0.3902
 1128SOL    HW115017   0.537   3.736   0.724  0.3758  2.1068 -2.3092
 1128SOL    HW215018   0.532   3.744   0.865  0.3645 -2.3301 -1.6250
 1129SOL     OW15019   3.250   1.841   5.643  0.8643 -0.1200 -0.1325
 1129SOL    HW115020   3.191   1.765   5.645 -0.2197  0.7665  1.7231
 1129SOL    HW215021   3.329   1.804   5.604  1.5307  0.1070  1.0194
 1130SOL     OW15022   3.515   1.846   3.637 -0.8592  0.0344  0.0523
 1130SOL    HW115023   3.548   1.776   3.580  0.2215 -0.0044  0.7262
 1130SOL    HW215024   3.566   1.926   3.627 -1.4560  0.5771  1.4651
 1131SOL     OW15025   0.205   1.752   1.892  0.4959 -0.2728  0.2182
 1131SOL    HW115026   0.144   1.826   1.899  0.2119 -0.6430  1.6464
 1131SOL    HW215027   0.224   1.760   1.799 -1.8878 -0.9139 -0.3184
 1132SOL     OW15028   3.985   0.755   7.155 -0.1278  0.6852  0.3215
 1132SOL    HW115029   3.895   0.764   7.187  0.2437  3.7399  0.5568
 1132SOL    HW215030   4.027   0.793   7.232  0.4052 -0.4803  0.6079
 1133SOL     OW15031   1.115   1.913  10.236 -0.0876 -0.2104  0.3158
 1133SOL    HW115032   1.127   1.841  10.298  0.7831 -1.2207 -1.0136
 1133SOL    HW215033   1.021   1.908  10.218 -0.4020  0.4821  1.7900
 1134SOL     OW15034   4.700   0.138   5.666 -0.4888  0.4384 -0.2015
 1134SOL    HW115035   4.635   0.126   5.735 -0.0450  0.1245  0.1574
 1134SOL    HW215036   4.636   0.146   5.595 -1.8917  2.3149  1.2797
 1135SOL     OW15037   2.056   4.093   0.290 -0.1059 -0.3208 -0.3872
 1135SOL    HW115038   2.060   4.180   0.329  2.0084 -0.4238 -0.3773
 1135SOL    HW215039   2.090   4.114   0.203 -0.6985  1.0361 -0.2870
 1136SOL     OW15040   2.672   2.305  11.915  0.0084 -0.1785  0.2279
 1136SOL    HW115041   2.712   2.392  11.919  1.2211 -0.7535  0.6389
 1136SOL    HW215042   2.718   2.259  11.986  0.9216 -1.8242 -1.4334
 1137SOL     OW15043   4.240   1.162   2.601 -0.1960 -0.2246 -0.4486
 1137SOL    HW115044   4.262   1.206   2.519 -1.0990 -1.7616 -1.5080
 1137SOL    HW215045   4.292   1.083   2.592 -3.8964 -2.7240  0.0050
 1138SOL     OW15046   1.220   2.947   3.149  0.2893  0.7110 -0.0502
 1138SOL    HW115047   1.240   2.969   3.240 -1.7152  0.1494  0.5336
 1138SOL    HW215048   1.293   2.888   3.130 -1.2932 -0.3103 -2.9531
 1139SOL     OW15049   1.468   3.027  10.163 -0.4843 -0.2265 -0.2001
 1139SOL    HW115050   1.472   3.107  10.215  0.1488  1.3188 -2.6264
 1139SOL    HW215051   1.380   2.992  10.173 -0.8188  0.1288 -1.7810
 1140SOL     OW15052   3.269   3.182   8.130  0.7768 -0.7182 -0.5535
 1140SOL    HW115053   3.197   3.119   8.120 -1.3350  1.3939  1.3658
 1140SOL    HW215054   3.285   3.194   8.037  1.1529  1.5130 -0.1837
 1141SOL     OW15055   4.375   3.368  16.630  0.4511  0.5135 -0.2263
 1141SOL    HW115056   4.446   3.414  16.676  0.5790  0.4250 -0.3331
 1141SOL    HW215057   4.429   3.303  16.584  1.1140  1.4987 -0.8339
 1142SOL     OW15058   2.635   1.848   6.937 -0.1007  0.1825 -0.1929
 1142SOL    HW115059   2.671   1.759   6.935  0.8381  0.5911 -2.1603
 1142SOL    HW215060   2.659   1.863   7.028  0.7645 -3.5804  0.1991
 1143SOL     OW15061   1.073   3.203  11.859 -0.6750  0.2892  0.2972
 1143SOL    HW115062   0.994   3.149  11.868 -0.7284  0.2487 -0.4292
 1143SOL    HW215063   1.072   3.258  11.938 -0.7782  2.0331 -0.9299
 1144SOL     OW15064   0.135   3.349   8.242 -0.2793 -0.1263 -0.0287
 1144SOL    HW115065   0.044   3.335   8.216 -0.0892 -1.7566  0.2317
 1144SOL    HW215066   0.179   3.277   8.197 -0.0447 -0.1716  0.2792
 1145SOL     OW15067   1.093   1.390  13.471  0.3219  0.4102 -0.6654
 1145SOL    HW115068   1.007   1.360  13.442 -0.0682  1.7389 -0.8602
 1145SOL    HW215069   1.122   1.420  13.384 -0.8335 -1.0464 -1.5532
 1146SOL     OW15070   0.615   0.115   3.941  0.5686  0.1081 -0.5401
 1146SOL    HW115071   0.596   0.059   4.016  0.1568  0.1470 -0.6150
 1146SOL    HW215072   0.704   0.138   3.967  0.4386  1.5602 -1.3470
 1147SOL     OW15073   1.487   1.805  11.994 -0.4197  0.0944 -0.1142
 1147SOL    HW115074   1.582   1.816  11.990 -0.4992  1.0364  0.8247
 1147SOL    HW215075   1.470   1.715  11.963  0.8182 -0.2547  0.2331
 1148SOL     OW15076   1.222   4.291  13.529  0.0547 -0.1376  0.0653
 1148SOL    HW115077   1.282   4.217  13.526 -0.9956 -0.7455 -4.5623
 1148SOL    HW215078   1.196   4.303  13.438  1.2296  1.1070 -0.0943
 1149SOL     OW15079   0.115   2.997   7.038  0.5652  0.1841  0.0874
 1149SOL    HW115080   0.154   3.063   6.980  1.6199  0.5597  1.2192
 1149SOL    HW215081   0.191   2.944   7.064 -0.5053 -2.0150 -1.2012
 1150SOL     OW15082   3.301   4.618   6.829  0.2928 -0.7862  0.6189
 1150SOL    HW115083   3.323   4.585   6.916  0.5632  1.9648  1.5954
 1150SOL    HW215084   3.381   4.667   6.812  1.6665 -2.8514  1.2762
 1151SOL     OW15085   2.970   3.665  15.146 -0.2983 -0.3991 -0.1308
 1151SOL    HW115086   3.042   3.720  15.180 -0.7689  0.4462 -0.5076
 1151SOL    HW215087   2.954   3.688  15.055  0.4831 -1.6294 -0.5736
 1152SOL     OW15088   2.278   0.951   2.983 -0.0338  0.3551  0.1134
 1152SOL    HW115089   2.268   1.046   2.977  2.2727  0.5775 -0.1312
 1152SOL    HW215090   2.199   0.919   2.938  0.2212 -0.7100  0.4275
 1153SOL     OW15091   3.332   3.571   6.116  0.1705  0.0441  0.3686
 1153SOL    HW115092   3.329   3.618   6.033 -1.2362  0.5589  0.7063
 1153SOL    HW215093   3.389   3.498   6.094 -2.0819 -1.4759 -0.3163
 1154SOL     OW15094   3.217   3.647   6.634  0.1223 -0.1148  0.2557
 1154SOL    HW115095   3.287   3.590   6.600 -0.2963 -1.0650  0.9824
 1154SOL    HW215096   3.161   3.586   6.680  1.3632 -1.8812 -0.5560
 1155SOL     OW15097   0.165   0.896   6.059  0.3582  0.1456 -0.0841
 1155SOL    HW115098   0.080   0.920   6.022  0.0407 -1.0774 -0.1363
 1155SOL    HW215099   0.131   0.847   6.133 -0.1433 -0.6218 -0.8167
 1156SOL     OW15100   1.643   1.419   4.327 -0.3697  0.3457  0.1136
 1156SOL    HW115101   1.595   1.457   4.253  1.2091  0.8846 -0.6293
 1156SOL    HW215102   1.697   1.496   4.347 -0.8348  0.7945 -0.3488
 1157SOL     OW15103   2.824   3.474  15.416  0.2219  0.0325  1.1341
 1157SOL    HW115104   2.813   3.555  15.467  0.0291 -0.3329  1.6671
 1157SOL    HW215105   2.742   3.475  15.368  0.2057  2.3171  1.2035
 1158SOL     OW15106   4.119   4.492  13.473  0.2717 -0.4588  0.0421
 1158SOL    HW115107   4.039   4.501  13.421 -0.9818  1.0550  2.2692
 1158SOL    HW215108   4.088   4.456  13.555 -2.8521  0.4157 -0.7670
 1159SOL     OW15109   1.896   3.932   7.447 -0.1257  0.3241  0.0216
 1159SOL    HW115110   1.983   3.954   7.479  0.0368 -1.3780  0.7044
 1159SOL    HW215111   1.844   3.985   7.508 -0.7447  1.6432 -1.6239
 1160SOL     OW15112   2.761   2.705   6.258 -0.0831  0.3529  0.4426
 1160SOL    HW115113   2.818   2.773   6.293  3.9674 -2.0935 -1.4457
 1160SOL    HW215114   2.737   2.664   6.341  1.0472 -2.4396 -0.6254
 1161SOL     OW15115   3.004   2.431  11.342 -0.3252  0.3788 -0.4970
 1161SOL    HW115116   2.994   2.377  11.263  1.3559  1.0048 -1.1317
 1161SOL    HW215117   2.977   2.374  11.414 -2.7926 -0.1549 -1.8334
 1162SOL     OW15118   4.086   2.554  14.848  0.1083 -0.3426  0.3123
 1162SOL    HW115119   4.063   2.551  14.941  2.1851  0.9405  0.8636
 1162SOL    HW215120   4.146   2.628  14.844  0.3927 -0.5859  0.0339
 1163SOL     OW15121   2.943   0.771  14.765  0.2059  0.0741  0.4169
 1163SOL    HW115122   3.033   0.795  14.743 -1.4676  4.2895 -1.7452
 1163SOL    HW215123   2.957   0.711  14.838 -1.0933  0.7423  1.2148
 1164SOL     OW15124   0.880   4.674   3.239  0.3761  0.1063 -0.1808
 1164SOL    HW115125   0.871   0.025   3.207 -0.7027 -0.8584 -2.6421
 1164SOL    HW215126   0.913   4.697   3.325 -0.6128  2.5093 -0.4292
 1165SOL     OW15127   1.402   2.048  12.094 -0.4572 -0.0605  0.1869
 1165SOL    HW115128   1.403   1.959  12.058 -0.4592  1.3243 -3.2440
 1165SOL    HW215129   1.478   2.090  12.054 -0.6565 -1.8081 -2.0271
 1166SOL     OW15130   0.953   2.630   9.241  0.0725 -0.6488 -0.2410
 1166SOL    HW115131   0.932   2.678   9.322 -1.1093 -3.0513  0.8610
 1166SOL    HW215132   0.864   2.620   9.206 -0.0623 -1.6061  0.3633
 1167SOL     OW15133   3.303   3.817   9.305 -0.1974  0.2348 -0.1820
 1167SOL    HW115134   3.226   3.789   9.353 -1.0159 -0.5403 -1.9262
 1167SOL    HW215135   3.268   3.859   9.227  0.7874  0.6561 -0.3934
 1168SOL     OW15136   2.524   4.434   8.563  0.3861  0.3495  0.2942
 1168SOL    HW115137   2.607   4.417   8.519 -0.2982 -1.8723 -0.1394
 1168SOL    HW215138   2.457   4.396   8.507  0.8045 -0.7038  0.5124
 1169SOL     OW15139   3.654   0.993   5.491 -0.1330  0.8078  0.1857
 1169SOL    HW115140   3.570   0.959   5.458 -0.0626  2.5435 -1.7846
 1169SOL    HW215141   3.656   0.955   5.579  1.3316 -0.8938 -0.5875
 1170SOL     OW15142   1.613   0.915   2.263 -0.3424 -0.4401 -0.3389
 1170SOL    HW115143   1.550   0.853   2.300 -1.1656  0.6547  0.0810
 1170SOL    HW215144   1.563   0.996   2.251  0.6130 -0.1166 -2.2714
 1171SOL     OW15145   0.551   1.171  15.898  0.0003 -0.0504 -0.3378
 1171SOL    HW115146   0.484   1.123  15.947  0.4409  2.9015  3.1088
 1171SOL    HW215147   0.497   1.217  15.834 -1.2077 -1.1659 -0.1146
 1172SOL     OW15148   1.445   4.565   8.052  0.4729 -0.0686  0.0652
 1172SOL    HW115149   1.506   4.492   8.039  2.5345  1.8120 -0.8141
 1172SOL    HW215150   1.456   4.573   8.147  0.3410  1.1163 -0.0257
 1173SOL     OW15151   3.854   0.768   8.379 -0.1667 -0.2259  0.4702
 1173SOL    HW115152   3.929   0.717   8.348 -0.2015 -0.4792  0.8074
 1173SOL    HW215153   3.804   0.703   8.428 -2.1147 -0.0087 -1.2327
 1174SOL     OW15154   0.394   4.203   1.629 -0.1015  0.2135  0.6502
 1174SOL    HW115155   0.409   4.108   1.623 -1.4647  0.2445 -3.3029
 1174SOL    HW215156   0.441   4.223   1.710 -1.7897 -1.8715  2.1612
 1175SOL     OW15157   2.678   0.189   9.092  0.3657 -0.4275 -0.3709
 1175SOL    HW115158   2.669   0.102   9.131  0.8191  0.7969  2.4830
 1175SOL    HW215159   2.774   0.196   9.087  0.3017  0.9503  0.1595
 1176SOL     OW15160   4.731   1.754  12.588  0.0989 -0.7576 -0.3531
 1176SOL    HW115161   4.676   1.714  12.656  0.9303  0.7815  1.2328
 1176SOL    HW215162   0.067   1.695  12.596 -0.2371 -1.3169 -1.3410
 1177SOL     OW15163   2.954   3.257   8.321  0.1827 -0.4180  0.0391
 1177SOL    HW115164   3.034   3.286   8.278  0.5108  0.4375  1.2609
 1177SOL    HW215165   2.995   3.202   8.387  0.5407 -0.6561 -0.3822
 1178SOL     OW15166   3.369   4.029   7.689  0.0945  0.2828 -0.4915
 1178SOL    HW115167   3.371   3.995   7.599  1.3468 -0.0086 -0.3605
 1178SOL    HW215168   3.287   4.077   7.688  0.6777  1.3010 -0.1394
 1179SOL     OW15169   1.818   0.513  15.543  0.5431  0.1625 -0.4640
 1179SOL    HW115170   1.812   0.604  15.575 -0.7358 -0.2481  0.4774
 1179SOL    HW215171   1.807   0.472  15.629  0.6769 -0.8865 -0.9516
 1180SOL     OW15172   1.328   3.275   9.354 -0.2197 -0.3191 -0.1551
 1180SOL    HW115173   1.382   3.223   9.413 -1.3808  0.3498  1.5120
 1180SOL    HW215174   1.245   3.274   9.402 -0.0730 -1.1286  0.0836
 1181SOL     OW15175   3.841   3.539   3.982  0.1183 -0.4097  0.4755
 1181SOL    HW115176   3.872   3.453   3.952 -0.1195  0.0999 -1.1690
 1181SOL    HW215177   3.754   3.528   3.943  0.3640 -0.6393 -0.0030
 1182SOL     OW15178   2.573   1.332  10.467 -0.4514 -0.5087 -0.3231
 1182SOL    HW115179   2.645   1.354  10.525 -2.0047  1.0587  1.0063
 1182SOL    HW215180   2.501   1.376  10.513 -0.1296 -0.0116 -0.3026
 1183SOL     OW15181   3.992   1.709   1.640 -0.0665 -0.2063  0.4829
 1183SOL    HW115182   3.933   1.740   1.708  0.4064  0.0773  0.7664
 1183SOL    HW215183   3.963   1.758   1.564 -2.2071 -1.2305  0.6455
 1184SOL     OW15184   2.789   2.032   0.450 -0.6526  0.4573 -0.2774
 1184SOL    HW115185   2.837   1.950   0.445 -0.9000  0.3846 -1.3697
 1184SOL    HW215186   2.864   2.091   0.460  0.2723 -0.6420 -0.8263
 1185SOL     OW15187   2.259   0.854   0.854  0.2911  0.2140  0.1156
 1185SOL    HW115188   2.225   0.889   0.936 -2.7324 -0.7053 -0.7430
 1185SOL    HW215189   2.219   0.768   0.840 -1.1859  0.4946  2.5731
 1186SOL     OW15190   1.447   3.622   3.640  0.4650  0.8299  0.2313
 1186SOL    HW115191   1.538   3.595   3.628 -0.1224 -0.9980 -0.0507
 1186SOL    HW215192   1.449   3.710   3.602  0.9817  1.5197  1.8893
 1187SOL     OW15193   1.926   4.474   7.777 -0.2854  0.2831 -0.3975
 1187SOL    HW115194   1.875   4.463   7.697 -1.2343 -1.9434  0.5174
 1187SOL    HW215195   2.003   4.420   7.762 -0.7753 -0.6613  0.5082
 1188SOL     OW15196   1.214   4.139   2.479 -0.0508  0.4690 -0.2331
 1188SOL    HW115197   1.220   4.051   2.517 -0.9970  0.6184  0.2502
 1188SOL    HW215198   1.132   4.162   2.523 -0.2295 -2.1611  0.8589
 1189SOL     OW15199   0.184   4.277   1.482 -0.1526 -0.1452  0.7395
 1189SOL    HW115200   0.276   4.254   1.492 -0.5060 -2.1134 -0.6640
 1189SOL    HW215201   0.156   4.224   1.556 -3.1874  0.7224  0.2049
 1190SOL     OW15202   0.627   3.808   9.382  0.0434 -0.1038 -0.0170
 1190SOL    HW115203   0.634   3.881   9.443  0.3134 -1.0268  1.0532
 1190SOL    HW215204   0.720   3.801   9.359 -0.2446 -1.3269 -0.7543
 1191SOL     OW15205   2.629   1.101   1.679  0.3098 -0.4934  0.1432
 1191SOL    HW115206   2.603   1.009   1.674 -1.6668  0.0129  1.0767
 1191SOL    HW215207   2.725   1.106   1.681  0.3815 -2.0549  0.6327
 1192SOL     OW15208   4.487   3.436  14.659 -0.3905  0.0386 -0.3772
 1192SOL    HW115209   4.423   3.465  14.724 -0.6023 -0.7292 -0.2494
 1192SOL    HW215210   4.474   3.342  14.650  0.9782 -0.1479 -0.4060
 1193SOL     OW15211   3.396   2.424  11.931  0.6077  0.2938 -0.5418
 1193SOL    HW115212   3.457   2.452  11.999  0.6121 -1.6535  0.2805
 1193SOL    HW215213   3.454   2.385  11.866  2.9492 -0.2120  1.8541
 1194SOL     OW15214   2.925   0.807   0.354  0.3780 -0.5331 -0.2118
 1194SOL    HW115215   2.855   0.747   0.328 -0.0906 -1.1959  2.5125
 1194SOL    HW215216   2.953   0.836   0.268 -0.6089 -2.5901 -1.2351
 1195SOL     OW15217   2.001   3.878   1.791  0.1613  0.0012 -0.4004
 1195SOL    HW115218   2.013   3.825   1.712 -0.5647  1.1850 -1.3000
 1195SOL    HW215219   2.072   3.942   1.781 -1.4597  2.3616  3.4073
 1196SOL     OW15220   3.813   4.239   1.293  0.0807 -0.4616 -0.7800
 1196SOL    HW115221   3.814   4.169   1.228 -1.4773 -0.9499 -0.2787
 1196SOL    HW215222   3.889   4.293   1.269  0.1324 -0.0787  0.2398
 1197SOL     OW15223   4.669   0.380   7.667  0.1755 -1.0748 -0.1919
 1197SOL    HW115224   4.632   0.438   7.601  0.1626  0.7902  1.4574
 1197SOL    HW215225   0.021   0.405   7.646 -0.6285 -0.8464 -3.3631
 1198SOL     OW15226   1.115   0.487   2.731  0.4853 -0.2200  0.2567
 1198SOL    HW115227   1.077   0.437   2.659 -0.7087 -1.3753  1.6686
 1198SOL    HW215228   1.140   0.572   2.697  1.7618 -0.2763  1.0444
 1199SOL     OW15229   0.995   2.220   3.399 -0.1535 -0.7056 -0.3547
 1199SOL    HW115230   1.016   2.151   3.337 -0.6452 -1.2482  0.0843
 1199SOL    HW215231   1.079   2.245   3.436 -0.1421 -1.6323  0.2271
 1200SOL     OW15232   0.747   1.392   5.635  0.0998  0.1257  0.2265
 1200SOL    HW115233   0.786   1.432   5.713  0.1362 -0.3036  0.4248
 1200SOL    HW215234   0.661   1.361   5.665  0.4461 -1.0074  0.0203
 1201SOL     OW15235   1.001   3.392   0.903 -0.4620 -0.1820 -0.1216
 1201SOL    HW115236   0.968   3.468   0.857 -0.2975  1.5514  2.6304
 1201SOL    HW215237   1.032   3.342   0.828  1.5845 -0.5881  0.9896
 1202SOL     OW15238   3.363   0.109   0.377  0.2307 -0.5100 -0.0381
 1202SOL    HW115239   3.297   0.163   0.422 -0.1982  1.0854 -2.5641
 1202SOL    HW215240   3.435   0.166   0.350  0.2668 -0.9769 -0.9186
 1203SOL     OW15241   0.327   1.892   2.104  0.5852  0.1587 -0.0444
 1203SOL    HW115242   0.327   1.867   2.011 -1.1270  2.5592 -0.6852
 1203SOL    HW215243   0.328   1.986   2.091  1.3520 -0.1532 -2.3042
 1204SOL     OW15244   3.161   2.557  16.017  0.1554 -0.0113 -0.2617
 1204SOL    HW115245   3.116   2.554  15.933 -1.6066 -1.4593  0.7351
 1204SOL    HW215246   3.103   2.499  16.066  0.6272 -0.7944 -0.6169
 1205SOL     OW15247   3.781   3.696   8.199  0.2037  0.1253 -0.3332
 1205SOL    HW115248   3.714   3.764   8.207  0.4251  0.2947  0.0935
 1205SOL    HW215249   3.857   3.750   8.179  0.4588 -0.2350 -0.3396
 1206SOL     OW15250   1.235   0.075  11.032 -0.7019 -0.2455 -0.1367
 1206SOL    HW115251   1.217   0.166  11.055 -1.7871  0.1983 -2.8136
 1206SOL    HW215252   1.326   0.074  11.062 -0.3694  0.0083 -1.1655
 1207SOL     OW15253   3.311   0.820  12.223 -0.2646  0.1657  0.4140
 1207SOL    HW115254   3.347   0.754  12.163 -0.7403  1.9130 -1.7842
 1207SOL    HW215255   3.396   0.844  12.260 -0.2660 -0.7449  1.0065
 1208SOL     OW15256   3.727   2.484   3.646  0.4638  0.6003  0.3977
 1208SOL    HW115257   3.800   2.430   3.678  0.3946 -0.4657 -1.2336
 1208SOL    HW215258   3.704   2.432   3.568  2.1603 -0.8961  0.8813
 1209SOL     OW15259   3.435   3.733   4.144  0.2073 -0.1391  0.4444
 1209SOL    HW115260   3.410   3.641   4.133  0.5877  0.0886 -2.2597
 1209SOL    HW215261   3.369   3.755   4.210 -1.4276 -1.3398 -0.7707
 1210SOL     OW15262   1.278   0.951   3.070 -0.1484  0.1714  0.0922
 1210SOL    HW115263   1.357   0.947   3.124 -1.1547 -3.4129  1.2696
 1210SOL    HW215264   1.297   1.021   3.008  1.0197  0.8107  1.1645
 1211SOL     OW15265   4.511   4.064   2.592  0.3290  0.3274 -0.3514
 1211SOL    HW115266   4.491   3.978   2.628  1.0104 -0.5988 -2.1930
 1211SOL    HW215267   4.585   4.038   2.538 -1.2197 -1.0466 -1.7985
 1212SOL     OW15268   4.694   4.152  11.069 -0.0527  0.1920 -0.0710
 1212SOL    HW115269   4.621   4.092  11.089  0.1299  0.2072  0.6666
 1212SOL    HW215270   4.673   4.223  11.130  0.4062 -1.7689  2.4055
 1213SOL     OW15271   1.845   0.036   6.494 -0.6427  0.3222 -0.1627
 1213SOL    HW115272   1.827   0.117   6.542  1.1657 -0.6824  2.1734
 1213SOL    HW215273   1.929   0.015   6.533 -0.4736  2.2537  0.5312
 1214SOL     OW15274   1.532   4.570   8.736  0.5112  0.0166  0.7613
 1214SOL    HW115275   1.545   4.476   8.746 -2.0945 -0.2018  2.0372
 1214SOL    HW215276   1.573   4.604   8.816  0.2848 -2.8092  2.0579
 1215SOL     OW15277   2.803   4.062   7.995  0.3557 -0.3862 -0.0968
 1215SOL    HW115278   2.886   4.017   8.005  1.5524  1.6913 -0.7568
 1215SOL    HW215279   2.803   4.069   7.899  0.0840 -0.4813 -0.1043
 1216SOL     OW15280   0.085   1.041  12.120 -0.0993 -0.1794 -0.2183
 1216SOL    HW115281   0.051   1.107  12.181  2.2633 -0.2133  1.1451
 1216SOL    HW215282   0.170   1.081  12.102  0.5524 -1.1036  0.7711
 1217SOL     OW15283   2.861   2.151   8.073 -0.2585  0.2502 -0.3892
 1217SOL    HW115284   2.927   2.207   8.114 -0.1746 -0.9263  1.0791
 1217SOL    HW215285   2.908   2.077   8.033 -1.8239 -0.9426 -0.0114
 1218SOL     OW15286   4.220   3.989   5.903 -0.1211  0.0019  0.4269
 1218SOL    HW115287   4.270   3.914   5.871 -0.0416  0.1612  0.1812
 1218SOL    HW215288   4.292   4.038   5.943  0.1401  1.4374 -1.8045
 1219SOL     OW15289   1.238   3.226   6.827 -0.4791  0.4935  0.3557
 1219SOL    HW115290   1.153   3.228   6.870 -0.7016 -0.0083 -0.0644
 1219SOL    HW215291   1.294   3.220   6.905  1.0685 -2.0801 -0.9458
 1220SOL     OW15292   1.605   3.825   1.648  0.2887 -0.4163  0.0598
 1220SOL    HW115293   1.670   3.846   1.716  0.7616 -2.1409  0.1379
 1220SOL    HW215294   1.662   3.851   1.575 -2.7235 -0.8039 -2.4109
 1221SOL     OW15295   0.037   1.026   7.138 -0.1739  0.1879  0.2360
 1221SOL    HW115296   4.685   1.055   7.149 -0.9501 -1.3125 -2.3139
 1221SOL    HW215297   0.025   0.932   7.130 -0.1527  0.1936  0.1369
 1222SOL     OW15298   3.048   1.390   7.145 -0.2517  0.1477  0.0759
 1222SOL    HW115299   2.964   1.432   7.167 -0.0903 -0.1308  1.2398
 1222SOL    HW215300   3.101   1.461   7.110 -0.3243 -0.1246 -0.5753
 1223SOL     OW15301   4.054   2.803   2.385 -0.2331  0.1836 -0.1774
 1223SOL    HW115302   4.074   2.770   2.297  2.1730 -0.0379  0.4484
 1223SOL    HW215303   3.959   2.788   2.384 -0.0423 -1.0268 -1.0915
 1224SOL     OW15304   2.981   0.739   6.429  0.3318  0.2770  0.0901
 1224SOL    HW115305   2.910   0.800   6.406  0.1801 -0.2271 -0.7558
 1224SOL    HW215306   3.040   0.754   6.356 -2.3595 -1.7294 -2.4705
 1225SOL     OW15307   4.277   3.098   4.610 -0.0014 -0.2492  0.2378
 1225SOL    HW115308   4.259   3.012   4.571 -1.0352  0.1667 -0.2010
 1225SOL    HW215309   4.211   3.151   4.564 -0.6347 -0.8248  0.4780
 1226SOL     OW15310   3.792   3.552   6.260  0.6172 -0.2440 -0.1308
 1226SOL    HW115311   3.839   3.548   6.177  0.9347 -2.7660  0.1665
 1226SOL    HW215312   3.703   3.578   6.239  0.5771 -0.0153  0.3164
 1227SOL     OW15313   2.448   1.667  11.560  0.6269  0.1614  0.1650
 1227SOL    HW115314   2.508   1.629  11.495  0.8992  1.6322 -0.4403
 1227SOL    HW215315   2.384   1.708  11.502  1.5486  2.1950  0.5980
 1228SOL     OW15316   1.967   1.155   5.333 -0.2220  0.2942 -0.7992
 1228SOL    HW115317   1.979   1.096   5.259  0.1774 -1.0978  0.3769
 1228SOL    HW215318   1.875   1.141   5.356  0.0049  1.2653  0.7153
 1229SOL     OW15319   0.729   4.613   5.289 -0.3070  0.2171 -0.2175
 1229SOL    HW115320   0.733   4.553   5.215 -2.1145  1.4310 -1.2956
 1229SOL    HW215321   0.787   4.685   5.265 -0.7293  1.1652  1.5992
 1230SOL     OW15322   3.151   0.064   2.443  0.7980  0.1793  0.0691
 1230SOL    HW115323   3.217   0.109   2.494  1.7766  0.6964 -1.6479
 1230SOL    HW215324   3.107   0.141   2.406 -0.0288 -0.1383  0.3957
 1231SOL     OW15325   1.681   2.676   9.939  0.3360 -0.2143 -0.2224
 1231SOL    HW115326   1.755   2.736   9.952 -0.5951  0.8554  0.1013
 1231SOL    HW215327   1.656   2.691   9.847  2.1740  0.0352 -0.6811
 1232SOL     OW15328   3.181   1.856   4.024  0.5516  0.4482 -0.2252
 1232SOL    HW115329   3.125   1.817   4.091 -0.0482 -0.8990 -1.5072
 1232SOL    HW215330   3.177   1.782   3.963  0.5100  1.2032 -1.1184
 1233SOL     OW15331   3.810   4.295  14.140 -0.0178 -0.2835 -0.5676
 1233SOL    HW115332   3.777   4.364  14.083  0.3170  0.1742 -0.2044
 1233SOL    HW215333   3.865   4.242  14.083  3.2594  1.2895  1.1664
 1234SOL     OW15334   3.373   1.414   7.599 -0.0329  0.5127  0.7314
 1234SOL    HW115335   3.332   1.394   7.515  0.9051  0.8413  0.1948
 1234SOL    HW215336   3.467   1.407   7.584 -0.1636  2.3447 -1.0279
 1235SOL     OW15337   4.142   4.112   6.157 -0.2923  0.6189 -0.6389
 1235SOL    HW115338   4.124   4.155   6.073 -1.8066 -0.1148 -0.6911
 1235SOL    HW215339   4.233   4.088   6.144 -0.9862 -3.3771  2.0277
 1236SOL     OW15340   2.919   0.200   5.759  0.8766  0.1768  0.3112
 1236SOL    HW115341   2.962   0.282   5.786  1.3499  0.6763 -2.0118
 1236SOL    HW215342   2.856   0.201   5.832 -2.3583 -2.1949 -2.4998
 1237SOL     OW15343   2.066   3.981   9.082  0.0189  0.3204 -0.0279
 1237SOL    HW115344   2.141   4.036   9.105 -0.7471  1.4689 -0.3281
 1237SOL    HW215345   2.106   3.940   9.006 -4.2080  1.1641 -2.6982
 1238SOL     OW15346   0.900   0.752   6.303  0.2106  0.2664 -0.0916
 1238SOL    HW115347   0.932   0.843   6.301  1.3266 -0.1152  0.3569
 1238SOL    HW215348   0.882   0.737   6.210 -1.0972 -2.5942  0.6415
 1239SOL     OW15349   2.731   3.129  16.617 -0.1729 -0.3791 -0.2407
 1239SOL    HW115350   2.811   3.094  16.578  0.1149  0.1054 -0.0869
 1239SOL    HW215351   2.745   3.113  16.710 -0.9698  1.1692  0.1380
 1240SOL     OW15352   3.954   0.355   6.373  0.0978 -0.0351 -0.3089
 1240SOL    HW115353   3.928   0.313   6.291 -0.8151 -1.7094  0.8264
 1240SOL    HW215354   3.956   0.278   6.430  0.2741 -1.2481 -1.9614
 1241SOL     OW15355   2.006   4.520   6.603 -0.1238  0.1433 -0.0547
 1241SOL    HW115356   1.978   4.449   6.661  0.1714  0.8111  0.8941
 1241SOL    HW215357   2.005   4.482   6.515 -1.0387  1.0332 -0.4217
 1242SOL     OW15358   1.026   2.103   1.690 -0.4379  0.2202 -0.5439
 1242SOL    HW115359   1.071   2.076   1.770  0.9674  2.2503 -0.6378
 1242SOL    HW215360   0.967   2.028   1.685  2.1639 -1.7866 -0.6724
 1243SOL     OW15361   2.619   0.032   2.856  0.3959 -0.1868 -0.1431
 1243SOL    HW115362   2.533   4.730   2.842 -0.0601  0.1766  1.5456
 1243SOL    HW215363   2.643   0.046   2.765  2.0627 -0.1069  0.3169
 1244SOL     OW15364   0.495   0.062   3.427 -0.4871  0.8888  0.3092
 1244SOL    HW115365   0.450   4.729   3.472  0.8205  0.2723  0.6467
 1244SOL    HW215366   0.492   0.129   3.496 -6.0726  1.9029 -0.9177
 1245SOL     OW15367   0.914   4.584   8.973  0.6089 -0.5179  0.1747
 1245SOL    HW115368   0.868   4.595   9.057 -1.6426 -1.6739 -0.8955
 1245SOL    HW215369   0.997   4.546   9.001  0.9694  2.1027  2.7202
 1246SOL     OW15370   3.108   2.754  15.780 -0.4366  0.2570 -0.4234
 1246SOL    HW115371   3.048   2.741  15.707  1.9068 -2.1955 -1.9120
 1246SOL    HW215372   3.071   2.839  15.806  1.0144  1.0520 -0.9745
 1247SOL     OW15373   1.393   1.255  12.326  0.0989  0.0394 -0.4695
 1247SOL    HW115374   1.366   1.344  12.347 -2.6771 -0.5983 -1.2616
 1247SOL    HW215375   1.319   1.201  12.354 -0.6442  0.3452 -1.8585
 1248SOL     OW15376   3.722   3.871  10.127 -0.2608  0.3797  0.3748
 1248SOL    HW115377   3.694   3.797  10.073  0.5373  0.5124 -0.2166
 1248SOL    HW215378   3.642   3.912  10.160  0.1659  1.1754  0.4197
 1249SOL     OW15379   0.338   3.309   5.516 -0.6875 -0.4099 -0.5886
 1249SOL    HW115380   0.312   3.228   5.474  0.8437 -1.1667 -0.0813
 1249SOL    HW215381   0.289   3.309   5.599 -3.0861  0.3925 -2.0050
 1250SOL     OW15382   0.397   1.876   7.706  0.0861 -0.3911  0.3179
 1250SOL    HW115383   0.449   1.882   7.626  0.2649 -0.1996  0.4468
 1250SOL    HW215384   0.350   1.793   7.695  0.8487 -0.4690 -2.3316
 1251SOL     OW15385   2.241   1.513  10.992 -0.0940  0.4486  0.5745
 1251SOL    HW115386   2.227   1.606  10.974  0.1785  0.6523  1.4065
 1251SOL    HW215387   2.291   1.491  10.913 -1.1748  2.4968 -0.6681
 1252SOL     OW15388   2.851   3.664   6.660  0.2831 -0.4883 -0.0817
 1252SOL    HW115389   2.874   3.624   6.576 -0.8836  0.0346 -0.6553
 1252SOL    HW215390   2.915   3.635   6.725  0.2656  1.4561  0.7996
 1253SOL     OW15391   1.044   1.095   8.440 -0.4227  0.1296  0.1125
 1253SOL    HW115392   1.020   1.151   8.514  0.2926  0.1017  0.3697
 1253SOL    HW215393   0.997   1.016   8.467 -2.0310  1.2977  0.7209
 1254SOL     OW15394   1.929   2.938   9.382  0.4377  0.3413 -0.1917
 1254SOL    HW115395   1.953   2.857   9.336 -1.3773  1.2391 -2.7529
 1254SOL    HW215396   1.847   2.915   9.426  1.0967 -1.8894 -0.1049
 1255SOL     OW15397   2.389   2.087   2.297 -0.1066 -0.4868  0.5259
 1255SOL    HW115398   2.362   2.133   2.218 -0.0967  1.0074  1.3963
 1255SOL    HW215399   2.357   2.143   2.368 -0.3902  0.7056 -0.5462
 1256SOL     OW15400   1.924   1.658  16.790 -0.4321 -0.6759  0.0931
 1256SOL    HW115401   1.874   1.729  16.829 -0.1970  1.0887 -2.7566
 1256SOL    HW215402   1.864   1.587  16.809 -0.7750 -0.3540  0.2142
 1257SOL     OW15403   3.751   1.850   7.294  0.0540  0.5572 -0.1189
 1257SOL    HW115404   3.785   1.837   7.382  1.5059 -1.1288 -0.9309
 1257SOL    HW215405   3.828   1.901   7.269 -0.3242  0.8653 -0.6558
 1258SOL     OW15406   1.871   2.004   4.821  0.2394  0.2911  0.6282
 1258SOL    HW115407   1.930   1.959   4.881 -1.2721 -1.1747  0.9962
 1258SOL    HW215408   1.825   2.070   4.873  0.1219  1.2775 -0.7285
 1259SOL     OW15409   0.793   1.854   0.115  0.0862  0.1162  0.1476
 1259SOL    HW115410   0.776   1.792   0.186  1.9740  0.6123  1.0247
 1259SOL    HW215411   0.768   1.940   0.149  0.4396  0.6134 -0.8534
 1260SOL     OW15412   1.008   1.545  11.591 -0.3955 -0.5984  0.4612
 1260SOL    HW115413   1.003   1.596  11.510  1.3267  0.1937  0.8343
 1260SOL    HW215414   1.103   1.540  11.605 -0.6082  1.7944  2.7564
 1261SOL     OW15415   4.313   4.336   4.620  0.5008 -0.6600 -1.2472
 1261SOL    HW115416   4.328   4.431   4.617 -0.6347 -0.3893  0.9280
 1261SOL    HW215417   4.323   4.318   4.714 -0.8671  0.8875 -0.7872
 1262SOL     OW15418   0.230   0.868   7.700  0.4207 -0.1415  0.0672
 1262SOL    HW115419   0.236   0.932   7.629 -3.1871  0.6278  0.4649
 1262SOL    HW215420   0.152   0.822   7.670  0.7496  1.5697 -3.4140
 1263SOL     OW15421   1.060   2.581   7.254  0.7679  0.2264  0.2031
 1263SOL    HW115422   1.069   2.631   7.335 -2.0456  2.8951 -1.1203
 1263SOL    HW215423   0.966   2.580   7.237  1.0354 -0.4665 -1.2136
 1264SOL     OW15424   1.229   3.803  10.445  0.1815 -0.3058  0.1289
 1264SOL    HW115425   1.255   3.820  10.536  1.7862 -2.2904  0.0315
 1264SOL    HW215426   1.135   3.782  10.440  0.2167 -0.3919 -0.1890
 1265SOL     OW15427   3.591   0.945   7.226 -0.0345 -0.2926 -0.5667
 1265SOL    HW115428   3.642   1.025   7.233 -1.5591  0.5616  1.1636
 1265SOL    HW215429   3.655   0.878   7.250 -0.5512 -1.0391 -1.2487
 1266SOL     OW15430   2.403   3.239   3.518  0.1929 -0.0774  0.3142
 1266SOL    HW115431   2.381   3.268   3.606 -1.2277  0.2061 -0.1301
 1266SOL    HW215432   2.338   3.289   3.469 -0.3884 -2.7115 -1.5809
 1267SOL     OW15433   1.658   2.673   5.135 -0.5136 -0.4360  0.0575
 1267SOL    HW115434   1.618   2.759   5.155  1.3517  0.9550 -2.2671
 1267SOL    HW215435   1.726   2.695   5.072 -2.1060 -1.6934 -2.0886
 1268SOL     OW15436   4.162   2.251   7.220 -0.1786  0.3222  0.4062
 1268SOL    HW115437   4.186   2.284   7.306 -0.3930 -2.4405  1.5534
 1268SOL    HW215438   4.102   2.318   7.188 -0.4401 -0.5962 -1.0557
 1269SOL     OW15439   3.330   3.350  13.197  0.3823  0.3343 -0.0446
 1269SOL    HW115440   3.344   3.436  13.157  2.6834  0.2963  0.6848
 1269SOL    HW215441   3.352   3.295  13.122 -1.2191 -0.8781  0.3530
 1270SOL     OW15442   3.041   3.237   8.692  0.1286 -0.9317 -0.3166
 1270SOL    HW115443   3.048   3.173   8.621 -2.1866 -3.2301  1.5332
 1270SOL    HW215444   2.945   3.233   8.701  0.1905 -0.5068  0.4797
 1271SOL     OW15445   3.327   3.974  14.930  0.1057  0.1245 -0.7670
 1271SOL    HW115446   3.293   4.016  15.009  1.4621  0.1766 -0.1988
 1271SOL    HW215447   3.349   3.893  14.977  0.6627 -0.0571 -1.3308
 1272SOL     OW15448   2.000   1.070   9.120 -0.1622 -0.1338 -0.2406
 1272SOL    HW115449   2.029   0.983   9.095  1.0985  0.5662 -1.2087
 1272SOL    HW215450   1.907   1.054   9.139 -0.7230  1.4036 -1.6868
 1273SOL     OW15451   0.674   2.594   4.394 -0.4183 -0.4008 -0.3914
 1273SOL    HW115452   0.703   2.579   4.484 -0.0752  1.3893 -0.2025
 1273SOL    HW215453   0.748   2.561   4.343  0.6495  1.5259 -0.1029
 1274SOL     OW15454   1.777   0.195   5.887  0.6994 -0.1470  0.0465
 1274SOL    HW115455   1.700   0.248   5.864  1.3427 -0.2102 -2.2847
 1274SOL    HW215456   1.797   0.200   5.980 -3.4007  1.3877  0.8317
 1275SOL     OW15457   3.662   2.349   2.983 -0.7231  0.2890 -0.1546
 1275SOL    HW115458   3.743   2.303   2.961 -0.2139  1.2080 -0.1740
 1275SOL    HW215459   3.691   2.410   3.051  2.3363  0.7096 -1.8299
 1276SOL     OW15460   1.145   1.915   2.832  0.5293 -0.4066  0.6745
 1276SOL    HW115461   1.056   1.946   2.816  0.0979 -0.2404  3.3753
 1276SOL    HW215462   1.196   1.965   2.769  1.5845 -0.3423  1.5810
 1277SOL     OW15463   1.186   4.579  14.657 -0.3804  0.0476  0.0157
 1277SOL    HW115464   1.271   4.582  14.702 -0.3382 -1.8672  0.0485
 1277SOL    HW215465   1.192   4.652  14.596  0.8403 -0.8242 -0.9038
 1278SOL     OW15466   4.283   3.205   2.811  0.3886 -0.1655 -0.3820
 1278SOL    HW115467   4.201   3.186   2.766  0.5886  0.8914 -1.1973
 1278SOL    HW215468   4.335   3.258   2.750  3.6480 -2.9447  0.0069
 1279SOL     OW15469   1.264   1.454  13.246  0.1020  0.4218  0.0651
 1279SOL    HW115470   1.216   1.522  13.199  0.3809  0.7428  0.2473
 1279SOL    HW215471   1.278   1.389  13.177 -0.1610 -0.4238  0.8081
 1280SOL     OW15472   2.753   2.642  13.722  0.6248  0.7730 -0.2941
 1280SOL    HW115473   2.815   2.623  13.793  0.2284 -2.6282 -0.8696
 1280SOL    HW215474   2.716   2.725  13.753 -1.8348  0.0153 -1.2901
 1281SOL     OW15475   1.356   2.931   2.817 -0.3823 -0.1532  0.2769
 1281SOL    HW115476   1.280   2.988   2.804 -0.0555  0.2193 -0.0192
 1281SOL    HW215477   1.417   2.971   2.755 -1.9265  1.2221 -0.3280
 1282SOL     OW15478   3.902   4.272   5.819  0.1936  0.3975 -0.2785
 1282SOL    HW115479   3.879   4.180   5.835 -0.1271  0.4219 -0.5851
 1282SOL    HW215480   3.825   4.313   5.858  0.2896 -0.6798  1.0536
 1283SOL     OW15481   0.546   2.312  10.846 -0.1182 -0.1258 -0.8358
 1283SOL    HW115482   0.633   2.273  10.856 -1.0753 -1.6320  1.4442
 1283SOL    HW215483   0.497   2.297  10.927  0.7227  1.2105 -0.0848
 1284SOL     OW15484   0.138   4.132   0.783  0.2056 -0.3403 -0.1302
 1284SOL    HW115485   0.195   4.058   0.804  1.4781  0.2600 -1.4425
 1284SOL    HW215486   0.194   4.201   0.819 -1.3184  0.9722 -0.2595
 1285SOL     OW15487   0.479   1.718   4.268 -0.5086  0.4972  0.7694
 1285SOL    HW115488   0.527   1.798   4.245 -0.4405  0.3942  0.5513
 1285SOL    HW215489   0.536   1.646   4.241  0.4420  2.1049 -1.5308
 1286SOL     OW15490   4.017   1.972  15.245  0.0507  0.2419 -0.5214
 1286SOL    HW115491   3.949   2.009  15.190  2.0640  0.5172 -2.8379
 1286SOL    HW215492   3.983   1.999  15.330  0.9449 -0.3036  0.0125
 1287SOL     OW15493   1.942   1.606   8.860  0.0221  0.5165 -0.0424
 1287SOL    HW115494   1.897   1.623   8.777  0.8846 -0.9616 -0.8162
 1287SOL    HW215495   1.880   1.564   8.919 -0.1338  1.5529  0.5307
 1288SOL     OW15496   1.679   0.710   2.482 -0.2440  0.9932  0.2547
 1288SOL    HW115497   1.719   0.797   2.485 -0.5213  1.1800 -1.7077
 1288SOL    HW215498   1.753   0.650   2.491 -1.2081 -0.3442 -0.6653
 1289SOL     OW15499   1.931   1.164   3.390  0.3475  0.0915 -0.3527
 1289SOL    HW115500   1.861   1.218   3.352  0.2612  0.0215 -0.2918
 1289SOL    HW215501   1.950   1.232   3.456 -3.8614  2.1911 -1.3270
 1290SOL     OW15502   0.351   1.717   3.349 -0.3258 -0.9236  0.1434
 1290SOL    HW115503   0.387   1.669   3.424 -0.7296  0.9994  1.5522
 1290SOL    HW215504   0.392   1.670   3.276  1.1117 -1.2935  1.1963
 1291SOL     OW15505   3.251   1.226  17.046 -0.0603  0.2946  0.0737
 1291SOL    HW115506   3.226   1.318  17.039  1.5541  0.8997  2.2582
 1291SOL    HW215507   3.196   1.192  16.975  1.2599  0.0255 -0.8188
 1292SOL     OW15508   4.059   4.157   3.072 -0.5061  0.0424 -0.2840
 1292SOL    HW115509   4.130   4.143   3.135 -0.3685 -0.2855 -0.5107
 1292SOL    HW215510   3.991   4.096   3.103  0.9190 -0.8744  1.0660
 1293SOL     OW15511   1.649   4.295   4.722 -0.1930  0.1054 -0.2175
 1293SOL    HW115512   1.558   4.265   4.722  0.0662 -0.7131 -1.9117
 1293SOL    HW215513   1.677   4.295   4.813 -2.2674 -1.1464  0.4277
 1294SOL     OW15514   4.689   2.781   6.334  0.2510 -0.4469 -0.0314
 1294SOL    HW115515   4.660   2.690   6.329 -1.7945  0.1375  1.3797
 1294SOL    HW215516   0.041   2.772   6.364  0.1081  1.3070  0.9267
 1295SOL     OW15517   3.352   4.627  10.789 -0.4963  0.6361 -0.3908
 1295SOL    HW115518   3.256   4.622  10.786 -0.5514  3.0899 -3.2676
 1295SOL    HW215519   3.353   4.672  10.874  0.6568 -2.9401  1.4672
 1296SOL     OW15520   1.521   1.865   6.820 -0.1066  0.1294 -0.4230
 1296SOL    HW115521   1.615   1.862   6.803  0.4184  0.5884  2.3551
 1296SOL    HW215522   1.510   1.807   6.896  2.0629 -0.5697 -0.6323
 1297SOL     OW15523   1.360   1.609   5.990  0.2665 -0.4269 -0.2266
 1297SOL    HW115524   1.419   1.646   6.056  1.0666 -2.0364 -0.0407
 1297SOL    HW215525   1.391   1.653   5.911 -1.9893  0.0849 -0.8257
 1298SOL     OW15526   3.198   1.647   3.593  0.5047  0.0077 -0.5644
 1298SOL    HW115527   3.251   1.580   3.550  0.6936 -0.2880  0.1323
 1298SOL    HW215528   3.152   1.680   3.516  2.4819  0.0968 -1.7262
 1299SOL     OW15529   2.625   2.535   8.610  0.1040  0.3423 -0.5445
 1299SOL    HW115530   2.552   2.537   8.548  1.2538  1.3687 -1.8623
 1299SOL    HW215531   2.623   2.442   8.633 -1.6584  0.8508  1.2839
 1300SOL     OW15532   0.145   3.382   9.659  0.5665 -1.2451  0.3457
 1300SOL    HW115533   0.057   3.400   9.625  2.0663  0.9912 -2.2753
 1300SOL    HW215534   0.188   3.409   9.578 -1.0000  0.3476  0.0453
 1301SOL     OW15535   2.164   4.622   8.002  0.0016 -0.2441 -0.3862
 1301SOL    HW115536   2.203   4.536   7.984  0.5112 -0.4294  1.5916
 1301SOL    HW215537   2.232   4.671   7.956 -0.9348  0.3877 -1.1132
 1302SOL     OW15538   3.546   3.422   3.859  0.2477  0.0402 -0.0574
 1302SOL    HW115539   3.462   3.455   3.825 -0.5136 -0.6493  1.1476
 1302SOL    HW215540   3.594   3.401   3.779  1.6355 -2.1376  1.3434
 1303SOL     OW15541   3.175   2.075  15.740  0.0239 -0.1058 -0.0162
 1303SOL    HW115542   3.105   2.060  15.803 -0.2165  1.7853  0.1802
 1303SOL    HW215543   3.133   2.061  15.656  0.6856 -1.4461 -0.1260
 1304SOL     OW15544   3.077   3.229   4.743 -0.4180  0.2028  0.3294
 1304SOL    HW115545   3.132   3.268   4.675 -0.7088  2.0426  1.1497
 1304SOL    HW215546   3.031   3.169   4.685  0.5202  1.5278 -1.7738
 1305SOL     OW15547   0.947   1.595   5.400  0.4742 -0.4020 -0.1920
 1305SOL    HW115548   0.919   1.576   5.489  2.0699  0.5054  0.4971
 1305SOL    HW215549   1.042   1.592   5.409  0.5585  2.1793 -0.4093
 1306SOL     OW15550   4.091   0.310   8.404 -0.4390  0.2998  0.2234
 1306SOL    HW115551   4.160   0.342   8.347 -0.7819  2.7198  1.1878
 1306SOL    HW215552   4.028   0.261   8.350 -0.8414  0.0123  0.9397
 1307SOL     OW15553   1.982   4.559   9.717 -0.3386  0.1328 -0.6553
 1307SOL    HW115554   2.037   4.609   9.777  0.7143  0.6155 -2.0334
 1307SOL    HW215555   1.974   4.623   9.647 -0.5886 -0.4734 -1.1735
 1308SOL     OW15556   1.007   2.818   2.999  0.5914 -0.4869  0.8122
 1308SOL    HW115557   0.942   2.770   3.050 -0.1406 -1.2138 -0.8043
 1308SOL    HW215558   1.087   2.815   3.052  0.6851  0.9131  0.7340
 1309SOL     OW15559   3.188   0.539   2.928 -0.2312 -0.2347 -0.5794
 1309SOL    HW115560   3.109   0.499   2.893 -1.5120  2.0390 -0.3146
 1309SOL    HW215561   3.166   0.549   3.020  0.6387  0.0441 -0.3948
 1310SOL     OW15562   0.368   2.708   8.314  0.0054  0.9287 -0.1282
 1310SOL    HW115563   0.453   2.673   8.287  0.6325  1.9689  0.5049
 1310SOL    HW215564   0.334   2.633   8.362  1.2404  0.6478  0.2865
 1311SOL     OW15565   1.904   0.604   3.926  0.1548 -0.2141 -0.2960
 1311SOL    HW115566   1.998   0.611   3.908  0.4840 -3.2119  0.1691
 1311SOL    HW215567   1.882   0.683   3.975 -2.5833 -0.4894 -1.1264
 1312SOL     OW15568   3.483   0.189   6.224  0.1022 -0.1285 -0.4665
 1312SOL    HW115569   3.409   0.248   6.229 -0.7764 -1.2920  0.1686
 1312SOL    HW215570   3.553   0.251   6.246 -0.4910 -0.2919  1.8762
 1313SOL     OW15571   0.296   1.949   5.513 -0.5929  0.4212 -0.6611
 1313SOL    HW115572   0.322   2.016   5.575  0.8646 -1.6636  0.9448
 1313SOL    HW215573   0.248   1.892   5.572  0.4915  0.9606  0.7233
 1314SOL     OW15574   4.584   3.442  12.429 -0.1415 -0.2818  0.1085
 1314SOL    HW115575   4.588   3.388  12.349  1.3254  0.7198 -0.4757
 1314SOL    HW215576   4.557   3.373  12.490  0.1342 -0.2409  0.2745
 1315SOL     OW15577   4.659   1.750   7.469 -0.2203 -0.2390 -0.6516
 1315SOL    HW115578   4.583   1.697   7.494 -0.0389  1.2333  2.9255
 1315SOL    HW215579   4.626   1.792   7.389 -0.3506  0.4208 -0.2432
 1316SOL     OW15580   4.544   0.484  12.985 -0.3147  0.4339 -0.4826
 1316SOL    HW115581   4.584   0.571  12.993 -3.1160  1.7380 -0.9271
 1316SOL    HW215582   4.474   0.497  13.049 -0.8494  1.1691 -1.2247
 1317SOL     OW15583   2.193   2.518  17.381 -0.3755  0.1073 -0.4847
 1317SOL    HW115584   2.142   2.526  17.462 -0.0200 -0.4659 -0.2037
 1317SOL    HW215585   2.112   2.503  17.330  0.8430 -1.5235 -1.9436
 1318SOL     OW15586   3.153   2.989  15.185  0.1426 -0.1307 -0.0036
 1318SOL    HW115587   3.185   2.957  15.100  1.6335  1.4682 -0.0556
 1318SOL    HW215588   3.059   3.005  15.175 -0.2589 -2.0841  0.6674
 1319SOL     OW15589   1.531   4.342   7.114 -0.1811 -0.2070 -0.2174
 1319SOL    HW115590   1.500   4.335   7.204  1.1602 -0.5937  0.2017
 1319SOL    HW215591   1.556   4.253   7.092  3.5478  0.7579  0.2199
 1320SOL     OW15592   3.008   0.568   6.093  0.1189  0.7278 -0.5064
 1320SOL    HW115593   3.098   0.555   6.064  0.3272  0.5204  0.2366
 1320SOL    HW215594   3.000   0.493   6.152  0.2377 -0.6772 -2.2872
 1321SOL     OW15595   2.423   1.213   6.959 -0.1130  0.4534 -0.2282
 1321SOL    HW115596   2.355   1.230   7.025  0.4258  0.7480  0.2444
 1321SOL    HW215597   2.442   1.119   6.958 -2.0739  0.0491 -0.1957
 1322SOL     OW15598   1.628   2.037  11.720 -0.1871 -0.7600 -0.4696
 1322SOL    HW115599   1.652   1.946  11.705  0.8286 -0.4250 -0.8324
 1322SOL    HW215600   1.622   2.072  11.631  0.4750 -0.9724 -0.5908
 1323SOL     OW15601   3.090   1.192   6.121  0.6009 -0.0140  0.1972
 1323SOL    HW115602   3.081   1.286   6.105 -1.1433 -0.0163  1.1455
 1323SOL    HW215603   3.183   1.174   6.110  0.7697  1.6771 -1.0662
 1324SOL     OW15604   3.428   2.438  15.329 -0.0712 -0.3053  0.4313
 1324SOL    HW115605   3.414   2.532  15.324  1.8061 -0.0682 -0.5165
 1324SOL    HW215606   3.414   2.430  15.423 -2.6980 -0.5236  0.0253
 1325SOL     OW15607   3.700   4.698   6.112 -0.1947  0.6047 -0.8926
 1325SOL    HW115608   3.625   4.658   6.157 -1.6223  0.8625 -3.0762
 1325SOL    HW215609   3.770   4.634   6.124  0.1792  1.4431  1.5654
 1326SOL     OW15610   0.045   3.605   6.965  0.2488 -0.0417  0.3317
 1326SOL    HW115611   0.034   3.539   7.033 -1.1080  0.8805  1.0017
 1326SOL    HW215612   0.137   3.633   6.960  0.6908 -1.2605  1.8543
 1327SOL     OW15613   1.095   2.362  12.564 -0.2310  0.6135  0.3349
 1327SOL    HW115614   1.179   2.396  12.533  0.7476 -0.5117  1.7898
 1327SOL    HW215615   1.101   2.278  12.520 -0.1229  0.1791  1.1942
 1328SOL     OW15616   0.762   4.185   6.576 -0.0734 -0.3649  0.2900
 1328SOL    HW115617   0.774   4.098   6.538  0.7282 -0.4943  0.8340
 1328SOL    HW215618   0.842   4.186   6.630  1.0140  0.3869 -1.3318
 1329SOL     OW15619   0.457   1.623  16.327  0.0935 -0.0755  0.4132
 1329SOL    HW115620   0.488   1.560  16.392 -2.5144 -0.2018  1.4946
 1329SOL    HW215621   0.423   1.559  16.265 -0.2799  0.7206 -0.2042
 1330SOL     OW15622   4.140   4.318  12.070  0.0311  0.1838  0.0074
 1330SOL    HW115623   4.167   4.297  12.160 -2.5922 -0.9178  0.5488
 1330SOL    HW215624   4.063   4.262  12.066 -0.4753  0.9224 -0.4734
 1331SOL     OW15625   0.723   3.509   5.330  0.6990 -0.1003 -0.2350
 1331SOL    HW115626   0.631   3.485   5.331  0.7414 -0.1543  1.5273
 1331SOL    HW215627   0.760   3.432   5.287 -1.8171 -0.3684 -1.9433
 1332SOL     OW15628   1.396   0.166   9.220 -0.2854 -0.8612  0.0080
 1332SOL    HW115629   1.399   0.100   9.289 -0.5869 -0.2648  0.5958
 1332SOL    HW215630   1.395   0.115   9.140 -0.3340 -2.3812  0.9829
 1333SOL     OW15631   2.282   0.348   0.921 -0.4359 -0.3036 -0.2761
 1333SOL    HW115632   2.213   0.305   0.971 -2.0416  1.2395 -1.1578
 1333SOL    HW215633   2.359   0.336   0.976  0.1532 -0.0787 -1.0442
 1334SOL     OW15634   1.029   0.586   7.184 -0.2671  0.3108 -0.0313
 1334SOL    HW115635   0.988   0.504   7.156  0.9785  0.6289 -2.7141
 1334SOL    HW215636   0.956   0.645   7.165  0.3670  0.8351 -0.8320
 1335SOL     OW15637   2.271   0.093   4.260 -0.7171 -0.2479 -0.3215
 1335SOL    HW115638   2.313   0.168   4.303 -1.2110 -0.8594  1.2391
 1335SOL    HW215639   2.200   0.091   4.325  0.5380  2.2809  1.1509
 1336SOL     OW15640   0.090   0.100   6.661  0.1161 -0.7119 -0.6346
 1336SOL    HW115641   0.043   0.180   6.637  3.0614  1.0325 -0.6336
 1336SOL    HW215642   0.096   0.056   6.577  1.7001  0.4261 -1.1286
 1337SOL     OW15643   2.664   3.380   6.639 -0.7963 -0.1423  0.3557
 1337SOL    HW115644   2.725   3.371   6.711 -0.7059 -2.3226 -0.0133
 1337SOL    HW215645   2.715   3.408   6.562 -2.0505 -0.3211 -0.5482
 1338SOL     OW15646   0.656   2.420   3.230 -0.6151 -0.1315  0.1044
 1338SOL    HW115647   0.731   2.395   3.177  0.6861  1.5289  1.1565
 1338SOL    HW215648   0.687   2.507   3.255 -3.5332  0.8072  0.4833
 1339SOL     OW15649   1.947   1.583   2.686 -0.0331 -0.7946  0.2310
 1339SOL    HW115650   1.965   1.527   2.610  1.5967 -0.8765  0.6904
 1339SOL    HW215651   1.868   1.548   2.727 -0.1448 -0.7927  0.0195
 1340SOL     OW15652   4.087   1.786   6.769 -0.3036  0.0261 -0.2055
 1340SOL    HW115653   4.056   1.777   6.678 -0.6574 -0.6323 -0.0156
 1340SOL    HW215654   4.173   1.745   6.764 -1.2801 -1.9861 -0.4049
 1341SOL     OW15655   0.108   1.135   3.671 -0.3378  0.0485 -0.4633
 1341SOL    HW115656   0.095   1.196   3.599 -2.3581 -1.5354 -1.4534
 1341SOL    HW215657   0.202   1.118   3.666 -0.3240  0.0855 -0.3259
 1342SOL     OW15658   4.176   3.457   3.184 -0.0952 -1.0160 -0.4166
 1342SOL    HW115659   4.266   3.474   3.154 -0.5665  0.6364 -0.8376
 1342SOL    HW215660   4.160   3.373   3.141 -1.5883 -0.8698 -0.1445
 1343SOL     OW15661   3.250   2.178  15.194 -0.1846 -0.0445 -0.3386
 1343SOL    HW115662   3.340   2.151  15.172 -0.9774 -1.4401 -1.9030
 1343SOL    HW215663   3.205   2.153  15.113  1.1950  1.7000 -1.6376
 1344SOL     OW15664   3.541   2.888   5.622  0.1976 -0.1279 -0.3331
 1344SOL    HW115665   3.461   2.919   5.665 -0.0008  0.9459 -1.4811
 1344SOL    HW215666   3.506   2.860   5.537 -0.7455  1.8870 -0.6136
 1345SOL     OW15667   2.609   1.775   3.500  0.2374  0.5524  0.4944
 1345SOL    HW115668   2.521   1.793   3.468  0.1742  0.4593  0.6113
 1345SOL    HW215669   2.669   1.839   3.464 -0.5415  0.7593 -0.4171
 1346SOL     OW15670   3.151   1.898   5.291  0.4727  0.2690  0.1281
 1346SOL    HW115671   3.226   1.935   5.338  1.6095  0.3528 -1.7416
 1346SOL    HW215672   3.097   1.975   5.272 -1.5234 -1.5293 -1.4966
 1347SOL     OW15673   2.264   4.084  14.427 -0.3531  0.4150 -0.4119
 1347SOL    HW115674   2.282   4.010  14.369  0.7034 -0.8572  1.5149
 1347SOL    HW215675   2.223   4.141  14.363  0.8370 -0.4681 -1.9556
 1348SOL     OW15676   2.409   4.334   5.094  0.7017 -0.1491  0.1024
 1348SOL    HW115677   2.362   4.342   5.177  0.3637 -0.7344 -0.0344
 1348SOL    HW215678   2.431   4.427   5.082  1.5674 -0.1966  1.2940
 1349SOL     OW15679   2.705   3.527   7.024 -0.1825 -0.4513  0.1816
 1349SOL    HW115680   2.730   3.592   7.091 -0.1559  1.9722 -2.1771
 1349SOL    HW215681   2.672   3.575   6.948 -0.9713 -0.4019  0.5552
 1350SOL     OW15682   2.049   3.744   2.053 -0.5516  0.4638 -0.3700
 1350SOL    HW115683   2.097   3.821   2.083  0.2634 -0.7190  1.3861
 1350SOL    HW215684   2.071   3.752   1.960  1.7471 -0.0613  0.1288
 1351SOL     OW15685   4.161   2.223   9.984  0.1416 -0.8844 -0.0234
 1351SOL    HW115686   4.100   2.260   9.919  1.2561  3.7198  1.5706
 1351SOL    HW215687   4.232   2.231   9.920 -0.4118 -0.6095 -0.6034
 1352SOL     OW15688   1.077   0.266   4.145 -0.0219  0.0687 -0.0337
 1352SOL    HW115689   1.124   0.183   4.151 -3.6658 -2.1687 -2.3532
 1352SOL    HW215690   1.107   0.314   4.067 -2.4507 -0.4942 -1.3302
 1353SOL     OW15691   4.708   2.390  15.896  0.1576 -0.0365  0.3241
 1353SOL    HW115692   4.724   2.412  15.804  1.1457  0.9096  0.7079
 1353SOL    HW215693   4.614   2.408  15.897  0.2680  0.4547  1.5335
 1354SOL     OW15694   1.732   2.860  12.311 -0.4812 -0.2574 -0.1218
 1354SOL    HW115695   1.678   2.843  12.233 -0.4411 -1.5994  0.1450
 1354SOL    HW215696   1.661   2.866  12.375  0.0159 -1.5658  0.5667
 1355SOL     OW15697   0.139   3.941   6.157  0.0575  0.2318  0.0489
 1355SOL    HW115698   0.110   3.887   6.084  0.8363  0.6087 -0.5311
 1355SOL    HW215699   0.176   4.013   6.107  1.5462 -0.1329  0.6080
 1356SOL     OW15700   4.526   4.094  16.522 -0.2093  0.0246 -1.3352
 1356SOL    HW115701   4.435   4.124  16.516 -1.0898 -2.3419  0.4289
 1356SOL    HW215702   4.527   4.039  16.443  2.7286  0.4645 -1.6193
 1357SOL     OW15703   2.409   3.013   8.420 -0.5543  0.2037 -0.2234
 1357SOL    HW115704   2.432   3.027   8.512 -0.7036  3.0072 -0.6063
 1357SOL    HW215705   2.368   2.928   8.433 -0.3054  0.2035  0.5265
 1358SOL     OW15706   3.711   0.552   3.983 -0.0558  0.4146 -0.2118
 1358SOL    HW115707   3.658   0.578   4.058  2.4491 -1.0617  2.0662
 1358SOL    HW215708   3.798   0.534   4.019 -0.1876 -0.2361 -0.2347
 1359SOL     OW15709   4.714   1.026  17.595 -0.0339  0.0444 -0.3472
 1359SOL    HW115710   4.660   0.950  17.573 -0.5777  0.6802 -1.2107
 1359SOL    HW215711   4.653   1.100  17.584 -0.2077 -0.2272 -1.2439
 1360SOL     OW15712   1.338   0.042   8.694  0.4393  0.2561  0.1945
 1360SOL    HW115713   1.320   0.012   8.783  2.0588 -1.8318 -0.1902
 1360SOL    HW215714   1.386   4.705   8.661 -0.4771  0.0523 -0.6461
 1361SOL     OW15715   4.197   0.845   9.005 -0.2038 -0.3169 -0.0631
 1361SOL    HW115716   4.285   0.870   9.032 -0.3759  0.7485 -0.4706
 1361SOL    HW215717   4.191   0.845   8.909 -1.1821  0.1215  0.0003
 1362SOL     OW15718   2.567   4.659   6.435  0.2549  0.2572 -0.4197
 1362SOL    HW115719   2.641   4.645   6.494 -0.0121 -0.5878 -0.2975
 1362SOL    HW215720   2.614   4.668   6.352 -0.1435 -1.7823 -0.8606
 1363SOL     OW15721   3.885   1.809   0.483  0.0615 -0.1395  0.1135
 1363SOL    HW115722   3.932   1.726   0.492 -2.5479 -1.7731 -1.4977
 1363SOL    HW215723   3.879   1.846   0.572  2.2575  1.4337 -0.3861
 1364SOL     OW15724   0.059   1.409  14.498  0.0991  0.0759  0.4530
 1364SOL    HW115725   0.132   1.389  14.440 -1.6157 -0.6918 -1.4504
 1364SOL    HW215726   0.014   1.484  14.458 -0.8056 -0.4703  0.4456
 1365SOL     OW15727   0.788   2.189  13.639 -0.4069  0.0036 -0.1472
 1365SOL    HW115728   0.783   2.097  13.614 -1.4090  0.3280 -1.1355
 1365SOL    HW215729   0.727   2.239  13.585  0.5135  0.9117 -0.3546
 1366SOL     OW15730   1.554   4.536   6.708  0.2795 -0.5263  0.0593
 1366SOL    HW115731   1.500   4.501   6.779 -0.6907  1.6920  0.4087
 1366SOL    HW215732   1.599   4.605   6.756  0.5068  0.4679 -1.6085
 1367SOL     OW15733   2.854   3.122   6.463 -0.2900  0.2072  0.6208
 1367SOL    HW115734   2.943   3.154   6.475  0.1992 -0.7308 -0.4767
 1367SOL    HW215735   2.823   3.181   6.395  3.8465  1.1818 -0.4071
 1368SOL     OW15736   0.377   4.413   9.051  0.4505 -0.7518 -0.1851
 1368SOL    HW115737   0.305   4.471   9.072  0.7309 -0.3088 -0.4548
 1368SOL    HW215738   0.394   4.430   8.958  2.3923 -0.3529  0.2379
 1369SOL     OW15739   3.221   1.124   4.022  0.1087  0.3771 -0.4254
 1369SOL    HW115740   3.308   1.161   4.007  0.0537 -0.0321 -1.7186
 1369SOL    HW215741   3.214   1.141   4.116  0.9987 -0.2313 -0.2555
 1370SOL     OW15742   3.024   1.400   3.340  0.2613 -0.6674  0.2758
 1370SOL    HW115743   2.997   1.489   3.318  0.4821 -0.7951 -0.4956
 1370SOL    HW215744   2.967   1.341   3.291 -0.4516  2.6568 -2.8826
 1371SOL     OW15745   0.145   1.973   3.553 -0.2145 -0.3246  0.4987
 1371SOL    HW115746   0.130   1.880   3.537  1.6356 -0.4842 -0.3457
 1371SOL    HW215747   0.117   1.991   3.463 -0.8226 -1.0643  0.5437
 1372SOL     OW15748   3.565   0.263   2.907 -0.8536 -0.6287 -0.0681
 1372SOL    HW115749   3.633   0.298   2.965 -0.6155  0.4644 -1.0043
 1372SOL    HW215750   3.618   0.210   2.848  0.5870 -0.5683  1.1643
 1373SOL     OW15751   4.405   0.908   8.181  0.3292 -0.1598 -0.3977
 1373SOL    HW115752   4.374   0.998   8.168 -0.3495 -0.4750 -0.9602
 1373SOL    HW215753   4.428   0.889   8.091 -0.9781 -0.3293 -0.7007
 1374SOL     OW15754   3.790   0.466  16.736 -0.6891 -0.7392  0.2609
 1374SOL    HW115755   3.763   0.501  16.651  0.8888 -0.1017  0.0309
 1374SOL    HW215756   3.787   0.550  16.781 -0.6948 -0.7647  0.3088
 1375SOL     OW15757   2.602   4.170   4.297  0.0863 -0.5482  0.3189
 1375SOL    HW115758   2.548   4.157   4.375 -0.2531  1.9811  0.5096
 1375SOL    HW215759   2.628   4.088   4.256  2.4133  0.4877 -0.2930
 1376SOL     OW15760   0.398   2.198   6.876 -0.2046  0.0532  0.3815
 1376SOL    HW115761   0.310   2.215   6.845 -1.3092 -5.2157  0.6005
 1376SOL    HW215762   0.406   2.102   6.871 -0.1106  0.0880 -0.1750
 1377SOL     OW15763   2.040   1.541   5.559  1.0122  0.5918  0.2228
 1377SOL    HW115764   1.952   1.568   5.585  0.8980  1.9232 -1.5087
 1377SOL    HW215765   2.075   1.492   5.633 -2.4044  3.6020  3.8133
 1378SOL     OW15766   2.977   4.485   4.035 -0.1305  0.2046 -0.2333
 1378SOL    HW115767   3.000   4.561   4.089  2.9271  0.9891 -2.6693
 1378SOL    HW215768   2.925   4.438   4.100  0.5069 -0.2192 -0.0322
 1379SOL     OW15769   1.368   1.607   1.813  0.1554  0.6703  0.2133
 1379SOL    HW115770   1.311   1.680   1.838 -1.3430 -0.5417  0.2757
 1379SOL    HW215771   1.437   1.664   1.779  0.3062 -0.4661 -1.3658
 1380SOL     OW15772   1.085   4.570  10.985 -0.6806 -0.4259  0.5386
 1380SOL    HW115773   1.176   4.539  10.979 -0.2038  1.0105  0.4622
 1380SOL    HW215774   1.108   4.662  10.992 -2.3717 -0.0216  0.6525
 1381SOL     OW15775   3.233   4.109   7.971  0.4317 -0.1982  0.0939
 1381SOL    HW115776   3.139   4.122   7.960  0.4652 -0.7751 -0.8519
 1381SOL    HW215777   3.248   4.015   7.974  3.3620  0.2373 -0.4399
 1382SOL     OW15778   3.796   1.671   7.725 -0.5909 -0.1283  0.1642
 1382SOL    HW115779   3.889   1.669   7.749 -1.0283 -0.4311  1.8200
 1382SOL    HW215780   3.775   1.587   7.766 -0.4533  1.0092  2.5427
 1383SOL     OW15781   2.745   1.932   2.894  0.0935  0.0210 -0.4698
 1383SOL    HW115782   2.679   1.997   2.917  0.1169  0.2010 -0.9242
 1383SOL    HW215783   2.830   1.955   2.933  0.3658  0.3569 -1.2715
 1384SOL     OW15784   4.369   1.614  12.764  0.0163  0.2326  0.4548
 1384SOL    HW115785   4.413   1.530  12.752  0.0635  0.4271 -0.7560
 1384SOL    HW215786   4.436   1.665  12.809 -1.1378  1.7516  0.4398
 1385SOL     OW15787   1.114   2.257   0.823 -0.0553 -0.5370  0.2321
 1385SOL    HW115788   1.108   2.166   0.794  2.8112 -0.6948  0.1368
 1385SOL    HW215789   1.061   2.289   0.750  2.1575  0.6514 -0.8402
 1386SOL     OW15790   1.566   3.109   6.875  0.0620  0.7111 -0.0345
 1386SOL    HW115791   1.626   3.166   6.827  0.9519  0.4896  0.8416
 1386SOL    HW215792   1.575   3.158   6.956 -2.6450 -0.8776  1.2108
 1387SOL     OW15793   4.313   0.957   1.218 -0.1605  0.4082  0.1305
 1387SOL    HW115794   4.221   0.983   1.215 -0.0633  0.6069 -1.0481
 1387SOL    HW215795   4.343   1.004   1.141  1.3295  0.1099  0.5220
 1388SOL     OW15796   2.021   3.496   1.858 -0.0386 -0.2060 -0.4154
 1388SOL    HW115797   2.089   3.517   1.922  0.5177  1.1627 -1.4460
 1388SOL    HW215798   1.992   3.410   1.887  2.1756 -0.3916  1.2370
 1389SOL     OW15799   0.074   1.824   3.794  0.1525 -0.2352  0.7911
 1389SOL    HW115800   0.088   1.752   3.733 -0.7146 -0.6886  1.1344
 1389SOL    HW215801   0.142   1.883   3.761 -0.5934 -1.2536 -2.5527
 1390SOL     OW15802   2.922   1.685   3.241 -0.1613  0.0431  0.3654
 1390SOL    HW115803   2.855   1.750   3.219 -1.4448 -0.7704  1.8393
 1390SOL    HW215804   2.946   1.720   3.327 -1.3308 -0.8658  1.0589
 1391SOL     OW15805   3.211   2.049   2.051 -0.0886  0.3888  0.2524
 1391SOL    HW115806   3.195   2.078   2.141  1.2496  1.3731  0.1806
 1391SOL    HW215807   3.150   2.098   1.996  1.7113  0.8712 -1.3505
 1392SOL     OW15808   1.257   2.961   4.819  0.5274 -0.0221 -0.0092
 1392SOL    HW115809   1.230   2.969   4.728 -0.9043  0.9156  0.4842
 1392SOL    HW215810   1.193   3.014   4.868  1.2583  0.6867  0.1722
 1393SOL     OW15811   0.450   2.189   6.178 -0.8713 -0.6406 -0.5017
 1393SOL    HW115812   0.527   2.136   6.199  0.0045  0.6875 -0.3677
 1393SOL    HW215813   0.445   2.234   6.263 -0.2422  1.2335 -1.4475
 1394SOL     OW15814   2.898   2.689   3.686  0.0778  0.1066 -0.3095
 1394SOL    HW115815   2.814   2.645   3.700  0.5504 -0.5569  0.4218
 1394SOL    HW215816   2.939   2.688   3.773  1.2597 -0.4559 -0.8733
 1395SOL     OW15817   4.606   4.160  13.830 -0.3470 -0.4758 -0.6464
 1395SOL    HW115818   4.697   4.153  13.800  0.0075  2.8535 -0.2853
 1395SOL    HW215819   4.567   4.157  13.743 -0.4248 -1.3083 -0.5814
 1396SOL     OW15820   2.836   0.452   5.342 -0.1702 -0.4570  0.1264
 1396SOL    HW115821   2.916   0.433   5.294 -0.8701 -0.4671 -1.0423
 1396SOL    HW215822   2.847   0.431   5.435 -0.7774 -3.1013 -0.4008
 1397SOL     OW15823   3.334   4.403  14.734  0.1290 -0.2194  0.3024
 1397SOL    HW115824   3.249   4.445  14.747 -0.7645 -2.4113  1.6780
 1397SOL    HW215825   3.370   4.419  14.647 -0.7441  1.5323  0.2593
 1398SOL     OW15826   1.476   2.434  15.033 -0.5359  0.1372  0.3421
 1398SOL    HW115827   1.442   2.464  14.949 -0.6918 -0.1155  0.3115
 1398SOL    HW215828   1.563   2.406  15.006  0.0411  0.6768  1.6465
 1399SOL     OW15829   0.764   3.687   3.148 -0.4454  0.5654 -0.5627
 1399SOL    HW115830   0.779   3.756   3.213  0.6847 -1.6327  1.5058
 1399SOL    HW215831   0.848   3.641   3.149 -0.1306  1.1171 -2.2293
 1400SOL     OW15832   2.097   0.903   2.696  0.1319 -0.1044 -0.2896
 1400SOL    HW115833   2.044   0.982   2.685 -0.1740 -0.2265  0.3087
 1400SOL    HW215834   2.070   0.868   2.781  0.7056  1.8919  0.7213
 1401SOL     OW15835   1.117   2.513   0.917  1.0358 -0.7308  0.5259
 1401SOL    HW115836   1.038   2.533   0.967  1.7316  1.1864  0.8545
 1401SOL    HW215837   1.088   2.426   0.888  0.1717 -0.6575  1.1692
 1402SOL     OW15838   4.524   3.319   5.085 -0.3281 -0.1623 -0.3260
 1402SOL    HW115839   4.463   3.342   5.015 -0.0283 -0.5611 -0.7229
 1402SOL    HW215840   4.469   3.281   5.154 -0.0775  1.1807  0.6073
 1403SOL     OW15841   3.329   1.210   5.532 -0.4039 -0.9261  0.5754
 1403SOL    HW115842   3.318   1.128   5.580  0.4858 -0.2593  1.9447
 1403SOL    HW215843   3.239   1.233   5.510  0.3871  0.3593 -1.3457
 1404SOL     OW15844   2.461   2.963   7.417 -0.0932  0.2134 -0.0705
 1404SOL    HW115845   2.443   2.870   7.428  0.4629  0.1266  0.1572
 1404SOL    HW215846   2.381   3.007   7.447 -0.2004  0.6641 -1.0292
 1405SOL     OW15847   4.716   0.610   9.130 -0.1721  0.8140 -0.2704
 1405SOL    HW115848   0.072   0.625   9.126 -0.3989  2.3753  0.4461
 1405SOL    HW215849   4.692   0.636   9.042  3.3345  2.1092 -0.8278
 1406SOL     OW15850   4.183   0.502   6.454 -0.2390  0.2048  0.2697
 1406SOL    HW115851   4.167   0.573   6.391 -1.6004 -1.1733 -0.9509
 1406SOL    HW215852   4.115   0.440   6.426 -0.3975  0.8090 -0.7023
 1407SOL     OW15853   2.749   0.803   7.485  0.7030  0.2555  0.4209
 1407SOL    HW115854   2.779   0.744   7.416 -0.1877  0.7135 -0.3559
 1407SOL    HW215855   2.692   0.738   7.527 -0.4182  0.6538 -0.4870
 1408SOL     OW15856   2.861   1.582   7.218 -0.2098 -0.6440  0.2253
 1408SOL    HW115857   2.792   1.597   7.154  0.0264 -0.3121  0.0461
 1408SOL    HW215858   2.915   1.661   7.211 -0.3326 -0.6645 -0.8670
 1409SOL     OW15859   3.196   1.600   7.071  0.1808  0.0579 -0.5942
 1409SOL    HW115860   3.189   1.667   7.140 -1.4028 -0.4626 -0.2506
 1409SOL    HW215861   3.277   1.629   7.029 -1.5541  3.9873 -1.2606
 1410SOL     OW15862   2.220   4.630   3.465 -0.1873 -0.2604 -0.3514
 1410SOL    HW115863   2.308   4.626   3.502 -1.5330  0.9914  2.9290
 1410SOL    HW215864   2.217   4.537   3.441 -1.2773  0.2623 -2.2611
 1411SOL     OW15865   0.916   2.989   6.581 -0.3792  0.4537  0.1389
 1411SOL    HW115866   0.981   2.928   6.618  0.6893  0.2991 -1.9999
 1411SOL    HW215867   0.866   2.927   6.529  1.1306 -0.1460 -0.6050
 1412SOL     OW15868   0.732   3.770   3.671  0.4332  0.1653  0.0805
 1412SOL    HW115869   0.700   3.703   3.732 -0.1268 -0.8921 -1.4021
 1412SOL    HW215870   0.650   3.803   3.634 -1.4843 -3.2102  1.2737
 1413SOL     OW15871   3.241   2.055   4.342  0.0606  0.2935  0.2149
 1413SOL    HW115872   3.183   2.012   4.404  0.0202  0.3192  0.1952
 1413SOL    HW215873   3.212   2.147   4.335 -1.1809 -0.0410  0.9758
 1414SOL     OW15874   2.172   3.327   2.950 -0.0966 -0.2750 -0.1151
 1414SOL    HW115875   2.235   3.322   2.878 -1.4298 -4.1843 -1.0326
 1414SOL    HW215876   2.190   3.234   2.964  3.3750  0.4654  0.2805
 1415SOL     OW15877   3.732   3.369   2.856 -0.2245  0.6377  0.3090
 1415SOL    HW115878   3.678   3.444   2.881 -1.2610  0.1763 -0.5284
 1415SOL    HW215879   3.818   3.410   2.851  0.1345  0.0164  1.2726
 1416SOL     OW15880   4.600   0.497   1.937 -0.5137 -0.0514 -0.2028
 1416SOL    HW115881   4.675   0.516   1.993 -0.0569 -2.7286  0.1130
 1416SOL    HW215882   4.608   0.401   1.931 -2.3007 -0.1783 -0.6589
 1417SOL     OW15883   3.055   3.946   8.737 -0.3170 -0.7005 -0.2522
 1417SOL    HW115884   3.098   3.885   8.797  1.1813  0.0808 -0.5293
 1417SOL    HW215885   2.963   3.948   8.766 -0.0773  0.9701  0.4384
 1418SOL     OW15886   2.631   3.436   6.076  0.4622 -0.1137  0.1002
 1418SOL    HW115887   2.649   3.530   6.073  0.0235 -0.0360 -0.0165
 1418SOL    HW215888   2.552   3.442   6.130 -1.9083 -0.4146 -3.3748
 1419SOL     OW15889   0.251   0.596   0.719 -0.4237 -0.2630 -0.2050
 1419SOL    HW115890   0.229   0.682   0.756 -0.0200 -0.1611 -0.2093
 1419SOL    HW215891   0.164   0.566   0.690 -0.6591  0.3911 -0.1727
 1420SOL     OW15892   2.600   0.312   9.344  0.0670 -0.3880 -0.9290
 1420SOL    HW115893   2.625   0.292   9.254  1.5806 -1.7246 -0.1926
 1420SOL    HW215894   2.669   0.371   9.374 -2.2404  2.5767 -1.3245
 1421SOL     OW15895   1.552   2.507   0.633 -0.3552 -0.2552  0.3591
 1421SOL    HW115896   1.639   2.478   0.604  0.4380  0.7974  1.6826
 1421SOL    HW215897   1.499   2.428   0.643  0.8439 -0.7803  2.6158
 1422SOL     OW15898   1.281   3.000   6.258 -0.4647 -0.6791 -0.3405
 1422SOL    HW115899   1.208   2.979   6.317 -1.0641  0.6492 -0.6150
 1422SOL    HW215900   1.256   2.931   6.197  1.7250 -0.0400 -1.9700
 1423SOL     OW15901   0.919   4.231   2.990 -0.0117  0.2663 -0.4221
 1423SOL    HW115902   0.888   4.321   3.000  0.3255  0.3396 -0.0783
 1423SOL    HW215903   0.999   4.230   2.938  1.0028 -0.0414  1.1477
 1424SOL     OW15904   4.128   3.598   7.971 -0.1264 -0.1325  0.3155
 1424SOL    HW115905   4.044   3.645   7.971  0.1638  0.3960  0.2918
 1424SOL    HW215906   4.103   3.525   7.915 -1.3845 -0.2000  0.9602
 1425SOL     OW15907   0.900   0.081  17.270 -0.3555 -0.3201  0.3964
 1425SOL    HW115908   0.878   0.128  17.189  0.9565 -1.2822 -0.5241
 1425SOL    HW215909   0.842   0.005  17.265 -1.9199  0.9641 -0.7288
 1426SOL     OW15910   3.894   2.236   0.337 -0.3573  0.2889  0.0586
 1426SOL    HW115911   3.920   2.217   0.247  0.1996 -0.6936  0.4312
 1426SOL    HW215912   3.814   2.184   0.349 -0.1202  0.0275  0.4670
 1427SOL     OW15913   4.201   1.868   7.383  0.3567 -0.2204 -0.0675
 1427SOL    HW115914   4.243   1.943   7.426  0.0676 -0.4551  0.6117
 1427SOL    HW215915   4.139   1.914   7.326  1.4614 -0.6054 -1.5799
 1428SOL     OW15916   2.632   4.243   3.357  0.0819 -0.5034 -0.1865
 1428SOL    HW115917   2.548   4.237   3.403 -0.5951 -0.0076 -1.3575
 1428SOL    HW215918   2.671   4.316   3.404  2.2174 -1.5330 -0.3417
 1429SOL     OW15919   2.386   2.182   6.119 -0.1584  0.2515  0.1777
 1429SOL    HW115920   2.404   2.153   6.029  1.1295  1.8298 -0.0788
 1429SOL    HW215921   2.383   2.278   6.112  0.8503  0.2365 -0.4667
 1430SOL     OW15922   4.351   1.781   8.764  0.2066 -0.0053 -0.1830
 1430SOL    HW115923   4.302   1.744   8.690  1.7841 -0.5886 -0.9281
 1430SOL    HW215924   4.400   1.846   8.714 -1.5109  0.3157 -1.4511
 1431SOL     OW15925   4.214   2.610   8.076  0.1789 -0.4109 -0.3819
 1431SOL    HW115926   4.165   2.579   7.999 -0.4651 -1.2650  0.3784
 1431SOL    HW215927   4.271   2.535   8.091 -0.9856 -1.1922  0.1115
 1432SOL     OW15928   4.342   4.716   9.886  0.4263  0.2951 -0.4441
 1432SOL    HW115929   4.365   0.000   9.796  0.6069 -1.0453 -0.7444
 1432SOL    HW215930   4.263   4.670   9.858  0.6730  0.3232 -1.1935
 1433SOL     OW15931   2.273   3.509   3.892 -0.5655 -0.6345 -0.8412
 1433SOL    HW115932   2.342   3.534   3.953  0.0261  2.5948 -2.7955
 1433SOL    HW215933   2.201   3.513   3.954  0.2466  1.9107 -0.0313
 1434SOL     OW15934   2.945   4.633   2.700 -0.0797 -0.4825 -0.2498
 1434SOL    HW115935   3.028   4.672   2.673  0.6715 -2.3036 -0.5753
 1434SOL    HW215936   2.971   4.615   2.791 -0.5194 -1.4666 -0.3161
 1435SOL     OW15937   2.626   4.091  12.056 -0.0941  0.4074 -0.0178
 1435SOL    HW115938   2.557   4.054  12.001  0.5543 -0.0358 -0.5296
 1435SOL    HW215939   2.672   4.136  11.986  0.7054  0.8058  0.7679
 1436SOL     OW15940   4.623   4.463   5.664  0.4240  0.5309  0.0022
 1436SOL    HW115941   4.559   4.475   5.594  0.1246  1.2870  0.4017
 1436SOL    HW215942   4.689   4.528   5.640 -1.5400  2.1570 -0.9833
 1437SOL     OW15943   2.824   3.778   7.791  0.6213  0.9177  0.1372
 1437SOL    HW115944   2.776   3.705   7.754  0.8670  0.5534  0.5429
 1437SOL    HW215945   2.908   3.746   7.825  1.1440  2.5645  0.4372
 1438SOL     OW15946   0.293   1.135   7.550 -0.2241 -0.1865 -0.3242
 1438SOL    HW115947   0.293   1.177   7.636  0.7051  0.4263 -0.6212
 1438SOL    HW215948   0.238   1.193   7.497 -0.8169  0.5249  1.0834
 1439SOL     OW15949   0.460   3.342   6.701  0.4972  0.0180  0.3364
 1439SOL    HW115950   0.544   3.386   6.685 -0.1816  1.2627  0.1676
 1439SOL    HW215951   0.404   3.381   6.634  2.3308  2.0704 -0.0232
 1440SOL     OW15952   2.369   0.186   7.329 -0.0732 -0.3367  0.1532
 1440SOL    HW115953   2.281   0.216   7.355 -0.7277 -0.6475 -1.7331
 1440SOL    HW215954   2.425   0.259   7.356 -0.9847 -0.5950  2.8553
 1441SOL     OW15955   3.004   0.389   2.589 -0.0597  0.4448  0.6666
 1441SOL    HW115956   3.010   0.376   2.684  1.0944 -1.5105  0.3205
 1441SOL    HW215957   2.991   0.482   2.570 -1.7639 -0.3008 -1.7537
 1442SOL     OW15958   2.296   0.970   5.113  0.1709  0.2193 -0.2820
 1442SOL    HW115959   2.335   1.032   5.175 -4.0968 -1.7745  4.3962
 1442SOL    HW215960   2.208   0.967   5.150 -0.0414 -1.0036 -0.8749
 1443SOL     OW15961   1.042   0.397   5.323 -0.3993  0.2872 -0.2932
 1443SOL    HW115962   1.130   0.420   5.354 -0.5490 -0.5808  0.8045
 1443SOL    HW215963   1.053   0.382   5.229 -1.3431 -0.4585 -0.2823
 1444SOL     OW15964   1.521   3.172   9.620 -0.2145 -0.0274  0.5388
 1444SOL    HW115965   1.601   3.222   9.637 -1.9828  2.7687  0.5817
 1444SOL    HW215966   1.535   3.101   9.683 -2.3715 -0.4072  0.6126
 1445SOL     OW15967   4.365   0.507   6.005  0.3491 -0.0128 -0.3698
 1445SOL    HW115968   4.281   0.521   6.051 -0.2700  0.5507 -1.6793
 1445SOL    HW215969   4.361   0.413   5.988  2.0018  0.2719 -2.2443
 1446SOL     OW15970   1.108   4.414   2.667 -0.1600  0.4599  0.1136
 1446SOL    HW115971   1.199   4.421   2.636 -0.1334 -1.8497 -0.3438
 1446SOL    HW215972   1.135   4.405   2.759 -1.5619  1.3005  0.6026
 1447SOL     OW15973   1.010   0.680   4.784 -0.2869  0.4761  0.3080
 1447SOL    HW115974   0.920   0.698   4.756 -0.5772 -1.9274 -0.2858
 1447SOL    HW215975   1.052   0.719   4.708 -4.3260  0.2885 -2.0148
 1448SOL     OW15976   2.291   2.624   1.308 -0.4280  0.3105 -0.4082
 1448SOL    HW115977   2.305   2.654   1.219  0.5888  0.0847 -0.3235
 1448SOL    HW215978   2.212   2.676   1.322  0.5698  1.4446  1.0966
 1449SOL     OW15979   3.254   3.424   2.884 -0.5024  0.3686  0.1669
 1449SOL    HW115980   3.271   3.467   2.800 -2.5181  1.7675  0.4781
 1449SOL    HW215981   3.160   3.435   2.897 -0.4260  1.1280  0.0384
 1450SOL     OW15982   0.881   4.450   9.524  0.0806  0.0083 -0.1691
 1450SOL    HW115983   0.807   4.503   9.496  0.6838  0.5645 -0.7292
 1450SOL    HW215984   0.936   4.430   9.447 -0.0699 -0.2694 -0.2038
 1451SOL     OW15985   3.497   4.632   7.161  0.6310  0.7058  0.1620
 1451SOL    HW115986   3.470   4.681   7.238  0.3512  0.4215  0.2434
 1451SOL    HW215987   3.543   4.701   7.113  1.7319  0.1007  0.3373
 1452SOL     OW15988   2.492   3.256   8.598  0.3360  0.1615  0.6283
 1452SOL    HW115989   2.521   3.168   8.620 -0.4844 -0.4212 -0.6607
 1452SOL    HW215990   2.417   3.249   8.656 -0.2211  0.4276 -0.0576
 1453SOL     OW15991   2.046   3.718   7.677 -0.1482 -0.0462 -0.9120
 1453SOL    HW115992   2.087   3.633   7.657 -0.5467 -0.5772  0.5091
 1453SOL    HW215993   2.116   3.744   7.737  0.2288  1.0840 -1.8616
 1454SOL     OW15994   2.756   2.965   5.159 -0.0306  0.5582  0.1055
 1454SOL    HW115995   2.846   2.959   5.125 -0.9843 -1.8682 -2.0041
 1454SOL    HW215996   2.773   2.976   5.253  1.8969  0.8757 -0.2769
 1455SOL     OW15997   2.477   3.391   3.758  0.2782  0.0598  0.3747
 1455SOL    HW115998   2.492   3.474   3.714  0.6229 -1.0247 -1.5539
 1455SOL    HW215999   2.397   3.415   3.805 -0.4061  1.7585 -1.6495
 1456SOL     OW16000   0.624   3.728   5.491 -0.0034  0.8577  0.3152
 1456SOL    HW116001   0.674   3.657   5.452 -0.1367 -0.0304  1.7302
 1456SOL    HW216002   0.589   3.778   5.417 -0.3762 -0.3558 -0.3220
 1457SOL     OW16003   1.799   0.285   2.079  0.2035 -0.0351 -0.0175
 1457SOL    HW116004   1.804   0.217   2.011  2.0077  1.8398 -1.7377
 1457SOL    HW216005   1.717   0.263   2.123  1.2688  2.0468  2.9927
 1458SOL     OW16006   0.018   4.410   8.689  0.4626  0.0825  0.1255
 1458SOL    HW116007   0.079   4.484   8.686  0.6967 -0.0532  1.3125
 1458SOL    HW216008   0.062   4.359   8.621  0.0529  1.0841 -0.8804
 1459SOL     OW16009   2.815   0.907  15.987 -0.1648 -0.4627 -0.2617
 1459SOL    HW116010   2.834   0.848  15.915  0.2736 -0.2390 -0.3268
 1459SOL    HW216011   2.866   0.978  15.949 -0.1637 -0.5837 -0.4830
 1460SOL     OW16012   0.604   1.354  16.126  0.0645  0.6905 -0.4820
 1460SOL    HW116013   0.613   1.259  16.114 -0.9783  0.6629 -0.9916
 1460SOL    HW216014   0.517   1.357  16.164  0.5857 -0.4010  0.8185
 1461SOL     OW16015   2.287   3.967   0.554  0.1108 -0.0178  0.2640
 1461SOL    HW116016   2.209   4.000   0.597 -0.2012 -0.5401  0.1012
 1461SOL    HW216017   2.317   4.050   0.516 -1.5286  0.9789  1.1312
 1462SOL     OW16018   1.490   0.620   7.656 -0.1518  0.1749 -0.5594
 1462SOL    HW116019   1.548   0.564   7.605  1.3528  0.9282  0.3316
 1462SOL    HW216020   1.406   0.575   7.647 -1.1656  2.0536 -0.3975
 1463SOL     OW16021   2.671   3.224   4.062  0.3318  0.1150  0.0555
 1463SOL    HW116022   2.601   3.193   4.005  2.2605 -1.5872 -1.3887
 1463SOL    HW216023   2.743   3.248   4.005  0.5271  2.6161  1.3587
 1464SOL     OW16024   1.108   3.048   4.570  0.1778 -0.7172  0.4726
 1464SOL    HW116025   1.176   3.113   4.556 -1.3937  0.8635  0.1167
 1464SOL    HW216026   1.034   3.108   4.561 -0.5408 -1.1457  3.5770
 1465SOL     OW16027   2.448   3.655   3.310 -0.6736  0.4026 -0.0361
 1465SOL    HW116028   2.437   3.593   3.237  3.7422  0.1045 -0.4595
 1465SOL    HW216029   2.378   3.632   3.371 -0.3519 -0.8786 -0.1456
 1466SOL     OW16030   4.095   1.351   4.907 -1.0201 -0.1360  0.2424
 1466SOL    HW116031   4.014   1.379   4.865 -0.3769  1.1687 -0.1232
 1466SOL    HW216032   4.117   1.267   4.867 -2.4938 -0.4158  0.0137
 1467SOL     OW16033   0.047   2.089   8.008  0.0999 -0.1447  0.1307
 1467SOL    HW116034   0.141   2.101   8.018  0.0805 -0.4453  0.6868
 1467SOL    HW216035   0.034   2.132   7.923  3.0213  1.6743  0.5995
 1468SOL     OW16036   3.812   1.196   9.123  0.1459  0.0486 -0.1678
 1468SOL    HW116037   3.748   1.143   9.169 -0.3516  0.0943 -0.7962
 1468SOL    HW216038   3.879   1.131   9.102 -0.9465 -1.4030  0.8744
 1469SOL     OW16039   0.892   0.305   9.036  0.0002 -0.4099 -0.6394
 1469SOL    HW116040   0.858   0.228   8.991  0.7529 -1.4194  0.5140
 1469SOL    HW216041   0.878   0.367   8.965  0.4442 -0.1570 -0.5052
 1470SOL     OW16042   4.625   2.243   2.781  0.1406  0.1074 -0.3753
 1470SOL    HW116043   4.650   2.150   2.779 -1.1952 -0.2993  1.1770
 1470SOL    HW216044   4.574   2.243   2.862  0.0276  4.3299 -0.4718
 1471SOL     OW16045   2.603   0.014  14.210 -0.0850 -0.3359  0.1278
 1471SOL    HW116046   2.516   4.712  14.214 -0.1178 -0.1634  1.0737
 1471SOL    HW216047   2.602   0.066  14.290 -0.3245 -2.9262  1.8331
 1472SOL     OW16048   2.435   0.811   0.008  0.0435 -0.8374 -0.0550
 1472SOL    HW116049   2.435   0.906   0.018 -0.5137 -0.5758 -2.5675
 1472SOL    HW216050   2.510   0.806  17.702  0.4790 -1.5544  0.5555
 1473SOL     OW16051   4.390   4.350   7.284 -0.6243  0.4360 -0.4010
 1473SOL    HW116052   4.416   4.283   7.347 -1.1127  1.7297  1.1858
 1473SOL    HW216053   4.410   4.432   7.329 -0.5337  1.1440 -1.7223
 1474SOL     OW16054   3.232   3.178   7.032  0.0215 -0.3257  0.2125
 1474SOL    HW116055   3.261   3.159   7.121  0.0530 -0.0463  0.2617
 1474SOL    HW216056   3.176   3.103   7.010 -0.2815 -0.0184 -0.0626
 1475SOL     OW16057   4.493   2.339   8.397 -0.2411  0.1158  0.8068
 1475SOL    HW116058   4.559   2.293   8.344  0.3434  3.2956 -1.2326
 1475SOL    HW216059   4.527   2.427   8.411 -0.7492  0.6340 -1.1936
 1476SOL     OW16060   3.230   0.083   4.294  0.0442 -0.4640 -0.0557
 1476SOL    HW116061   3.259   4.731   4.279 -0.3895 -0.5423 -0.4317
 1476SOL    HW216062   3.135   0.085   4.281  0.1650 -0.8690 -1.0428
 1477SOL     OW16063   3.660   1.047  10.260 -0.6912  0.3737  0.2005
 1477SOL    HW116064   3.604   1.006  10.194 -0.3951  1.7878 -0.9244
 1477SOL    HW216065   3.605   1.120  10.289 -1.6585  0.9313 -3.1004
 1478SOL     OW16066   2.539   1.148   8.947  0.3014 -0.4734  0.1480
 1478SOL    HW116067   2.471   1.196   8.901  0.5429  0.0695  0.3584
 1478SOL    HW216068   2.507   1.147   9.037 -1.8705 -2.5351 -0.6321
 1479SOL     OW16069   1.566   3.267   5.819 -0.0023  0.0472 -0.1058
 1479SOL    HW116070   1.477   3.298   5.834  0.5514  1.1961  0.7948
 1479SOL    HW216071   1.619   3.306   5.889 -2.3271  2.0719  0.5005
 1480SOL     OW16072   2.541   0.931  12.700 -0.6491 -0.2282  0.2545
 1480SOL    HW116073   2.517   0.883  12.779  0.4134 -0.0669  0.6741
 1480SOL    HW216074   2.635   0.923  12.688 -0.4012  3.3700 -0.1626
 1481SOL     OW16075   2.714   2.639   0.151 -0.1426 -0.1729  0.2841
 1481SOL    HW116076   2.636   2.623   0.098 -0.2051  1.1131 -0.0173
 1481SOL    HW216077   2.672   2.671   0.231 -0.0480 -1.2291  0.7631
 1482SOL     OW16078   0.213   4.571  13.889  0.0694 -0.1965  0.0711
 1482SOL    HW116079   0.244   4.590  13.978 -0.6321  0.2641  0.2207
 1482SOL    HW216080   0.144   4.637  13.880 -0.5843 -1.0822 -1.3890
 1483SOL     OW16081   0.710   3.999   1.645 -0.8273 -0.1873  0.0646
 1483SOL    HW116082   0.697   4.014   1.738 -0.6332 -0.9787  0.2228
 1483SOL    HW216083   0.750   4.081   1.616 -0.0913 -0.7773 -0.5815
 1484SOL     OW16084   1.733   2.033   0.518 -0.1611  0.3695  0.0915
 1484SOL    HW116085   1.757   2.002   0.606 -0.6865  2.7214  1.0654
 1484SOL    HW216086   1.800   1.994   0.462  1.0289 -0.8832  2.3623
 1485SOL     OW16087   3.274   1.867   3.735 -0.2356  0.1524 -0.2189
 1485SOL    HW116088   3.368   1.862   3.716 -0.1759  0.6961 -0.0587
 1485SOL    HW216089   3.254   1.776   3.712 -0.4719  0.2080 -0.2338
 1486SOL     OW16090   2.790   2.368   0.557  0.3952  0.2082 -0.5802
 1486SOL    HW116091   2.850   2.316   0.504 -1.2121 -1.2940 -0.9243
 1486SOL    HW216092   2.843   2.442   0.587  1.5444 -1.6410  1.9078
 1487SOL     OW16093   1.307   3.478   0.439 -0.1486  0.2109  0.3107
 1487SOL    HW116094   1.339   3.567   0.427  1.0467  0.1195  2.7323
 1487SOL    HW216095   1.255   3.487   0.519 -1.5082 -1.2704 -0.4148
 1488SOL     OW16096   1.069   0.408   4.359  0.1453 -0.3242 -0.2130
 1488SOL    HW116097   0.985   0.377   4.393 -0.1569  0.5968 -0.1200
 1488SOL    HW216098   1.068   0.372   4.270  1.4624 -4.0881  1.2965
 1489SOL     OW16099   1.385   4.568   2.807  0.3183 -0.2461  0.1771
 1489SOL    HW116100   1.349   4.519   2.733  3.5069  0.1691 -1.6460
 1489SOL    HW216101   1.388   4.657   2.773 -0.2891 -0.1783  0.2957
 1490SOL     OW16102   2.278   0.983  15.562 -0.2490  0.4404  0.1255
 1490SOL    HW116103   2.312   0.983  15.472 -0.9511 -0.3388 -0.1397
 1490SOL    HW216104   2.185   0.995  15.548 -0.6812 -0.8415  1.9197
 1491SOL     OW16105   3.918   1.695   9.008  0.2380 -0.0496  0.3180
 1491SOL    HW116106   3.885   1.762   9.068  0.7055 -1.3752  2.0283
 1491SOL    HW216107   4.000   1.743   8.998 -0.6733  1.4203 -0.0663
 1492SOL     OW16108   0.898   2.897   4.779 -0.2801  0.0379  0.2889
 1492SOL    HW116109   0.917   2.971   4.836 -0.3661  0.7200 -0.5701
 1492SOL    HW216110   0.974   2.843   4.803  0.2902  0.5658 -0.3080
 1493SOL     OW16111   0.910   3.215   1.802 -0.2680  0.0454  0.2075
 1493SOL    HW116112   0.845   3.246   1.865 -1.2674 -0.7305 -0.4509
 1493SOL    HW216113   0.868   3.169   1.729  1.5193  0.4998 -1.1025
 1494SOL     OW16114   2.142   1.373  13.512 -0.0139  0.6624  0.5515
 1494SOL    HW116115   2.185   1.290  13.532  2.6954  1.2854 -2.7620
 1494SOL    HW216116   2.057   1.339  13.485  1.2324 -0.2972 -2.1114
 1495SOL     OW16117   4.273   3.153   6.982  0.2418 -0.0226 -0.1051
 1495SOL    HW116118   4.261   3.120   7.071 -0.2596  0.3822 -0.0207
 1495SOL    HW216119   4.316   3.079   6.939 -1.3812 -1.1853  0.2727
 1496SOL     OW16120   4.598   4.364   4.606 -0.2164 -0.3389  0.1016
 1496SOL    HW116121   4.692   4.347   4.605 -0.2243 -0.3761 -0.0685
 1496SOL    HW216122   4.555   4.280   4.587  0.2085 -0.3770 -0.7205
 1497SOL     OW16123   1.861   3.122   4.229 -0.1265 -0.4832  0.1049
 1497SOL    HW116124   1.898   3.060   4.166  2.1392 -0.0868  1.0586
 1497SOL    HW216125   1.836   3.197   4.175 -3.4427 -1.2593  0.5539
 1498SOL     OW16126   2.594   2.571   2.495  0.2524 -0.5927 -0.1211
 1498SOL    HW116127   2.571   2.490   2.450 -1.8190  0.0623 -0.2711
 1498SOL    HW216128   2.675   2.538   2.533  0.0805 -1.2496 -0.3265
 1499SOL     OW16129   2.212   3.428  10.361  0.6365  0.4420  0.0227
 1499SOL    HW116130   2.249   3.351  10.405  0.0930  0.2225  0.0926
 1499SOL    HW216131   2.268   3.497  10.397 -0.9895  1.4640  0.5927
 1500SOL     OW16132   2.736   1.943   4.917 -0.0926 -0.6199 -0.1386
 1500SOL    HW116133   2.653   1.914   4.880 -0.0230 -0.7505 -0.1914
 1500SOL    HW216134   2.742   1.885   4.992  1.2604 -2.0497 -1.3632
 1501SOL     OW16135   1.717   4.345   4.979 -0.0874  0.5558  0.1260
 1501SOL    HW116136   1.633   4.326   5.022 -0.1327 -2.6351 -1.3847
 1501SOL    HW216137   1.767   4.343   5.061 -0.8368 -1.5598  0.5498
 1502SOL     OW16138   3.096   4.490  14.710 -0.0484 -0.7113  0.3043
 1502SOL    HW116139   3.057   4.574  14.685  1.4662 -0.0296  0.2531
 1502SOL    HW216140   3.039   4.469  14.784 -1.3272 -0.5210 -0.6256
 1503SOL     OW16141   0.441   3.582   1.027 -0.2310 -0.4537  0.2542
 1503SOL    HW116142   0.354   3.546   1.006 -0.4368 -0.3558  0.9381
 1503SOL    HW216143   0.408   3.643   1.093 -1.7566  1.1925 -2.0165
 1504SOL     OW16144   3.098   1.992   6.607  0.1867 -0.1643  0.0322
 1504SOL    HW116145   3.132   1.911   6.569 -0.6066  0.5297 -2.1609
 1504SOL    HW216146   3.006   1.968   6.622  0.0038 -0.2501 -1.2613
 1505SOL     OW16147   3.164   1.125   3.301 -0.4810  0.4472 -0.1363
 1505SOL    HW116148   3.160   1.108   3.395 -0.5032 -3.3827 -0.7988
 1505SOL    HW216149   3.234   1.190   3.294 -0.8997  0.9772  0.6823
 1506SOL     OW16150   2.213   1.318   3.615  0.1533  0.0924  0.1400
 1506SOL    HW116151   2.261   1.400   3.624  0.1399 -0.1547  2.4070
 1506SOL    HW216152   2.128   1.346   3.580 -0.9207 -1.6400  1.3430
 1507SOL     OW16153   0.866   0.249   5.522 -0.6772 -0.0135 -0.0154
 1507SOL    HW116154   0.885   0.303   5.599  0.9247 -1.8720  0.8987
 1507SOL    HW216155   0.929   0.284   5.458  0.8859 -2.5815  0.1278
 1508SOL     OW16156   1.951   2.956   7.269 -0.5361  0.2460  0.2785
 1508SOL    HW116157   2.011   2.946   7.195 -1.3934  0.0963 -0.3924
 1508SOL    HW216158   1.868   2.954   7.221 -1.2432  0.7395  1.4872
 1509SOL     OW16159   2.438   0.351   1.988  0.1282  0.5224 -0.1121
 1509SOL    HW116160   2.496   0.412   2.034  0.7359  1.0822 -1.6255
 1509SOL    HW216161   2.435   0.380   1.897 -0.7222  2.1798  0.4471
 1510SOL     OW16162   0.706   2.284   8.926 -0.5605  0.5951 -0.4112
 1510SOL    HW116163   0.667   2.310   8.843 -1.1134 -2.3244 -1.0600
 1510SOL    HW216164   0.676   2.364   8.968  0.0742 -0.0962  1.3721
 1511SOL     OW16165   3.623   3.163  10.729  0.0310  0.3177 -0.2665
 1511SOL    HW116166   3.648   3.148  10.820 -0.0939 -0.9627 -0.4384
 1511SOL    HW216167   3.699   3.123  10.686  0.0060 -0.6820  0.6132
 1512SOL     OW16168   0.689   2.676   9.771 -0.2669  0.1003 -0.2591
 1512SOL    HW116169   0.603   2.635   9.783  0.0605 -0.8351 -1.1482
 1512SOL    HW216170   0.675   2.701   9.680 -1.9418  0.2808  0.0474
 1513SOL     OW16171   0.097   1.847   6.082 -0.4173  1.0841  0.5752
 1513SOL    HW116172   0.029   1.827   6.147 -0.0160 -1.5399  0.1917
 1513SOL    HW216173   0.152   1.770   6.097 -1.5002 -0.1556 -1.8616
 1514SOL     OW16174   4.635   1.926   8.633 -0.4688 -1.2992 -0.3317
 1514SOL    HW116175   4.571   1.981   8.678  0.0099 -1.6081  0.7348
 1514SOL    HW216176   4.713   1.982   8.629 -1.5463  0.2278  0.0673
 1515SOL     OW16177   3.692   0.953  15.737  0.3174  0.1889  0.0424
 1515SOL    HW116178   3.776   0.924  15.774  1.1563  2.0761 -0.3657
 1515SOL    HW216179   3.629   0.908  15.792  0.7387  2.5851  2.4618
 1516SOL     OW16180   0.871   1.205   6.695  0.0052  0.1218 -0.1795
 1516SOL    HW116181   0.927   1.165   6.628 -0.5957 -0.1345 -0.5268
 1516SOL    HW216182   0.907   1.162   6.773  0.6124  0.3446 -0.3411
 1517SOL     OW16183   3.241   2.478   9.044  0.3784  0.0400  0.4668
 1517SOL    HW116184   3.212   2.500   8.955 -0.2761  0.6462  0.8299
 1517SOL    HW216185   3.164   2.495   9.098 -1.3986 -1.8551 -1.4636
 1518SOL     OW16186   4.623   3.942  13.054  0.5306 -0.0519 -0.2552
 1518SOL    HW116187   4.682   3.866  13.057  1.7513  0.8641 -1.1150
 1518SOL    HW216188   4.538   3.912  13.022 -0.1212  1.2806  0.2236
 1519SOL     OW16189   1.789   2.115   2.154 -0.1633  0.4185  0.0608
 1519SOL    HW116190   1.719   2.181   2.153  1.5337  2.2322  0.0061
 1519SOL    HW216191   1.744   2.043   2.199 -1.7557  0.9846 -0.6281
 1520SOL     OW16192   0.470   0.235   1.778  0.1749 -0.3301 -0.5216
 1520SOL    HW116193   0.549   0.243   1.831  0.0002  0.2779 -0.3559
 1520SOL    HW216194   0.428   0.158   1.819  0.4351  0.9972  2.2181
 1521SOL     OW16195   0.583   4.738   3.177 -0.0006  0.1808  0.4023
 1521SOL    HW116196   0.545   0.044   3.253 -0.1010  1.9837 -0.7206
 1521SOL    HW216197   0.656   0.059   3.165 -0.3344 -0.0683 -2.9647
 1522SOL     OW16198   3.989   2.428   7.100 -0.0917  0.6456 -0.4903
 1522SOL    HW116199   3.939   2.411   7.179 -3.3212 -0.3668 -2.7767
 1522SOL    HW216200   4.031   2.512   7.123  1.2118 -0.5286  1.4233
 1523SOL     OW16201   2.651   2.395  14.675  0.0292  0.2363 -0.0910
 1523SOL    HW116202   2.716   2.425  14.738  1.7935 -1.7135 -0.9727
 1523SOL    HW216203   2.687   2.312  14.643  0.0859 -0.3969  1.6236
 1524SOL     OW16204   3.802   3.445   1.921  0.0794 -0.0226  0.7220
 1524SOL    HW116205   3.811   3.527   1.970  0.2102  0.8421 -0.7629
 1524SOL    HW216206   3.773   3.394   1.997  0.5706  0.5718  1.3067
 1525SOL     OW16207   4.501   0.008   0.753 -0.6701  0.1324 -0.2968
 1525SOL    HW116208   4.475   0.092   0.792  0.9058  1.0179 -1.1350
 1525SOL    HW216209   4.420   0.001   0.703  0.1924 -0.4809 -1.6141
 1526SOL     OW16210   2.869   0.558   8.811  0.1473  0.8056  0.4774
 1526SOL    HW116211   2.865   0.575   8.717  0.1530 -1.5905  0.0371
 1526SOL    HW216212   2.870   0.462   8.803  1.0563  0.9922 -1.5335
 1527SOL     OW16213   2.166   2.325   1.228  0.1305 -0.2462 -0.0077
 1527SOL    HW116214   2.219   2.403   1.210  1.2718 -0.9367  0.3246
 1527SOL    HW216215   2.200   2.309   1.316 -3.1115  0.7987  1.4115
 1528SOL     OW16216   1.032   1.846  12.938 -0.1145 -0.4400 -0.4382
 1528SOL    HW116217   0.997   1.844  12.849  1.1124  3.6548 -1.0430
 1528SOL    HW216218   0.981   1.921  12.971  0.3043 -0.0004 -0.7829
 1529SOL     OW16219   0.008   4.509   1.164 -0.4074 -0.4323 -0.2115
 1529SOL    HW116220   0.006   4.601   1.138 -0.6327 -0.0799  1.0337
 1529SOL    HW216221   0.025   4.518   1.258  0.1019 -1.1227 -0.2404
 1530SOL     OW16222   2.956   3.357   3.518 -0.7203 -0.2189  0.2704
 1530SOL    HW116223   2.911   3.441   3.532 -0.1712  0.0497  0.4104
 1530SOL    HW216224   3.038   3.376   3.562 -0.8081 -0.4368  0.5307
 1531SOL     OW16225   1.788   0.159   8.734 -0.4114 -0.0159 -0.1610
 1531SOL    HW116226   1.756   0.095   8.798 -0.0288 -0.0901 -0.0451
 1531SOL    HW216227   1.883   0.153   8.745 -0.0130  3.4016 -1.8547
 1532SOL     OW16228   2.463   0.663   2.224  0.0592  0.5455 -0.1679
 1532SOL    HW116229   2.472   0.699   2.312 -1.3567  1.2259 -0.2931
 1532SOL    HW216230   2.376   0.694   2.200  0.2462  0.2777 -1.2023
 1533SOL     OW16231   0.906   1.373   6.444 -0.1277 -0.3454 -0.1803
 1533SOL    HW116232   0.953   1.304   6.491 -0.7080  0.7903  2.0354
 1533SOL    HW216233   0.834   1.328   6.401 -0.6154 -1.0172  1.3527
 1534SOL     OW16234   1.194   0.198   8.525  0.2322 -0.0803  0.3750
 1534SOL    HW116235   1.241   0.257   8.467  1.3385  0.5453  1.8967
 1534SOL    HW216236   1.266   0.152   8.569 -0.5600 -1.1620  0.5427
 1535SOL     OW16237   2.948   1.221   9.596  0.7047 -0.2216 -0.2698
 1535SOL    HW116238   2.915   1.232   9.507 -0.1900  1.1600  0.2280
 1535SOL    HW216239   2.919   1.303   9.635  2.8372  0.1283  0.5999
 1536SOL     OW16240   0.289   3.547   2.159  0.1681 -0.3144  1.1902
 1536SOL    HW116241   0.267   3.576   2.248  0.8947 -0.1526  1.3217
 1536SOL    HW216242   0.238   3.466   2.158 -0.3643  0.0240  0.8805
 1537SOL     OW16243   1.743   3.339  17.087 -0.4191 -0.2123  0.4423
 1537SOL    HW116244   1.784   3.414  17.043  1.6997 -0.2416  2.3883
 1537SOL    HW216245   1.819   3.313  17.139  0.5450  1.1558 -0.2806
 1538SOL     OW16246   1.295   0.255   6.929  0.0652 -0.0415  0.6247
 1538SOL    HW116247   1.320   0.193   6.860  2.1810 -0.2509  1.5623
 1538SOL    HW216248   1.317   0.335   6.882 -0.7881 -0.0972  0.1316
 1539SOL     OW16249   0.436   3.727  13.598 -0.0920 -0.5575 -0.0633
 1539SOL    HW116250   0.381   3.724  13.519 -0.4671 -1.9965  0.2546
 1539SOL    HW216251   0.496   3.800  13.581  0.9337 -1.6100 -0.9863
 1540SOL     OW16252   0.131   1.095  15.310 -0.1146 -0.5617  0.0172
 1540SOL    HW116253   0.149   1.020  15.252 -0.0633 -2.2928  2.2697
 1540SOL    HW216254   0.149   1.170  15.254 -3.0831  0.4554  0.4459
 1541SOL     OW16255   2.790   1.483   6.430 -0.0348 -0.7079  0.1396
 1541SOL    HW116256   2.882   1.456   6.438  0.0789 -0.9593 -1.9731
 1541SOL    HW216257   2.747   1.452   6.509 -2.3277  0.3192 -0.7004
 1542SOL     OW16258   2.560   0.775   2.452  0.4395 -0.5554 -0.2271
 1542SOL    HW116259   2.475   0.802   2.487  0.8802  0.0801  0.3440
 1542SOL    HW216260   2.609   0.746   2.528  0.2622 -0.0653  0.0780
 1543SOL     OW16261   1.728   3.943   1.851 -0.1598  0.2450  0.6456
 1543SOL    HW116262   1.816   3.923   1.819  0.6850  1.4326  2.1958
 1543SOL    HW216263   1.751   3.979   1.937  0.9165  1.9719 -0.3660
 1544SOL     OW16264   2.491   0.992   2.229  0.2788 -0.3462  0.0545
 1544SOL    HW116265   2.524   0.919   2.281  0.2515 -2.3578 -2.7773
 1544SOL    HW216266   2.429   1.030   2.291  0.5777  1.6268 -0.8548
 1545SOL     OW16267   4.276   4.348   3.825 -0.8645  0.3677 -0.5516
 1545SOL    HW116268   4.338   4.294   3.776  0.8555  3.2064 -1.4825
 1545SOL    HW216269   4.295   4.325   3.916 -1.7414 -0.3801 -0.5491
 1546SOL     OW16270   1.578   2.667   2.753  0.3964 -0.5128 -0.6819
 1546SOL    HW116271   1.561   2.572   2.753 -4.3007  0.3395 -2.8601
 1546SOL    HW216272   1.592   2.689   2.845 -0.1979  2.4140 -1.3028
 1547SOL     OW16273   3.836   0.723   5.060  0.4476  0.0036 -0.2284
 1547SOL    HW116274   3.819   0.635   5.026  2.9043 -0.0233 -1.3788
 1547SOL    HW216275   3.751   0.735   5.103  1.5922  0.7127  1.8359
 1548SOL     OW16276   2.506   0.700   4.334 -0.1515 -0.1337  0.5751
 1548SOL    HW116277   2.466   0.645   4.266  0.5512  1.3631 -1.0688
 1548SOL    HW216278   2.449   0.777   4.323  2.1906  1.2306 -2.0278
 1549SOL     OW16279   3.909   2.553   2.450 -0.0410  0.1709  0.1255
 1549SOL    HW116280   3.899   2.628   2.509  2.0725  0.5162  0.0393
 1549SOL    HW216281   3.868   2.590   2.371 -0.8860 -2.1493 -0.5063
 1550SOL     OW16282   3.441   1.728   3.058  0.3671 -0.1112  0.1593
 1550SOL    HW116283   3.347   1.732   3.041  0.1548  1.9696  1.8143
 1550SOL    HW216284   3.460   1.635   3.045  0.8624  0.1650 -1.1431
 1551SOL     OW16285   2.481   0.159  17.356 -0.8270  0.0826  0.3422
 1551SOL    HW116286   2.524   0.081  17.318  1.3227  0.4461  2.0391
 1551SOL    HW216287   2.417   0.112  17.410 -0.1949  0.1367  1.1333
 1552SOL     OW16288   0.416   0.353  13.551 -0.1254 -0.3466  0.1498
 1552SOL    HW116289   0.345   0.404  13.513 -0.2093 -0.2431  0.4463
 1552SOL    HW216290   0.357   0.286  13.585 -1.5763  1.0569  0.3663
 1553SOL     OW16291   2.628   2.549   1.590 -1.0821 -0.4004  0.6175
 1553SOL    HW116292   2.712   2.506   1.604 -1.0319 -0.4504  0.1788
 1553SOL    HW216293   2.573   2.513   1.660 -0.5723 -0.9214  0.7512
 1554SOL     OW16294   4.012   0.115   6.500  0.0969  0.0354 -0.2324
 1554SOL    HW116295   4.082   0.114   6.435 -0.2742 -1.6845 -0.6305
 1554SOL    HW216296   3.976   0.029   6.479  1.2294  0.1625 -2.6741
 1555SOL     OW16297   1.002   2.099   0.393  0.1447 -0.1175 -0.3448
 1555SOL    HW116298   1.043   2.129   0.312  1.7479 -1.5566 -0.0772
 1555SOL    HW216299   1.023   2.006   0.397  1.6695  0.3264  2.2056
 1556SOL     OW16300   4.515   3.746   7.012 -0.6014 -0.3775  0.0149
 1556SOL    HW116301   4.603   3.717   6.988 -0.1953  0.8083  0.0650
 1556SOL    HW216302   4.500   3.704   7.097  0.4648 -1.1992 -0.1957
 1557SOL     OW16303   3.180   2.456  15.115  0.5408  0.6430 -0.5891
 1557SOL    HW116304   3.191   2.370  15.155 -0.2422  0.0634 -1.6074
 1557SOL    HW216305   3.224   2.510  15.180 -2.2889  1.1315  0.8993
 1558SOL     OW16306   2.046   4.132   7.638  0.3322  0.3418  0.3108
 1558SOL    HW116307   2.091   4.212   7.665  1.1125  0.5426 -1.5699
 1558SOL    HW216308   2.053   4.076   7.716  2.4229 -0.2899 -0.3116
 1559SOL     OW16309   4.693   2.994   8.352 -0.2375  0.2262 -0.1215
 1559SOL    HW116310   0.000   2.967   8.431  1.2656 -1.8002 -1.6921
 1559SOL    HW216311   0.015   2.959   8.287 -1.9749  0.6237 -1.9569
 1560SOL     OW16312   1.665   2.422   5.795  0.2910  0.3341  0.0946
 1560SOL    HW116313   1.678   2.426   5.890  0.2060  1.2943  0.0613
 1560SOL    HW216314   1.745   2.377   5.767  1.3134  1.3128  1.4315
 1561SOL     OW16315   0.949   1.615  13.186  0.4055 -0.0536 -0.4145
 1561SOL    HW116316   0.860   1.649  13.198  0.4076 -0.2443  0.1343
 1561SOL    HW216317   0.989   1.681  13.243 -0.1273  0.2062 -0.3417
 1562SOL     OW16318   1.410   1.434  14.543  0.3298 -0.6035 -0.2576
 1562SOL    HW116319   1.446   1.416  14.630 -1.2399 -1.9864  0.1108
 1562SOL    HW216320   1.390   1.349  14.502  1.9266 -1.0565 -0.0967
 1563SOL     OW16321   1.445   2.557   7.440 -0.0245 -0.0703  0.1134
 1563SOL    HW116322   1.527   2.589   7.476  1.0446  0.6359 -2.9017
 1563SOL    HW216323   1.386   2.631   7.458  0.4425  0.2953  0.1272
 1564SOL     OW16324   1.131   1.802  12.371 -0.4069 -0.5277  0.2804
 1564SOL    HW116325   1.197   1.774  12.436 -2.0055 -2.0149  1.2527
 1564SOL    HW216326   1.188   1.801  12.294 -1.5587 -0.0086 -0.5657
 1565SOL     OW16327   3.307   2.958   2.920 -0.3161  0.5987  0.7704
 1565SOL    HW116328   3.350   3.000   2.994  1.7434  0.6265 -0.4267
 1565SOL    HW216329   3.314   3.043   2.875 -1.3022  0.7498  0.8985
 1566SOL     OW16330   0.800   4.618   9.211 -0.6941  0.9140  0.5332
 1566SOL    HW116331   0.708   4.625   9.236 -0.7091  0.4971  0.5984
 1566SOL    HW216332   0.825   4.695   9.263 -1.2748 -0.3227  2.6579
 1567SOL     OW16333   3.324   2.994   4.665 -0.7878  0.0372  0.0975
 1567SOL    HW116334   3.338   3.088   4.658 -0.6569 -0.0377 -0.6505
 1567SOL    HW216335   3.319   2.979   4.760  1.6125  2.4794  0.5984
 1568SOL     OW16336   3.082   0.608  10.062  0.4072 -0.2481  0.1776
 1568SOL    HW116337   2.993   0.616  10.028  0.9718  0.5093 -1.0853
 1568SOL    HW216338   3.063   0.658  10.142  1.6401  0.4135  0.0523
 1569SOL     OW16339   3.411   3.898   6.301 -0.1361  0.4222 -0.3329
 1569SOL    HW116340   3.328   3.852   6.314 -0.3971  0.7267 -0.9185
 1569SOL    HW216341   3.406   3.960   6.374 -0.8588 -2.2094  1.8495
 1570SOL     OW16342   1.047   4.706   8.665  0.3888  0.1001  0.0920
 1570SOL    HW116343   1.138   4.734   8.652  1.1035 -2.4328 -0.3228
 1570SOL    HW216344   1.020   4.696   8.573  1.5442  0.3446 -0.2782
 1571SOL     OW16345   4.180   2.784   2.635 -0.5245  0.1506  0.6001
 1571SOL    HW116346   4.139   2.789   2.549  1.5127  0.7763 -0.3165
 1571SOL    HW216347   4.271   2.769   2.610 -0.4731  2.3623 -0.4704
 1572SOL     OW16348   1.690   3.220  10.032 -1.2127 -0.3902 -0.0814
 1572SOL    HW116349   1.773   3.191  10.071  0.1580  3.1834 -0.3918
 1572SOL    HW216350   1.622   3.170  10.078 -1.4577  1.2840  1.3766
 1573SOL     OW16351   3.699   4.048   5.098  0.1914 -0.2159 -0.2725
 1573SOL    HW116352   3.732   4.137   5.083  2.1987 -0.9457 -0.1162
 1573SOL    HW216353   3.664   4.023   5.012 -1.3058  0.9252 -0.0021
 1574SOL     OW16354   1.185   2.607   8.226 -0.2364  0.2810  0.6195
 1574SOL    HW116355   1.142   2.523   8.245 -2.4484  0.9083 -1.5439
 1574SOL    HW216356   1.269   2.575   8.193 -0.5939 -0.6383  0.6067
 1575SOL     OW16357   2.486   4.479   2.688  0.1502 -0.3193  0.0844
 1575SOL    HW116358   2.459   4.414   2.623 -1.1891  2.1981 -1.8792
 1575SOL    HW216359   2.460   4.440   2.771 -0.6966  1.7892  0.8087
 1576SOL     OW16360   0.311   3.599   6.972 -0.1658  0.2881 -0.7662
 1576SOL    HW116361   0.365   3.644   6.907 -1.4550  0.0501 -2.0127
 1576SOL    HW216362   0.367   3.522   6.983 -1.1769 -0.2370  0.6649
 1577SOL     OW16363   0.579   3.099   8.704  0.2812  0.4648  0.2897
 1577SOL    HW116364   0.639   3.042   8.657  0.2912 -0.1267  1.0202
 1577SOL    HW216365   0.617   3.076   8.790  0.8886 -0.0574 -0.1160
 1578SOL     OW16366   3.619   0.256   4.971  0.2229  0.1563  0.3632
 1578SOL    HW116367   3.687   0.252   5.039  1.1614  3.5087 -0.3717
 1578SOL    HW216368   3.637   0.342   4.933 -1.6242  0.2828 -0.2017
 1579SOL     OW16369   3.485   0.862   4.053  0.6952 -0.0138 -0.5570
 1579SOL    HW116370   3.560   0.914   4.022  1.7060 -0.7401  0.6747
 1579SOL    HW216371   3.511   0.820   4.134 -0.0765 -1.7342 -1.2106
 1580SOL     OW16372   3.556   4.156   3.509 -0.1163  0.5415 -0.0024
 1580SOL    HW116373   3.484   4.098   3.532 -0.4049  0.3115 -1.4436
 1580SOL    HW216374   3.522   4.238   3.545  0.1925  1.2142 -1.2079
 1581SOL     OW16375   1.553   1.661  14.866 -0.2458  0.5240  0.2482
 1581SOL    HW116376   1.609   1.593  14.829  0.9670  1.3024  0.6428
 1581SOL    HW216377   1.582   1.738  14.817  0.0266 -0.7418 -1.5687
 1582SOL     OW16378   2.848   0.780   5.430  0.4065  0.2536 -0.4301
 1582SOL    HW116379   2.773   0.786   5.371 -0.6292  0.7150  0.9463
 1582SOL    HW216380   2.812   0.746   5.511 -0.4500  3.6809  0.5836
 1583SOL     OW16381   1.702   0.280   7.841 -0.1292 -0.3074 -0.4618
 1583SOL    HW116382   1.762   0.209   7.816 -1.4052 -1.2091 -0.9583
 1583SOL    HW216383   1.743   0.352   7.794  1.1360  0.2942  1.5426
 1584SOL     OW16384   4.016   3.143   1.542 -0.7300  0.4242  0.0790
 1584SOL    HW116385   3.935   3.113   1.500  1.1593 -1.2513 -2.3009
 1584SOL    HW216386   3.983   3.206   1.607 -0.9413 -1.0162  1.3571
 1585SOL     OW16387   3.777   2.983   5.269  0.3270  0.4891 -0.4931
 1585SOL    HW116388   3.743   2.899   5.239  0.1071  1.2496 -2.3824
 1585SOL    HW216389   3.854   3.002   5.215 -1.3084  3.0564 -1.9376
 1586SOL     OW16390   4.669   3.545   7.591 -0.0983 -0.1632 -0.3785
 1586SOL    HW116391   4.615   3.621   7.573  1.1597  1.4190  2.5810
 1586SOL    HW216392   4.629   3.488   7.525 -1.6598  0.4757  0.0235
 1587SOL     OW16393   0.673   4.338  12.697  0.1969  0.2324 -0.2230
 1587SOL    HW116394   0.657   4.392  12.620 -1.0140 -0.4789 -0.4710
 1587SOL    HW216395   0.582   4.315  12.717 -0.2393 -0.0423 -2.5840
 1588SOL     OW16396   4.347   4.358   9.734 -0.4857 -0.3144  0.2535
 1588SOL    HW116397   4.274   4.381   9.676 -0.0794 -0.4994 -0.3294
 1588SOL    HW216398   4.333   4.264   9.751 -0.5689 -0.3255  0.1190
 1589SOL     OW16399   1.249   2.540   3.119 -0.2556  0.1728 -0.1746
 1589SOL    HW116400   1.205   2.580   3.194  0.1000 -0.2342  0.2473
 1589SOL    HW216401   1.311   2.606   3.087  1.0286 -1.3755 -0.8860
 1590SOL     OW16402   2.217   1.781  17.284 -0.0813 -0.0514  0.2249
 1590SOL    HW116403   2.310   1.793  17.303 -0.6451  0.4549  2.6083
 1590SOL    HW216404   2.203   1.687  17.292 -0.2578  0.1016  1.6709
 1591SOL     OW16405   1.315   3.464  12.734 -0.3724 -0.5084  0.3515
 1591SOL    HW116406   1.387   3.465  12.797  0.1114 -1.7528 -0.1813
 1591SOL    HW216407   1.281   3.375  12.732 -0.6976 -0.3394 -1.2349
 1592SOL     OW16408   2.194   2.161   6.621  0.3071  0.5583  0.4205
 1592SOL    HW116409   2.204   2.134   6.530 -0.4324 -0.6580  0.7084
 1592SOL    HW216410   2.237   2.094   6.673  2.0150  2.5030  1.4972
 1593SOL     OW16411   3.610   1.109   5.053  0.0624 -0.6493  0.2146
 1593SOL    HW116412   3.549   1.132   5.123  1.3098  0.7649  0.8508
 1593SOL    HW216413   3.694   1.135   5.091  0.5790 -0.5816 -0.9821
 1594SOL     OW16414   2.466   2.100   9.141  0.4769 -0.3700 -0.4308
 1594SOL    HW116415   2.393   2.161   9.142  0.6331 -0.1459 -2.2032
 1594SOL    HW216416   2.503   2.103   9.230  1.3186 -1.7456 -0.7404
 1595SOL     OW16417   3.716   0.634   3.735 -0.2056 -0.3723 -0.5185
 1595SOL    HW116418   3.716   0.730   3.746 -0.2969 -0.5235  0.7951
 1595SOL    HW216419   3.714   0.609   3.828  0.8381  0.2760 -0.3208
 1596SOL     OW16420   1.287   0.096   0.399 -0.1976  0.5369  0.2278
 1596SOL    HW116421   1.268   0.164   0.463 -0.2326  0.9761 -0.2492
 1596SOL    HW216422   1.349   0.041   0.447  0.9117  1.9938  0.4640
 1597SOL     OW16423   4.116   4.461  11.820  0.8948  0.1198  0.2300
 1597SOL    HW116424   4.117   4.403  11.897 -0.2651  0.5937  0.6022
 1597SOL    HW216425   4.203   4.436  11.790 -0.4445  1.1638 -4.4304
 1598SOL     OW16426   0.295   0.181   7.111  0.2312 -0.1599 -0.4281
 1598SOL    HW116427   0.296   0.091   7.078 -0.7910  0.1912 -1.4342
 1598SOL    HW216428   0.207   0.213   7.092  0.5874  0.2220 -1.4755
 1599SOL     OW16429   2.066   1.133   8.864  0.4514 -0.2052 -0.7654
 1599SOL    HW116430   2.013   1.062   8.830 -0.0239 -0.8422  1.3071
 1599SOL    HW216431   2.029   1.129   8.952  1.1289 -3.4971 -0.6482
 1600SOL     OW16432   4.332   3.061   2.218  1.0207 -0.2914  1.1004
 1600SOL    HW116433   4.258   3.082   2.275  0.8305  0.2166  0.6546
 1600SOL    HW216434   4.293   2.988   2.169 -0.2362  1.8336 -1.0200
 1601SOL     OW16435   2.775   2.849  12.854  0.4022  0.7001 -0.1368
 1601SOL    HW116436   2.740   2.905  12.785 -0.7486 -2.5991 -2.2572
 1601SOL    HW216437   2.752   2.896  12.934 -0.3188 -1.0709  0.6824
 1602SOL     OW16438   1.827   0.714   3.523  0.4075  0.6807  0.1259
 1602SOL    HW116439   1.887   0.655   3.477  0.6398  0.8827  0.1650
 1602SOL    HW216440   1.884   0.791   3.534  1.4425  0.1591 -1.6590
 1603SOL     OW16441   3.645   1.664   1.951  0.4388  0.1887  0.0852
 1603SOL    HW116442   3.704   1.589   1.961  2.0857  1.5005  0.1962
 1603SOL    HW216443   3.626   1.698   2.039 -0.0923  1.8542 -0.6754
 1604SOL     OW16444   0.977   1.413   2.506  0.3327 -0.7939  0.6181
 1604SOL    HW116445   1.000   1.416   2.599 -0.2205  2.2161  0.6576
 1604SOL    HW216446   0.952   1.322   2.490  0.5974 -0.9258  0.9561
 1605SOL     OW16447   4.108   3.591   2.092 -0.5144 -0.2116  0.8417
 1605SOL    HW116448   4.129   3.684   2.089 -1.7107 -0.0511 -4.2560
 1605SOL    HW216449   4.188   3.554   2.055  0.3387  1.5571  0.9351
 1606SOL     OW16450   1.665   0.456   1.482 -0.6071 -0.3295 -0.4053
 1606SOL    HW116451   1.757   0.456   1.510 -0.2057  2.7106 -1.7474
 1606SOL    HW216452   1.637   0.543   1.509 -0.8670  0.0246 -1.8135
 1607SOL     OW16453   1.685   0.393   8.763  0.5170  0.0156 -0.5154
 1607SOL    HW116454   1.608   0.356   8.719 -1.5049  2.1220  1.2304
 1607SOL    HW216455   1.738   0.314   8.751  0.8325  0.1309  0.0908
 1608SOL     OW16456   4.163   0.780   2.339  0.2802 -0.4826  0.1377
 1608SOL    HW116457   4.079   0.792   2.383 -0.0739  1.2460 -0.9831
 1608SOL    HW216458   4.154   0.853   2.277  0.5100 -1.1825 -0.7125
 1609SOL     OW16459   3.859   0.555  11.133  0.2161  0.3334 -0.3204
 1609SOL    HW116460   3.930   0.516  11.185 -0.3968  1.2839  1.2430
 1609SOL    HW216461   3.799   0.583  11.202  2.5416  0.9192  1.4974
 1610SOL     OW16462   1.677   0.868   6.809 -0.2534  0.0674  0.3593
 1610SOL    HW116463   1.672   0.928   6.883  0.9992 -0.8453  1.1942
 1610SOL    HW216464   1.584   0.869   6.787 -0.5064 -3.5897  1.2605
 1611SOL     OW16465   1.009   1.215   3.626  0.0380  0.0839  0.7663
 1611SOL    HW116466   0.919   1.195   3.649 -0.2550  0.8825  0.3032
 1611SOL    HW216467   1.034   1.282   3.689 -0.9082  0.2293  0.9879
 1612SOL     OW16468   4.278   2.533   6.305  0.0691  0.5235  0.1924
 1612SOL    HW116469   4.215   2.463   6.317  0.8982 -0.1072  0.8946
 1612SOL    HW216470   4.279   2.562   6.397 -3.5606 -1.0487  0.7231
 1613SOL     OW16471   4.629   3.497   9.587  0.2822 -0.2232 -0.0708
 1613SOL    HW116472   4.536   3.495   9.564  0.4711 -0.0500 -0.8354
 1613SOL    HW216473   4.626   3.538   9.674  0.0983  3.2769 -1.7465
 1614SOL     OW16474   1.819   0.733   8.372 -0.0966 -0.1132 -0.1210
 1614SOL    HW116475   1.806   0.827   8.383 -2.1566 -0.5478  0.9915
 1614SOL    HW216476   1.746   0.710   8.314  1.0042 -1.8858 -0.8143
 1615SOL     OW16477   1.368   1.168  17.190  0.3162 -0.0877 -0.5149
 1615SOL    HW116478   1.306   1.102  17.222  1.6340 -1.2095 -0.2638
 1615SOL    HW216479   1.349   1.243  17.245 -2.4450 -1.4972  0.4153
 1616SOL     OW16480   3.050   4.666  15.230  0.0395  0.1704  0.0991
 1616SOL    HW116481   2.959   4.684  15.206 -0.3874 -0.6559  1.1079
 1616SOL    HW216482   3.093   0.012  15.216  2.1851 -0.7418  1.1014
 1617SOL     OW16483   0.471   2.288  16.303  0.4878  0.1241  0.1056
 1617SOL    HW116484   0.522   2.305  16.224  0.5429  1.7044  0.4880
 1617SOL    HW216485   0.429   2.373  16.315  0.0694 -0.2744  1.4681
 1618SOL     OW16486   0.303   2.102   8.039 -0.0958  0.0383  0.2674
 1618SOL    HW116487   0.383   2.085   7.990  0.8422  2.1642  1.0432
 1618SOL    HW216488   0.319   2.037   8.107 -2.1544 -1.6185 -0.8570
 1619SOL     OW16489   2.927   2.886   4.791 -0.1647  0.6078 -0.2407
 1619SOL    HW116490   2.883   2.963   4.828 -1.0172 -0.2732  0.5986
 1619SOL    HW216491   2.857   2.829   4.824  0.0797  0.8594  0.7251
 1620SOL     OW16492   0.535   1.974   7.905 -0.1978 -0.3886  0.2012
 1620SOL    HW116493   0.474   1.941   7.839  0.5597 -0.6805 -0.3453
 1620SOL    HW216494   0.576   1.891   7.932  0.1752 -0.4586 -0.6013
 1621SOL     OW16495   2.331   1.457   8.658  0.0557  0.1874  0.4903
 1621SOL    HW116496   2.339   1.381   8.717 -1.1486 -0.1662  0.1952
 1621SOL    HW216497   2.345   1.531   8.717 -1.7811 -0.3992  1.6717
 1622SOL     OW16498   2.742   1.968   4.103  0.2387  0.5083 -0.2842
 1622SOL    HW116499   2.724   1.995   4.193  0.7187 -0.5285  0.1233
 1622SOL    HW216500   2.836   1.984   4.100  0.0914  0.7931 -3.1868
 1623SOL     OW16501   0.659   1.934   7.137 -0.0347  0.5034  0.4471
 1623SOL    HW116502   0.712   2.002   7.095  1.5049 -0.5766  0.6690
 1623SOL    HW216503   0.570   1.944   7.102 -0.7155 -3.3761  1.1124
 1624SOL     OW16504   2.160   3.472   8.036  0.6755  0.1888  0.8955
 1624SOL    HW116505   2.122   3.385   8.043  1.2055 -0.1149  0.0005
 1624SOL    HW216506   2.120   3.517   8.111  0.2361 -0.6852  1.1870
 1625SOL     OW16507   2.792   1.399   3.863 -0.0048  0.0464  0.2135
 1625SOL    HW116508   2.719   1.341   3.885  0.6734 -1.3638 -1.1651
 1625SOL    HW216509   2.874   1.357   3.890  1.3580  3.3683  1.1751
 1626SOL     OW16510   1.909   1.941  17.488 -0.0184 -0.1752 -0.8648
 1626SOL    HW116511   2.002   1.963  17.492 -0.2182 -0.0912  3.7448
 1626SOL    HW216512   1.875   2.017  17.442  2.1691  0.7155 -1.0143
 1627SOL     OW16513   3.457   0.785   1.683  0.1488 -0.2876  0.0705
 1627SOL    HW116514   3.439   0.756   1.593  0.2112  0.4106 -0.1677
 1627SOL    HW216515   3.368   0.813   1.703  0.4191  1.1005 -0.7243
 1628SOL     OW16516   4.732   4.009   1.327 -0.7521 -0.1041  0.2999
 1628SOL    HW116517   4.655   4.042   1.280 -0.6761 -1.1724 -0.5980
 1628SOL    HW216518   4.705   4.003   1.418  2.0699 -1.8856  1.0029
 1629SOL     OW16519   2.434   1.934  11.378  0.1743  0.1512 -0.0280
 1629SOL    HW116520   2.348   1.897  11.359  0.3887  0.3125 -1.2500
 1629SOL    HW216521   2.450   1.991  11.303  0.0330  1.0506  0.6234
 1630SOL     OW16522   0.762   0.180   3.155  0.1852 -0.5199  0.0994
 1630SOL    HW116523   0.769   0.242   3.082  0.3821  1.1512  1.5290
 1630SOL    HW216524   0.734   0.236   3.228  1.1472  0.3645 -0.2042
 1631SOL     OW16525   3.475   2.050   4.231 -0.1345  0.3241  0.0399
 1631SOL    HW116526   3.461   1.994   4.155  3.0327  2.7084 -2.2861
 1631SOL    HW216527   3.390   2.044   4.275 -0.3377 -0.6926 -0.4887
 1632SOL     OW16528   1.744   1.776  17.638 -0.2557  0.2488  0.2220
 1632SOL    HW116529   1.801   1.829  17.583  0.0848 -0.1458  0.1903
 1632SOL    HW216530   1.803   1.759  17.712 -1.9485  4.3116  2.5206
 1633SOL     OW16531   1.314   3.533  10.735  0.3678 -0.6776 -0.6135
 1633SOL    HW116532   1.385   3.520  10.799  0.3804  2.4222 -0.0072
 1633SOL    HW216533   1.306   3.628  10.730  0.5492 -0.6489 -0.3819
 1634SOL     OW16534   0.824   0.935   3.375 -0.3397  0.3228  0.8821
 1634SOL    HW116535   0.811   0.846   3.408  1.1290  0.0268  0.6553
 1634SOL    HW216536   0.894   0.930   3.311  1.4140 -0.4388  2.8600
 1635SOL     OW16537   2.721   4.198   5.206 -0.4298  0.5025  0.1627
 1635SOL    HW116538   2.648   4.245   5.248  1.0030  2.0629  0.9242
 1635SOL    HW216539   2.710   4.239   5.120 -3.0129 -1.4653 -0.4354
 1636SOL     OW16540   0.369   1.950  12.270 -0.5982  0.0842  0.0303
 1636SOL    HW116541   0.277   1.954  12.245 -0.0243  0.1079 -2.0730
 1636SOL    HW216542   0.397   2.039  12.293 -0.3878  0.1458 -0.4776
 1637SOL     OW16543   1.034   2.783   3.778 -0.3949 -0.2870  0.3634
 1637SOL    HW116544   1.048   2.877   3.776  1.0964 -0.4928  1.2410
 1637SOL    HW216545   0.939   2.785   3.791 -0.5204  0.9694 -0.8139
 1638SOL     OW16546   1.016   3.728   8.183 -0.9196  0.8602  0.3085
 1638SOL    HW116547   0.944   3.665   8.183 -0.6175  0.5093 -0.6112
 1638SOL    HW216548   1.037   3.736   8.089 -0.9926 -0.4852  0.1802
 1639SOL     OW16549   2.558   0.164   6.010  0.3119 -0.0007  0.2630
 1639SOL    HW116550   2.543   0.131   5.921  1.9978 -1.2088  0.4161
 1639SOL    HW216551   2.651   0.188   6.016  0.4364 -0.2706 -0.5292
 1640SOL     OW16552   4.148   3.851   5.595  0.0891  0.4683  0.3776
 1640SOL    HW116553   4.213   3.919   5.579  1.4532 -0.3325  2.4478
 1640SOL    HW216554   4.198   3.787   5.646 -0.0883 -2.5179 -3.1809
 1641SOL     OW16555   4.441   2.977   8.706 -0.2568 -0.2954 -0.2787
 1641SOL    HW116556   4.430   2.882   8.705  1.0657 -0.4509 -0.1011
 1641SOL    HW216557   4.518   2.965   8.761  0.7977  0.6741 -1.5282
 1642SOL     OW16558   4.194   2.971   3.597  0.1364 -0.7886 -0.1282
 1642SOL    HW116559   4.223   2.899   3.652  0.2417 -1.0121 -0.4791
 1642SOL    HW216560   4.205   3.047   3.654  0.7988 -0.9809 -0.0056
 1643SOL     OW16561   1.357   4.488   2.566  0.6395  0.0697 -0.4563
 1643SOL    HW116562   1.391   4.406   2.532  0.5955 -0.2582  0.3045
 1643SOL    HW216563   1.297   4.512   2.494  2.7439 -1.4932 -2.7145
 1644SOL     OW16564   3.188   0.547   7.468  0.2285 -0.7485  0.4288
 1644SOL    HW116565   3.210   0.605   7.541 -0.0364  0.1863 -0.2246
 1644SOL    HW216566   3.209   0.461   7.505  0.9628 -0.8888 -0.3125
 1645SOL     OW16567   2.736   2.659   2.810 -0.7590  0.2245 -0.5438
 1645SOL    HW116568   2.697   2.734   2.854  0.2316  0.4776 -0.0809
 1645SOL    HW216569   2.786   2.708   2.745 -1.6525  0.4380 -1.0617
 1646SOL     OW16570   4.177   0.617   9.259  0.0593  0.4958 -0.1022
 1646SOL    HW116571   4.220   0.637   9.176 -0.0869  1.3851  0.0364
 1646SOL    HW216572   4.219   0.679   9.319  0.8762 -2.0183  1.9606
 1647SOL     OW16573   4.571   0.653   8.767  0.4964 -0.1716 -0.4550
 1647SOL    HW116574   4.521   0.619   8.842  0.5688  1.1042  0.1683
 1647SOL    HW216575   4.651   0.608   8.793  0.8782  1.3846  1.0437
 1648SOL     OW16576   4.428   2.805   2.535 -0.4735 -0.1943 -0.0968
 1648SOL    HW116577   4.446   2.899   2.534 -0.0409 -0.2853 -1.3024
 1648SOL    HW216578   4.513   2.769   2.561  0.3041  0.0567 -2.2912
 1649SOL     OW16579   2.909   0.646   2.105  0.2946 -0.2554 -0.1154
 1649SOL    HW116580   2.866   0.717   2.154 -0.2511  0.2481 -1.3175
 1649SOL    HW216581   3.002   0.666   2.121  0.4630 -2.1212  1.1937
 1650SOL     OW16582   3.487   4.465   6.542  0.2389 -0.2114  0.4397
 1650SOL    HW116583   3.479   4.531   6.611  2.4704  0.0764  0.4151
 1650SOL    HW216584   3.579   4.441   6.544 -0.0176 -1.2463  0.1081
 1651SOL     OW16585   3.909   0.075   9.302 -0.0947  0.1381 -0.3016
 1651SOL    HW116586   3.944   0.150   9.349  1.4324 -0.6937 -0.1159
 1651SOL    HW216587   3.984   0.016   9.305 -1.0350 -1.0622 -0.2366
 1652SOL     OW16588   3.470   0.545   3.293  0.4290  0.0630 -1.0647
 1652SOL    HW116589   3.458   0.459   3.254  0.3431 -0.9138  1.1179
 1652SOL    HW216590   3.534   0.582   3.231 -1.3056 -0.1007 -2.9351
 1653SOL     OW16591   4.635   0.449   1.484  0.0222  0.2738  0.0654
 1653SOL    HW116592   4.646   0.507   1.408  1.8036 -0.8442 -0.5209
 1653SOL    HW216593   4.712   0.398   1.462  1.2950  1.9330  0.7323
 1654SOL     OW16594   1.477   4.362   1.318 -0.7123 -0.1066  0.4566
 1654SOL    HW116595   1.385   4.390   1.317 -1.1277 -1.6060 -2.1911
 1654SOL    HW216596   1.523   4.441   1.288  2.8486 -2.4585 -0.2739
 1655SOL     OW16597   1.333   1.777  12.535 -0.0272  0.1585  0.8072
 1655SOL    HW116598   1.375   1.748  12.616 -1.7271 -0.9878  1.2691
 1655SOL    HW216599   1.406   1.748  12.480 -1.9609 -1.3399 -0.9356
 1656SOL     OW16600   0.317   4.388  13.694  0.6940  0.0285 -0.4590
 1656SOL    HW116601   0.277   4.420  13.774  0.7239 -0.5855 -0.1976
 1656SOL    HW216602   0.311   4.468  13.641 -0.8689  0.6918  0.7387
 1657SOL     OW16603   3.589   0.684  14.615 -0.1966  0.4579 -0.4314
 1657SOL    HW116604   3.658   0.711  14.555  0.5306 -0.7469 -0.1173
 1657SOL    HW216605   3.556   0.604  14.575  2.1663 -0.4000 -0.6471
 1658SOL     OW16606   3.337   1.295  10.167  0.0007 -0.6354  0.0386
 1658SOL    HW116607   3.263   1.300  10.228  0.6471 -0.8320  0.8331
 1658SOL    HW216608   3.315   1.348  10.091  1.1024  0.1114  0.2373
 1659SOL     OW16609   2.715   2.534   3.475 -0.4968 -0.0948  0.1751
 1659SOL    HW116610   2.723   2.439   3.467  0.9062  0.1485 -1.4897
 1659SOL    HW216611   2.747   2.550   3.564 -2.5609  0.2358  0.8500
 1660SOL     OW16612   3.177   1.454   5.312 -0.4953  0.0274 -0.1375
 1660SOL    HW116613   3.189   1.422   5.222 -2.0373  1.4854 -0.8601
 1660SOL    HW216614   3.180   1.371   5.360 -0.1961 -0.3373 -0.7719
 1661SOL     OW16615   4.309   3.960   8.260 -0.4668  0.0667 -0.3168
 1661SOL    HW116616   4.336   4.051   8.255 -1.8087  0.5389  0.8230
 1661SOL    HW216617   4.391   3.921   8.231 -0.3054 -0.1590  0.4422
 1662SOL     OW16618   3.385   2.180   0.102 -0.2211  0.3919 -0.2564
 1662SOL    HW116619   3.436   2.116   0.151  1.0211  1.7747  0.2724
 1662SOL    HW216620   3.452   2.232   0.056 -1.3567  1.8521 -0.2554
 1663SOL     OW16621   1.157   2.107  11.996  0.3700  0.3251  0.2126
 1663SOL    HW116622   1.086   2.150  12.044  2.6883  3.0501  1.2048
 1663SOL    HW216623   1.215   2.081  12.067  1.9430  0.8923 -0.8572
 1664SOL     OW16624   4.168   3.463   9.752  0.0881 -0.4698  0.3542
 1664SOL    HW116625   4.143   3.485   9.842 -1.4590 -0.4717 -0.0739
 1664SOL    HW216626   4.091   3.409   9.734 -0.9214  0.0476  3.1175
 1665SOL     OW16627   2.730   2.162  14.541 -0.2192  0.4184  0.0366
 1665SOL    HW116628   2.674   2.097  14.499  1.5620 -1.9392  1.3360
 1665SOL    HW216629   2.811   2.111  14.551 -0.9602 -0.5241  1.2026
 1666SOL     OW16630   0.255   3.082   5.332  0.4350 -0.5769  0.3607
 1666SOL    HW116631   0.164   3.112   5.334  1.0812  1.6051 -2.2489
 1666SOL    HW216632   0.271   3.036   5.415 -1.8047 -1.5823  0.2181
 1667SOL     OW16633   0.968   2.552   6.693 -0.3798  0.4980 -0.2840
 1667SOL    HW116634   0.947   2.489   6.762 -0.4641  0.8675  0.0256
 1667SOL    HW216635   0.883   2.594   6.678  0.4931  2.0185 -0.9175
 1668SOL     OW16636   0.108   0.264  17.107 -0.1536 -0.8190  0.1055
 1668SOL    HW116637   0.119   0.170  17.112 -2.3941 -1.0507  0.7267
 1668SOL    HW216638   0.014   0.279  17.111  0.1895  0.7654  3.0781
 1669SOL     OW16639   0.480   0.323   4.059 -0.3183 -0.0812  0.3220
 1669SOL    HW116640   0.510   0.409   4.029 -1.0019  0.3291  0.8054
 1669SOL    HW216641   0.529   0.258   4.009  0.7606 -0.2179  1.5392
 1670SOL     OW16642   3.887   1.539   6.992  0.4460  0.1923 -0.0901
 1670SOL    HW116643   3.978   1.510   7.003  0.6636 -0.4706 -3.6840
 1670SOL    HW216644   3.840   1.455   6.992 -1.9794  1.5736  0.4041
 1671SOL     OW16645   3.664   2.049   9.346 -0.5187  0.2321  0.4844
 1671SOL    HW116646   3.741   2.105   9.332  0.7969 -1.2624  1.6529
 1671SOL    HW216647   3.599   2.117   9.332 -0.6688 -0.0396 -0.1410
 1672SOL     OW16648   3.905   2.010   8.407 -0.0182  0.8584  0.1439
 1672SOL    HW116649   3.910   2.105   8.408 -0.9731  0.8914  1.1188
 1672SOL    HW216650   3.981   1.976   8.454  0.8990  0.2842 -1.7321
 1673SOL     OW16651   2.076   2.621   1.756  0.0659 -0.3272 -0.5464
 1673SOL    HW116652   1.991   2.593   1.722  0.4276  0.2625 -1.9352
 1673SOL    HW216653   2.115   2.547   1.709 -0.3312 -1.4549  0.8925
 1674SOL     OW16654   3.272   2.499  10.115  0.3386  0.1695 -0.0463
 1674SOL    HW116655   3.202   2.529  10.174  0.2556  1.3095 -0.7183
 1674SOL    HW216656   3.329   2.451  10.175  1.2156  1.8383  0.4652
 1675SOL     OW16657   1.588   2.124   1.570 -0.1834 -0.0208  0.1082
 1675SOL    HW116658   1.596   2.051   1.508 -0.8781 -0.2475  0.2874
 1675SOL    HW216659   1.505   2.163   1.542  0.5378  0.6564 -1.0861
 1676SOL     OW16660   4.164   0.267   4.970 -0.3892 -0.0222  0.1560
 1676SOL    HW116661   4.090   0.243   4.915  1.3535 -1.3836 -1.5955
 1676SOL    HW216662   4.165   0.362   4.953 -0.4590  0.1932  1.3857
 1677SOL     OW16663   2.340   1.535   4.076  0.3915 -0.0675 -0.0427
 1677SOL    HW116664   2.402   1.573   4.138  1.2414 -2.3383  0.5078
 1677SOL    HW216665   2.404   1.499   4.014  0.2503  0.6035 -0.5698
 1678SOL     OW16666   2.368   2.477   4.810  0.4470  0.4053 -0.1009
 1678SOL    HW116667   2.397   2.552   4.863  0.2089  1.2104 -1.1123
 1678SOL    HW216668   2.444   2.482   4.752  1.7847  3.3470  1.8829
 1679SOL     OW16669   0.408   4.333   5.756  0.3032 -0.0805  0.0581
 1679SOL    HW116670   0.442   4.369   5.838 -0.1530  0.5167 -0.0199
 1679SOL    HW216671   0.437   4.404   5.700 -1.1732 -1.0250 -1.9265
 1680SOL     OW16672   1.823   4.074  16.468  0.3239 -0.1378  0.2337
 1680SOL    HW116673   1.908   4.034  16.491  1.8581  1.3317 -2.8380
 1680SOL    HW216674   1.830   4.150  16.526  2.1164  1.0111 -1.4654
 1681SOL     OW16675   1.791   0.541   7.790 -0.3821 -0.0697  0.4197
 1681SOL    HW116676   1.747   0.587   7.719 -1.1660  2.4853  2.5802
 1681SOL    HW216677   1.760   0.592   7.865  0.9403 -0.7039  1.4140
 1682SOL     OW16678   0.251   4.725  11.494 -0.2259  0.2842  0.1891
 1682SOL    HW116679   0.244   0.019  11.584  0.2936 -2.7464  1.3419
 1682SOL    HW216680   0.181   4.660  11.490 -0.8749  1.1086 -1.8299
 1683SOL     OW16681   0.642   2.811   7.082 -0.2922 -0.4403  0.7178
 1683SOL    HW116682   0.576   2.750   7.049 -2.5441  1.3290  1.9635
 1683SOL    HW216683   0.708   2.741   7.087  1.1109  0.8214 -0.1540
 1684SOL     OW16684   1.124   0.589   3.497 -0.5380 -0.2153 -0.4479
 1684SOL    HW116685   1.191   0.527   3.466  0.9115  0.8043  0.6654
 1684SOL    HW216686   1.149   0.617   3.585  0.0122 -2.1777  0.0154
 1685SOL     OW16687   0.579   1.583   9.099  0.0969  1.0830 -0.1733
 1685SOL    HW116688   0.519   1.633   9.044 -0.4223 -0.1005 -0.6825
 1685SOL    HW216689   0.536   1.500   9.119  0.5088  1.3541  1.8926
 1686SOL     OW16690   2.888   4.075  10.922  0.0483 -0.1384  0.0626
 1686SOL    HW116691   2.811   4.081  10.979 -1.1697 -1.8845 -1.4123
 1686SOL    HW216692   2.893   3.990  10.878 -0.4687  0.0259 -0.3082
 1687SOL     OW16693   2.011   0.623  12.701 -0.7623 -0.3102 -0.1505
 1687SOL    HW116694   1.950   0.600  12.632 -1.2703  2.5263 -0.6172
 1687SOL    HW216695   2.017   0.536  12.742 -0.5634  0.3373  1.2099
 1688SOL     OW16696   4.009   2.427  10.745  0.2129  0.0297 -0.3037
 1688SOL    HW116697   4.059   2.508  10.753 -2.0620  1.2772  1.1810
 1688SOL    HW216698   3.995   2.400  10.835  2.0151  0.0128 -0.0386
 1689SOL     OW16699   4.582   1.832   7.225  0.5823 -0.3417  0.3842
 1689SOL    HW116700   4.490   1.842   7.201  0.7452 -0.4870 -0.3109
 1689SOL    HW216701   4.614   1.809   7.138  0.7012 -1.2930  0.6822
 1690SOL     OW16702   4.659   1.188   6.290  0.3428 -0.4142  0.2128
 1690SOL    HW116703   4.616   1.210   6.208 -0.9725  1.0800  1.3000
 1690SOL    HW216704   4.587   1.165   6.349  2.4676  1.3489  3.4950
 1691SOL     OW16705   4.260   0.749   4.609  0.0044 -0.4917 -0.0823
 1691SOL    HW116706   4.183   0.771   4.662  1.9603 -2.0526  3.3924
 1691SOL    HW216707   4.331   0.765   4.672 -0.4878 -2.8785  1.0704
 1692SOL     OW16708   2.093   4.504   7.198 -0.1143  0.5267 -0.6654
 1692SOL    HW116709   2.094   4.599   7.187 -2.3772  0.6373  0.1820
 1692SOL    HW216710   2.064   4.483   7.109  1.0764  3.2050 -1.6886
 1693SOL     OW16711   2.313   2.320   1.445  0.1060 -1.0014 -0.9388
 1693SOL    HW116712   2.393   2.332   1.395  0.8414  0.4192  0.5472
 1693SOL    HW216713   2.335   2.244   1.499  0.5066 -1.1543 -1.3246
 1694SOL     OW16714   0.648   2.600   5.182 -0.9016  0.4159 -0.2590
 1694SOL    HW116715   0.584   2.530   5.197 -0.7051  0.3049  0.0505
 1694SOL    HW216716   0.600   2.653   5.118  0.3930  1.0344 -0.7262
 1695SOL     OW16717   3.183   1.296   7.805  0.3728 -0.3951  0.5217
 1695SOL    HW116718   3.137   1.285   7.722  1.0435 -0.8563  0.2053
 1695SOL    HW216719   3.270   1.300   7.766 -0.3729  1.1819 -0.9777
 1696SOL     OW16720   2.200   1.517  17.354 -0.1910  0.0407  0.6027
 1696SOL    HW116721   2.280   1.469  17.331 -0.5518 -0.2161 -0.1490
 1696SOL    HW216722   2.125   1.461  17.333 -2.3020  2.7759  0.8081
 1697SOL     OW16723   2.012   2.673   0.914 -0.1274  0.4174 -0.1125
 1697SOL    HW116724   1.991   2.632   0.998 -1.2996 -1.5352 -1.3460
 1697SOL    HW216725   1.922   2.683   0.882 -0.6569 -2.4095  0.4970
 1698SOL     OW16726   4.638   0.116   7.554 -0.3240 -0.2535  0.8605
 1698SOL    HW116727   4.698   0.107   7.479 -2.3467  0.1349 -0.7835
 1698SOL    HW216728   4.649   0.205   7.588 -1.2166  0.2340 -0.1533
 1699SOL     OW16729   0.675   0.554   9.438 -0.0736  0.2674 -0.4137
 1699SOL    HW116730   0.667   0.624   9.373 -2.4242 -1.4079 -1.9332
 1699SOL    HW216731   0.659   0.477   9.383  1.0475 -1.0901  1.1571
 1700SOL     OW16732   0.185   1.699   7.761 -0.1013  0.0635  0.2093
 1700SOL    HW116733   0.247   1.712   7.832 -0.3910 -0.7095  0.6048
 1700SOL    HW216734   0.126   1.775   7.756 -2.2468 -1.5393  0.9680
 1701SOL     OW16735   0.928   2.244   9.860 -0.8201 -0.3555  0.2755
 1701SOL    HW116736   0.972   2.182   9.802 -0.8519  0.8140 -1.0135
 1701SOL    HW216737   0.868   2.282   9.795 -1.1729  0.0925  0.8714
 1702SOL     OW16738   2.268   1.185   4.640 -0.5456  0.2486 -0.2812
 1702SOL    HW116739   2.295   1.133   4.565 -0.3466 -0.4857  0.2934
 1702SOL    HW216740   2.263   1.114   4.705 -1.1815 -0.7017 -1.3731
 1703SOL     OW16741   2.009   2.653   3.337  0.5684 -0.3931  0.3108
 1703SOL    HW116742   1.969   2.735   3.364  0.5303 -0.5065  0.5958
 1703SOL    HW216743   2.090   2.686   3.297  0.5894 -2.1008 -1.0636
 1704SOL     OW16744   1.662   4.420   2.064 -0.2406 -0.4187  0.3739
 1704SOL    HW116745   1.708   4.389   1.986  1.1438  0.3743  0.8768
 1704SOL    HW216746   1.677   4.515   2.064  0.3368 -0.5074  1.4387
 1705SOL     OW16747   2.375   3.622  14.147  0.0370  0.2198 -0.1951
 1705SOL    HW116748   2.303   3.575  14.106  0.8703 -2.1574  1.0702
 1705SOL    HW216749   2.345   3.643  14.235 -0.5632  0.4237 -0.4458
 1706SOL     OW16750   1.144   3.033   0.823  0.1201 -0.2356  0.2643
 1706SOL    HW116751   1.114   2.997   0.740  1.6432  2.8162 -1.6113
 1706SOL    HW216752   1.123   3.124   0.799 -0.5095  0.6183  4.0646
 1707SOL     OW16753   1.069   2.032   3.165 -0.3920  0.2939  0.0779
 1707SOL    HW116754   1.063   1.950   3.214 -1.7500  0.6560  0.5186
 1707SOL    HW216755   1.068   2.001   3.075 -0.9430 -2.3053  0.9940
 1708SOL     OW16756   4.559   1.048  11.751 -0.2810  0.0211  0.1885
 1708SOL    HW116757   4.528   0.980  11.691  1.2131 -0.3798 -0.1393
 1708SOL    HW216758   4.651   1.023  11.758 -0.7854 -1.2464  2.2166
 1709SOL     OW16759   1.596   0.719   9.289  0.3760 -0.0588  0.4775
 1709SOL    HW116760   1.525   0.779   9.264 -1.9000 -2.5657  0.8265
 1709SOL    HW216761   1.574   0.705   9.381  0.1781 -0.4430  0.3736
 1710SOL     OW16762   2.164   4.528  12.448  0.0693  0.6004 -0.0107
 1710SOL    HW116763   2.176   4.466  12.520 -0.1324  0.7796  0.1802
 1710SOL    HW216764   2.252   4.541  12.415  0.1933 -1.4789 -0.4671
 1711SOL     OW16765   1.071   4.438   1.716  0.5788 -0.0629  0.2501
 1711SOL    HW116766   1.160   4.402   1.712  1.8433  3.0862 -0.1696
 1711SOL    HW216767   1.032   4.371   1.773  0.3369 -0.3151 -0.2140
 1712SOL     OW16768   3.840   1.821   2.964  0.6159 -0.0773  0.4234
 1712SOL    HW116769   3.851   1.887   3.033  0.0807  1.4414 -0.9392
 1712SOL    HW216770   3.930   1.823   2.932 -0.5896  1.2052 -2.9091
 1713SOL     OW16771   3.585   3.296   5.657  0.0428  0.2552 -0.3417
 1713SOL    HW116772   3.648   3.262   5.721 -1.4605 -3.0800 -0.6147
 1713SOL    HW216773   3.503   3.304   5.706  0.9672 -0.6498  1.3807
 1714SOL     OW16774   4.166   1.632   7.503 -0.2174 -0.3012  0.1091
 1714SOL    HW116775   4.188   1.717   7.467 -0.2948 -0.8438 -1.2373
 1714SOL    HW216776   4.122   1.651   7.586  0.7157  1.0224  0.2791
 1715SOL     OW16777   2.544   2.908   3.347 -0.1896  0.3954 -0.0481
 1715SOL    HW116778   2.502   2.876   3.427 -2.2085 -0.9137 -1.6317
 1715SOL    HW216779   2.594   2.832   3.317  0.9698  0.7614  0.9314
 1716SOL     OW16780   2.463   2.701   5.420  0.4428  0.0948 -0.7265
 1716SOL    HW116781   2.505   2.772   5.469  1.5733 -1.0489 -0.0357
 1716SOL    HW216782   2.414   2.657   5.490 -0.0759 -0.7508 -1.6334
 1717SOL     OW16783   3.470   0.393   4.285  0.2809 -0.0315 -0.2072
 1717SOL    HW116784   3.538   0.343   4.240 -0.2400 -1.1392  0.2634
 1717SOL    HW216785   3.437   0.328   4.346 -0.1110  0.1470 -0.2266
 1718SOL     OW16786   3.065   1.243   5.458  0.4433 -0.1950 -0.7322
 1718SOL    HW116787   3.002   1.286   5.516  1.1850  1.1992 -0.9641
 1718SOL    HW216788   3.025   1.159   5.434  1.3119 -0.2532 -1.9621
 1719SOL     OW16789   4.166   0.547   3.812 -0.9437  0.0956  0.4910
 1719SOL    HW116790   4.091   0.543   3.753  0.3169 -2.3286 -0.9346
 1719SOL    HW216791   4.232   0.479   3.797 -1.1366 -0.2630  1.2394
 1720SOL     OW16792   2.213   3.331   4.418  0.1597  0.8192 -0.5176
 1720SOL    HW116793   2.235   3.309   4.508  0.1474  1.6135 -0.3198
 1720SOL    HW216794   2.167   3.250   4.394  1.3317 -0.0779  0.2630
 1721SOL     OW16795   1.946   1.810   1.820  0.3128 -0.1797  0.0614
 1721SOL    HW116796   1.984   1.723   1.835  0.0670  0.3989  3.9474
 1721SOL    HW216797   2.003   1.874   1.864  0.8822 -0.7016  0.0872
 1722SOL     OW16798   1.993   1.084   3.110 -0.0038  0.2059 -0.5154
 1722SOL    HW116799   2.065   1.139   3.079 -0.3298  0.3657 -0.9969
 1722SOL    HW216800   1.970   1.139   3.186 -0.5582  0.5100 -0.9028
 1723SOL     OW16801   3.139   4.033   2.344 -0.4007 -0.0115  0.2019
 1723SOL    HW116802   3.191   3.957   2.369 -0.2260  0.7877  2.2816
 1723SOL    HW216803   3.176   4.110   2.388 -2.0172 -0.4618  2.3704
 1724SOL     OW16804   0.099   4.525   1.429 -0.2684 -0.2544 -0.3091
 1724SOL    HW116805   0.130   4.437   1.452 -0.8219 -0.2303  0.5230
 1724SOL    HW216806   0.026   4.542   1.489 -0.4229  1.2283 -0.9081
 1725SOL     OW16807   3.824   3.741   0.688  0.3028  0.6191  0.1160
 1725SOL    HW116808   3.767   3.798   0.636  1.4511  0.7359 -1.0219
 1725SOL    HW216809   3.897   3.727   0.628 -1.0505 -1.5244 -1.0426
 1726SOL     OW16810   3.190   2.327   0.230  0.4830 -0.2943 -0.3255
 1726SOL    HW116811   3.187   2.387   0.156 -1.2729 -0.5497 -0.4453
 1726SOL    HW216812   3.238   2.254   0.190  3.3434  1.8912 -0.9096
 1727SOL     OW16813   1.379   2.185   2.832 -0.5045 -0.3028  0.0068
 1727SOL    HW116814   1.457   2.227   2.795 -1.5780  0.3671 -1.5388
 1727SOL    HW216815   1.319   2.260   2.823  1.6605  1.1768 -2.0637
 1728SOL     OW16816   3.107   4.269  14.512 -0.2294  1.0907  0.0701
 1728SOL    HW116817   3.071   4.340  14.565 -1.3630  0.2556  0.4148
 1728SOL    HW216818   3.160   4.225  14.578  0.9413  0.6162 -1.1849
 1729SOL     OW16819   0.652   2.968   3.310 -0.2929  0.2745  0.1191
 1729SOL    HW116820   0.580   3.015   3.353  1.6713  2.5991  0.8739
 1729SOL    HW216821   0.712   3.043   3.312  0.8439 -0.7429  3.1218
 1730SOL     OW16822   0.268   1.181  11.767  0.1288  0.4903 -0.8123
 1730SOL    HW116823   0.245   1.204  11.857  2.3475  0.7375 -0.3035
 1730SOL    HW216824   0.212   1.103  11.766 -0.8698  1.1976  0.7228
 1731SOL     OW16825   3.053   0.023   8.817  0.2688 -0.3841 -0.0689
 1731SOL    HW116826   3.087   4.675   8.793  0.3730 -0.2834 -0.2853
 1731SOL    HW216827   3.101   0.045   8.897  1.0888 -1.0763 -0.3577
 1732SOL     OW16828   1.770   1.290   8.048 -0.2142 -0.2917  0.5344
 1732SOL    HW116829   1.864   1.290   8.069  0.0085 -2.7526 -0.4117
 1732SOL    HW216830   1.759   1.385   8.045  0.7643 -0.2503 -1.3688
 1733SOL     OW16831   4.711   3.177   5.708 -0.7045 -0.1833 -0.1143
 1733SOL    HW116832   4.689   3.268   5.724 -3.7151 -1.1425  1.1803
 1733SOL    HW216833   4.657   3.135   5.776  1.0416 -0.7035  0.9606
 1734SOL     OW16834   4.133   2.286  16.303  0.4107 -0.4325  0.1788
 1734SOL    HW116835   4.071   2.356  16.282 -0.0870 -1.1255 -0.5899
 1734SOL    HW216836   4.191   2.287  16.227  0.5405  1.3334  0.2940
 1735SOL     OW16837   3.339   2.531   1.783  0.7171  0.3328 -0.1682
 1735SOL    HW116838   3.256   2.485   1.771  0.2927  0.4654  2.3247
 1735SOL    HW216839   3.332   2.614   1.736  1.0959 -0.5113 -1.7421
 1736SOL     OW16840   3.822   2.551   1.454 -0.0352  0.4322 -0.2543
 1736SOL    HW116841   3.872   2.539   1.373  1.0811  0.6728  0.4012
 1736SOL    HW216842   3.886   2.514   1.515 -0.1594 -0.2002 -0.5066
 1737SOL     OW16843   0.024   0.198   7.086  0.6605 -0.2799  0.0660
 1737SOL    HW116844   4.718   0.262   7.030 -0.3901 -0.1639  1.0508
 1737SOL    HW216845   0.016   0.120   7.032  1.1344  0.3205 -0.8850
 1738SOL     OW16846   3.546   0.562  14.867 -0.0795  0.6549 -0.0110
 1738SOL    HW116847   3.579   0.573  14.778  0.8147 -0.2463  0.2078
 1738SOL    HW216848   3.546   0.655  14.892  0.9412 -0.2192  3.3442
 1739SOL     OW16849   1.382   0.390   9.809 -0.6576  0.5545  0.0108
 1739SOL    HW116850   1.360   0.479   9.835 -1.7098  1.0482 -2.5918
 1739SOL    HW216851   1.304   0.381   9.755 -1.2414 -1.6731  1.2364
 1740SOL     OW16852   2.504   2.288   8.294  0.8372 -0.0071 -0.3347
 1740SOL    HW116853   2.484   2.224   8.226  0.6094 -0.5597  0.2527
 1740SOL    HW216854   2.455   2.250   8.367 -0.3237 -1.5261 -1.9246
 1741SOL     OW16855   1.105   1.206   4.424 -0.0052  0.0109  0.1387
 1741SOL    HW116856   1.135   1.180   4.512  3.0911 -0.4234 -1.0314
 1741SOL    HW216857   1.144   1.132   4.378 -1.2670 -0.4079 -0.2252
 1742SOL     OW16858   2.762   1.013   8.848  0.3501 -0.5528  0.1845
 1742SOL    HW116859   2.735   0.923   8.827  0.3029 -0.2093 -1.2435
 1742SOL    HW216860   2.676   1.054   8.861  0.9340  0.5869  0.4450
 1743SOL     OW16861   4.314   0.588   6.690  0.2272  0.0699  0.2890
 1743SOL    HW116862   4.267   0.529   6.631  1.8004  1.0900 -1.9887
 1743SOL    HW216863   4.333   0.533   6.767 -0.4985 -0.4855  0.0695
 1744SOL     OW16864   3.757   0.279   3.619 -0.4589  0.4695 -0.2208
 1744SOL    HW116865   3.697   0.343   3.580 -0.7154 -0.3377 -1.1618
 1744SOL    HW216866   3.742   0.302   3.711 -0.8972 -0.1585 -0.1337
 1745SOL     OW16867   1.778   0.620  15.962 -0.0970  0.3668 -0.3405
 1745SOL    HW116868   1.838   0.695  15.971  0.4915 -0.4524  2.6610
 1745SOL    HW216869   1.693   0.665  15.963 -0.0871  0.3733  0.1316
 1746SOL     OW16870   2.333   3.258   6.429  0.2707  0.2295  0.0540
 1746SOL    HW116871   2.336   3.174   6.475 -0.0355 -0.1490 -0.6275
 1746SOL    HW216872   2.345   3.321   6.500 -0.7042  2.3206 -1.6541
 1747SOL     OW16873   1.085   3.911   4.043 -0.1245 -0.2582 -0.5359
 1747SOL    HW116874   1.109   3.896   4.135  0.1142  0.1117 -0.5381
 1747SOL    HW216875   1.025   3.838   4.033  0.9547 -1.3115  0.5832
 1748SOL     OW16876   4.233   0.345   1.628  0.0388  0.2416 -0.5661
 1748SOL    HW116877   4.199   0.421   1.580  0.8246  0.3438 -0.9653
 1748SOL    HW216878   4.198   0.370   1.714 -0.0946  2.0215 -1.1311
 1749SOL     OW16879   3.343   3.408   1.135 -1.2854 -0.0652 -0.5726
 1749SOL    HW116880   3.276   3.352   1.096 -1.3258  0.2432 -0.9478
 1749SOL    HW216881   3.377   3.458   1.061 -0.0745  0.3477  0.2789
 1750SOL     OW16882   3.564   4.376   8.638 -0.5155  0.4035  0.5466
 1750SOL    HW116883   3.644   4.427   8.650 -0.0496 -0.0577 -0.6865
 1750SOL    HW216884   3.557   4.380   8.543  0.9040  0.5422  0.4513
 1751SOL     OW16885   0.864   3.335   5.172 -0.0698 -0.0600  0.7212
 1751SOL    HW116886   0.955   3.352   5.146  0.2078 -1.2670  0.9151
 1751SOL    HW216887   0.867   3.243   5.199  0.2337 -0.2537  0.0326
 1752SOL     OW16888   1.923   0.468   5.149  0.2334 -0.2264 -0.1833
 1752SOL    HW116889   1.970   0.436   5.072 -0.5676  2.9051 -2.0173
 1752SOL    HW216890   1.991   0.469   5.216 -1.8917 -1.0583  1.9474
 1753SOL     OW16891   2.231   4.122   4.707  0.0808  0.4626  0.6504
 1753SOL    HW116892   2.275   4.165   4.634  1.1301 -1.1727  0.3083
 1753SOL    HW216893   2.158   4.181   4.726  1.4628  1.5558  2.6662
 1754SOL     OW16894   1.312   1.156   9.041  0.0390  0.1466  0.4003
 1754SOL    HW116895   1.248   1.129   9.107 -0.2311  0.7152  0.3689
 1754SOL    HW216896   1.260   1.174   8.962  0.8361  0.7525  0.0184
 1755SOL     OW16897   0.726   1.011   7.579 -0.2799  0.2106 -0.3383
 1755SOL    HW116898   0.719   1.093   7.628  1.4391 -0.0430  0.3171
 1755SOL    HW216899   0.641   1.010   7.534  0.1739  0.6044 -1.2033
 1756SOL     OW16900   2.361   0.538   7.755 -0.2357 -0.2131  0.5950
 1756SOL    HW116901   2.284   0.488   7.782  0.3184 -1.4546 -0.1225
 1756SOL    HW216902   2.340   0.623   7.795  0.9130  1.0823 -1.5529
 1757SOL     OW16903   3.416   3.462   8.837  0.2354  0.5183 -0.1593
 1757SOL    HW116904   3.373   3.512   8.768 -0.1397  0.1306 -0.2043
 1757SOL    HW216905   3.337   3.428   8.878 -0.7432 -0.1835 -2.6186
 1758SOL     OW16906   4.600   3.082   4.083 -0.5926 -0.4398 -0.3586
 1758SOL    HW116907   4.630   3.173   4.086  1.8249 -1.1798 -2.3795
 1758SOL    HW216908   4.599   3.081   3.987  2.1748  1.4514 -0.3975
 1759SOL     OW16909   2.787   0.618  16.805 -0.0792 -0.2007  0.1050
 1759SOL    HW116910   2.790   0.701  16.758  2.5786 -1.1705 -1.4406
 1759SOL    HW216911   2.729   0.575  16.743  0.3454 -2.8495  1.5378
 1760SOL     OW16912   0.245   3.007   5.082 -0.2290 -0.1119 -0.8695
 1760SOL    HW116913   0.209   3.087   5.042  1.5155  1.2746  0.3381
 1760SOL    HW216914   0.224   3.033   5.171 -0.9210  0.1358 -1.1041
 1761SOL     OW16915   3.414   3.684   2.260 -0.1961  0.2007 -0.1709
 1761SOL    HW116916   3.475   3.611   2.262 -0.1351  0.3185  2.6812
 1761SOL    HW216917   3.331   3.653   2.224 -0.3144  0.6260 -0.2642
 1762SOL     OW16918   0.386   0.847   9.729  0.2003  0.1976  0.0068
 1762SOL    HW116919   0.336   0.823   9.651  1.7593  0.8695 -1.1972
 1762SOL    HW216920   0.460   0.786   9.734  0.3987  0.5291  1.2417
 1763SOL     OW16921   1.768   1.070  16.554  0.1138  0.1206  0.5419
 1763SOL    HW116922   1.681   1.090  16.588 -1.6017  0.0012 -3.8492
 1763SOL    HW216923   1.805   1.157  16.563 -0.4029  0.5730 -1.8657
 1764SOL     OW16924   0.363   2.456  12.614 -0.2121  0.1701  0.4637
 1764SOL    HW116925   0.454   2.480  12.598 -0.0412 -0.2374  0.8110
 1764SOL    HW216926   0.358   2.389  12.546  1.0077  1.0832 -0.5190
 1765SOL     OW16927   1.099   0.532   6.302  0.8332 -0.4480  0.1892
 1765SOL    HW116928   1.112   0.593   6.230  0.3660 -2.3480 -1.5159
 1765SOL    HW216929   1.036   0.472   6.261  0.9369 -2.5322  3.0701
 1766SOL     OW16930   3.614   2.286   0.003  0.3090  0.7664  0.5813
 1766SOL    HW116931   3.656   2.356   0.053  0.7421 -1.1190  2.8922
 1766SOL    HW216932   3.628   2.314  17.666 -0.0458 -1.3728 -0.1384
 1767SOL     OW16933   1.206   4.200   6.203  0.6585  0.0322  0.3704
 1767SOL    HW116934   1.288   4.227   6.244  0.6292  1.1147 -0.2825
 1767SOL    HW216935   1.215   4.105   6.191  1.7494  0.0626  0.9959
 1768SOL     OW16936   1.290   2.837   5.277 -0.7544 -0.0485  0.3210
 1768SOL    HW116937   1.334   2.766   5.323 -0.8736  0.0370  0.5673
 1768SOL    HW216938   1.359   2.899   5.252  1.4837 -2.1355  1.3570
 1769SOL     OW16939   1.920   3.134   8.634 -0.2902  0.2154 -0.4186
 1769SOL    HW116940   1.885   3.220   8.610 -0.7628  0.0920 -0.1519
 1769SOL    HW216941   1.957   3.142   8.722  1.0072  0.1926 -0.9576
 1770SOL     OW16942   4.036   0.623   8.824 -0.4335 -0.4121 -0.0022
 1770SOL    HW116943   4.081   0.542   8.844 -1.9095 -1.1420  0.3760
 1770SOL    HW216944   3.978   0.627   8.901 -2.2815  0.5038 -1.4305
 1771SOL     OW16945   1.013   3.374   3.201  0.7440 -1.4180 -0.4992
 1771SOL    HW116946   1.056   3.300   3.160 -0.2313 -2.3257  0.1267
 1771SOL    HW216947   1.079   3.412   3.259 -0.7939  0.0864  0.2774
 1772SOL     OW16948   1.284   0.943   2.758 -0.2575  0.0194 -0.4251
 1772SOL    HW116949   1.368   0.968   2.796 -0.2886  0.0245 -0.3602
 1772SOL    HW216950   1.247   1.031   2.760  0.1008  0.1748 -0.6197
 1773SOL     OW16951   2.279   2.065   6.368 -0.2010  0.1195 -0.2250
 1773SOL    HW116952   2.370   2.067   6.396  0.1868 -2.5205 -1.2886
 1773SOL    HW216953   2.292   2.110   6.285 -1.5651 -1.3274 -1.2342
 1774SOL     OW16954   2.950   3.526   8.070 -0.1853 -0.2278 -0.3290
 1774SOL    HW116955   2.875   3.477   8.106 -0.0604  1.0240  1.6485
 1774SOL    HW216956   3.026   3.494   8.119 -1.0368 -2.7533 -0.6256
 1775SOL     OW16957   1.505   3.955   0.285  0.0785 -0.4183  0.3740
 1775SOL    HW116958   1.571   3.922   0.225 -0.3987  0.0892 -0.4239
 1775SOL    HW216959   1.470   4.035   0.247 -1.0866 -1.3133 -0.4676
 1776SOL     OW16960   0.704   3.531   1.019  0.1498 -0.5341 -0.4991
 1776SOL    HW116961   0.614   3.562   1.030  0.2315 -1.1684  2.1604
 1776SOL    HW216962   0.745   3.556   1.102  1.0802 -0.0302 -1.1169
 1777SOL     OW16963   0.873   1.977  10.753 -0.0070 -0.4043 -0.1360
 1777SOL    HW116964   0.961   2.011  10.770 -1.0361  1.4085  1.6328
 1777SOL    HW216965   0.819   2.016  10.821 -1.5612 -1.7741 -0.5884
 1778SOL     OW16966   0.756   0.493  14.631  0.2416 -0.4856  0.0840
 1778SOL    HW116967   0.817   0.500  14.705  0.2355 -0.1672  0.0587
 1778SOL    HW216968   0.701   0.571  14.639 -0.9234 -1.2583 -0.3132
 1779SOL     OW16969   0.487   3.148   4.638  0.1203  0.6822  0.0885
 1779SOL    HW116970   0.565   3.133   4.693  0.0745 -0.1210 -0.0694
 1779SOL    HW216971   0.432   3.096   4.696  0.1316 -0.0547 -0.5691
 1780SOL     OW16972   1.663   4.009   8.534  0.9348  0.1236  0.5686
 1780SOL    HW116973   1.649   4.103   8.543 -1.5716 -0.0047 -1.9964
 1780SOL    HW216974   1.754   4.000   8.563  1.6206  0.9888 -1.3205
 1781SOL     OW16975   2.276   1.855   4.047 -0.3803  0.9389  0.4246
 1781SOL    HW116976   2.234   1.769   4.048  1.1263  0.2174  0.6889
 1781SOL    HW216977   2.350   1.846   3.987  0.0673  1.6894  0.8690
 1782SOL     OW16978   0.869   3.601   5.971  0.3478 -0.7021 -0.0677
 1782SOL    HW116979   0.951   3.615   5.923  1.3965 -0.5376  1.7657
 1782SOL    HW216980   0.827   3.530   5.923  0.7740  0.0158 -1.5318
 1783SOL     OW16981   0.280   3.001  15.912  0.4080  0.2532  0.1671
 1783SOL    HW116982   0.229   3.052  15.975  2.4721  1.0836  1.1892
 1783SOL    HW216983   0.223   2.935  15.873 -0.9086 -0.2198  2.8712
 1784SOL     OW16984   0.796   2.629   3.359  0.0067 -0.0667  0.5771
 1784SOL    HW116985   0.890   2.626   3.341 -0.3477 -0.7599 -1.2039
 1784SOL    HW216986   0.809   2.718   3.390 -1.1454 -0.1876  1.3925
 1785SOL     OW16987   4.529   3.786   6.452  0.0592 -0.4053  0.2837
 1785SOL    HW116988   4.558   3.849   6.387  0.2751 -0.1712  0.6064
 1785SOL    HW216989   4.586   3.800   6.528  0.9611 -2.3229 -0.0382
 1786SOL     OW16990   3.733   1.215   2.308 -0.3609  0.2136  0.5070
 1786SOL    HW116991   3.775   1.165   2.238 -1.5332  0.0134 -0.0469
 1786SOL    HW216992   3.694   1.285   2.255 -2.6413 -0.7950  0.8567
 1787SOL     OW16993   0.774   3.010  14.705  0.4765  0.7576 -0.1233
 1787SOL    HW116994   0.825   3.085  14.675 -1.3963  0.9137 -2.8487
 1787SOL    HW216995   0.745   3.041  14.791 -0.4046  0.6886 -0.3929
 1788SOL     OW16996   4.209   0.523   5.346 -0.1062  0.2699 -0.2250
 1788SOL    HW116997   4.132   0.578   5.360 -0.0767  0.3684 -0.4447
 1788SOL    HW216998   4.275   0.587   5.318 -0.1823  0.6266  0.3909
 1789SOL     OW16999   3.162   0.214   8.148 -0.4732 -0.0448 -0.3537
 1789SOL    HW117000   3.113   0.293   8.125 -1.6270 -0.7861 -0.4318
 1789SOL    HW217001   3.138   0.160   8.073 -0.1006 -0.2809 -0.3052
 1790SOL     OW17002   1.153   2.182   4.979 -0.3123 -0.4734  0.5101
 1790SOL    HW117003   1.174   2.275   4.967  0.7030 -0.8132 -0.2768
 1790SOL    HW217004   1.062   2.185   5.010 -0.1969 -0.3470  0.8361
 1791SOL     OW17005   4.569   4.063   4.599  0.1319  0.3030 -0.3817
 1791SOL    HW117006   4.518   3.998   4.551 -0.6458 -0.5630  1.6047
 1791SOL    HW217007   4.544   4.035   4.688  2.4866  0.5515  0.3731
 1792SOL     OW17008   4.323   0.564  11.381 -0.2926  0.4280  0.4814
 1792SOL    HW117009   4.317   0.616  11.301  0.2144 -1.1772 -0.6077
 1792SOL    HW217010   4.400   0.600  11.426 -1.2952  2.1904  0.7602
 1793SOL     OW17011   4.646   1.535  13.016 -0.1375 -0.1800 -0.2241
 1793SOL    HW117012   4.595   1.511  12.939 -0.3016  1.2870 -0.5731
 1793SOL    HW217013   4.625   1.459  13.070  1.3146 -0.4622 -0.0556
 1794SOL     OW17014   2.172   4.666   9.849 -0.5166  0.4679  0.1225
 1794SOL    HW117015   2.181   0.009   9.897 -0.1699 -0.2617  1.3014
 1794SOL    HW217016   2.259   4.630   9.867 -0.5837 -0.2374 -0.9213
 1795SOL     OW17017   1.750   1.070   3.931  0.3474  0.4325  0.2111
 1795SOL    HW117018   1.742   1.129   4.006  1.1717  0.2395  0.4600
 1795SOL    HW217019   1.779   1.125   3.858 -0.7341  0.6776 -0.0261
 1796SOL     OW17020   0.753   0.023   6.973  0.0578 -0.2603  0.2918
 1796SOL    HW117021   0.668   0.008   7.014 -1.0052 -1.3221 -2.3046
 1796SOL    HW217022   0.734   0.005   6.881 -1.1658  0.0742  0.4779
 1797SOL     OW17023   3.963   2.570   7.640  0.3889 -0.0594  0.3862
 1797SOL    HW117024   3.874   2.557   7.606  0.4895  1.2580 -0.3642
 1797SOL    HW217025   3.999   2.631   7.576  1.2898 -1.0640 -0.0722
 1798SOL     OW17026   0.900   3.193  11.604 -0.3955  0.0096  0.2783
 1798SOL    HW117027   0.873   3.152  11.686  1.3320  2.6642  2.1614
 1798SOL    HW217028   0.991   3.165  11.604 -0.5678 -0.5537  1.5849
 1799SOL     OW17029   4.647   2.169   8.223  0.3887 -0.1935  0.1417
 1799SOL    HW117030   0.002   2.183   8.238  0.1616  1.9697 -0.4712
 1799SOL    HW217031   4.648   2.107   8.150  1.8135 -2.0910  1.7435
 1800SOL     OW17032   2.855   2.603  16.044 -0.1565 -0.1480  0.2625
 1800SOL    HW117033   2.884   2.586  15.955  2.6877 -0.4240  1.2083
 1800SOL    HW217034   2.785   2.539  16.057 -0.2634 -0.0422  0.1993
 1801SOL     OW17035   0.601   2.517   8.983  0.0265  0.0382  0.0375
 1801SOL    HW117036   0.537   2.543   9.050 -0.2427  0.0293 -0.2144
 1801SOL    HW217037   0.572   2.585   8.921  0.0698 -0.0981 -0.1329
 1802SOL     OW17038   1.279   1.700   7.106  0.0125  0.8161  0.4789
 1802SOL    HW117039   1.298   1.659   7.190 -0.1311  0.4358  0.3267
 1802SOL    HW217040   1.186   1.694   7.087  0.3176 -1.8048 -0.2123
 1803SOL     OW17041   2.581   4.083   1.924 -0.1598 -0.2537 -0.2831
 1803SOL    HW117042   2.597   4.168   1.965 -1.2099 -0.1126 -0.1587
 1803SOL    HW217043   2.543   4.030   1.994  0.1609  1.7133  1.3865
 1804SOL     OW17044   1.627   1.933   2.254  0.0135 -0.2742  0.6718
 1804SOL    HW117045   1.662   1.879   2.325 -0.2748 -1.4696 -0.0961
 1804SOL    HW217046   1.575   1.870   2.203 -0.8302  0.9933 -0.0377
 1805SOL     OW17047   0.368   2.366   3.222 -0.3647  0.0100 -0.9813
 1805SOL    HW117048   0.390   2.385   3.131  0.6558 -0.4567 -0.8357
 1805SOL    HW217049   0.457   2.357   3.254 -0.2460 -1.2423 -1.6577
 1806SOL     OW17050   1.274   2.950   5.628  0.1990 -0.4291 -0.2117
 1806SOL    HW117051   1.338   3.003   5.676  0.8899 -2.0035  0.6122
 1806SOL    HW217052   1.300   2.868   5.670 -0.0689 -1.1026 -1.3717
 1807SOL     OW17053   0.820   2.320   4.828 -0.0324  0.3676 -0.4058
 1807SOL    HW117054   0.819   2.377   4.905 -0.2093  0.7176 -0.6645
 1807SOL    HW217055   0.764   2.254   4.867  1.1014 -1.6350 -2.1646
 1808SOL     OW17056   0.294   0.544   4.635 -0.0148  0.0736 -0.0582
 1808SOL    HW117057   0.244   0.605   4.689  1.0552  1.8690 -1.0888
 1808SOL    HW217058   0.325   0.610   4.573 -2.8725  0.1702 -1.3585
 1809SOL     OW17059   2.285   3.087  16.711  0.2093  0.4692  0.2690
 1809SOL    HW117060   2.231   3.165  16.716  0.5845  0.7073  0.6210
 1809SOL    HW217061   2.355   3.124  16.765  0.6840 -1.7189  1.1785
 1810SOL     OW17062   4.425   3.479   6.094  0.0098 -0.1019  0.0514
 1810SOL    HW117063   4.360   3.486   6.164  0.6035  4.2516  0.2155
 1810SOL    HW217064   4.402   3.555   6.040 -0.8689 -1.5948 -1.6847
 1811SOL     OW17065   0.769   0.783  16.054 -0.9039 -0.6273 -0.4390
 1811SOL    HW117066   0.757   0.876  16.033  2.6734 -0.5052 -1.9507
 1811SOL    HW217067   0.677   0.756  16.051 -0.7185 -1.5746  2.3678
 1812SOL     OW17068   1.211   0.893   7.408 -0.4940  0.1568 -0.5410
 1812SOL    HW117069   1.227   0.800   7.394 -0.8604 -0.0524  0.4199
 1812SOL    HW217070   1.141   0.910   7.345  0.6624  3.2892 -0.9676
 1813SOL     OW17071   2.883   1.182  11.300 -0.5621 -0.3395  0.5164
 1813SOL    HW117072   2.825   1.117  11.339 -1.5581  0.3088  0.1115
 1813SOL    HW217073   2.828   1.232  11.240 -0.9935  1.1585  2.1603
 1814SOL     OW17074   2.153   1.760   6.202  0.0611  0.6855 -0.1716
 1814SOL    HW117075   2.182   1.734   6.114  1.3392 -1.0452  0.7861
 1814SOL    HW217076   2.081   1.819   6.177  0.2809  1.3562  0.7990
 1815SOL     OW17077   4.663   2.308   5.393 -0.2687  0.5731 -0.2118
 1815SOL    HW117078   4.698   2.231   5.349  1.6529  1.8908 -1.0057
 1815SOL    HW217079   0.002   2.344   5.436  0.2071 -0.6197 -0.0938
 1816SOL     OW17080   3.915   0.270   4.817  0.4887  1.0927  0.4944
 1816SOL    HW117081   3.932   0.277   4.723  0.6803  3.3420  0.6863
 1816SOL    HW217082   3.836   0.216   4.821  0.2388  1.6016  2.2380
 1817SOL     OW17083   1.143   0.892   1.861 -0.1733  0.0798 -0.4955
 1817SOL    HW117084   1.165   0.942   1.939  0.9167 -0.1580 -0.6593
 1817SOL    HW217085   1.226   0.862   1.825 -1.5958 -1.9896 -1.9953
 1818SOL     OW17086   2.304   2.251   2.850 -0.1896 -0.4130  0.1973
 1818SOL    HW117087   2.361   2.304   2.795 -3.4087  1.2793 -1.4853
 1818SOL    HW217088   2.284   2.180   2.789  0.7987 -1.6291  1.2863
 1819SOL     OW17089   2.055   4.094   0.648 -0.0017  0.5018  0.0803
 1819SOL    HW117090   1.963   4.082   0.622  0.9906 -0.8819 -2.8521
 1819SOL    HW217091   2.071   4.183   0.617  0.5743  0.9811  1.7912
 1820SOL     OW17092   4.550   1.856   3.737  0.0140  0.1543 -0.1089
 1820SOL    HW117093   4.530   1.785   3.798  0.4979 -0.3036 -0.4863
 1820SOL    HW217094   4.644   1.857   3.753 -0.0575 -1.4203  0.3678
 1821SOL     OW17095   1.610   3.371   7.663 -0.4872 -0.2820 -0.2750
 1821SOL    HW117096   1.695   3.401   7.696 -0.5234  0.3405 -0.7534
 1821SOL    HW217097   1.589   3.316   7.738  1.5431 -0.6281  0.0511
 1822SOL     OW17098   1.600   4.008   8.258 -0.2995  0.8780 -0.2124
 1822SOL    HW117099   1.505   4.018   8.252 -0.3836  0.8574  1.0485
 1822SOL    HW217100   1.617   3.999   8.352 -0.6288  1.0057 -0.1438
 1823SOL     OW17101   2.079   2.451   1.537  0.0485  0.1715  0.1910
 1823SOL    HW117102   2.021   2.394   1.487 -0.6927  2.2892 -1.3674
 1823SOL    HW217103   2.167   2.417   1.519 -1.1259 -3.0796  0.6840
 1824SOL     OW17104   3.803   0.492  14.135  0.9819 -0.3857  0.0294
 1824SOL    HW117105   3.742   0.419  14.142  2.2015 -1.4008  0.2174
 1824SOL    HW217106   3.840   0.502  14.223  0.8218 -2.9211  0.3862
 1825SOL     OW17107   0.999   2.743   6.966 -0.1744  0.0346  0.4153
 1825SOL    HW117108   1.049   2.796   7.028  0.2936 -0.1027  0.1548
 1825SOL    HW217109   0.948   2.814   6.925 -2.1459 -0.7290  1.5432
 1826SOL     OW17110   1.885   2.771   2.684  0.3607  0.2173 -0.7815
 1826SOL    HW117111   1.810   2.771   2.744 -0.6765 -0.5379 -2.0801
 1826SOL    HW217112   1.867   2.850   2.633 -2.6971 -0.7950 -1.3212
 1827SOL     OW17113   3.505   0.750   7.753  1.1148 -0.0311  0.0479
 1827SOL    HW117114   3.543   0.812   7.690 -1.4120  0.8873 -0.5423
 1827SOL    HW217115   3.579   0.722   7.807  1.2214 -0.2083 -0.1886
 1828SOL     OW17116   0.431   3.164   4.081  0.3116 -0.0601  0.2223
 1828SOL    HW117117   0.339   3.157   4.107  0.9036 -1.0068  2.0809
 1828SOL    HW217118   0.478   3.145   4.162  1.6554 -0.9636 -0.7738
 1829SOL     OW17119   3.066   2.209   7.724 -0.5095 -0.4838  0.2643
 1829SOL    HW117120   2.994   2.272   7.728  0.8872  1.1891 -1.0598
 1829SOL    HW217121   3.028   2.121   7.730 -1.3082 -0.2303 -0.9414
 1830SOL     OW17122   0.941   2.074   9.613 -0.1919  0.4785  0.0817
 1830SOL    HW117123   0.850   2.060   9.640 -0.2293 -0.0920 -0.3412
 1830SOL    HW217124   0.914   2.100   9.525 -1.6983 -3.2170 -0.5342
 1831SOL     OW17125   4.215   3.281   0.947 -0.2117  0.1026  0.4248
 1831SOL    HW117126   4.236   3.259   1.038  3.3083  0.4556 -0.2751
 1831SOL    HW217127   4.188   3.200   0.903  1.9113  1.0441 -2.5817
 1832SOL     OW17128   0.525   2.567   8.042  0.7868  0.0714  0.5124
 1832SOL    HW117129   0.483   2.498   7.990  0.8756  1.3108 -1.2061
 1832SOL    HW217130   0.501   2.647   7.996  0.2550 -0.2840  0.1700
 1833SOL     OW17131   2.007   0.610   4.863 -0.1555 -0.5768 -0.4387
 1833SOL    HW117132   1.988   0.539   4.802  0.0941 -0.5229 -0.5786
 1833SOL    HW217133   1.965   0.684   4.818 -1.6362  0.6944  3.0839
 1834SOL     OW17134   4.276   3.053  14.099  0.6737  0.0542  0.3978
 1834SOL    HW117135   4.220   3.118  14.141  1.8663  0.0429  1.9814
 1834SOL    HW217136   4.261   2.972  14.148 -1.6249 -0.6034 -1.3594
 1835SOL     OW17137   1.645   1.820  17.167  0.2402  0.1454 -0.2890
 1835SOL    HW117138   1.605   1.797  17.083  0.8176 -1.9545 -0.0018
 1835SOL    HW217139   1.592   1.755  17.214 -2.2487  2.7313  0.4277
 1836SOL     OW17140   1.743   4.683   2.040 -0.0858  0.9049 -0.0129
 1836SOL    HW117141   1.754   4.718   1.951  3.8292  0.4328  0.2767
 1836SOL    HW217142   1.832   4.665   2.070 -0.4166  1.5611  1.3471
 1837SOL     OW17143   3.964   0.731   7.531 -0.6864 -0.4493 -0.0725
 1837SOL    HW117144   3.869   0.737   7.542 -0.2963 -1.3458  3.8602
 1837SOL    HW217145   3.974   0.813   7.483 -0.6152  0.5542  1.6413
 1838SOL     OW17146   0.127   1.449   7.898  0.4312 -0.2263  0.0789
 1838SOL    HW117147   0.134   1.536   7.858 -0.9637  0.9863  2.5257
 1838SOL    HW217148   0.033   1.445   7.915  0.8382 -3.0432  1.5667
 1839SOL     OW17149   3.395   2.116   1.007  0.3742 -0.5658 -0.7978
 1839SOL    HW117150   3.335   2.057   0.961 -0.0539  0.2491 -1.2893
 1839SOL    HW217151   3.481   2.094   0.970  1.4777  0.9329  0.8500
 1840SOL     OW17152   1.284   4.110   7.049  0.3143  0.2694  0.1149
 1840SOL    HW117153   1.296   4.081   6.959 -1.1073  0.3426 -0.0910
 1840SOL    HW217154   1.297   4.026   7.095 -3.2498 -0.3767 -0.0901
 1841SOL     OW17155   3.732   3.902   7.289 -0.1520  0.8334 -0.3546
 1841SOL    HW117156   3.706   3.937   7.204 -0.9682 -0.4239 -0.6288
 1841SOL    HW217157   3.796   3.832   7.276  0.4384  1.2389  0.3491
 1842SOL     OW17158   3.579   1.216   4.624  0.0089  0.0360  0.1305
 1842SOL    HW117159   3.673   1.201   4.620  0.0800  0.2416  1.0813
 1842SOL    HW217160   3.538   1.150   4.680 -0.5285  0.8014  0.6382
 1843SOL     OW17161   0.266   3.535   9.435 -0.1635  0.1873 -0.2415
 1843SOL    HW117162   0.265   3.501   9.346  1.7096 -0.7589  0.0906
 1843SOL    HW217163   0.210   3.611   9.416  0.7286  0.7272 -0.6991
 1844SOL     OW17164   2.209   3.972   7.464 -0.4575 -0.2005 -0.1475
 1844SOL    HW117165   2.177   4.055   7.500  1.4781  0.6535 -0.3486
 1844SOL    HW217166   2.196   3.914   7.538  1.2644 -0.8823 -0.3615
 1845SOL     OW17167   0.438   3.346   8.746 -0.0653 -0.2903  0.0099
 1845SOL    HW117168   0.371   3.366   8.680  1.0102  1.4609 -0.5589
 1845SOL    HW217169   0.478   3.267   8.709  1.5216  0.1752  0.7425
 1846SOL     OW17170   3.511   1.667   4.072 -0.0292  0.0350  0.0233
 1846SOL    HW117171   3.430   1.636   4.033  1.1810 -2.5090 -0.5071
 1846SOL    HW217172   3.539   1.595   4.129 -1.6460  1.2335  2.3103
 1847SOL     OW17173   3.688   1.218   6.069 -0.2582 -0.4208  0.1409
 1847SOL    HW117174   3.699   1.123   6.065  1.0681 -0.1850 -2.4868
 1847SOL    HW217175   3.660   1.230   5.978 -3.4632  0.8460  1.3104
 1848SOL     OW17176   3.832   0.468  17.026 -0.5134 -0.0614 -0.5756
 1848SOL    HW117177   3.836   0.514  17.110  1.0321 -0.3690 -0.4636
 1848SOL    HW217178   3.743   0.481  16.994 -1.1165  0.8771  1.4530
 1849SOL     OW17179   0.724   3.260   0.123 -0.0794  0.7035  0.4536
 1849SOL    HW117180   0.700   3.305   0.043 -1.5766  2.2482  1.7782
 1849SOL    HW217181   0.701   3.325   0.189 -0.7977  0.6235  0.2806
 1850SOL     OW17182   0.861   3.584   8.601  0.1291 -0.3134 -0.4457
 1850SOL    HW117183   0.868   3.668   8.556 -1.5026 -0.1872 -0.4830
 1850SOL    HW217184   0.766   3.580   8.615  0.0309 -1.2355 -1.4422
 1851SOL     OW17185   1.797   1.634  14.006  0.3286  0.4873  0.0010
 1851SOL    HW117186   1.820   1.718  13.968 -0.1483  1.4559  1.8746
 1851SOL    HW217187   1.878   1.583  14.010  0.0155 -0.1791 -1.8151
 1852SOL     OW17188   1.567   3.085   7.735 -0.0661 -0.4112  0.1877
 1852SOL    HW117189   1.516   3.129   7.667 -0.4426 -2.1610 -0.6615
 1852SOL    HW217190   1.521   3.001   7.740 -1.8427  0.4917 -1.1324
 1853SOL     OW17191   3.597   0.165   1.921 -0.5737  0.6498  0.0972
 1853SOL    HW117192   3.527   0.223   1.891 -2.5238 -0.7685  1.8863
 1853SOL    HW217193   3.566   0.158   2.011 -0.0695 -0.3687  0.1916
 1854SOL     OW17194   4.256   1.255   0.803  0.1246  0.5737 -0.4449
 1854SOL    HW117195   4.210   1.221   0.726 -1.4834  0.3331  0.6488
 1854SOL    HW217196   4.205   1.335   0.818 -0.5016  0.1521 -0.3696
 1855SOL     OW17197   0.088   0.943   8.056  0.4322  0.2652  0.3836
 1855SOL    HW117198   0.038   1.004   8.110  0.5956  0.4818  0.2908
 1855SOL    HW217199   0.017   0.918   7.997  0.0390 -0.3897  1.1518
 1856SOL     OW17200   1.985   4.435   2.949  0.8274 -0.1064  1.0614
 1856SOL    HW117201   1.899   4.447   2.989 -0.6973 -1.0785 -1.8404
 1856SOL    HW217202   1.964   4.352   2.907  0.9035 -0.5898  1.9808
 1857SOL     OW17203   0.411   1.894   3.993  0.1876 -0.1426  0.5279
 1857SOL    HW117204   0.376   1.805   4.005 -1.1141  0.1685 -1.1543
 1857SOL    HW217205   0.350   1.961   4.022  2.6031  2.0808  0.4335
 1858SOL     OW17206   3.489   2.357   7.959 -0.0505  0.4227  0.1221
 1858SOL    HW117207   3.400   2.368   7.926 -0.6794 -1.0097  1.3436
 1858SOL    HW217208   3.494   2.432   8.019 -0.4205 -1.0805  2.0192
 1859SOL     OW17209   3.839   1.010   7.781 -0.1062 -0.2559  0.0477
 1859SOL    HW117210   3.785   0.988   7.857 -0.0453 -0.4915  0.0228
 1859SOL    HW217211   3.851   1.103   7.802 -2.1433 -0.0023 -0.0006
 1860SOL     OW17212   2.824   1.300   0.561  0.0808 -0.1883  0.1140
 1860SOL    HW117213   2.731   1.277   0.557 -0.4853  1.8935  1.2497
 1860SOL    HW217214   2.866   1.215   0.559  1.2763  0.4338 -0.8631
 1861SOL     OW17215   4.237   2.553   7.185 -0.0150 -0.2554  0.1954
 1861SOL    HW117216   4.319   2.563   7.137 -0.5889 -0.2003 -0.7645
 1861SOL    HW217217   4.272   2.548   7.274  0.8657  0.1638 -0.1356
 1862SOL     OW17218   1.122   1.025   8.800 -0.1451  0.4303 -0.3306
 1862SOL    HW117219   1.157   1.111   8.775 -0.4020  0.7493  0.3704
 1862SOL    HW217220   1.032   1.018   8.769 -0.1985  1.1987 -0.3518
 1863SOL     OW17221   0.604   3.560   8.702  0.1792  0.4439  0.5709
 1863SOL    HW117222   0.543   3.496   8.738  0.5029 -0.3612 -0.3210
 1863SOL    HW217223   0.544   3.616   8.652  1.2863  1.1552  0.0368
 1864SOL     OW17224   4.500   0.526   2.737 -0.5775  0.0012 -1.0417
 1864SOL    HW117225   4.552   0.510   2.658 -0.2349  1.4868 -1.1043
 1864SOL    HW217226   4.557   0.509   2.812 -0.4509  0.9474 -0.9205
 1865SOL     OW17227   1.137   4.492   4.198  0.3956  0.7625  0.1996
 1865SOL    HW117228   1.048   4.459   4.184  2.5696 -4.1425 -1.9725
 1865SOL    HW217229   1.145   4.488   4.293  2.0699 -0.8431 -0.0070
 1866SOL     OW17230   2.167   2.875   7.441 -0.2963 -0.2532  0.4988
 1866SOL    HW117231   2.094   2.912   7.391 -0.0504 -0.7491 -0.2228
 1866SOL    HW217232   2.142   2.896   7.531 -0.5471 -0.1378  0.4010
 1867SOL     OW17233   1.853   2.659   8.597  0.1910  0.0848  0.2408
 1867SOL    HW117234   1.923   2.707   8.641  2.7002 -0.9870 -2.5712
 1867SOL    HW217235   1.827   2.593   8.660 -1.7500  2.8482  2.3417
 1868SOL     OW17236   4.122   4.558   8.261  0.3003  0.3811 -0.2994
 1868SOL    HW117237   4.121   4.612   8.182 -0.6207 -1.2408 -1.3813
 1868SOL    HW217238   4.065   4.607   8.320  1.9738  0.3319  1.3570
 1869SOL     OW17239   4.400   4.067   6.111 -0.3886  0.4242  0.0030
 1869SOL    HW117240   4.459   4.133   6.147 -2.0670  1.0227  1.7084
 1869SOL    HW217241   4.441   3.988   6.147  0.2397  0.1267 -1.3778
 1870SOL     OW17242   3.194   4.656   3.178  0.1792  0.2185  0.3814
 1870SOL    HW117243   3.286   4.671   3.157  1.1329 -2.7945  2.4397
 1870SOL    HW217244   3.196   4.672   3.273 -1.9682  0.7269  0.3470
 1871SOL     OW17245   4.103   0.440  11.223  0.5949 -0.6069 -0.4505
 1871SOL    HW117246   4.194   0.449  11.196  1.0615  0.2820  1.4224
 1871SOL    HW217247   4.093   0.345  11.228 -0.1921 -0.5537 -1.0692
 1872SOL     OW17248   4.452   3.717   5.529 -0.0155  0.3414  0.0231
 1872SOL    HW117249   4.453   3.784   5.460 -2.0494  0.4740  0.1420
 1872SOL    HW217250   4.409   3.648   5.478 -0.8415  0.0795  1.0830
 1873SOL     OW17251   0.111   4.479   9.288  0.7078 -0.1778 -0.1097
 1873SOL    HW117252   0.047   4.541   9.254  0.5835 -0.4562 -0.3763
 1873SOL    HW217253   0.165   4.537   9.343 -1.2248  0.3126  1.2623
 1874SOL     OW17254   1.928   0.844   4.768  0.0431  0.0994 -0.1955
 1874SOL    HW117255   1.950   0.883   4.683 -1.5384  1.9919  0.2574
 1874SOL    HW217256   1.887   0.925   4.798  0.0899  0.0715 -0.0575
 1875SOL     OW17257   0.051   4.131  16.895  0.1152 -0.2099  0.2589
 1875SOL    HW117258   4.724   4.093  16.952 -0.3749 -0.0145 -0.1745
 1875SOL    HW217259   0.017   4.220  16.890  0.2175 -0.2340 -1.1555
 1876SOL     OW17260   1.017   1.011   6.217  0.2892  0.2008  0.2805
 1876SOL    HW117261   0.953   0.983   6.151 -1.1939  2.1168  0.9082
 1876SOL    HW217262   1.083   1.028   6.151  0.4194 -1.4774 -0.0309
 1877SOL     OW17263   1.658   0.480   9.730 -0.1948 -0.5211  0.3790
 1877SOL    HW117264   1.568   0.449   9.740 -0.1456 -1.2604 -1.5003
 1877SOL    HW217265   1.691   0.469   9.820  0.3150 -1.3599  0.0855
 1878SOL     OW17266   4.658   1.487   3.274  0.2651 -0.3924 -0.3467
 1878SOL    HW117267   4.729   1.551   3.270 -1.3117  1.3847 -0.0051
 1878SOL    HW217268   4.628   1.472   3.184  0.4747 -4.6898  0.2662
 1879SOL     OW17269   2.750   0.192   7.198  0.0757 -0.0214  0.7509
 1879SOL    HW117270   2.833   0.185   7.150 -0.8983  0.6861 -1.0255
 1879SOL    HW217271   2.707   0.267   7.157  0.2011 -1.7703 -2.5268
 1880SOL     OW17272   1.961   3.953   7.168 -0.0496 -0.2155 -0.5411
 1880SOL    HW117273   2.037   3.896   7.182  1.8399  2.5908  0.8265
 1880SOL    HW217274   1.919   3.957   7.254 -0.1135  0.2121 -0.5914
 1881SOL     OW17275   2.659   0.468   6.095 -0.2127 -0.1228 -0.1032
 1881SOL    HW117276   2.680   0.497   6.184 -0.2206 -1.5936  0.3848
 1881SOL    HW217277   2.564   0.474   6.105 -0.4975 -0.7028 -2.3602
 1882SOL     OW17278   3.663   2.748   7.984  0.8507  0.9557 -0.2202
 1882SOL    HW117279   3.726   2.778   8.050  1.7853 -1.6809  0.0847
 1882SOL    HW217280   3.611   2.825   7.963  0.4742  1.5177  2.7903
 1883SOL     OW17281   2.757   4.608   5.246 -0.3895 -0.3145 -0.2677
 1883SOL    HW117282   2.804   4.689   5.263 -0.2386 -0.7540  1.3886
 1883SOL    HW217283   2.815   4.563   5.184 -1.1330 -0.1459 -1.0936
 1884SOL     OW17284   0.354   2.382   7.884 -0.2435 -0.0836 -0.0481
 1884SOL    HW117285   0.325   2.322   7.815 -0.3348 -0.4913  0.3440
 1884SOL    HW217286   0.325   2.325   7.956  0.9419 -0.6771 -0.0454
 1885SOL     OW17287   0.062   4.650   6.227  0.7568  0.6542  0.0918
 1885SOL    HW117288   4.725   4.610   6.269  1.8568 -0.0609  1.3923
 1885SOL    HW217289   0.078   4.722   6.287  1.9425  1.3733 -1.0742
 1886SOL     OW17290   2.880   2.958  13.925 -0.1662 -0.0533  0.2281
 1886SOL    HW117291   2.793   2.931  13.895  0.3589 -2.0422  0.4899
 1886SOL    HW217292   2.928   2.879  13.899  0.2632 -0.1688  1.3790
 1887SOL     OW17293   1.005   1.945  15.817  0.5834  0.3190  0.3859
 1887SOL    HW117294   1.007   1.849  15.821 -2.2409  0.1685 -1.8724
 1887SOL    HW217295   1.065   1.962  15.744 -0.5144  0.1692 -0.5420
 1888SOL     OW17296   2.565   3.703   4.510 -0.0197  0.1788 -0.2481
 1888SOL    HW117297   2.649   3.676   4.546 -1.5401 -1.2340  2.2763
 1888SOL    HW217298   2.539   3.638   4.446 -1.3386 -0.7256  1.1958
 1889SOL     OW17299   3.280   1.443   5.014  0.0190  0.8033  0.9491
 1889SOL    HW117300   3.303   1.360   4.971  2.6198  1.4549  1.1419
 1889SOL    HW217301   3.193   1.462   4.977 -0.6003 -1.2600  1.3235
 1890SOL     OW17302   0.721   3.177   1.572 -0.1054 -0.1847  0.0514
 1890SOL    HW117303   0.629   3.205   1.571  0.1115  0.5118 -0.9873
 1890SOL    HW217304   0.747   3.222   1.491 -1.3664 -0.4188 -0.4771
 1891SOL     OW17305   3.839   4.270  11.030 -0.2892  0.0056  0.0125
 1891SOL    HW117306   3.827   4.176  11.014  0.0552  0.1948 -1.3287
 1891SOL    HW217307   3.889   4.293  10.952  0.0583  0.1823  0.2850
 1892SOL     OW17308   1.808   0.019  16.457  0.2665 -0.0916 -0.4152
 1892SOL    HW117309   1.727   4.724  16.420 -0.3250  0.9975 -0.1059
 1892SOL    HW217310   1.872   4.700  16.415  2.7245  1.9822  0.4878
 1893SOL     OW17311   3.582   3.931   4.867 -0.0648 -0.0523  0.3136
 1893SOL    HW117312   3.510   3.913   4.807 -0.9103 -0.8932  1.5937
 1893SOL    HW217313   3.652   3.976   4.819 -1.1652 -0.1915 -1.4205
 1894SOL     OW17314   1.797   3.404   6.121 -0.6353 -0.0654  0.1008
 1894SOL    HW117315   1.732   3.341   6.151 -1.2227 -0.2475 -1.5623
 1894SOL    HW217316   1.744   3.457   6.062 -0.5454 -1.7353 -1.4808
 1895SOL     OW17317   1.031   2.098   7.720  0.0626 -0.3896 -0.0073
 1895SOL    HW117318   1.081   2.017   7.717 -1.0240 -1.0766  0.1634
 1895SOL    HW217319   1.073   2.160   7.661  0.8831 -0.8515  0.1029
 1896SOL     OW17320   4.565   0.604   1.698  0.0968 -0.4045 -0.3001
 1896SOL    HW117321   4.599   0.559   1.776  2.9106  1.4611 -0.4483
 1896SOL    HW217322   4.590   0.540   1.631  0.0793 -0.6554 -0.0661
 1897SOL     OW17323   2.588   4.566   8.133 -0.0285 -0.0413  0.0891
 1897SOL    HW117324   2.599   4.661   8.143 -1.9173  0.3063 -1.0373
 1897SOL    HW217325   2.673   4.525   8.122  0.3571  0.1434  2.4293
 1898SOL     OW17326   1.005   1.825  13.943 -0.1722  0.1908 -0.1229
 1898SOL    HW117327   1.016   1.876  14.024 -1.6882 -1.7162  1.2749
 1898SOL    HW217328   1.084   1.772  13.931 -0.8405 -0.8211 -0.0391
 1899SOL     OW17329   4.268   2.143   4.029  0.3982 -0.3649 -0.1981
 1899SOL    HW117330   4.344   2.132   3.972  0.2821 -2.3523  0.0062
 1899SOL    HW217331   4.285   2.221   4.081  2.4358 -0.8111 -0.1755
 1900SOL     OW17332   0.912   4.370   2.352  0.4027  0.3605 -0.7022
 1900SOL    HW117333   0.832   4.331   2.316  0.1260  0.2518  0.0171
 1900SOL    HW217334   0.869   4.402   2.432 -0.1220 -2.0000 -0.0243
 1901SOL     OW17335   2.045   0.282   2.228 -0.0531  0.1947  0.1982
 1901SOL    HW117336   2.081   0.231   2.155  0.6176  0.2966  0.4597
 1901SOL    HW217337   1.956   0.307   2.201 -0.4105  0.5079  1.6679
 1902SOL     OW17338   4.240   1.538   3.060  0.4561  0.0957 -0.5088
 1902SOL    HW117339   4.250   1.516   3.152  1.2229  0.9265 -0.3985
 1902SOL    HW217340   4.154   1.500   3.042  1.3262 -1.2575 -1.8653
 1903SOL     OW17341   3.357   2.365  15.573  0.0623  0.1704  0.4610
 1903SOL    HW117342   3.275   2.318  15.556  0.4573 -0.1871 -0.4488
 1903SOL    HW217343   3.328   2.431  15.636 -0.8387 -0.1376  0.3627
 1904SOL     OW17344   2.976   1.096  11.043  0.0636 -0.1865 -0.0247
 1904SOL    HW117345   2.883   1.078  11.031  0.1578  0.1715 -1.2427
 1904SOL    HW217346   2.972   1.121  11.136  1.3808  0.5690 -0.1707
 1905SOL     OW17347   2.021   3.825   8.361 -0.2891 -0.0643 -0.3161
 1905SOL    HW117348   2.016   3.826   8.456 -1.5553  0.2079 -0.3909
 1905SOL    HW217349   1.991   3.913   8.337 -0.3856  0.0045  0.0561
 1906SOL     OW17350   3.467   0.786  15.564 -0.7130  0.2639 -0.3287
 1906SOL    HW117351   3.491   0.876  15.540  0.0597  0.5472  1.4933
 1906SOL    HW217352   3.494   0.720  15.500  0.9909  2.2204 -1.6206
 1907SOL     OW17353   2.222   1.009   1.098  0.1536 -0.4160  0.6545
 1907SOL    HW117354   2.229   1.003   1.193 -1.1302 -0.5305  0.7436
 1907SOL    HW217355   2.142   1.061   1.098  0.5552  0.2049 -1.7824
 1908SOL     OW17356   0.241   0.062   4.000  0.1291 -0.1092 -0.2965
 1908SOL    HW117357   0.211   0.078   4.089 -0.0157  1.6548 -0.6517
 1908SOL    HW217358   0.166   0.095   3.949  0.2716  1.1371  0.2996
 1909SOL     OW17359   0.621   4.226   2.633  0.5142 -0.8338 -0.1712
 1909SOL    HW117360   0.566   4.240   2.711 -1.2769 -0.7240 -1.4494
 1909SOL    HW217361   0.678   4.303   2.639 -0.0800 -0.3645 -0.5037
 1910SOL     OW17362   3.389   4.343   8.178  0.3446  0.1859  0.1852
 1910SOL    HW117363   3.432   4.272   8.130 -0.5317  0.8605 -1.5879
 1910SOL    HW217364   3.379   4.407   8.108 -0.2333 -1.1280 -0.9188
 1911SOL     OW17365   2.656   0.585   8.166  0.1709 -0.0550 -0.0444
 1911SOL    HW117366   2.700   0.544   8.241 -0.4535 -1.9003 -0.6673
 1911SOL    HW217367   2.637   0.674   8.196 -1.1473  0.1492 -1.4538
 1912SOL     OW17368   1.068   0.679   5.049  0.0947 -0.0978  0.5673
 1912SOL    HW117369   1.065   0.674   4.953 -0.2728  3.2949  0.3990
 1912SOL    HW217370   0.976   0.692   5.074 -0.2474 -3.4512  1.0047
 1913SOL     OW17371   4.572   2.579   8.418 -0.0064  0.3796  0.4979
 1913SOL    HW117372   4.551   2.651   8.360 -1.2359  0.1258  0.6365
 1913SOL    HW217373   4.659   2.607   8.446 -0.4400  0.7501  1.4837
 1914SOL     OW17374   3.250   2.839   6.561 -0.2358  0.0661 -0.0876
 1914SOL    HW117375   3.219   2.778   6.628  3.5562  1.5666  3.0743
 1914SOL    HW217376   3.325   2.788   6.528 -0.5339 -1.8184  2.1346
 1915SOL     OW17377   0.841   0.149   5.119  0.0107  0.2483 -0.3776
 1915SOL    HW117378   0.927   0.193   5.117  0.6807 -1.1223 -2.1999
 1915SOL    HW217379   0.859   0.090   5.046 -0.3199  0.0251 -0.2782
 1916SOL     OW17380   2.744   1.568   0.784  0.3031  0.6793 -0.2276
 1916SOL    HW117381   2.762   1.536   0.695 -3.7266 -1.9860 -0.0863
 1916SOL    HW217382   2.755   1.662   0.772  0.6122  0.7115  0.3229
 1917SOL     OW17383   0.706   3.831   2.951  0.4784 -0.2590  0.0118
 1917SOL    HW117384   0.723   3.755   3.006 -0.4261 -0.9994 -0.7288
 1917SOL    HW217385   0.674   3.894   3.016  0.4189  0.4474 -0.7007
 1918SOL     OW17386   2.026   0.903   2.353  0.3992 -0.1839  0.5511
 1918SOL    HW117387   1.951   0.908   2.413  0.4372  0.3630  0.5535
 1918SOL    HW217388   2.065   0.989   2.370 -3.6298  1.9767 -1.0104
 1919SOL     OW17389   1.581   2.914   8.548 -0.2470 -0.2845 -0.2933
 1919SOL    HW117390   1.564   2.894   8.640  2.1346  0.7513  0.3700
 1919SOL    HW217391   1.668   2.954   8.553  0.2822 -1.5013  0.0211
 1920SOL     OW17392   4.698   1.313   5.515  0.3536 -0.1918 -0.3006
 1920SOL    HW117393   4.734   1.233   5.552 -1.1990  0.0226  1.7097
 1920SOL    HW217394   4.650   1.352   5.589 -0.9693 -0.2534 -1.1275
 1921SOL     OW17395   0.675   2.956  10.433  0.1921  0.1541 -0.6110
 1921SOL    HW117396   0.619   2.880  10.448 -0.8223  0.9339 -0.4410
 1921SOL    HW217397   0.740   2.950  10.504 -0.7302  4.6753  0.5814
 1922SOL     OW17398   0.104   3.409   1.244  0.7219  0.4227  0.1774
 1922SOL    HW117399   0.176   3.446   1.296  1.6014 -0.1047 -0.6540
 1922SOL    HW217400   0.120   3.450   1.159  0.0301  0.6167  0.1462
 1923SOL     OW17401   0.123   1.727   2.345  0.5057 -0.1645  0.6463
 1923SOL    HW117402   0.159   1.646   2.382 -1.3493 -1.2983 -0.0211
 1923SOL    HW217403   0.109   1.704   2.254 -2.2286 -0.0007  1.0040
 1924SOL     OW17404   3.871   2.736   4.435 -0.4108 -0.0946  0.1399
 1924SOL    HW117405   3.866   2.764   4.526 -0.6939 -2.3543  0.8150
 1924SOL    HW217406   3.961   2.760   4.415 -0.5253  0.0844 -0.1636
 1925SOL     OW17407   3.048   4.427  15.366 -0.1391 -0.2629 -0.1247
 1925SOL    HW117408   2.957   4.407  15.341 -0.5184  1.0644  0.2180
 1925SOL    HW217409   3.057   4.515  15.331  0.2325 -0.5521 -0.7640
 1926SOL     OW17410   2.216   1.354  14.683 -0.0713  0.2542  0.2006
 1926SOL    HW117411   2.279   1.289  14.652  0.5034  0.9243 -0.0388
 1926SOL    HW217412   2.179   1.385  14.600 -1.2229  1.5177  1.1817
 1927SOL     OW17413   1.404   1.967  17.639  0.1619 -0.1729  0.1948
 1927SOL    HW117414   1.417   2.062  17.642  0.1950 -0.1717  0.0163
 1927SOL    HW217415   1.331   1.953  17.578  0.3667  0.1088 -0.1179
 1928SOL     OW17416   3.802   3.322  16.540 -0.2952  1.0328 -0.2457
 1928SOL    HW117417   3.744   3.365  16.477  0.2720 -1.6792 -2.6160
 1928SOL    HW217418   3.782   3.377  16.616  3.3059 -0.8067  2.0337
 1929SOL     OW17419   2.565   2.695   2.009 -0.9254 -0.1557 -0.0177
 1929SOL    HW117420   2.606   2.763   1.956 -0.8313 -2.0845 -2.4252
 1929SOL    HW217421   2.543   2.751   2.083  3.6578 -1.2893  2.1559
 1930SOL     OW17422   1.051   3.700   3.584 -0.1137  0.0155 -0.3746
 1930SOL    HW117423   1.065   3.702   3.490  0.1216  0.8584 -0.3192
 1930SOL    HW217424   0.995   3.777   3.589  0.8801  0.8416 -2.1687
 1931SOL     OW17425   2.399   2.609   7.208  0.1734 -0.0757 -0.0917
 1931SOL    HW117426   2.374   2.634   7.297 -0.2496  0.4578 -0.3587
 1931SOL    HW217427   2.493   2.596   7.219  0.3832  1.5626 -0.0141
 1932SOL     OW17428   1.952   4.612   5.814 -0.2107 -0.3885 -0.2844
 1932SOL    HW117429   1.895   4.575   5.882  0.6894 -2.1862 -0.5172
 1932SOL    HW217430   2.037   4.617   5.857  0.7457  0.2795 -2.2711
 1933SOL     OW17431   0.838   4.396   2.636 -0.0156 -0.4654  0.1784
 1933SOL    HW117432   0.932   4.402   2.652  0.1171  3.0016 -1.7058
 1933SOL    HW217433   0.806   4.473   2.683 -2.7662  0.4959 -3.2358
 1934SOL     OW17434   2.281   2.221  16.809 -0.7766  0.4330 -0.5648
 1934SOL    HW117435   2.221   2.149  16.789  1.0607 -0.6365 -2.1874
 1934SOL    HW217436   2.220   2.294  16.814 -1.8566 -0.4680 -0.6761
 1935SOL     OW17437   4.733   1.257  16.482 -0.3626  0.7044 -0.2271
 1935SOL    HW117438   4.679   1.298  16.550 -2.1557  2.0470 -2.4672
 1935SOL    HW217439   4.685   1.267  16.400 -0.5545 -0.5983 -0.2847
 1936SOL     OW17440   4.166   3.441  12.468  0.2139  0.0862  0.9015
 1936SOL    HW117441   4.211   3.421  12.386 -0.0511  0.1597  0.7388
 1936SOL    HW217442   4.124   3.357  12.487  0.1500 -0.5964 -2.2434
 1937SOL     OW17443   4.612   4.404   0.560 -0.4531 -0.0495  0.1373
 1937SOL    HW117444   4.695   4.451   0.550 -0.5569  0.4386  1.5875
 1937SOL    HW217445   4.655   4.320   0.575 -0.1260  0.6155  2.8906
 1938SOL     OW17446   2.991   3.886   5.507 -0.7433  0.4767 -0.2198
 1938SOL    HW117447   3.076   3.925   5.488 -0.0473 -0.0758  1.7480
 1938SOL    HW217448   2.989   3.818   5.440  0.3185  0.1776  0.0518
 1939SOL     OW17449   2.157   4.268   3.672 -0.2528  0.1798  0.6445
 1939SOL    HW117450   2.207   4.237   3.748 -1.2906 -1.0299  0.8336
 1939SOL    HW217451   2.071   4.234   3.699 -1.4588  0.4906 -2.8016
 1940SOL     OW17452   4.626   3.970   1.880  0.6447 -0.2221 -0.1603
 1940SOL    HW117453   4.668   4.037   1.826  0.3342  1.3760  1.5674
 1940SOL    HW217454   4.666   3.891   1.843 -0.9507 -0.7910 -0.6798
 1941SOL     OW17455   1.534   1.480  12.572  0.4384 -0.7730  0.5483
 1941SOL    HW117456   1.513   1.386  12.575 -0.9191 -0.4349  1.5524
 1941SOL    HW217457   1.514   1.501  12.663  1.5127 -0.2162  0.6575
 1942SOL     OW17458   1.794   3.566   8.457  0.2552  0.2134  0.3380
 1942SOL    HW117459   1.798   3.533   8.547  1.2725  0.9578  0.5607
 1942SOL    HW217460   1.706   3.605   8.460  0.0279 -0.2781  0.1816
 1943SOL     OW17461   1.528   3.109   1.553  0.1904 -0.2320 -0.7685
 1943SOL    HW117462   1.613   3.149   1.575 -0.2372  1.1245 -1.5927
 1943SOL    HW217463   1.556   3.061   1.475  2.8441 -1.5900  1.0122
 1944SOL     OW17464   4.548   4.592  10.002  0.1081 -0.0849 -0.0235
 1944SOL    HW117465   4.499   4.527  10.053  0.9637  0.5636  1.6318
 1944SOL    HW217466   4.481   4.631   9.946  1.4026  3.3702  0.8262
 1945SOL     OW17467   1.977   4.678  11.858  0.7535  0.0088 -0.0748
 1945SOL    HW117468   2.065   4.713  11.849  1.5974 -1.3417  2.8815
 1945SOL    HW217469   1.944   4.687  11.769  0.2113  0.2929  0.1515
 1946SOL     OW17470   1.873   2.347   5.477 -0.3921  0.3060  0.1813
 1946SOL    HW117471   1.883   2.442   5.486  1.4110 -0.1033  2.3996
 1946SOL    HW217472   1.811   2.346   5.404  1.6325 -0.9626 -1.4971
 1947SOL     OW17473   2.633   2.876   2.950  0.2452  0.4869  0.1420
 1947SOL    HW117474   2.562   2.934   2.979  0.0726  1.2597 -1.8185
 1947SOL    HW217475   2.708   2.903   3.003 -0.2288  1.3906  0.3526
 1948SOL     OW17476   3.387   2.278  14.307  0.3067  0.1842 -0.1224
 1948SOL    HW117477   3.476   2.279  14.341 -0.8830 -2.3444  2.9844
 1948SOL    HW217478   3.410   2.306  14.218 -0.0627  2.5679  0.5229
 1949SOL     OW17479   3.362   2.445  14.884 -0.0883 -0.1855  0.4283
 1949SOL    HW117480   3.417   2.410  14.954  0.9358  1.4295  0.4126
 1949SOL    HW217481   3.301   2.492  14.941  0.0549  1.1130 -0.4879
 1950SOL     OW17482   1.509   2.249   4.133 -0.1198 -0.1393  0.2245
 1950SOL    HW117483   1.459   2.180   4.178  1.0958 -1.4289 -0.4233
 1950SOL    HW217484   1.570   2.260   4.206  1.0275  0.8194 -0.8923
 1951SOL     OW17485   3.608   1.702   4.561  1.0906  1.0328 -0.0589
 1951SOL    HW117486   3.649   1.730   4.643  1.9593  2.0118 -0.8360
 1951SOL    HW217487   3.655   1.755   4.497  1.7248  0.3360 -0.1732
 1952SOL     OW17488   0.528   1.883   6.035  0.2602 -0.3737  0.3519
 1952SOL    HW117489   0.583   1.925   6.100  0.0487 -0.8752  0.8612
 1952SOL    HW217490   0.585   1.897   5.959  2.0137  1.0847  1.9731
 1953SOL     OW17491   1.855   1.812   3.660  0.5477  0.1865 -0.8151
 1953SOL    HW117492   1.807   1.765   3.728 -0.5289  1.9072 -0.3789
 1953SOL    HW217493   1.858   1.897   3.705 -0.9706 -0.7447  1.0418
 1954SOL     OW17494   4.221   0.249  16.098 -0.5418 -0.1519 -0.3681
 1954SOL    HW117495   4.223   0.175  16.159  0.4693 -0.9996 -1.4336
 1954SOL    HW217496   4.274   0.313  16.146 -0.2101 -0.1157 -0.7868
 1955SOL     OW17497   4.294   2.066  15.243  0.1209  0.2399  0.5211
 1955SOL    HW117498   4.236   2.008  15.293 -1.4923  0.0762 -1.5268
 1955SOL    HW217499   4.237   2.100  15.173 -0.3593 -1.5508  0.0437
 1956SOL     OW17500   3.268   0.534   5.974  0.0022  0.1638 -0.1055
 1956SOL    HW117501   3.354   0.547   6.014 -0.8814 -1.4397  2.3058
 1956SOL    HW217502   3.272   0.439   5.963  0.8262  0.0449  1.2985
 1957SOL     OW17503   3.954   4.006  10.154  0.4289 -0.0696  0.0596
 1957SOL    HW117504   4.012   3.937  10.123  0.4855 -0.6943  1.5480
 1957SOL    HW217505   3.875   3.951  10.154  0.4638 -0.1183  0.1898
 1958SOL     OW17506   0.535   3.085   6.703 -0.3693 -0.1604 -0.4337
 1958SOL    HW117507   0.461   3.031   6.730 -1.3896  1.1648 -0.6001
 1958SOL    HW217508   0.494   3.170   6.688 -1.5088 -0.6224  0.0926
 1959SOL     OW17509   0.624   2.615   8.592  0.0293 -0.6531 -0.3355
 1959SOL    HW117510   0.714   2.646   8.605  0.4027 -2.4444  1.3640
 1959SOL    HW217511   0.572   2.667   8.654 -0.2443 -2.0553  0.6163
 1960SOL     OW17512   0.335   3.732   3.308 -0.5114 -0.7297  0.1787
 1960SOL    HW117513   0.323   3.731   3.403  0.9988 -2.2841  0.3500
 1960SOL    HW217514   0.348   3.822   3.280 -1.2341 -1.5335 -2.7379
 1961SOL     OW17515   1.514   0.672   9.561 -0.4483  0.0208 -0.0254
 1961SOL    HW117516   1.513   0.763   9.591  1.0234  0.0906 -0.1580
 1961SOL    HW217517   1.422   0.655   9.543 -0.2257 -0.5670 -0.5787
 1962SOL     OW17518   4.356   2.170  13.238 -0.0995 -0.0247 -0.4369
 1962SOL    HW117519   4.357   2.091  13.184 -0.9939  1.6336 -2.8868
 1962SOL    HW217520   4.417   2.226  13.190 -0.4045  0.0727 -0.7137
 1963SOL     OW17521   0.381   2.672   2.305  0.4879 -0.1050  0.1808
 1963SOL    HW117522   0.460   2.671   2.359  1.5949 -0.9738 -1.4361
 1963SOL    HW217523   0.333   2.597   2.340  0.3766 -1.1283 -2.1530
 1964SOL     OW17524   1.311   3.381   4.958  0.1416 -0.1632  0.6981
 1964SOL    HW117525   1.385   3.439   4.940  1.5593 -2.4171 -0.6210
 1964SOL    HW217526   1.252   3.417   4.891 -0.9540 -1.7995  0.7813
 1965SOL     OW17527   0.922   3.279   1.133 -0.0670 -0.3029  0.2020
 1965SOL    HW117528   0.967   3.308   1.054 -1.2323  2.7672  0.6533
 1965SOL    HW217529   0.953   3.189   1.128 -0.5844 -0.4614 -0.1142
 1966SOL     OW17530   1.104   1.450   5.991 -0.2302  0.0840  0.1337
 1966SOL    HW117531   1.186   1.499   5.995  0.5256 -1.0203 -2.0468
 1966SOL    HW217532   1.135   1.365   6.020 -0.3516  0.1547  0.4664
 1967SOL     OW17533   3.458   1.638  11.957 -0.7512  0.7657  0.3688
 1967SOL    HW117534   3.416   1.558  11.925  1.4368 -0.1729 -0.1444
 1967SOL    HW217535   3.443   1.701  11.886 -1.3743 -0.0826 -0.2611
 1968SOL     OW17536   2.723   3.434   6.347 -0.1053 -0.6796  0.1884
 1968SOL    HW117537   2.789   3.490   6.387 -1.1477  1.8412 -1.5923
 1968SOL    HW217538   2.764   3.402   6.267 -1.5178 -0.7070 -0.5355
 1969SOL     OW17539   1.710   2.346   3.786  0.5165 -0.6326 -0.6538
 1969SOL    HW117540   1.688   2.366   3.695 -1.6920 -3.2210 -0.6543
 1969SOL    HW217541   1.641   2.390   3.836  2.2328  2.7648 -1.2669
 1970SOL     OW17542   0.578   2.339   5.918  0.4481 -0.3288 -0.6795
 1970SOL    HW117543   0.636   2.271   5.885  1.9381  0.6473 -0.0724
 1970SOL    HW217544   0.616   2.343   6.006 -1.9253 -0.2888  0.3487
 1971SOL     OW17545   1.242   1.766  15.840 -0.2775  0.0318  0.6731
 1971SOL    HW117546   1.222   1.708  15.913  0.1739 -1.5676 -0.4734
 1971SOL    HW217547   1.235   1.856  15.871  0.8586 -0.4554  2.3566
 1972SOL     OW17548   4.194   1.537   3.948  0.2818  0.3729 -0.1125
 1972SOL    HW117549   4.167   1.553   4.039 -2.0750  3.1013 -1.2826
 1972SOL    HW217550   4.119   1.572   3.899 -0.8148  0.0699  1.3302
 1973SOL     OW17551   1.096   3.850  12.484  0.2151  0.2354 -0.0389
 1973SOL    HW117552   1.119   3.918  12.547  0.8360 -0.0418  0.0424
 1973SOL    HW217553   1.059   3.781  12.540 -0.5793  1.5128  1.0099
 1974SOL     OW17554   0.629   2.956   2.855  0.2059 -0.4134  0.5597
 1974SOL    HW117555   0.696   3.007   2.899 -0.7845  2.5831 -1.3920
 1974SOL    HW217556   0.675   2.922   2.778 -1.1019 -0.5123 -0.1874
 1975SOL     OW17557   2.111   1.586   7.252 -0.0254  0.7829 -0.4725
 1975SOL    HW117558   2.111   1.652   7.322  0.4057  0.3178 -0.0378
 1975SOL    HW217559   2.064   1.636   7.185 -1.0365  0.8765  0.3044
 1976SOL     OW17560   4.442   3.407   8.900 -0.3588  0.6684 -0.7156
 1976SOL    HW117561   4.494   3.472   8.852  0.7545  1.3384  1.3989
 1976SOL    HW217562   4.511   3.364   8.950  0.2698  0.2061 -1.9820
 1977SOL     OW17563   1.941   3.679  11.217  0.1757  0.1445 -0.1086
 1977SOL    HW117564   1.887   3.650  11.291 -0.7137  0.6233 -0.5712
 1977SOL    HW217565   1.882   3.674  11.142 -0.7335  2.5441  0.4604
 1978SOL     OW17566   2.241   2.874  14.361  0.2780 -0.5815  0.3937
 1978SOL    HW117567   2.319   2.825  14.385  0.6139  0.2245  0.9544
 1978SOL    HW217568   2.286   2.949  14.321 -1.6417  0.4330  0.1434
 1979SOL     OW17569   3.173   3.105   1.336 -0.3307 -0.0102  0.0344
 1979SOL    HW117570   3.212   3.017   1.333  0.9449  0.5585  0.0549
 1979SOL    HW217571   3.108   3.096   1.266 -0.2245 -0.2782 -0.0320
 1980SOL     OW17572   2.160   4.350   8.712  0.3399  0.1952  0.2438
 1980SOL    HW117573   2.163   4.389   8.624  0.4012  0.4707  0.3681
 1980SOL    HW217574   2.081   4.393   8.743 -0.0037  1.4911 -2.3546
 1981SOL     OW17575   3.951   0.774   2.541 -0.1522  0.4128  0.5134
 1981SOL    HW117576   3.857   0.791   2.531 -0.1692 -0.2784 -0.3752
 1981SOL    HW217577   3.951   0.694   2.593  1.2736  0.1729  0.1275
 1982SOL     OW17578   3.924   2.671  13.390 -0.5202  0.3804 -0.3395
 1982SOL    HW117579   3.933   2.598  13.452  1.3508  0.3163 -0.6850
 1982SOL    HW217580   3.899   2.744  13.446 -0.3191 -0.9071  1.4174
 1983SOL     OW17581   4.450   2.456   4.667 -0.5172 -0.0961  0.5842
 1983SOL    HW117582   4.529   2.451   4.612 -0.8996 -1.3412  0.1483
 1983SOL    HW217583   4.445   2.551   4.678 -1.9889 -0.0538 -0.4378
 1984SOL     OW17584   1.804   1.178   2.933  0.4215 -0.3806  0.7906
 1984SOL    HW117585   1.788   1.273   2.936  0.0437 -0.4482  0.9459
 1984SOL    HW217586   1.871   1.150   2.995  1.0269  0.3941  0.4884
 1985SOL     OW17587   2.569   2.474   4.617  0.5113 -0.5543 -0.0716
 1985SOL    HW117588   2.642   2.535   4.611  1.7245 -1.8499  1.4688
 1985SOL    HW217589   2.525   2.472   4.532 -0.8798 -1.1885  0.6640
 1986SOL     OW17590   0.175   3.201   2.771 -0.1472 -0.5418 -1.1101
 1986SOL    HW117591   0.163   3.115   2.812  0.4943 -0.5484 -0.9338
 1986SOL    HW217592   0.267   3.226   2.782  0.0023 -1.7192  0.3514
 1987SOL     OW17593   0.352   0.026   0.221 -0.1956 -0.6095  0.5128
 1987SOL    HW117594   0.385   0.027   0.311 -1.7697  1.1139  1.0677
 1987SOL    HW217595   0.421   0.029   0.155 -0.3508  1.0748  0.4283
 1988SOL     OW17596   2.245   0.794   1.659  0.0832 -0.1082 -0.4246
 1988SOL    HW117597   2.333   0.823   1.682  1.1665 -0.6482 -3.8455
 1988SOL    HW217598   2.215   0.744   1.735  1.9472  0.2468  0.5250
 1989SOL     OW17599   1.893   1.496   9.559  0.0929  0.2008  0.5739
 1989SOL    HW117600   1.977   1.452   9.557 -1.3989 -2.5402 -2.0260
 1989SOL    HW217601   1.900   1.582   9.599 -0.0147 -0.0474  1.1274
 1990SOL     OW17602   1.460   0.286   2.907 -0.2041  0.2615  0.8079
 1990SOL    HW117603   1.411   0.365   2.887  2.6667  1.5705 -1.0182
 1990SOL    HW217604   1.473   0.302   3.000  2.2767  1.4397  0.2444
 1991SOL     OW17605   1.129   0.559  15.250 -0.5107  0.0703 -0.7558
 1991SOL    HW117606   1.088   0.543  15.335  0.6532 -1.7159 -0.5315
 1991SOL    HW217607   1.050   0.534  15.202 -1.0471 -1.6865  1.0501
 1992SOL     OW17608   2.696   3.709   0.071 -0.3249 -0.6493 -0.1303
 1992SOL    HW117609   2.762   3.751   0.016  1.3487 -1.0758  1.5848
 1992SOL    HW217610   2.688   3.771   0.144 -0.1431 -0.6966 -0.0702
 1993SOL     OW17611   2.169   1.747   9.209 -0.2949 -0.3084  0.0515
 1993SOL    HW117612   2.100   1.791   9.159 -0.5530  1.5199  2.0349
 1993SOL    HW217613   2.189   1.815   9.274 -1.0049 -1.5099  1.5123
 1994SOL     OW17614   3.381   0.796   2.900  0.1348 -0.4084 -0.4728
 1994SOL    HW117615   3.315   0.728   2.885 -0.1647 -0.4198  0.8834
 1994SOL    HW217616   3.465   0.758   2.875  0.5355  0.6903 -0.8060
 1995SOL     OW17617   4.310   2.690   2.299 -0.2388 -0.1029  0.4503
 1995SOL    HW117618   4.330   2.733   2.383 -0.2868  0.5146  0.1467
 1995SOL    HW217619   4.247   2.621   2.318 -3.2419  1.7251 -3.1231
 1996SOL     OW17620   2.032   2.340   2.422  0.0564 -0.5966 -0.8618
 1996SOL    HW117621   1.939   2.354   2.436  0.3124  0.3410 -0.0805
 1996SOL    HW217622   2.050   2.332   2.515  0.9620  0.0588 -0.9823
 1997SOL     OW17623   0.193   3.992  11.000 -0.1612  0.0872 -0.3252
 1997SOL    HW117624   0.127   4.042  11.049 -0.5877 -0.4685 -0.3317
 1997SOL    HW217625   0.175   4.021  10.911 -2.2558 -1.1130 -0.2748
 1998SOL     OW17626   0.809   4.085   4.260 -0.5934  0.1396 -0.2948
 1998SOL    HW117627   0.716   4.076   4.237 -0.2599 -1.2875 -1.0959
 1998SOL    HW217628   0.844   4.107   4.173  0.0302 -1.0999 -0.3602
 1999SOL     OW17629   2.764   2.114  17.616 -0.7583  0.2894  0.1305
 1999SOL    HW117630   2.819   2.192  17.618 -1.7103  0.8994  1.6298
 1999SOL    HW217631   2.789   2.074  17.699  1.7544 -0.4548 -0.9752
 2000SOL     OW17632   0.874   1.687   2.534  0.3046 -0.7898  0.1335
 2000SOL    HW117633   0.783   1.699   2.562  0.6791  0.3535  0.8578
 2000SOL    HW217634   0.882   1.593   2.521  0.6329 -0.8084  0.4810
 2001SOL     OW17635   4.513   4.630   3.976 -0.3361  0.1598  0.1333
 2001SOL    HW117636   4.438   4.655   4.030  0.0592 -1.2423  1.3316
 2001SOL    HW217637   4.478   4.635   3.887 -0.5271  2.0971  0.3304
 2002SOL     OW17638   1.070   0.918  16.864 -0.1498  0.1503 -0.3031
 2002SOL    HW117639   1.046   0.834  16.826  1.8774  0.2242 -1.7875
 2002SOL    HW217640   1.050   0.928  16.957 -0.9849 -0.6035 -0.4007
 2003SOL     OW17641   2.650   0.758   8.811  0.3346 -0.1547  0.0517
 2003SOL    HW117642   2.581   0.697   8.838 -0.3215  0.1846 -0.8578
 2003SOL    HW217643   2.722   0.702   8.783 -0.4059 -1.2380  0.2904
 2004SOL     OW17644   4.301   1.105   8.607 -0.2009  0.3662  0.1818
 2004SOL    HW117645   4.243   1.031   8.627  0.7407 -0.8229 -1.4096
 2004SOL    HW217646   4.280   1.169   8.675 -2.6692  1.8108 -1.9735
 2005SOL     OW17647   3.011   0.855   4.490 -0.3537 -0.0736 -0.2093
 2005SOL    HW117648   2.957   0.899   4.555 -0.7836  1.1118 -1.3715
 2005SOL    HW217649   3.015   0.766   4.524  1.4678  0.0308 -0.1662
 2006SOL     OW17650   3.627   2.150   4.940 -0.2095 -0.3011 -0.4169
 2006SOL    HW117651   3.533   2.130   4.945 -0.6323  1.3346 -1.9158
 2006SOL    HW217652   3.634   2.215   5.011  0.0594  0.2187 -0.9181
 2007SOL     OW17653   3.183   2.645  14.049 -0.5615 -0.1972  0.4832
 2007SOL    HW117654   3.103   2.629  13.999 -0.2633 -0.9989  0.2647
 2007SOL    HW217655   3.247   2.618  13.983 -1.3499  1.4959 -0.9656
 2008SOL     OW17656   2.206   1.810  13.715 -0.0653  0.1277 -0.5255
 2008SOL    HW117657   2.160   1.728  13.731  0.9275 -0.0841  1.2276
 2008SOL    HW217658   2.283   1.769  13.675  0.7254 -0.7515  1.9264
 2009SOL     OW17659   4.266   2.860   4.459  0.3670 -0.0489 -0.3091
 2009SOL    HW117660   4.232   2.845   4.370 -2.3880 -0.9972  0.8926
 2009SOL    HW217661   4.353   2.823   4.451  0.7507  0.2104  2.7205
 2010SOL     OW17662   2.481   2.050   2.673  0.0664  0.3187  0.1031
 2010SOL    HW117663   2.434   2.112   2.616 -0.9044 -0.4984  0.0132
 2010SOL    HW217664   2.571   2.080   2.661  0.0283  0.0094 -0.9727
 2011SOL     OW17665   1.107   3.664   0.223 -0.5331 -0.5041  1.0110
 2011SOL    HW117666   1.156   3.746   0.217  0.0056 -0.8343  0.9406
 2011SOL    HW217667   1.159   3.633   0.297  0.6271 -1.3511 -0.1770
 2012SOL     OW17668   3.583   2.104  14.524 -0.0864 -0.4875 -0.5626
 2012SOL    HW117669   3.610   2.181  14.474  1.4277 -0.3460  0.5085
 2012SOL    HW217670   3.614   2.034  14.465 -2.5034 -1.9254 -0.1298
 2013SOL     OW17671   4.633   1.239   1.803 -0.0751  0.0918  0.6438
 2013SOL    HW117672   4.550   1.264   1.763 -0.5542  0.6545  1.9902
 2013SOL    HW217673   4.621   1.188   1.883  3.6184 -0.8183  0.6414
 2014SOL     OW17674   2.890   1.508   9.301 -0.3260 -0.4336 -0.2072
 2014SOL    HW117675   2.801   1.472   9.305  0.2755 -1.8645  0.6986
 2014SOL    HW217676   2.933   1.432   9.261  0.5375 -0.4433  0.7197
 2015SOL     OW17677   0.778   1.076   5.189  0.0813  0.4509 -0.4870
 2015SOL    HW117678   0.714   1.044   5.125  1.5494 -1.1505 -1.1459
 2015SOL    HW217679   0.864   1.058   5.152 -0.7632 -0.4595 -2.0206
 2016SOL     OW17680   2.882   0.458   8.309  0.0159  0.6028 -0.1968
 2016SOL    HW117681   2.892   0.518   8.382  1.9564 -0.0665  0.0986
 2016SOL    HW217682   2.831   0.389   8.352 -0.8684  1.3237 -0.0827
 2017SOL     OW17683   4.030   1.914   4.601  0.7295  0.7644 -0.2823
 2017SOL    HW117684   4.033   1.920   4.696 -0.3162  0.5466 -0.2370
 2017SOL    HW217685   4.058   1.823   4.589 -0.5618  0.3546 -0.2775
 2018SOL     OW17686   4.011   2.720  13.146  0.4216 -0.2066  0.0896
 2018SOL    HW117687   3.965   2.694  13.225 -0.7176  1.8970  0.0986
 2018SOL    HW217688   4.090   2.667  13.160  0.1434 -1.1044 -1.7090
 2019SOL     OW17689   0.056   1.955   2.028  0.5327 -0.2315  0.0977
 2019SOL    HW117690   0.097   2.038   2.055  0.4013 -0.6904  1.7016
 2019SOL    HW217691   0.114   1.896   2.075 -0.2291 -3.0852 -2.5646
 2020SOL     OW17692   3.087   4.048  10.695  0.5445  0.2552 -0.3629
 2020SOL    HW117693   3.051   4.070  10.781 -0.8906  0.9829 -1.1552
 2020SOL    HW217694   3.047   3.963  10.675  0.0175  0.4745 -0.2483
 2021SOL     OW17695   3.872   1.917  16.254  0.1439 -0.2663  0.0541
 2021SOL    HW117696   3.962   1.947  16.237 -0.3200  0.3000 -1.4079
 2021SOL    HW217697   3.878   1.853  16.324  0.5263  0.2424  0.4847
 2022SOL     OW17698   0.879   2.489   8.991 -0.1187 -0.4528  0.2179
 2022SOL    HW117699   0.785   2.490   9.011 -0.4165  1.7283 -1.2079
 2022SOL    HW217700   0.879   2.576   8.951 -1.7885 -0.5574 -0.0186
 2023SOL     OW17701   3.604   3.642   6.800 -0.6050 -0.7611 -0.0419
 2023SOL    HW117702   3.560   3.696   6.735  1.8833  0.0444 -1.0475
 2023SOL    HW217703   3.606   3.571   6.736  0.4606  0.2064 -1.0787
 2024SOL     OW17704   3.978   1.312   6.246  0.6049 -0.2872 -0.4478
 2024SOL    HW117705   4.007   1.364   6.321  1.9139 -1.9123  0.1945
 2024SOL    HW217706   4.032   1.340   6.172  0.2932  4.1188  1.0088
 2025SOL     OW17707   3.763   4.423   8.965  0.3049 -0.0590 -0.1136
 2025SOL    HW117708   3.693   4.471   8.920  1.5885  2.2879  0.4088
 2025SOL    HW217709   3.847   4.459   8.936  0.0060  1.2756  0.7072
 2026SOL     OW17710   4.095   3.074   2.372  0.8603 -0.3021  0.2535
 2026SOL    HW117711   4.007   3.065   2.335  0.8998  0.0498  0.0773
 2026SOL    HW217712   4.100   2.982   2.399  1.5389 -0.3629 -0.0852
 2027SOL     OW17713   0.135   1.327   7.449 -0.5437 -0.1995 -0.0301
 2027SOL    HW117714   0.150   1.413   7.488 -0.8865 -0.5067  0.7853
 2027SOL    HW217715   0.043   1.344   7.426 -0.8549 -0.6637  0.8551
 2028SOL     OW17716   2.802   0.068  15.247  0.1904 -0.1113 -0.4829
 2028SOL    HW117717   2.794   0.164  15.247 -0.2418 -0.1437 -1.4703
 2028SOL    HW217718   2.760   0.044  15.164 -3.2818  1.3589  0.8485
 2029SOL     OW17719   2.537   3.566   2.697 -0.4278 -0.0910 -0.1588
 2029SOL    HW117720   2.488   3.627   2.752  3.1628  2.7065  0.0124
 2029SOL    HW217721   2.605   3.533   2.756 -0.2001 -1.3673 -1.1382
 2030SOL     OW17722   1.296   0.016   7.501 -0.4857 -0.0296  0.3763
 2030SOL    HW117723   1.351   4.695   7.552  2.2620  1.7031 -0.5000
 2030SOL    HW217724   1.276   4.694   7.431  0.5498  0.6581 -0.5281
 2031SOL     OW17725   4.307   0.396   8.262 -0.5604  0.0452  0.7007
 2031SOL    HW117726   4.313   0.335   8.188 -1.5283 -0.0968  0.7370
 2031SOL    HW217727   4.398   0.418   8.280 -0.2763  0.5989 -1.4090
 2032SOL     OW17728   0.734   1.534  16.736 -0.2098 -0.7662 -0.5025
 2032SOL    HW117729   0.751   1.614  16.687 -1.7940  0.4072  0.8522
 2032SOL    HW217730   0.671   1.487  16.681  0.0546 -1.0812 -0.5370
 2033SOL     OW17731   0.924   3.715   4.356 -0.3158 -0.4998 -0.2343
 2033SOL    HW117732   0.987   3.787   4.354  0.0710 -0.8406 -0.2287
 2033SOL    HW217733   0.884   3.731   4.442  1.9931  2.8158  0.2414
 2034SOL     OW17734   0.253   2.279   4.066 -0.2784  0.2016  0.3251
 2034SOL    HW117735   0.251   2.286   4.161  0.3896  1.7545  0.2255
 2034SOL    HW217736   0.190   2.208   4.054  3.2769 -2.4653 -2.9499
 2035SOL     OW17737   4.105   0.788   5.069  0.0886 -0.3754 -0.6027
 2035SOL    HW117738   4.013   0.777   5.043 -0.1030 -1.3189  0.5057
 2035SOL    HW217739   4.100   0.771   5.163  0.8164 -2.0009 -0.8546
 2036SOL     OW17740   2.886   4.269   3.708 -0.0568 -0.4228 -0.3948
 2036SOL    HW117741   2.893   4.202   3.776  1.7520 -0.2996 -0.4681
 2036SOL    HW217742   2.921   4.346   3.752  2.8754 -1.8608 -0.2105
 2037SOL     OW17743   4.029   4.142   7.656  0.4397  0.0672  0.8875
 2037SOL    HW117744   3.992   4.095   7.731 -1.0116 -0.8643 -0.4225
 2037SOL    HW217745   3.955   4.140   7.596  0.5138  0.1269  0.7950
 2038SOL     OW17746   2.170   3.327  11.538 -0.2161 -0.4413 -0.0138
 2038SOL    HW117747   2.140   3.238  11.522  0.6562 -0.2177 -3.0284
 2038SOL    HW217748   2.236   3.336  11.468  0.4252  0.4574  0.7087
 2039SOL     OW17749   0.242   2.978   3.350  0.1599  0.3638 -0.9316
 2039SOL    HW117750   0.261   3.017   3.435 -0.4085 -1.0478 -0.1536
 2039SOL    HW217751   0.169   3.031   3.318 -2.0393 -1.5550  0.8625
 2040SOL     OW17752   1.529   4.578   9.232  0.0638 -0.5243 -0.0587
 2040SOL    HW117753   1.523   4.579   9.328 -0.4809 -3.0860 -0.0705
 2040SOL    HW217754   1.624   4.576   9.228  0.0846  2.3339 -0.7493
 2041SOL     OW17755   1.643   3.684   7.863  0.1381  0.0347  0.1008
 2041SOL    HW117756   1.664   3.728   7.945 -2.8364  1.8418 -0.1082
 2041SOL    HW217757   1.548   3.683   7.876  0.1562  2.6432  0.4432
 2042SOL     OW17758   2.555   2.671   1.320 -0.0620  0.4006 -0.2230
 2042SOL    HW117759   2.584   2.619   1.395  1.6261 -0.1126 -1.2163
 2042SOL    HW217760   2.472   2.625   1.308  0.1590 -0.6547  2.2673
 2043SOL     OW17761   3.088   4.115   6.176 -0.8584  0.2193  0.0846
 2043SOL    HW117762   3.017   4.164   6.134  0.9261  1.2678 -1.7234
 2043SOL    HW217763   3.141   4.089   6.101 -0.2477  1.7587 -0.0124
 2044SOL     OW17764   1.152   0.237   6.463  0.4941  0.3983 -0.1336
 2044SOL    HW117765   1.131   0.224   6.371 -0.3911  1.5312 -0.0983
 2044SOL    HW217766   1.216   0.169   6.481  0.2353  0.5437  1.4202
 2045SOL     OW17767   3.565   2.811   3.541  0.1752 -0.4844 -0.2005
 2045SOL    HW117768   3.484   2.842   3.499 -0.4080 -1.8053 -0.0429
 2045SOL    HW217769   3.537   2.720   3.542  1.0660 -0.7431  1.5674
 2046SOL     OW17770   2.957   4.135   6.442 -0.3766  0.3556 -0.2096
 2046SOL    HW117771   2.959   4.050   6.487 -1.3559  0.0079 -0.8027
 2046SOL    HW217772   2.990   4.112   6.355  0.4324 -3.1663  1.0408
 2047SOL     OW17773   4.540   4.389   1.027  0.1396 -1.1235  0.5201
 2047SOL    HW117774   4.571   4.300   1.009  0.9934 -0.3862 -1.6568
 2047SOL    HW217775   4.619   4.428   1.066 -2.1202  2.1059  1.8685
 2048SOL     OW17776   2.670   0.244   6.615  0.4379  0.5289 -0.2329
 2048SOL    HW117777   2.765   0.247   6.606  0.3936 -1.3527 -1.5082
 2048SOL    HW217778   2.652   0.305   6.686  1.8702  2.0329 -1.1757
 2049SOL     OW17779   0.391   4.487  14.867  0.0349 -0.0862  0.2722
 2049SOL    HW117780   0.297   4.494  14.850  0.1379  2.4376  0.7733
 2049SOL    HW217781   0.377   4.454  14.956 -0.4162 -0.0856  0.2004
 2050SOL     OW17782   2.113   3.742  14.653  0.2136  0.0580  0.4428
 2050SOL    HW117783   2.143   3.713  14.739 -1.0966 -1.7532  0.2848
 2050SOL    HW217784   2.181   3.713  14.591  2.1955  2.0685  1.6892
 2051SOL     OW17785   3.555   4.014   4.315  0.0762 -0.7586 -0.2520
 2051SOL    HW117786   3.496   4.060   4.374  1.7615  1.7771 -0.5304
 2051SOL    HW217787   3.626   4.003   4.378 -0.1593 -1.2550 -0.0770
 2052SOL     OW17788   3.406   1.402   9.445 -0.1462  0.3408  0.1686
 2052SOL    HW117789   3.423   1.324   9.498 -2.6439 -0.6443 -0.4623
 2052SOL    HW217790   3.411   1.470   9.512 -2.2958 -0.7160  1.4123
 2053SOL     OW17791   3.278   0.568   9.436 -0.0863  0.3660  0.3963
 2053SOL    HW117792   3.270   0.560   9.341  0.6166 -0.3071  0.3986
 2053SOL    HW217793   3.201   0.621   9.458  1.1176  1.3132  2.2956
 2054SOL     OW17794   3.552   0.816   4.578 -0.6016  0.8029 -0.0086
 2054SOL    HW117795   3.514   0.885   4.523 -0.4096  0.1496 -0.9522
 2054SOL    HW217796   3.482   0.751   4.569 -0.5066  0.5362  1.1466
 2055SOL     OW17797   0.516   0.337  13.284  0.2952  0.2814  0.2250
 2055SOL    HW117798   0.524   0.353  13.378  0.0579  0.4309  0.2185
 2055SOL    HW217799   0.462   0.261  13.261 -0.7063  1.6439 -1.8569
 2056SOL     OW17800   1.310   1.240   1.821 -0.0766  0.4478 -0.4241
 2056SOL    HW117801   1.393   1.257   1.864 -1.8067  0.5198  2.8470
 2056SOL    HW217802   1.323   1.153   1.781  3.9202  1.3894 -1.1221
 2057SOL     OW17803   2.103   1.448   8.485 -0.3825  0.3229  0.3229
 2057SOL    HW117804   2.044   1.395   8.539  1.9391 -1.9009  0.6304
 2057SOL    HW217805   2.175   1.474   8.543 -0.1070  0.2543  0.0099
 2058SOL     OW17806   3.984   3.818   0.075  0.2985  0.4845  0.6660
 2058SOL    HW117807   3.927   3.778   0.141 -1.5316  0.6708 -0.8128
 2058SOL    HW217808   4.068   3.789   0.111 -0.1348  0.0397  1.3225
 2059SOL     OW17809   4.506   1.691   1.964  0.1322 -0.6266  0.2260
 2059SOL    HW117810   4.491   1.785   1.977  0.2369 -0.1144 -3.3684
 2059SOL    HW217811   4.593   1.679   2.001 -0.2850 -0.4079  1.2799
 2060SOL     OW17812   4.683   4.527   2.502 -1.3284  0.1971 -0.4648
 2060SOL    HW117813   4.648   4.613   2.522  0.1830  0.8178 -0.4780
 2060SOL    HW217814   4.690   4.541   2.407 -1.5903  0.1475 -0.4892
 2061SOL     OW17815   2.016   2.860   6.423 -0.3996  0.3287 -0.0420
 2061SOL    HW117816   2.008   2.867   6.518  0.4829 -1.2279  0.1332
 2061SOL    HW217817   1.971   2.778   6.403  1.1085 -0.3105 -0.7677
 2062SOL     OW17818   0.582   4.156   7.294 -0.2338  0.2278 -0.4287
 2062SOL    HW117819   0.495   4.183   7.264 -0.6180 -1.1362 -0.5677
 2062SOL    HW217820   0.568   4.061   7.289 -0.8618  0.1919  1.8815
 2063SOL     OW17821   4.346   2.150   5.077  0.4582 -0.6138 -0.1098
 2063SOL    HW117822   4.356   2.188   4.990  0.9945 -0.8844 -0.1691
 2063SOL    HW217823   4.435   2.121   5.096  1.2487  0.9118 -1.5308
 2064SOL     OW17824   3.087   3.106   5.354 -0.0972 -0.0527  0.1021
 2064SOL    HW117825   3.072   3.190   5.396 -1.4054 -1.2676  2.0432
 2064SOL    HW217826   3.091   3.045   5.428  2.7903  1.2514  1.0059
 2065SOL     OW17827   0.446   0.358   4.493  0.0079  0.1919  0.0773
 2065SOL    HW117828   0.370   0.405   4.526  0.9791  2.4899 -0.9734
 2065SOL    HW217829   0.401   0.280   4.461 -2.0188  0.0472  3.3255
 2066SOL     OW17830   0.071   0.542   6.625 -0.4474  0.3707 -0.0460
 2066SOL    HW117831   0.087   0.458   6.581 -1.3603 -0.8066  1.8371
 2066SOL    HW217832   0.036   0.607   6.564 -0.5646 -1.6499 -2.1175
 2067SOL     OW17833   0.398   4.552  12.567 -0.5941  0.0869  0.1313
 2067SOL    HW117834   0.397   4.514  12.655 -1.2426 -1.3134 -0.4759
 2067SOL    HW217835   0.492   4.566  12.571 -0.3844 -1.3599  0.3580
 2068SOL     OW17836   1.453   1.411  13.668 -0.2666  0.4805  0.1312
 2068SOL    HW117837   1.372   1.441  13.710  0.4371  1.1310  1.0190
 2068SOL    HW217838   1.523   1.439  13.727  1.6369  0.8679 -2.2845
 2069SOL     OW17839   0.671   0.433   4.937 -0.1172  0.2571 -0.5484
 2069SOL    HW117840   0.744   0.371   4.946 -0.9282 -1.1423 -3.8966
 2069SOL    HW217841   0.710   0.496   4.877  1.5456  0.5791  0.8647
 2070SOL     OW17842   3.214   1.021   7.403 -0.1921 -0.1980 -0.1364
 2070SOL    HW117843   3.125   1.034   7.371 -1.4293 -1.8046  2.5858
 2070SOL    HW217844   3.202   0.935   7.444 -0.6093  1.0456  2.3719
 2071SOL     OW17845   1.602   2.954   1.054  0.4028  0.7757 -0.0897
 2071SOL    HW117846   1.531   2.904   1.013  0.4310  1.2242 -0.6855
 2071SOL    HW217847   1.672   2.888   1.053 -0.0305  0.3360 -1.7635
 2072SOL     OW17848   1.552   0.938   4.830  0.0979 -0.1547 -0.1942
 2072SOL    HW117849   1.554   1.021   4.878  1.1394  0.5198 -1.3916
 2072SOL    HW217850   1.522   0.879   4.899  0.4479  0.1781  0.2419
 2073SOL     OW17851   0.435   1.539   5.883  0.3093  0.0475  0.9020
 2073SOL    HW117852   0.389   1.596   5.945  0.2341 -1.1058  1.8972
 2073SOL    HW217853   0.496   1.489   5.937  0.1216  0.0255  1.0941
 2074SOL     OW17854   0.781   0.561   1.917 -0.0744  0.0890 -0.0609
 2074SOL    HW117855   0.865   0.522   1.892 -0.2136  1.3715 -2.5853
 2074SOL    HW217856   0.815   0.634   1.968 -1.1521  0.0738  0.6855
 2075SOL     OW17857   4.098   3.613   1.808  0.2445 -0.2849  1.0918
 2075SOL    HW117858   4.133   3.698   1.780  1.8543 -1.6243 -0.9946
 2075SOL    HW217859   4.176   3.576   1.849  0.1905 -1.1175  0.4655
 2076SOL     OW17860   3.035   1.241   7.589 -0.1182  0.3300 -0.5814
 2076SOL    HW117861   2.971   1.269   7.523 -0.0665  0.5072 -0.5558
 2076SOL    HW217862   2.997   1.153   7.597  2.0113 -0.3182  2.4665
 2077SOL     OW17863   4.063   1.369   2.654  0.6950 -0.1539  0.1698
 2077SOL    HW117864   4.013   1.388   2.575 -0.0583 -1.2053  0.3920
 2077SOL    HW217865   4.112   1.289   2.633 -0.0330 -0.7272  0.6482
 2078SOL     OW17866   3.691   2.367   5.582  0.0930  0.1014  0.3084
 2078SOL    HW117867   3.627   2.337   5.647 -0.8958 -1.0532 -1.1593
 2078SOL    HW217868   3.690   2.461   5.601 -0.8727  0.3875 -1.0962
 2079SOL     OW17869   4.660   0.493   4.687 -0.3250 -0.4311  0.7257
 2079SOL    HW117870   4.612   0.414   4.666  2.2224 -1.4694 -1.2019
 2079SOL    HW217871   4.729   0.481   4.752  0.6833 -2.8480 -0.8217
 2080SOL     OW17872   1.919   2.546   1.137  0.1049  0.0571 -0.9496
 2080SOL    HW117873   1.916   2.567   1.230 -1.3572 -1.1831 -0.7207
 2080SOL    HW217874   1.908   2.452   1.145  1.5514 -0.1257 -1.0694
 2081SOL     OW17875   0.749   4.285  12.202 -0.0987 -0.1053 -0.8301
 2081SOL    HW117876   0.791   4.231  12.269  0.6967  2.4775  0.7372
 2081SOL    HW217877   0.826   4.315  12.153  0.0693  0.6448 -0.1061
 2082SOL     OW17878   0.240   0.916   1.814 -0.1765  0.4266  0.0462
 2082SOL    HW117879   0.174   0.922   1.745  0.0265 -0.6871 -0.2447
 2082SOL    HW217880   0.188   0.863   1.874  1.1220 -1.1950 -0.2812
 2083SOL     OW17881   2.799   0.674   4.942 -0.1271 -0.2964 -0.1880
 2083SOL    HW117882   2.777   0.714   5.026  3.1372  1.8367 -0.3517
 2083SOL    HW217883   2.889   0.707   4.938 -0.1062 -0.3330 -0.0350
 2084SOL     OW17884   4.376   2.242   4.814 -0.0475  0.3165 -0.4673
 2084SOL    HW117885   4.388   2.328   4.775 -1.7147  0.6286 -0.2917
 2084SOL    HW217886   4.314   2.205   4.751  1.5911 -0.8216 -1.4087
 2085SOL     OW17887   3.148   2.550   3.562 -0.7880 -0.0979  0.0237
 2085SOL    HW117888   3.103   2.560   3.478  2.0818  0.3036 -1.4917
 2085SOL    HW217889   3.086   2.591   3.621  1.1589  2.2064  0.4680
 2086SOL     OW17890   0.276   1.352  11.232  0.0845 -0.4077  0.3557
 2086SOL    HW117891   0.196   1.300  11.229 -0.0439 -0.2658  1.1092
 2086SOL    HW217892   0.247   1.415  11.298 -0.8392  0.9095 -1.3053
 2087SOL     OW17893   3.061   2.705  13.111 -0.0548  0.8834  0.1261
 2087SOL    HW117894   3.102   2.791  13.101 -0.8178  1.1259 -0.9166
 2087SOL    HW217895   3.016   2.720  13.194 -0.3570  0.2664  0.0761
 2088SOL     OW17896   4.639   0.964   1.220 -0.0764 -0.3148  0.2761
 2088SOL    HW117897   4.572   1.031   1.233  0.5640  0.4480 -0.3249
 2088SOL    HW217898   4.591   0.890   1.257 -1.8369  2.0166  2.6588
 2089SOL     OW17899   2.553   4.702   1.776 -0.1562  0.0046  0.1304
 2089SOL    HW117900   2.514   0.003   1.854 -0.8694  1.5510 -1.0002
 2089SOL    HW217901   2.561   4.612   1.807  1.2322  0.5638  1.4187
 2090SOL     OW17902   1.778   1.088   5.006 -0.2978 -0.4049  0.1899
 2090SOL    HW117903   1.718   1.102   4.933 -1.2070  0.4379  1.1062
 2090SOL    HW217904   1.792   1.175   5.042  0.5087 -0.8636  0.9751
 2091SOL     OW17905   4.464   3.328   2.657 -0.1244 -0.6474 -0.6782
 2091SOL    HW117906   4.441   3.406   2.606  2.3579  0.4334 -0.1292
 2091SOL    HW217907   4.540   3.353   2.709 -0.8187  2.0433 -0.9708
 2092SOL     OW17908   0.990   3.404   2.034  0.2981 -0.5322 -0.0247
 2092SOL    HW117909   0.992   3.333   1.970  3.2665 -1.1038  0.6960
 2092SOL    HW217910   0.905   3.443   2.014  0.9066  0.3518 -0.9129
 2093SOL     OW17911   3.159   1.911  12.323  0.2490 -0.3274 -0.5900
 2093SOL    HW117912   3.121   1.826  12.346 -0.7866  0.9204  2.2675
 2093SOL    HW217913   3.203   1.892  12.239  1.2968 -0.1407 -0.0844
 2094SOL     OW17914   0.612   1.695   2.628 -0.6397  0.1922 -0.0748
 2094SOL    HW117915   0.520   1.691   2.602 -0.5087  2.6694 -0.8911
 2094SOL    HW217916   0.611   1.637   2.705  0.3256 -0.6021 -0.6571
 2095SOL     OW17917   3.973   2.448   0.822  0.2972  0.0335  0.3297
 2095SOL    HW117918   4.055   2.494   0.804  0.2417  1.6025  4.0805
 2095SOL    HW217919   3.921   2.526   0.843  0.9628  0.3978  0.6185
 2096SOL     OW17920   2.251   3.045   6.646  0.2959  0.1018  0.4064
 2096SOL    HW117921   2.260   2.951   6.662  0.4972 -0.3710 -2.4823
 2096SOL    HW217922   2.156   3.044   6.651  0.2639 -0.9714 -0.3464
 2097SOL     OW17923   0.630   1.394   7.333  0.6306  0.2427 -0.0396
 2097SOL    HW117924   0.580   1.339   7.274  1.9948 -1.4812  0.4033
 2097SOL    HW217925   0.719   1.373   7.306  1.0982  0.8387  1.0090
 2098SOL     OW17926   1.482   1.675  11.623  0.5321 -0.4302 -0.5905
 2098SOL    HW117927   1.442   1.714  11.701 -0.5193 -0.1143 -1.2780
 2098SOL    HW217928   1.567   1.718  11.615  0.5135 -0.4602 -0.9284
 2099SOL     OW17929   4.301   1.883   4.914  0.4933 -0.2059  0.4404
 2099SOL    HW117930   4.259   1.915   4.834  0.4997  2.2512  1.4225
 2099SOL    HW217931   4.246   1.910   4.987 -0.2728  3.3454 -1.4561
 2100SOL     OW17932   4.592   1.663   5.823 -0.3866 -0.4740 -0.0445
 2100SOL    HW117933   4.684   1.637   5.826  0.0316  0.7248 -2.7248
 2100SOL    HW217934   4.606   1.756   5.837  0.6912 -0.4239 -1.4961
 2101SOL     OW17935   0.210   1.650   0.579 -0.1218  0.1377 -0.0945
 2101SOL    HW117936   0.282   1.699   0.539 -0.5295  0.6413 -0.2224
 2101SOL    HW217937   0.164   1.718   0.629  1.6187  2.5413 -1.7366
 2102SOL     OW17938   3.721   4.424   9.679 -0.2837  0.2053  0.2062
 2102SOL    HW117939   3.707   4.380   9.763  0.7446 -2.9244 -1.2670
 2102SOL    HW217940   3.802   4.470   9.701  0.2455  0.3391 -2.0779
 2103SOL     OW17941   2.400   4.249   7.545  0.2505  0.0288  0.1523
 2103SOL    HW117942   2.372   4.262   7.455 -1.6763  2.9971  1.1710
 2103SOL    HW217943   2.351   4.314   7.596 -1.0304 -1.4353  0.7828
 2104SOL     OW17944   2.222   1.490   2.329 -0.0148  0.5020 -0.1926
 2104SOL    HW117945   2.203   1.574   2.288  2.1317  0.1738 -1.8723
 2104SOL    HW217946   2.307   1.464   2.293  0.6932  0.4155  1.5302
 2105SOL     OW17947   2.165   2.581   2.062 -0.1950 -0.2147 -0.0960
 2105SOL    HW117948   2.175   2.587   1.967 -0.8342  1.5215 -0.0516
 2105SOL    HW217949   2.247   2.544   2.095  1.1988  0.0778 -3.1624
 2106SOL     OW17950   0.886   0.730  10.783  0.1342  0.2863  0.7261
 2106SOL    HW117951   0.794   0.701  10.782  0.3110 -0.2189 -0.7415
 2106SOL    HW217952   0.933   0.654  10.752  0.5921 -0.3487  2.9638
 2107SOL     OW17953   2.287   2.357  17.710  0.0188  0.3612 -0.0568
 2107SOL    HW117954   2.198   2.331  17.684  0.8376 -0.5176 -1.9313
 2107SOL    HW217955   2.342   2.301  17.656 -1.8015 -2.3766  0.9581
 2108SOL     OW17956   1.777   2.666  10.732 -0.5875  0.6687 -0.2838
 2108SOL    HW117957   1.801   2.574  10.743 -1.9018  0.6065  2.0195
 2108SOL    HW217958   1.812   2.675  10.643 -0.6918  0.9950 -0.2946
 2109SOL     OW17959   1.018   4.574   1.407  0.1011 -0.3962  0.5020
 2109SOL    HW117960   0.939   4.622   1.435  0.2492  1.1601 -1.7418
 2109SOL    HW217961   1.036   4.523   1.485  0.9173  1.3602  1.4683
 2110SOL     OW17962   4.582   0.497   0.846 -0.7493  0.5447 -0.5552
 2110SOL    HW117963   4.659   0.522   0.795 -1.0014  1.5303 -0.4398
 2110SOL    HW217964   4.538   0.582   0.845 -0.9708  0.4464  0.3597
 2111SOL     OW17965   0.994   1.588   6.973  0.2179  0.2877 -0.0458
 2111SOL    HW117966   1.066   1.540   6.931 -0.3258 -0.2533 -0.3692
 2111SOL    HW217967   0.930   1.518   6.964  1.2264 -0.8567  1.6825
 2112SOL     OW17968   4.195   1.831   3.751 -0.3152  1.0565 -0.2584
 2112SOL    HW117969   4.288   1.809   3.737 -1.0994 -1.6230 -1.4276
 2112SOL    HW217970   4.151   1.750   3.724 -1.5156  0.6425  3.0215
 2113SOL     OW17971   1.628   1.905   8.583 -0.2752  0.2167  0.0048
 2113SOL    HW117972   1.611   1.996   8.560 -0.1018 -0.0102 -1.0505
 2113SOL    HW217973   1.593   1.893   8.671  1.3230 -1.8973  0.3737
 2114SOL     OW17974   0.661   0.461   2.620 -0.2875 -0.1521 -0.4771
 2114SOL    HW117975   0.733   0.493   2.674  0.5786 -0.8420 -1.2196
 2114SOL    HW217976   0.588   0.458   2.682  0.6695 -1.4746  0.5896
 2115SOL     OW17977   3.961   0.747   3.368 -0.5595  0.3009 -0.0895
 2115SOL    HW117978   3.876   0.748   3.411 -0.3498  1.1347  0.2998
 2115SOL    HW217979   3.946   0.691   3.292  0.7878  0.1476 -0.2415
 2116SOL     OW17980   2.634   3.341   4.959  0.0034  0.3908 -0.6858
 2116SOL    HW117981   2.625   3.430   4.991 -5.8932  0.2643 -2.0153
 2116SOL    HW217982   2.717   3.351   4.912  1.0900  1.1433  1.4165
 2117SOL     OW17983   1.602   1.670   1.622 -0.5946 -0.0175  0.1031
 2117SOL    HW117984   1.564   1.755   1.601  1.0798  0.9871  1.1572
 2117SOL    HW217985   1.693   1.689   1.600 -0.2419 -2.0388 -0.1952
 2118SOL     OW17986   0.797   0.755   7.197  0.8547  0.3576  0.1412
 2118SOL    HW117987   0.772   0.742   7.289  1.0734 -0.8429  0.0271
 2118SOL    HW217988   0.731   0.706   7.149  0.0050  2.2488 -0.6350
 2119SOL     OW17989   4.566   3.507  13.383 -0.2043 -0.1167 -0.5019
 2119SOL    HW117990   4.576   3.544  13.471  1.0955  0.4164 -0.8723
 2119SOL    HW217991   4.622   3.569  13.337  0.9054  0.3024  1.4309
 2120SOL     OW17992   3.629   0.976  13.280 -0.3845 -0.1215  0.1823
 2120SOL    HW117993   3.551   1.029  13.263 -0.6708 -1.0302 -1.4005
 2120SOL    HW217994   3.681   1.045  13.319 -3.3650  0.8250  2.4248
 2121SOL     OW17995   1.506   2.988   7.391 -0.0242  0.5999 -0.4185
 2121SOL    HW117996   1.443   2.929   7.432  1.1454  2.1311  3.5404
 2121SOL    HW217997   1.587   2.977   7.440  0.4155 -0.5636 -1.4014
 2122SOL     OW17998   1.742   0.970   3.332 -0.4025  0.3517  0.3080
 2122SOL    HW117999   1.805   1.036   3.361 -2.6297  2.5560  0.1615
 2122SOL    HW218000   1.767   0.893   3.383  1.3959  0.5827 -0.2093
 2123SOL     OW18001   2.091   1.352  11.151 -0.2276  0.3397  0.6138
 2123SOL    HW118002   2.141   1.279  11.188 -0.2718 -1.3358 -2.7213
 2123SOL    HW218003   2.145   1.394  11.084 -0.8299 -0.2790 -0.2541
 2124SOL     OW18004   3.476   3.761   2.677 -0.1989  0.7900  0.6359
 2124SOL    HW118005   3.437   3.747   2.764 -2.2802  1.2820 -0.2264
 2124SOL    HW218006   3.540   3.832   2.686  2.0720 -1.0584 -0.7391
 2125SOL     OW18007   0.464   1.625  11.468  0.2079  0.3854 -0.3176
 2125SOL    HW118008   0.469   1.700  11.408  0.9996 -0.6609 -1.5522
 2125SOL    HW218009   0.371   1.605  11.458 -0.3822  2.6304  0.8015
 2126SOL     OW18010   2.453   4.187  14.994  0.5387  0.0599  0.1411
 2126SOL    HW118011   2.365   4.155  14.972  0.7521 -0.3517 -0.1115
 2126SOL    HW218012   2.512   4.123  14.955 -0.0689 -0.4158 -0.0114
 2127SOL     OW18013   3.072   1.873   4.518 -0.0854  0.7147  0.5060
 2127SOL    HW118014   2.978   1.871   4.504 -0.2620  0.4320  1.7848
 2127SOL    HW218015   3.114   1.834   4.441  0.7615  1.3323  0.6500
 2128SOL     OW18016   1.798   1.455   9.043  0.7868  0.5742 -1.2796
 2128SOL    HW118017   1.706   1.472   9.065  0.9805  0.7563 -0.5857
 2128SOL    HW218018   1.832   1.471   9.132 -0.2224 -0.5041 -0.6973
 2129SOL     OW18019   3.861   4.318   9.204 -0.6829 -0.0033 -0.2286
 2129SOL    HW118020   3.819   4.295   9.121 -3.3353  0.7026  0.8967
 2129SOL    HW218021   3.919   4.387   9.173 -0.0053 -0.6106 -0.3160
 2130SOL     OW18022   0.083   3.212  14.127  0.0813  0.3794 -0.2516
 2130SOL    HW118023   0.023   3.222  14.200 -0.7741 -2.1224 -0.6246
 2130SOL    HW218024   0.158   3.262  14.159  0.5633 -1.8229  2.0238
 2131SOL     OW18025   0.954   2.239   6.599  0.1255 -0.5254  0.4900
 2131SOL    HW118026   1.025   2.247   6.663 -0.8073  3.7199  1.0033
 2131SOL    HW218027   0.976   2.156   6.558  0.9397  0.9281 -1.9995
 2132SOL     OW18028   2.917   0.743   3.649  0.0558 -0.2910 -0.1946
 2132SOL    HW118029   2.924   0.835   3.676  0.7763  0.0042 -1.3518
 2132SOL    HW218030   2.940   0.744   3.556 -0.2095  2.0825 -0.2349
 2133SOL     OW18031   3.020   0.179   9.414  0.2471 -0.0285  0.0875
 2133SOL    HW118032   3.009   0.214   9.503  1.2651  0.2940  0.0822
 2133SOL    HW218033   3.089   0.117   9.437 -0.8310 -0.0401  3.2864
 2134SOL     OW18034   1.790   2.977   1.796 -0.6282 -0.0233 -0.4133
 2134SOL    HW118035   1.855   2.975   1.866  1.4119 -0.7978 -2.3456
 2134SOL    HW218036   1.723   3.034   1.834 -0.0747 -0.9138  1.8875
 2135SOL     OW18037   1.566   2.661   9.242  0.1029 -0.1449 -0.2264
 2135SOL    HW118038   1.519   2.637   9.322  0.6250  0.4603  0.2551
 2135SOL    HW218039   1.618   2.728   9.286 -1.4430  1.0069 -0.1288
 2136SOL     OW18040   1.591   2.569   1.561 -0.4320 -0.5352 -0.4131
 2136SOL    HW118041   1.658   2.634   1.542 -0.1549 -0.8044 -0.3541
 2136SOL    HW218042   1.573   2.536   1.473  0.3506 -0.9653 -0.4095
 2137SOL     OW18043   2.963   1.957   7.893 -0.6456  0.1583 -0.5444
 2137SOL    HW118044   3.050   1.962   7.932 -0.4946 -0.6452 -0.7797
 2137SOL    HW218045   2.961   1.872   7.849  2.9338 -0.0394 -0.2757
 2138SOL     OW18046   3.893   4.323   9.472  0.0632 -0.4804 -0.9311
 2138SOL    HW118047   3.830   4.357   9.535  0.4231 -0.8623 -0.3642
 2138SOL    HW218048   3.869   4.350   9.383 -0.8049  2.8328  0.3228
 2139SOL     OW18049   2.660   3.381  16.905 -0.8805 -0.4528 -0.2880
 2139SOL    HW118050   2.744   3.358  16.867 -0.3429 -0.8708  1.1260
 2139SOL    HW218051   2.683   3.375  16.998  1.1921  0.6459 -0.7311
 2140SOL     OW18052   0.658   4.128  10.133  0.1539 -0.2155  0.8431
 2140SOL    HW118053   0.569   4.112  10.165  0.0002  0.3951  0.7168
 2140SOL    HW218054   0.699   4.048  10.166  2.9990  0.4311 -1.1556
 2141SOL     OW18055   4.190   3.942  17.414  0.1782  0.0760  0.3194
 2141SOL    HW118056   4.208   4.030  17.444  1.9595  0.5914 -2.2616
 2141SOL    HW218057   4.245   3.887  17.469  2.9287  1.6028 -0.9227
 2142SOL     OW18058   4.572   4.371   2.163  0.4103 -0.0775  0.5066
 2142SOL    HW118059   4.616   4.288   2.144  1.8458  0.7166  0.3958
 2142SOL    HW218060   4.625   4.427   2.106  0.2850  0.0318  0.4973
 2143SOL     OW18061   2.856   3.901   5.979 -0.0509  0.0841 -0.2405
 2143SOL    HW118062   2.951   3.890   5.981  0.2556  3.7281  3.5398
 2143SOL    HW218063   2.857   3.977   5.921  1.9452 -1.0274 -1.6584
 2144SOL     OW18064   1.242   3.267   2.419 -0.0522  0.4699 -0.0811
 2144SOL    HW118065   1.172   3.264   2.484 -0.0619 -0.1461 -0.1185
 2144SOL    HW218066   1.265   3.174   2.408 -0.7473  0.4801 -1.6176
 2145SOL     OW18067   0.002   2.017  10.285 -0.2564  0.0604  0.4550
 2145SOL    HW118068   0.041   1.974  10.361  1.5230 -0.2305 -0.6337
 2145SOL    HW218069   4.651   2.026  10.318  0.9708 -1.0984  4.2040
 2146SOL     OW18070   2.138   3.040  11.555 -0.6853 -0.4505  0.2461
 2146SOL    HW118071   2.201   3.064  11.623  0.6995  1.1558 -1.6331
 2146SOL    HW218072   2.110   2.956  11.592  0.3646 -1.8220 -2.0948
 2147SOL     OW18073   0.677   4.594   2.668 -0.4641  0.2121 -0.1653
 2147SOL    HW118074   0.696   4.686   2.652 -0.1713  0.2104  0.1957
 2147SOL    HW218075   0.581   4.592   2.664 -0.5905  1.7398  1.8662
 2148SOL     OW18076   2.225   1.082   5.463 -0.3151  0.0068  0.6494
 2148SOL    HW118077   2.144   1.131   5.478 -1.0966 -1.1093  0.1164
 2148SOL    HW218078   2.252   1.118   5.379  2.3181 -3.3262  0.0398
 2149SOL     OW18079   0.316   1.001  17.415 -0.1434 -0.2620  0.0904
 2149SOL    HW118080   0.226   0.995  17.384 -0.2718 -0.7746  0.5495
 2149SOL    HW218081   0.306   0.967  17.504 -3.2408  0.3526 -0.0208
 2150SOL     OW18082   3.582   2.129   4.607  0.2976 -0.1303 -0.0375
 2150SOL    HW118083   3.496   2.119   4.648  0.5695  0.3700  0.6442
 2150SOL    HW218084   3.565   2.190   4.535 -0.8927  0.6688  0.9348
 2151SOL     OW18085   2.657   1.872   8.001  0.7875 -0.2797  0.3055
 2151SOL    HW118086   2.576   1.862   8.051 -0.4970  0.3574 -1.6425
 2151SOL    HW218087   2.704   1.934   8.057 -0.7081  0.6472  0.5240
 2152SOL     OW18088   1.587   1.622   5.059  0.0429  0.0087 -0.5059
 2152SOL    HW118089   1.577   1.621   4.964  2.5845  0.0643 -0.7574
 2152SOL    HW218090   1.582   1.716   5.077 -0.4884  0.0621 -0.9063
 2153SOL     OW18091   0.055   0.427   8.564 -0.2893  0.0624 -0.5499
 2153SOL    HW118092   0.026   0.508   8.523  1.0920  0.6896 -0.2523
 2153SOL    HW218093   4.715   0.372   8.559  0.5199 -0.8774 -3.3309
 2154SOL     OW18094   2.208   3.469   7.740  0.1671  0.5518 -0.4147
 2154SOL    HW118095   2.202   3.499   7.831 -2.4542 -2.5513  0.4499
 2154SOL    HW218096   2.185   3.376   7.742 -1.6115  1.0229  0.5894
 2155SOL     OW18097   0.876   4.164  12.406 -0.3424 -0.1072 -0.5733
 2155SOL    HW118098   0.882   4.178  12.501 -1.8789  0.1014 -0.5092
 2155SOL    HW218099   0.858   4.070  12.397 -0.9281 -0.1360  0.8249
 2156SOL     OW18100   3.928   2.051   1.842 -0.2550 -0.0256  0.2263
 2156SOL    HW118101   3.921   2.015   1.930  2.6545 -1.0579  0.0381
 2156SOL    HW218102   3.859   1.995   1.806  1.4516 -1.5155 -0.7741
 2157SOL     OW18103   0.288   2.279   8.715 -0.4034 -0.1281 -0.3935
 2157SOL    HW118104   0.297   2.323   8.800  0.3160  2.7329 -1.9614
 2157SOL    HW218105   0.380   2.257   8.702 -0.4499  0.4266 -1.6105
 2158SOL     OW18106   1.853   1.385   4.003 -0.0943 -0.4351  0.1857
 2158SOL    HW118107   1.900   1.333   4.068  1.1843 -1.1306 -1.2992
 2158SOL    HW218108   1.785   1.421   4.060  1.6801  0.6013  1.6433
 2159SOL     OW18109   2.614   0.627   7.675 -0.0669 -0.4420 -0.0648
 2159SOL    HW118110   2.686   0.565   7.681  1.0869  0.8815 -0.4001
 2159SOL    HW218111   2.544   0.580   7.721 -0.6465 -0.5607 -1.0653
 2160SOL     OW18112   3.918   1.523   7.392  0.4487 -0.2229 -0.4442
 2160SOL    HW118113   3.944   1.443   7.346 -2.1222 -1.3517  0.1089
 2160SOL    HW218114   3.992   1.534   7.452 -0.0704  0.3184  0.0948
 2161SOL     OW18115   2.446   4.299   6.860  0.1182  0.2645  0.2085
 2161SOL    HW118116   2.486   4.386   6.868 -1.4258  0.9353  0.4779
 2161SOL    HW218117   2.387   4.311   6.786 -1.5369 -1.3436  1.2752
 2162SOL     OW18118   3.511   4.609   2.013  0.2792  0.4478 -0.0281
 2162SOL    HW118119   3.472   4.685   2.058 -0.6541  1.5199 -2.6767
 2162SOL    HW218120   3.433   4.570   1.973  0.1655  0.7728 -0.1298
 2163SOL     OW18121   3.521   4.709   8.420  0.3553 -0.2988  0.6938
 2163SOL    HW118122   3.604   4.738   8.458  0.8045 -0.4580 -0.1747
 2163SOL    HW218123   3.540   4.619   8.393  2.0802  0.4252 -0.4621
 2164SOL     OW18124   1.346   3.848   1.813 -0.2629  0.0029 -0.4455
 2164SOL    HW118125   1.291   3.798   1.753  2.2211 -0.4954 -2.2901
 2164SOL    HW218126   1.400   3.895   1.750  0.5531 -0.1195  0.1566
 2165SOL     OW18127   2.724   2.886   9.042 -0.0072  0.4480 -0.9478
 2165SOL    HW118128   2.774   2.906   8.963 -0.6711  1.7604 -1.0248
 2165SOL    HW218129   2.789   2.915   9.107  0.0516 -1.2110 -0.2655
 2166SOL     OW18130   2.527   3.158   7.117 -0.3216 -0.4069 -0.3208
 2166SOL    HW118131   2.599   3.151   7.054 -0.3979  1.8253 -0.6243
 2166SOL    HW218132   2.454   3.153   7.056  1.0006  0.3146 -1.9483
 2167SOL     OW18133   2.029   2.417   4.578 -0.3244 -0.3961  0.5071
 2167SOL    HW118134   2.031   2.410   4.483  2.7209 -1.5172  0.6704
 2167SOL    HW218135   1.992   2.330   4.591 -1.3997  0.2474  1.7750
 2168SOL     OW18136   3.356   2.513   7.338 -0.1693 -0.1169 -0.6407
 2168SOL    HW118137   3.398   2.592   7.304 -0.3983  1.2655  2.3487
 2168SOL    HW218138   3.425   2.448   7.324 -0.2032  0.0038 -1.3761
 2169SOL     OW18139   3.590   0.222  11.954  0.0291 -0.1131  0.6385
 2169SOL    HW118140   3.635   0.228  12.038 -0.0759 -0.4435  0.7179
 2169SOL    HW218141   3.634   0.301  11.925 -1.7569  1.2542  1.6598
 2170SOL     OW18142   2.206   3.195   6.188  0.4442 -0.0535 -0.2419
 2170SOL    HW118143   2.122   3.164   6.223  0.5152  1.5679  1.3656
 2170SOL    HW218144   2.251   3.204   6.271 -1.1930 -3.2503  0.9763
 2171SOL     OW18145   1.493   2.204   8.949 -0.1112  0.1035 -0.4966
 2171SOL    HW118146   1.487   2.299   8.946 -0.9426  0.0588 -0.1995
 2171SOL    HW218147   1.403   2.171   8.958  0.1625 -1.5980 -4.0026
 2172SOL     OW18148   3.682   2.757   7.255  0.2113  0.0434 -0.1383
 2172SOL    HW118149   3.691   2.735   7.348 -0.2024 -0.1052 -0.1345
 2172SOL    HW218150   3.717   2.847   7.252 -0.2586  0.1861 -1.3607
 2173SOL     OW18151   0.073   2.896   8.589 -0.5181  0.0269 -0.8108
 2173SOL    HW118152   0.169   2.898   8.579 -0.6866  1.5105 -2.0308
 2173SOL    HW218153   0.056   2.803   8.571  1.7391 -1.0008  2.3984
 2174SOL     OW18154   1.697   4.341   8.824  0.4575  0.6490  0.3588
 2174SOL    HW118155   1.741   4.260   8.848 -0.2232  0.9900  2.8211
 2174SOL    HW218156   1.649   4.353   8.906  0.8349  2.7915  0.2708
 2175SOL     OW18157   3.612   0.719   9.796  0.2884 -0.1394 -0.1718
 2175SOL    HW118158   3.580   0.631   9.816  0.3186 -0.1584 -0.2079
 2175SOL    HW218159   3.702   0.712   9.827  1.2205 -1.6897 -3.2584
 2176SOL     OW18160   3.234   0.941   1.198 -0.9007  0.1770  0.0846
 2176SOL    HW118161   3.224   0.967   1.106 -2.0510 -2.4683 -0.5483
 2176SOL    HW218162   3.266   0.851   1.185  0.4943  0.6213  0.4850
 2177SOL     OW18163   2.290   2.688   2.805 -0.1491 -0.8537 -1.2936
 2177SOL    HW118164   2.218   2.702   2.867 -1.8702 -1.2006 -3.2225
 2177SOL    HW218165   2.242   2.648   2.733  0.6840 -1.1504 -1.6908
 2178SOL     OW18166   4.445   3.183  14.673  0.2465 -0.1068 -0.7715
 2178SOL    HW118167   4.412   3.127  14.603  0.7085  0.8783 -1.7859
 2178SOL    HW218168   4.470   3.122  14.742 -1.2896 -0.3929 -0.4801
 2179SOL     OW18169   1.125   0.902   9.658 -0.0586 -0.0238  0.2630
 2179SOL    HW118170   1.186   0.946   9.716 -0.0544  1.2558 -0.7040
 2179SOL    HW218171   1.078   0.844   9.718 -0.8990  0.3394 -0.0334
 2180SOL     OW18172   3.376   1.111   7.189 -0.7862 -0.7304  0.2801
 2180SOL    HW118173   3.424   1.033   7.217  0.0075 -0.1065  0.6678
 2180SOL    HW218174   3.312   1.117   7.260 -0.8560  2.0452 -0.0263
 2181SOL     OW18175   0.003   1.566   5.386 -0.4408  0.3122 -0.3399
 2181SOL    HW118176   0.026   1.546   5.295  0.3102  2.1042 -0.5465
 2181SOL    HW218177   4.714   1.480   5.416  1.9345 -0.0023  0.9762
 2182SOL     OW18178   2.001   4.347   9.050 -0.2697 -0.1394 -0.3059
 2182SOL    HW118179   1.942   4.395   9.107  0.6661  0.1686  0.4084
 2182SOL    HW218180   2.054   4.413   9.004  1.5463 -0.6959  0.9993
 2183SOL     OW18181   4.272   4.021  12.989 -0.1252  0.5863 -0.5366
 2183SOL    HW118182   4.309   4.008  12.901  1.0584  1.1222 -0.1153
 2183SOL    HW218183   4.297   3.936  13.023  0.3918  0.3935 -1.3835
 2184SOL     OW18184   0.017   0.163   5.304 -0.2358  0.4244  0.8427
 2184SOL    HW118185   0.056   0.233   5.356 -1.6906  2.1357 -0.3534
 2184SOL    HW218186   4.716   0.218   5.236  0.3268 -1.0357 -0.6714
 2185SOL     OW18187   3.382   0.297   8.426 -0.1804  0.3305 -0.7245
 2185SOL    HW118188   3.356   0.378   8.470 -2.4715 -1.8911  1.9961
 2185SOL    HW218189   3.476   0.292   8.445 -0.5020  2.9229  1.5818
 2186SOL     OW18190   0.302   2.844   4.270  0.0247 -0.2537 -0.1900
 2186SOL    HW118191   0.395   2.824   4.278 -0.7086 -2.7084  2.1110
 2186SOL    HW218192   0.261   2.758   4.264 -0.3131  0.1149 -2.9190
 2187SOL     OW18193   1.467   2.754   0.374 -0.2140  0.5702 -0.2926
 2187SOL    HW118194   1.517   2.768   0.454  0.9991  1.0974 -1.1411
 2187SOL    HW218195   1.397   2.819   0.378  0.3173  1.1477 -0.2857
 2188SOL     OW18196   0.169   4.550  17.457  0.3797 -0.1900  0.3556
 2188SOL    HW118197   0.127   4.492  17.520  0.8185 -3.9881 -2.8741
 2188SOL    HW218198   0.201   4.619  17.515  0.1418 -0.5870  0.9618
 2189SOL     OW18199   3.185   1.688   3.024  0.0426 -0.5089 -0.5953
 2189SOL    HW118200   3.146   1.664   2.940 -1.6823 -1.9587  0.6110
 2189SOL    HW218201   3.107   1.726   3.064  0.9792 -0.8643  1.6233
 2190SOL     OW18202   2.913   1.830   1.466 -0.6882  0.3025 -0.2810
 2190SOL    HW118203   2.880   1.756   1.519  1.9710 -0.2287  0.6288
 2190SOL    HW218204   2.917   1.900   1.531  2.8795 -0.1321 -0.0536
 2191SOL     OW18205   4.706   2.613   1.191 -0.0297 -0.3924  0.1421
 2191SOL    HW118206   4.714   2.650   1.104 -1.4832  0.0305  0.1966
 2191SOL    HW218207   0.042   2.652   1.236  0.5995 -0.5477 -0.7691
 2192SOL     OW18208   1.054   4.512   4.937 -0.6772 -0.4614  0.3231
 2192SOL    HW118209   1.055   4.566   5.016  0.0561 -0.0344  0.0207
 2192SOL    HW218210   0.964   4.510   4.905 -0.2914  2.0635 -0.9229
 2193SOL     OW18211   1.317   2.707   7.939  0.2713 -0.6995 -0.2690
 2193SOL    HW118212   1.349   2.631   7.987  0.0436 -0.1088  0.8331
 2193SOL    HW218213   1.244   2.741   7.991 -0.2089  0.3175 -1.6038
 2194SOL     OW18214   1.020   2.775   1.162 -0.1262 -0.2675  0.2184
 2194SOL    HW118215   1.114   2.760   1.147  0.2586  1.3686  0.9907
 2194SOL    HW218216   1.020   2.733   1.248 -2.6289 -0.2531  0.2182
 2195SOL     OW18217   3.215   4.345   3.098  0.2249  0.4732  0.0491
 2195SOL    HW118218   3.252   4.430   3.122  0.7050  0.9998 -2.5869
 2195SOL    HW218219   3.269   4.283   3.147 -1.2135 -1.0502 -0.2684
 2196SOL     OW18220   0.093   2.810  12.176 -0.1858 -0.4671  0.4130
 2196SOL    HW118221   0.017   2.858  12.144  0.0217 -1.4897 -1.6622
 2196SOL    HW218222   0.057   2.745  12.237  0.8479 -1.6523 -0.2304
 2197SOL     OW18223   1.066   2.876   0.619  0.4321  0.1933  0.3493
 2197SOL    HW118224   1.045   2.807   0.681  2.3745 -0.9177 -0.2450
 2197SOL    HW218225   1.017   2.839   0.545  2.2052 -1.1651 -0.1295
 2198SOL     OW18226   0.984   1.434  15.210  0.6599  0.0319  0.3658
 2198SOL    HW118227   1.032   1.505  15.252  0.1057  1.7844 -1.9099
 2198SOL    HW218228   1.048   1.399  15.148 -0.5031  1.4994 -1.6649
 2199SOL     OW18229   4.024   4.716   7.025  0.1000  0.8544  0.3499
 2199SOL    HW118230   4.071   4.695   6.944  0.2043  1.7628  0.1651
 2199SOL    HW218231   4.101   0.013   7.070  0.9196 -1.4242  0.7511
 2200SOL     OW18232   1.866   3.692   6.492  0.2176 -0.0600  0.3605
 2200SOL    HW118233   1.913   3.609   6.482  1.8101  1.1420 -2.2392
 2200SOL    HW218234   1.893   3.710   6.582  0.6161  0.8885  0.0507
 2201SOL     OW18235   3.119   1.374   2.137 -0.4643  0.1518 -0.6247
 2201SOL    HW118236   3.164   1.312   2.195  0.2320  1.4002  0.1805
 2201SOL    HW218237   3.192   1.425   2.102 -0.6078  0.7190 -0.0866
 2202SOL     OW18238   1.739   0.394   8.110  0.8595  0.2909 -0.1711
 2202SOL    HW118239   1.713   0.355   8.027 -0.2421 -1.4317  0.9988
 2202SOL    HW218240   1.759   0.484   8.084 -0.5280  0.3134 -1.1490
 2203SOL     OW18241   0.620   0.516   7.175  0.3782  0.2760 -0.0026
 2203SOL    HW118242   0.604   0.426   7.145 -0.8750  0.5642 -0.1712
 2203SOL    HW218243   0.560   0.522   7.250  1.9542  1.2562  1.1774
 2204SOL     OW18244   4.057   4.299   0.570  0.2625  0.3706 -0.8369
 2204SOL    HW118245   4.008   4.250   0.504 -1.9911  0.3163  0.8820
 2204SOL    HW218246   4.008   4.272   0.647  0.6092  0.4134 -0.6022
 2205SOL     OW18247   2.746   0.103  16.517  0.2264  0.1069 -0.5943
 2205SOL    HW118248   2.808   0.041  16.556  2.3883  0.9686 -2.6147
 2205SOL    HW218249   2.745   0.174  16.581  1.8049 -0.2715 -0.1484
 2206SOL     OW18250   0.049   3.996   3.204 -0.1175 -0.3157 -0.6681
 2206SOL    HW118251   0.070   4.083   3.237 -2.8891  0.9558 -2.2523
 2206SOL    HW218252   4.726   4.008   3.132  1.7253  0.2739 -2.1545
 2207SOL     OW18253   3.469   4.334   5.653  0.2374 -0.1077  0.3848
 2207SOL    HW118254   3.454   4.256   5.706 -2.0095  1.9522  2.7679
 2207SOL    HW218255   3.510   4.384   5.723  1.6443  0.3159 -0.7228
 2208SOL     OW18256   1.664   2.186   6.028  0.8495 -0.2146  0.0203
 2208SOL    HW118257   1.731   2.253   6.014  0.9637 -0.2803  0.2541
 2208SOL    HW218258   1.639   2.150   5.943 -0.1539 -0.3615  0.3752
 2209SOL     OW18259   4.631   4.338   9.705 -0.2747 -0.0452 -0.5661
 2209SOL    HW118260   4.537   4.350   9.690 -0.8065 -0.6242  2.1852
 2209SOL    HW218261   4.670   4.375   9.626  1.0971  0.8229  0.5037
 2210SOL     OW18262   1.100   3.635   9.992  0.5256  0.0720 -0.2225
 2210SOL    HW118263   1.128   3.722  10.021  0.5300 -0.2069  0.5893
 2210SOL    HW218264   1.019   3.645   9.942 -0.5633  0.4448  1.6212
 2211SOL     OW18265   1.890   1.687  15.179 -0.2185 -0.4277 -0.6373
 2211SOL    HW118266   1.876   1.615  15.117 -3.0248 -0.4918  0.0867
 2211SOL    HW218267   1.868   1.640  15.259  0.7329  0.1517 -0.0464
 2212SOL     OW18268   0.503   0.344   5.894 -0.3712 -0.1702  0.3304
 2212SOL    HW118269   0.485   0.426   5.940  1.2266  0.3368  0.0773
 2212SOL    HW218270   0.472   0.368   5.807 -0.1077  1.0677  0.5796
 2213SOL     OW18271   0.444   0.097   9.174 -0.3424  0.3182  0.0381
 2213SOL    HW118272   0.390   0.044   9.115 -0.1362 -1.4040  1.4115
 2213SOL    HW218273   0.474   0.167   9.115 -0.0203  0.0848 -0.0772
 2214SOL     OW18274   0.578   4.461   2.962  0.2813  0.0045 -0.1764
 2214SOL    HW118275   0.673   4.466   2.968  0.2809 -0.4207  0.2393
 2214SOL    HW218276   0.562   4.529   2.897  1.1764 -0.0370 -0.4334
 2215SOL     OW18277   0.388   0.600   9.290 -0.4155  0.3015 -0.3673
 2215SOL    HW118278   0.394   0.604   9.386  0.1497 -1.2840 -0.3352
 2215SOL    HW218279   0.349   0.513   9.279 -0.6082  0.6645 -2.5382
 2216SOL     OW18280   3.177   2.694  14.702 -0.1987  1.0468  0.1663
 2216SOL    HW118281   3.225   2.617  14.672 -2.9529 -0.3887 -0.5908
 2216SOL    HW218282   3.138   2.662  14.784  0.8612  0.0036  0.2599
 2217SOL     OW18283   0.254   4.051   0.328 -0.1403  0.4815  0.3806
 2217SOL    HW118284   0.177   4.097   0.363 -0.7024  0.3411 -0.6857
 2217SOL    HW218285   0.313   4.082   0.397 -0.3410  1.0159  0.3161
 2218SOL     OW18286   1.326   1.598   6.471 -0.3515 -0.1992 -0.1871
 2218SOL    HW118287   1.281   1.657   6.411  1.5878  0.1780 -1.2637
 2218SOL    HW218288   1.365   1.658   6.535  0.9195  0.9782 -2.0670
 2219SOL     OW18289   0.671   3.249  16.708  0.3626  0.3907  0.3170
 2219SOL    HW118290   0.739   3.238  16.642 -1.7461  1.5301 -2.0675
 2219SOL    HW218291   0.622   3.322  16.669  0.5536  0.2561 -0.1678
 2220SOL     OW18292   2.474   0.753   9.073 -0.1158 -0.0993  0.2803
 2220SOL    HW118293   2.428   0.786   8.997 -0.4955 -2.1749 -0.3902
 2220SOL    HW218294   2.396   0.733   9.125  0.3295 -0.0098  0.9928
 2221SOL     OW18295   3.277   0.921  12.549  0.3560  0.0401  0.0438
 2221SOL    HW118296   3.184   0.938  12.529  0.0338 -1.9880 -0.1710
 2221SOL    HW218297   3.315   0.997  12.505 -0.9396  1.4410  1.3222
 2222SOL     OW18298   1.199   1.654  13.926  0.7393 -0.1026  0.0577
 2222SOL    HW118299   1.206   1.590  13.855  4.8559 -0.2788  0.6275
 2222SOL    HW218300   1.288   1.683  13.945  0.9714  0.3120 -1.6326
 2223SOL     OW18301   3.605   0.645   4.236 -0.4623 -0.3432  0.0673
 2223SOL    HW118302   3.538   0.579   4.257  0.1031 -0.9319  0.0101
 2223SOL    HW218303   3.677   0.629   4.297  0.1605  0.2796 -0.5098
 2224SOL     OW18304   3.140   4.532   7.341  0.1312 -0.1276  0.5488
 2224SOL    HW118305   3.142   4.472   7.416  4.2089  0.4762  0.9167
 2224SOL    HW218306   3.190   4.486   7.274 -0.5595 -1.7313  1.1279
 2225SOL     OW18307   0.623   0.722   3.002 -0.0425 -0.1977  0.1168
 2225SOL    HW118308   0.615   0.638   2.957  2.3091 -0.2087 -0.2919
 2225SOL    HW218309   0.712   0.746   2.975  0.5121  0.2165  2.2748
 2226SOL     OW18310   0.335   4.561   7.130  0.7049 -0.2622  0.4995
 2226SOL    HW118311   0.336   4.596   7.041 -0.4792 -0.5779  0.3527
 2226SOL    HW218312   0.430   4.567   7.143  1.3354 -0.1682 -4.2100
 2227SOL     OW18313   4.505   3.606  15.515  0.6213  0.0435 -0.3227
 2227SOL    HW118314   4.580   3.653  15.477  0.4737  1.8803  1.6487
 2227SOL    HW218315   4.489   3.548  15.440  0.1517  0.3483 -0.4586
 2228SOL     OW18316   1.276   4.109   8.573 -0.1214 -0.1702  0.1540
 2228SOL    HW118317   1.189   4.069   8.576  0.3615 -1.2716 -0.4259
 2228SOL    HW218318   1.269   4.163   8.651 -0.0461  0.9812 -0.6411
 2229SOL     OW18319   4.369   0.294   1.102  0.4557  0.5083 -0.1235
 2229SOL    HW118320   4.359   0.199   1.114 -1.0425  1.0162  2.5828
 2229SOL    HW218321   4.291   0.333   1.140  1.1898  1.3521  0.5170
 2230SOL     OW18322   4.505   2.823   6.550 -0.3836 -0.1417 -0.1001
 2230SOL    HW118323   4.435   2.885   6.528 -0.2017  0.9210  2.3221
 2230SOL    HW218324   4.554   2.826   6.468 -1.7019 -0.6666 -0.9144
 2231SOL     OW18325   1.333   0.900   6.038 -0.1207  0.1330  0.1736
 2231SOL    HW118326   1.386   0.974   6.065 -0.2837  0.4536 -0.3628
 2231SOL    HW218327   1.380   0.867   5.961  3.7814  0.8003  2.2782
 2232SOL     OW18328   3.714   0.280   5.469 -0.1751  0.4404 -0.2442
 2232SOL    HW118329   3.697   0.304   5.560  0.6764  1.1472 -0.2752
 2232SOL    HW218330   3.676   0.192   5.459  1.2693  0.0023 -1.8519
 2233SOL     OW18331   0.327   3.934   4.169 -0.1672 -0.0154 -0.3228
 2233SOL    HW118332   0.400   3.974   4.121 -1.5653  2.0392 -0.7074
 2233SOL    HW218333   0.366   3.846   4.169 -0.1264  0.0178  2.4192
 2234SOL     OW18334   4.461   1.278   9.951  0.4333  0.1368  0.6051
 2234SOL    HW118335   4.476   1.364   9.990  0.7831 -0.3303  1.4951
 2234SOL    HW218336   4.410   1.240  10.023 -1.2933  0.6529 -0.3524
 2235SOL     OW18337   2.196   3.181   4.647 -0.1011  0.2904 -0.0159
 2235SOL    HW118338   2.202   3.088   4.666  0.3950  0.4329  0.5241
 2235SOL    HW218339   2.179   3.222   4.732 -0.1211  0.4235 -0.0832
 2236SOL     OW18340   3.658   3.099  17.571  0.3419  0.1940  0.3736
 2236SOL    HW118341   3.734   3.134  17.524 -0.6121  1.8626  0.0797
 2236SOL    HW218342   3.598   3.087  17.498  0.0037  1.0542  0.5054
 2237SOL     OW18343   2.060   1.560   1.600  0.0790  0.4530 -0.1177
 2237SOL    HW118344   2.104   1.609   1.530  1.9390 -0.8682  0.1000
 2237SOL    HW218345   1.970   1.591   1.595  0.0678  0.1741 -1.6932
 2238SOL     OW18346   3.014   0.110   7.915  0.0740 -0.7351  0.7605
 2238SOL    HW118347   2.972   0.196   7.925 -0.1081 -0.7683  0.2738
 2238SOL    HW218348   2.952   0.060   7.968 -1.0700  0.9813  1.0590
 2239SOL     OW18349   0.691   1.511  11.399  0.0359 -0.0564 -0.4501
 2239SOL    HW118350   0.650   1.428  11.375 -0.3991  0.0216  0.0366
 2239SOL    HW218351   0.612   1.547  11.439  1.1516  2.4436 -0.4647
 2240SOL     OW18352   1.205   1.772  11.801 -0.8722  0.2062  0.1980
 2240SOL    HW118353   1.114   1.789  11.777 -0.3028  0.3539 -1.8716
 2240SOL    HW218354   1.253   1.853  11.783 -0.4706 -0.0125  0.2695
 2241SOL     OW18355   3.561   3.865  11.976  0.5130 -0.5772  0.1313
 2241SOL    HW118356   3.492   3.915  11.934  1.4969  0.0330 -0.7787
 2241SOL    HW218357   3.637   3.868  11.917  1.2786 -0.0715  1.1438
 2242SOL     OW18358   3.570   3.889  10.433 -0.4522 -0.0986 -0.1690
 2242SOL    HW118359   3.536   3.910  10.347 -2.0417 -1.2436  0.1720
 2242SOL    HW218360   3.601   3.977  10.455 -0.7504 -0.2329  0.8137
 2243SOL     OW18361   3.498   0.928  17.751  0.0759  0.4382 -0.9694
 2243SOL    HW118362   3.550   1.008  17.744 -0.0951  0.7192  1.0908
 2243SOL    HW218363   3.494   0.927   0.094 -1.2993 -0.0501 -1.0298
 2244SOL     OW18364   0.403   4.432   0.418  0.5617  0.2710  0.1835
 2244SOL    HW118365   0.420   4.340   0.438 -0.3839 -0.0957 -0.7252
 2244SOL    HW218366   0.485   4.458   0.377  1.5391 -0.0314  1.9379
 2245SOL     OW18367   1.199   2.809  14.464 -0.3963  0.4941  0.3953
 2245SOL    HW118368   1.173   2.895  14.431  1.1199  0.6550 -0.3860
 2245SOL    HW218369   1.179   2.820  14.557  1.0002 -2.3893  1.0352
 2246SOL     OW18370   1.110   3.724   5.869  0.7059 -0.6947 -0.6144
 2246SOL    HW118371   1.180   3.789   5.873 -1.2741  1.5248 -1.4739
 2246SOL    HW218372   1.067   3.761   5.792 -1.1573  1.0082  1.2324
 2247SOL     OW18373   3.879   4.608   6.456  0.6610  0.1338 -0.6754
 2247SOL    HW118374   3.849   4.533   6.508  2.1422 -0.4797 -0.7082
 2247SOL    HW218375   3.885   4.560   6.373 -0.3249  0.7813 -1.1283
 2248SOL     OW18376   4.604   3.961   5.272 -0.1593  0.8278 -0.1692
 2248SOL    HW118377   4.653   3.922   5.199  1.7326  1.1901  0.9093
 2248SOL    HW218378   4.672   4.009   5.319 -0.4334  1.6519 -0.6161
 2249SOL     OW18379   2.889   2.926   2.810 -0.0697  0.2907 -0.0759
 2249SOL    HW118380   2.825   2.926   2.881 -3.2357  1.8765 -2.8999
 2249SOL    HW218381   2.910   3.020   2.812 -0.7364  0.4216  1.0562
 2250SOL     OW18382   3.906   0.712  14.008  0.4293  0.4224  0.2670
 2250SOL    HW118383   3.870   0.630  14.040 -1.4555  0.9854 -0.3818
 2250SOL    HW218384   3.967   0.680  13.941  0.1260 -1.9643  1.1384
 2251SOL     OW18385   3.831   0.177   7.759  0.1777  0.2057  0.6224
 2251SOL    HW118386   3.787   0.205   7.678  1.0568 -0.1416  0.0254
 2251SOL    HW218387   3.771   0.223   7.818 -1.9892 -1.3269 -0.3676
 2252SOL     OW18388   0.854   1.207  13.415  0.2174  0.2144 -0.2244
 2252SOL    HW118389   0.818   1.182  13.500 -0.6370 -1.8009 -1.1847
 2252SOL    HW218390   0.879   1.117  13.393 -0.1066 -0.0569  0.4997
 2253SOL     OW18391   0.698   1.794   5.451 -0.4124  0.3805  0.5103
 2253SOL    HW118392   0.622   1.774   5.506 -1.9283 -2.2109 -2.5235
 2253SOL    HW218393   0.741   1.709   5.454 -1.1215 -0.0613 -1.8542
 2254SOL     OW18394   0.827   0.972  12.681  0.3078 -0.3477  0.2079
 2254SOL    HW118395   0.767   0.901  12.702 -1.0386  0.7525  0.0503
 2254SOL    HW218396   0.833   1.032  12.756  0.2338  2.5157 -2.1057
 2255SOL     OW18397   2.850   1.015  14.453 -0.1279  0.3311  0.6292
 2255SOL    HW118398   2.830   1.053  14.368  0.8931  0.5848  0.5069
 2255SOL    HW218399   2.879   0.926  14.431  0.8272  0.4998  1.2149
 2256SOL     OW18400   3.776   1.856   7.555  0.1122  0.1189 -0.7421
 2256SOL    HW118401   3.703   1.903   7.595  1.7324  2.1175 -0.1157
 2256SOL    HW218402   3.779   1.794   7.628 -2.3848  1.7921  0.8071
 2257SOL     OW18403   2.252   3.609   6.434  0.3520  0.5986 -0.0436
 2257SOL    HW118404   2.322   3.592   6.371  1.3218 -2.2200  1.7961
 2257SOL    HW218405   2.269   3.532   6.489 -1.5848 -0.4907 -0.9491
 2258SOL     OW18406   1.471   0.904   5.644 -0.0656  0.1953  0.3569
 2258SOL    HW118407   1.502   0.991   5.619  2.4126 -0.7633  0.1209
 2258SOL    HW218408   1.553   0.863   5.671 -0.0262 -0.0981 -0.2174
 2259SOL     OW18409   3.776   2.928  16.994 -0.4499 -0.5512  0.1382
 2259SOL    HW118410   3.689   2.911  17.029 -0.4594  0.0744  0.4133
 2259SOL    HW218411   3.822   2.970  17.067  1.7529 -2.1336 -0.3469
 2260SOL     OW18412   4.330   3.665   4.241  0.4053 -0.8527 -0.1062
 2260SOL    HW118413   4.323   3.668   4.146 -2.8667 -0.5975  0.1368
 2260SOL    HW218414   4.309   3.576   4.269  0.3641 -0.9821 -0.5561
 2261SOL     OW18415   1.416   2.736   2.990  0.0116 -0.1123 -0.1700
 2261SOL    HW118416   1.380   2.791   2.921 -0.1660 -0.0743 -0.0460
 2261SOL    HW218417   1.506   2.769   2.995  0.3290 -0.8887 -0.6672
 2262SOL     OW18418   2.628   2.785   8.730 -0.4445  0.3176 -0.3111
 2262SOL    HW118419   2.635   2.756   8.820  1.1392  2.1644  0.1649
 2262SOL    HW218420   2.641   2.702   8.684 -2.7344 -0.3649  0.2806
 2263SOL     OW18421   2.131   3.709   7.223  0.2903  0.5398  0.0799
 2263SOL    HW118422   2.077   3.648   7.274 -2.2931  0.5346 -2.6858
 2263SOL    HW218423   2.188   3.748   7.290  1.2261 -0.4379 -0.1488
 2264SOL     OW18424   1.614   3.853   2.431  0.1456  0.5171  0.3355
 2264SOL    HW118425   1.709   3.859   2.420  0.0834  0.5690 -0.2053
 2264SOL    HW218426   1.583   3.864   2.341  0.3208  0.5987  0.2855
 2265SOL     OW18427   3.008   0.816   1.708  0.2233 -0.0913 -0.4641
 2265SOL    HW118428   3.089   0.825   1.658 -0.0515 -0.6461 -1.0064
 2265SOL    HW218429   2.956   0.783   1.634  0.5651 -1.6439 -0.0025
 2266SOL     OW18430   2.992   4.319   2.413  0.4564  0.5179 -0.2557
 2266SOL    HW118431   3.015   4.308   2.321 -0.7553 -3.9027 -0.0072
 2266SOL    HW218432   2.970   4.412   2.418 -0.4859  0.2340  0.7805
 2267SOL     OW18433   0.000   4.547   7.983  0.3302  0.1840 -0.2752
 2267SOL    HW118434   0.062   4.476   8.002 -1.1685 -0.8198  0.8811
 2267SOL    HW218435   4.661   4.519   8.031 -0.0789  0.4968 -0.7620
 2268SOL     OW18436   3.398   2.320   8.890 -0.4056 -0.0659  0.0552
 2268SOL    HW118437   3.361   2.236   8.861  0.6310 -0.7973  0.8682
 2268SOL    HW218438   3.340   2.352   8.960 -2.2646 -1.2531 -0.9372
 2269SOL     OW18439   0.989   1.136  12.896 -0.3728  0.4546 -0.2172
 2269SOL    HW118440   0.965   1.210  12.952 -1.2025  0.6455 -0.8155
 2269SOL    HW218441   1.019   1.069  12.957 -1.0275  1.2167  0.9490
 2270SOL     OW18442   1.217   4.439   1.271  0.0296  0.0516  0.5045
 2270SOL    HW118443   1.152   4.484   1.326 -0.5421  1.0753 -1.0080
 2270SOL    HW218444   1.205   4.490   1.191  1.2877 -0.2698  0.1091
 2271SOL     OW18445   3.298   4.319  10.359  0.3204 -0.5205 -0.2064
 2271SOL    HW118446   3.264   4.390  10.413 -0.9945 -1.8159  0.6870
 2271SOL    HW218447   3.309   4.244  10.417  0.0981  0.2484  0.8324
 2272SOL     OW18448   1.208   3.730   1.595  0.6928  0.0525  0.1215
 2272SOL    HW118449   1.213   3.650   1.542  1.6213  0.5757 -0.5938
 2272SOL    HW218450   1.114   3.747   1.587  0.1340 -1.9922  2.1287
 2273SOL     OW18451   2.197   1.584   2.830  0.5472  0.7895 -0.3987
 2273SOL    HW118452   2.264   1.541   2.777 -0.3143 -1.0352 -0.0310
 2273SOL    HW218453   2.117   1.562   2.781 -0.7886  1.6925  1.3694
 2274SOL     OW18454   0.048   3.615   8.191 -0.1137  0.1288 -0.3874
 2274SOL    HW118455   0.100   3.628   8.112 -0.2746  2.1102 -0.1644
 2274SOL    HW218456   0.073   3.528   8.223  0.5901  1.1041  1.6764
 2275SOL     OW18457   2.800   1.121   4.867  0.3462  0.0772 -0.3622
 2275SOL    HW118458   2.750   1.197   4.837 -1.4944 -1.3609 -0.9581
 2275SOL    HW218459   2.731   1.056   4.881 -1.4548  1.3069 -3.5316
 2276SOL     OW18460   0.780   1.003   8.719  0.1417  0.5514  0.4518
 2276SOL    HW118461   0.743   0.944   8.785 -0.4716  1.4228  0.8915
 2276SOL    HW218462   0.749   0.970   8.635  0.1398 -0.6861  0.9472
 2277SOL     OW18463   1.128   0.045   2.402  0.3337  0.3940 -0.8023
 2277SOL    HW118464   1.136   4.688   2.398 -2.1797  0.1292  0.8334
 2277SOL    HW218465   1.095   0.068   2.315 -1.3440  0.2863 -0.1881
 2278SOL     OW18466   0.760   3.641   7.033 -0.5539 -0.2370 -0.6749
 2278SOL    HW118467   0.849   3.644   7.069 -0.2871  1.8844 -1.4635
 2278SOL    HW218468   0.732   3.557   7.067 -1.2774  0.8114  1.3231
 2279SOL     OW18469   0.037   2.909   9.077 -0.0843  0.2890 -0.0326
 2279SOL    HW118470   4.683   2.884   9.079 -0.1277  0.3655 -1.2737
 2279SOL    HW218471   0.046   2.962   9.157 -1.4828 -1.2892  1.1795
 2280SOL     OW18472   3.811   0.455   6.611  0.0522  0.5624 -0.4998
 2280SOL    HW118473   3.851   0.416   6.534 -0.6815  1.7088 -1.4621
 2280SOL    HW218474   3.880   0.458   6.677 -0.8578  1.5430  0.4146
 2281SOL     OW18475   4.402   4.498   2.308 -0.2439 -0.0278  0.7585
 2281SOL    HW118476   4.388   4.414   2.353  1.7205 -0.6920  0.1661
 2281SOL    HW218477   4.465   4.461   2.246  2.0334  1.2207  2.3421
 2282SOL     OW18478   1.394   3.110   8.907  0.1312 -0.0297 -0.3221
 2282SOL    HW118479   1.352   3.162   8.976 -2.2996 -0.9611 -1.1081
 2282SOL    HW218480   1.321   3.103   8.845 -0.3584  2.2850 -0.0073
 2283SOL     OW18481   3.286   2.919  15.414 -0.3163 -0.2852  0.3461
 2283SOL    HW118482   3.227   2.942  15.485 -1.1025 -0.4881 -0.2379
 2283SOL    HW218483   3.243   2.955  15.337 -0.8997 -1.2765  0.2113
 2284SOL     OW18484   1.507   3.545  17.160 -0.3001  0.4251  0.0778
 2284SOL    HW118485   1.450   3.589  17.224  0.1167  1.5680 -0.3462
 2284SOL    HW218486   1.572   3.494  17.209 -1.9345  0.1095  1.9220
 2285SOL     OW18487   2.580   1.477   4.530 -0.1105 -0.1951  0.6471
 2285SOL    HW118488   2.617   1.525   4.604 -2.2208  1.7859  0.3940
 2285SOL    HW218489   2.508   1.431   4.573  1.8795 -1.6949  2.4196
 2286SOL     OW18490   3.544   4.271   7.629  0.4243  0.5784  0.3777
 2286SOL    HW118491   3.470   4.329   7.611  0.5742  1.0350  1.2344
 2286SOL    HW218492   3.567   4.251   7.538 -0.7157  1.5551 -0.1319
 2287SOL     OW18493   1.727   1.013   9.125 -0.1265  0.0074  0.3025
 2287SOL    HW118494   1.695   1.026   9.036 -3.2385  4.7177  2.1036
 2287SOL    HW218495   1.686   0.931   9.153 -0.6217  0.6696  1.4995
 2288SOL     OW18496   4.554   1.010  11.180 -0.2361 -0.2245  0.9148
 2288SOL    HW118497   4.621   1.076  11.197  0.8180 -0.5503 -1.9418
 2288SOL    HW218498   4.527   1.022  11.089 -0.0835  2.3283  1.2059
 2289SOL     OW18499   1.710   3.382   8.654 -0.8369  0.3443  0.0339
 2289SOL    HW118500   1.638   3.321   8.640 -0.9127  0.3276  0.5171
 2289SOL    HW218501   1.700   3.409   8.745  1.8024  0.1968  0.3616
 2290SOL     OW18502   0.870   4.410   4.131  0.1598 -0.7721  0.6755
 2290SOL    HW118503   0.802   4.404   4.198 -1.1838 -0.7646 -0.7044
 2290SOL    HW218504   0.856   4.334   4.074 -0.1994 -1.8988  2.2667
 2291SOL     OW18505   2.579   2.984   5.488  0.2163 -0.3108  0.1679
 2291SOL    HW118506   2.518   3.046   5.528  0.7265 -1.3730  2.5825
 2291SOL    HW218507   2.532   2.965   5.407 -0.8177  2.8875  0.0283
 2292SOL     OW18508   0.375   2.269   0.447 -0.2681  0.1398 -0.1334
 2292SOL    HW118509   0.403   2.242   0.360  1.6501 -1.6648  1.0319
 2292SOL    HW218510   0.457   2.253   0.495 -1.0916 -1.6690  0.6710
 2293SOL     OW18511   2.754   1.620   3.995  0.3479 -0.1735  0.1318
 2293SOL    HW118512   2.734   1.690   3.932  1.8858  0.5958  0.4990
 2293SOL    HW218513   2.749   1.541   3.943 -0.7331  1.0879 -1.6813
 2294SOL     OW18514   1.610   1.790   0.458 -0.5914  0.3512  0.3258
 2294SOL    HW118515   1.532   1.797   0.403 -1.9034  0.8014  2.2549
 2294SOL    HW218516   1.631   1.879   0.484 -1.5773  0.3818  1.0491
 2295SOL     OW18517   1.147   3.846   8.833  0.5003  0.1789  0.5209
 2295SOL    HW118518   1.177   3.886   8.915  2.7224 -1.8803  0.7010
 2295SOL    HW218519   1.097   3.921   8.801  2.2701  0.8372 -0.7148
 2296SOL     OW18520   1.769   2.637   4.203  0.2299  0.1682 -0.1440
 2296SOL    HW118521   1.776   2.676   4.289  1.9363  0.3295 -0.3656
 2296SOL    HW218522   1.723   2.554   4.215  0.8164 -0.1769 -0.3051
 2297SOL     OW18523   0.415   0.698  11.746 -0.2745  0.6683 -0.2739
 2297SOL    HW118524   0.433   0.609  11.778 -0.2025  1.8739  3.0838
 2297SOL    HW218525   0.498   0.741  11.727 -0.8489  1.9597  0.1471
 2298SOL     OW18526   3.783   3.088   1.420 -0.1837  0.3834 -0.0002
 2298SOL    HW118527   3.709   3.121   1.471 -0.9815 -0.9208 -0.3061
 2298SOL    HW218528   3.731   3.027   1.368 -0.8904 -0.2394  1.4332
 2299SOL     OW18529   3.409   1.867   5.154  0.4607  0.1729  0.0873
 2299SOL    HW118530   3.333   1.865   5.212 -0.4798 -0.0052 -1.1527
 2299SOL    HW218531   3.461   1.940   5.187 -1.3068  1.3311  0.3143
 2300SOL     OW18532   3.630   4.400   1.687 -0.3721 -0.1426  0.8078
 2300SOL    HW118533   3.706   4.377   1.634  0.6793  0.3774  2.0685
 2300SOL    HW218534   3.655   4.363   1.772 -0.1789 -1.0999  0.3431
 2301SOL     OW18535   2.958   0.423  11.679  0.0673  0.2725  0.0921
 2301SOL    HW118536   2.927   0.427  11.770 -0.3948 -0.4172 -0.0359
 2301SOL    HW218537   3.045   0.452  11.706 -0.8229  1.7633  1.3602
 2302SOL     OW18538   2.428   2.862   3.609  0.1027 -0.2047 -1.1231
 2302SOL    HW118539   2.440   2.917   3.687 -0.0844  0.1620 -1.3491
 2302SOL    HW218540   2.385   2.785   3.644  2.0508 -0.6360  0.3138
 2303SOL     OW18541   1.712   3.342   2.114 -0.0349 -0.4320  0.3839
 2303SOL    HW118542   1.660   3.322   2.192  1.8737 -1.9879  1.2632
 2303SOL    HW218543   1.755   3.426   2.133  3.2821 -2.1326  0.5070
 2304SOL     OW18544   2.735   0.171   5.480  0.1357 -0.4656 -0.1270
 2304SOL    HW118545   2.712   0.156   5.388 -1.2175  1.0952 -0.0274
 2304SOL    HW218546   2.830   0.182   5.481  0.0755  0.0475 -0.4885
 2305SOL     OW18547   1.041   1.155  15.416  0.4904 -0.3921 -0.0598
 2305SOL    HW118548   1.066   1.240  15.380  0.9249 -0.6188 -0.2879
 2305SOL    HW218549   1.088   1.099  15.354  0.1598  0.1752 -0.8168
 2306SOL     OW18550   4.167   1.268   7.712 -0.3651  0.3300 -0.1373
 2306SOL    HW118551   4.256   1.234   7.725 -0.5174 -0.3207 -0.7408
 2306SOL    HW218552   4.190   1.303   7.626 -1.3820 -1.2117 -1.0375
 2307SOL     OW18553   4.087   4.715   6.077 -0.5652  0.4144  0.2122
 2307SOL    HW118554   4.158   4.654   6.057  0.3807  1.0566  1.5918
 2307SOL    HW218555   4.081   0.026   5.996  2.7956  0.5354  0.0321
 2308SOL     OW18556   1.545   2.776   8.177 -0.5421  0.3219  0.3215
 2308SOL    HW118557   1.511   2.698   8.134  0.9821  0.5177 -1.2660
 2308SOL    HW218558   1.598   2.816   8.108  0.7021  0.2066  1.2087
 2309SOL     OW18559   4.439   0.964   9.068 -0.5485  0.7789 -0.5784
 2309SOL    HW118560   4.483   1.042   9.100  0.9615 -0.9138  1.4544
 2309SOL    HW218561   4.441   0.914   9.150 -0.8021  0.6916 -0.6241
 2310SOL     OW18562   1.069   4.679   5.695  0.4680 -0.3028 -0.6885
 2310SOL    HW118563   1.105   4.659   5.608  1.6435  0.0875 -0.2858
 2310SOL    HW218564   1.115   4.616   5.749  1.5620 -0.7908 -2.1775
 2311SOL     OW18565   4.551   2.801  15.636 -0.1812 -0.6123  0.3822
 2311SOL    HW118566   4.530   2.894  15.630  1.8188 -0.2525 -0.9265
 2311SOL    HW218567   4.629   2.806  15.581 -0.8319 -3.9147 -0.8425
 2312SOL     OW18568   1.067   0.921  15.625  0.2302  0.0457 -0.1967
 2312SOL    HW118569   1.133   0.928  15.694  1.5861  1.2492 -1.6048
 2312SOL    HW218570   1.038   1.009  15.601  0.2756  0.7135  2.2848
 2313SOL     OW18571   3.305   3.192   7.288  0.3265 -0.4208 -0.2160
 2313SOL    HW118572   3.347   3.171   7.371  0.8171  2.8723  0.3745
 2313SOL    HW218573   3.221   3.212   7.329  0.7121  0.4835  0.1405
 2314SOL     OW18574   2.873   1.104  13.511 -0.3612  0.0248 -0.0346
 2314SOL    HW118575   2.854   1.130  13.421  0.4719  0.9188  0.0419
 2314SOL    HW218576   2.826   1.168  13.564 -1.9738 -1.5667  0.4509
 2315SOL     OW18577   0.012   3.154   5.419  0.2656  0.2102  0.0859
 2315SOL    HW118578   4.669   3.106   5.408  0.9189 -0.6416 -1.1178
 2315SOL    HW218579   0.028   3.141   5.512  2.6096 -0.4662 -0.4139
 2316SOL     OW18580   2.296   1.685   4.384 -0.0549  0.1505  0.2985
 2316SOL    HW118581   2.350   1.627   4.331  0.7913 -0.1294  1.4554
 2316SOL    HW218582   2.276   1.627   4.457 -0.0601  0.2197  0.3530
 2317SOL     OW18583   0.403   1.545   3.153  0.2760 -0.6905  0.0843
 2317SOL    HW118584   0.382   1.475   3.214 -1.9115  1.6235  1.9602
 2317SOL    HW218585   0.391   1.497   3.070  1.3411 -0.7179 -0.0522
 2318SOL     OW18586   2.474   0.856   7.315 -0.0352 -0.3809 -0.0751
 2318SOL    HW118587   2.392   0.865   7.266  0.1356 -0.8051 -0.4395
 2318SOL    HW218588   2.444   0.818   7.397 -0.4440  0.1816  0.0329
 2319SOL     OW18589   0.084   1.397   1.919  0.2446 -0.7823 -0.3991
 2319SOL    HW118590   0.016   1.348   1.873  0.6773  0.0249 -1.9183
 2319SOL    HW218591   0.151   1.330   1.932 -0.4249 -1.0447  1.6139
 2320SOL     OW18592   0.085   1.706   3.223  0.0600  0.1889 -0.1888
 2320SOL    HW118593   0.052   1.790   3.255  1.1253  1.0886 -1.4685
 2320SOL    HW218594   0.180   1.707   3.240  0.6873 -0.5580 -3.6861
 2321SOL     OW18595   3.089   2.741   2.831 -0.4474 -0.0074  0.3110
 2321SOL    HW118596   3.166   2.796   2.843 -1.0904  1.1426 -0.8291
 2321SOL    HW218597   3.019   2.805   2.846 -2.0862 -1.0117 -3.0365
 2322SOL     OW18598   3.587   3.550   2.973 -0.5633  0.3934  0.0725
 2322SOL    HW118599   3.503   3.549   3.018 -0.1340 -2.4277  0.8112
 2322SOL    HW218600   3.620   3.638   2.990  0.5296  0.1774 -0.9199
 2323SOL     OW18601   1.117   2.016  15.064  0.2141  0.0861 -0.0125
 2323SOL    HW118602   1.135   1.924  15.083  2.1031  0.0746 -1.9524
 2323SOL    HW218603   1.025   2.001  15.042  0.2170  0.4289 -0.2475
 2324SOL     OW18604   2.788   0.290  16.755  0.3450  0.9556 -0.4663
 2324SOL    HW118605   2.855   0.315  16.817 -1.6059  2.1512  1.1638
 2324SOL    HW218606   2.726   0.363  16.760 -0.5891  0.1642 -0.5001
 2325SOL     OW18607   1.273   1.596   2.152 -0.7697 -0.1145 -0.0370
 2325SOL    HW118608   1.223   1.532   2.101  1.1366 -1.5460 -0.0799
 2325SOL    HW218609   1.213   1.617   2.223  1.7200  3.0282  1.1364
 2326SOL     OW18610   1.821   2.415  10.763 -0.0122  0.1103 -0.0621
 2326SOL    HW118611   1.873   2.354  10.712  0.4162  1.1758 -0.9054
 2326SOL    HW218612   1.814   2.372  10.848 -0.7290 -0.0131 -0.1789
 2327SOL     OW18613   4.489   3.158   8.481 -0.0420 -0.0611  0.0776
 2327SOL    HW118614   4.566   3.140   8.427  0.7904 -2.8333  2.2018
 2327SOL    HW218615   4.490   3.080   8.536 -0.7332  1.9562  2.9537
 2328SOL     OW18616   3.473   3.959   7.410 -0.0506  0.6358 -0.0296
 2328SOL    HW118617   3.553   3.955   7.358 -0.4543 -1.6111 -0.4633
 2328SOL    HW218618   3.442   3.869   7.403 -0.8105  0.9394 -0.5974
 2329SOL     OW18619   1.204   3.544  12.267  0.2817 -0.1222 -0.1923
 2329SOL    HW118620   1.221   3.450  12.271 -0.9063 -0.3652 -0.7651
 2329SOL    HW218621   1.140   3.554  12.338  0.6460 -1.1521  0.2708
 2330SOL     OW18622   4.238   0.607   4.370 -0.1303  0.4883 -0.0063
 2330SOL    HW118623   4.160   0.657   4.348  0.8548  2.2396  0.4211
 2330SOL    HW218624   4.255   0.639   4.459 -1.6227 -1.2686  0.8985
 2331SOL     OW18625   1.142   2.028   1.415  0.2055 -0.1157  0.1443
 2331SOL    HW118626   1.069   2.084   1.389 -0.6692 -0.6520  1.4580
 2331SOL    HW218627   1.168   1.990   1.331  1.4061 -1.4727  1.1314
 2332SOL     OW18628   2.566   0.062   9.601  0.3595 -0.0001  0.1259
 2332SOL    HW118629   2.611   0.046   9.684 -0.0420 -0.0227  0.3390
 2332SOL    HW218630   2.641   0.038   9.546 -0.8241  1.1306 -1.9709
 2333SOL     OW18631   0.268   2.635   2.808 -0.5474  0.4620 -0.1568
 2333SOL    HW118632   0.272   2.723   2.773  0.4129  0.6456  0.4379
 2333SOL    HW218633   0.247   2.664   2.897 -1.7679 -1.3329  0.1454
 2334SOL     OW18634   2.917   1.940   0.981  0.1300 -0.0544 -0.4220
 2334SOL    HW118635   2.845   1.991   1.017 -1.5498 -2.3582 -0.4916
 2334SOL    HW218636   2.934   1.879   1.053  0.2769  0.4600 -0.0194
 2335SOL     OW18637   1.014   1.004   4.975 -0.2549  0.3038  0.0790
 2335SOL    HW118638   1.010   0.917   5.016 -0.8224  0.0991 -0.4089
 2335SOL    HW218639   1.106   1.020   4.955  0.0300  0.1056  1.2338
 2336SOL     OW18640   3.956   1.031   2.703  0.2428 -0.1687 -0.1734
 2336SOL    HW118641   3.947   0.954   2.647  3.2124  0.9259 -2.1152
 2336SOL    HW218642   4.046   1.058   2.689 -0.0847  1.3326  0.6554
 2337SOL     OW18643   0.627   0.999  14.170 -0.5250  0.3471  0.1977
 2337SOL    HW118644   0.721   1.008  14.187 -0.6773 -0.0280  1.2196
 2337SOL    HW218645   0.616   1.059  14.096 -1.6880 -1.0407 -0.7695
 2338SOL     OW18646   0.251   1.356   5.769  0.0225  0.6920 -0.6920
 2338SOL    HW118647   0.330   1.410   5.768  1.9876 -2.0494  3.0283
 2338SOL    HW218648   0.272   1.271   5.808  0.3141  0.2546 -1.8276
 2339SOL     OW18649   2.480   0.417   1.352  0.2338 -0.6990  0.1334
 2339SOL    HW118650   2.452   0.385   1.266 -0.9845 -2.0832  1.0417
 2339SOL    HW218651   2.576   0.415   1.350  0.2882 -0.0362  1.8791
 2340SOL     OW18652   0.784   2.174   0.952 -0.0795 -0.3799 -0.0993
 2340SOL    HW118653   0.841   2.101   0.977  0.8319  0.8593  1.3784
 2340SOL    HW218654   0.733   2.202   1.028  1.6314  0.9064  0.5724
 2341SOL     OW18655   0.063   3.205   3.368  0.0387 -0.3567  0.9133
 2341SOL    HW118656   0.030   3.237   3.452 -0.4308 -0.8555  0.9205
 2341SOL    HW218657   4.732   3.229   3.307  1.2647 -0.2261 -0.4314
 2342SOL     OW18658   3.312   3.441   0.159  0.0461  0.0725 -0.6095
 2342SOL    HW118659   3.350   3.429   0.072  2.0053  0.0425  0.2433
 2342SOL    HW218660   3.227   3.398   0.148 -1.0462  1.3844  2.4897
 2343SOL     OW18661   1.042   3.484   3.979 -0.0152  0.0142  0.5925
 2343SOL    HW118662   0.978   3.549   4.007  0.6847  1.7330 -1.8663
 2343SOL    HW218663   1.090   3.530   3.911 -1.1894  0.3400 -0.0075
 2344SOL     OW18664   2.328   3.893   6.457 -0.5916  0.1570 -0.2989
 2344SOL    HW118665   2.335   3.901   6.362 -0.2276  1.5776 -0.1480
 2344SOL    HW218666   2.355   3.803   6.474  1.0719  0.3622 -1.8751
 2345SOL     OW18667   1.270   1.391   8.145  0.1214  0.7288  0.3618
 2345SOL    HW118668   1.361   1.415   8.165  1.0109 -1.3476 -1.2929
 2345SOL    HW218669   1.236   1.476   8.116  1.4291  0.3550 -2.2390
 2346SOL     OW18670   3.129   2.411   0.572  0.5919 -0.1672  0.1962
 2346SOL    HW118671   3.198   2.475   0.554 -1.2049  1.4876 -0.8121
 2346SOL    HW218672   3.124   2.419   0.667 -0.5932  0.5759  0.0843
 2347SOL     OW18673   3.412   3.246   8.362 -0.1260 -0.0947  0.2975
 2347SOL    HW118674   3.495   3.273   8.323 -0.1905 -0.8953 -0.3828
 2347SOL    HW218675   3.361   3.220   8.285  1.2989 -0.0504 -0.6668
 2348SOL     OW18676   3.362   0.554  15.685  0.2773 -0.3538  0.0452
 2348SOL    HW118677   3.393   0.643  15.673 -1.1797  0.0915 -0.4247
 2348SOL    HW218678   3.441   0.507  15.711  0.8236 -0.7421 -2.3265
 2349SOL     OW18679   4.368   2.657   9.018  0.1229  0.2381  0.2398
 2349SOL    HW118680   4.428   2.667   8.945  0.2483 -0.2100  0.2819
 2349SOL    HW218681   4.358   2.751   9.035 -0.3336  0.0437  1.1090
 2350SOL     OW18682   2.149   1.319   1.701 -0.4477  0.5403 -0.0166
 2350SOL    HW118683   2.097   1.283   1.773 -1.3555  0.9392 -0.4676
 2350SOL    HW218684   2.110   1.405   1.682  0.1370  1.0701  1.2092
 2351SOL     OW18685   2.987   3.184  11.771  0.1542 -0.3071 -0.2552
 2351SOL    HW118686   2.899   3.195  11.737  0.2838  1.6459  0.0917
 2351SOL    HW218687   3.011   3.096  11.741 -0.1981  0.0439 -1.5577
 2352SOL     OW18688   2.072   0.870  12.739  0.0545 -0.4263 -0.0455
 2352SOL    HW118689   2.123   0.844  12.816 -1.1183 -1.3948  0.3931
 2352SOL    HW218690   2.031   0.789  12.710 -0.2208  0.1205 -1.2108
 2353SOL     OW18691   1.208   1.120   8.129 -0.2757 -0.4793 -0.2444
 2353SOL    HW118692   1.224   1.114   8.035  1.0252 -2.6596  0.1218
 2353SOL    HW218693   1.242   1.209   8.141  3.3843 -2.0674  0.9828
 2354SOL     OW18694   1.630   1.404  10.599 -0.0468 -0.4037  0.2830
 2354SOL    HW118695   1.601   1.492  10.620  0.7595  0.0394 -0.4698
 2354SOL    HW218696   1.591   1.347  10.665 -0.3335 -0.1075  0.3672
 2355SOL     OW18697   4.340   4.460  16.592  0.0830 -0.8120 -0.6123
 2355SOL    HW118698   4.261   4.494  16.551 -0.8863 -0.8662  1.2500
 2355SOL    HW218699   4.303   4.444  16.678  1.1616 -0.1592 -0.0168
 2356SOL     OW18700   1.032   2.770   5.066 -0.1756 -0.1877  0.1989
 2356SOL    HW118701   0.977   2.832   5.115 -0.0008  1.5676 -1.8410
 2356SOL    HW218702   1.062   2.712   5.135  0.1213 -1.6278 -1.1378
 2357SOL     OW18703   3.182   0.022  13.031  0.9332 -0.0532 -0.2079
 2357SOL    HW118704   3.216   0.107  13.003 -2.7284  1.7926  0.8660
 2357SOL    HW218705   3.111   4.737  12.972 -0.1433  1.2188  0.5731
 2358SOL     OW18706   0.918   0.640  15.870 -0.4162 -0.2451  0.1045
 2358SOL    HW118707   0.885   0.681  15.790  0.5502  0.0223 -0.1624
 2358SOL    HW218708   0.884   0.696  15.939 -0.7191 -1.5032  0.9682
 2359SOL     OW18709   3.503   0.399   9.165 -0.0546  0.1865  0.1796
 2359SOL    HW118710   3.488   0.384   9.072  1.4055 -2.5735  0.3762
 2359SOL    HW218711   3.462   0.484   9.177 -0.3146 -0.2396  2.3710
 2360SOL     OW18712   0.259   1.076   5.868 -0.2608 -0.4015 -0.1776
 2360SOL    HW118713   0.329   1.014   5.850 -0.8704 -0.8536 -0.9836
 2360SOL    HW218714   0.212   1.026   5.935  0.3897  0.9391  1.3008
 2361SOL     OW18715   0.865   2.693   8.316  0.2193  0.0010  0.1158
 2361SOL    HW118716   0.834   2.775   8.279 -1.2838  0.2246  1.8609
 2361SOL    HW218717   0.953   2.720   8.343 -1.3381  3.4069  1.6888
 2362SOL     OW18718   0.405   1.176  12.339  0.0454  0.3288 -0.0340
 2362SOL    HW118719   0.357   1.254  12.366  2.5534  0.6134  3.5764
 2362SOL    HW218720   0.456   1.143  12.413  0.9391 -1.3287 -1.3801
 2363SOL     OW18721   0.672   2.534  17.690 -0.1027  0.1469 -0.1167
 2363SOL    HW118722   0.656   2.624  17.663 -0.5621  0.1703  0.2270
 2363SOL    HW218723   0.759   2.523  17.652 -0.4281  0.0603 -0.8353
 2364SOL     OW18724   4.090   2.003   9.173 -0.0538  0.0210  0.0399
 2364SOL    HW118725   4.105   1.938   9.103  0.4092 -1.7146  1.7499
 2364SOL    HW218726   4.158   2.069   9.160 -1.5764  1.6973  0.6799
 2365SOL     OW18727   3.635   2.788   3.244  0.0813 -0.8254  0.2031
 2365SOL    HW118728   3.671   2.820   3.327 -2.3205  2.5800 -0.0428
 2365SOL    HW218729   3.559   2.738   3.275 -0.7967  0.6911  0.5353
 2366SOL     OW18730   1.780   3.290   9.655  0.1234  0.3562  0.5369
 2366SOL    HW118731   1.812   3.279   9.566 -0.8801  0.3034  0.1736
 2366SOL    HW218732   1.781   3.385   9.661 -2.2871  0.4441 -0.3648
 2367SOL     OW18733   3.724   1.692   6.275 -0.1594  0.0175 -0.1152
 2367SOL    HW118734   3.733   1.683   6.370 -1.2137 -1.1492 -0.1249
 2367SOL    HW218735   3.780   1.619   6.248 -1.0895 -0.3480 -1.0508
 2368SOL     OW18736   4.082   1.992   4.200 -0.2880  0.0474  0.1180
 2368SOL    HW118737   4.144   1.925   4.227 -1.7661 -0.8131  1.3736
 2368SOL    HW218738   4.133   2.041   4.136 -0.8776  0.3416 -0.1364
 2369SOL     OW18739   1.593   3.997   5.767 -0.2540  0.3635  0.0091
 2369SOL    HW118740   1.611   3.903   5.774  0.1806  0.3869 -0.8379
 2369SOL    HW218741   1.626   4.011   5.678 -0.2035 -1.6734 -0.2955
 2370SOL     OW18742   4.657   1.166   8.683 -0.3000  0.3620  0.7606
 2370SOL    HW118743   4.630   1.088   8.731 -0.3933 -1.2317 -1.8260
 2370SOL    HW218744   4.654   1.236   8.747 -0.6602  2.7279 -1.8262
 2371SOL     OW18745   2.061   2.624   7.395 -0.2282 -0.5060 -0.4911
 2371SOL    HW118746   2.103   2.710   7.395  1.0757 -1.1512 -2.0151
 2371SOL    HW218747   2.088   2.575   7.473  1.8573  0.8033 -0.4025
 2372SOL     OW18748   4.735   2.614  12.376 -0.5023 -0.0995  0.2100
 2372SOL    HW118749   0.022   2.522  12.374 -1.8099 -0.4645  0.1785
 2372SOL    HW218750   4.639   2.613  12.387 -0.5001  1.4614  0.3730
 2373SOL     OW18751   0.786   2.654   2.892  0.6198  0.2318 -0.0452
 2373SOL    HW118752   0.743   2.679   2.811 -3.7736 -1.9074  1.6085
 2373SOL    HW218753   0.791   2.735   2.943  2.3813  0.0519  0.0745
 2374SOL     OW18754   1.457   2.723   0.099  0.1837  0.3563 -0.4630
 2374SOL    HW118755   1.441   2.732   0.193 -2.0167 -0.2722 -0.7848
 2374SOL    HW218756   1.513   2.646   0.105 -2.6919 -1.6915  0.0560
 2375SOL     OW18757   3.871   4.447   2.509 -0.0240 -0.0460 -0.2133
 2375SOL    HW118758   3.948   4.450   2.453 -0.1171 -0.5232 -0.3661
 2375SOL    HW218759   3.836   4.367   2.470 -0.7855  0.1704  0.0146
 2376SOL     OW18760   2.468   0.231   6.970 -0.0219  0.2187  0.4474
 2376SOL    HW118761   2.503   0.319   6.954  1.2299 -0.2397  0.7056
 2376SOL    HW218762   2.398   0.224   6.905 -1.1369  0.6521  1.6020
 2377SOL     OW18763   0.595   3.666  10.844 -0.0261 -0.3275 -0.0720
 2377SOL    HW118764   0.554   3.592  10.799  0.4618 -1.0562  0.6832
 2377SOL    HW218765   0.537   3.740  10.828 -1.1050 -1.1963 -0.1408
 2378SOL     OW18766   2.776   2.051   7.711  0.5855  0.5665 -0.2346
 2378SOL    HW118767   2.844   2.031   7.775  1.2022 -2.8360 -1.9772
 2378SOL    HW218768   2.798   1.997   7.635 -1.2319 -1.5060  0.7314
 2379SOL     OW18769   3.127   2.477   4.971 -0.2050  0.0661 -0.0773
 2379SOL    HW118770   3.182   2.437   4.904  1.4460 -0.4272  1.5784
 2379SOL    HW218771   3.145   2.570   4.963 -0.4220  0.0719 -0.4761
 2380SOL     OW18772   0.236   4.320   6.690 -0.0151  0.1191 -0.4456
 2380SOL    HW118773   0.290   4.259   6.739 -1.9622  0.9061  2.6839
 2380SOL    HW218774   0.294   4.338   6.615 -0.3742 -1.1910 -1.0433
 2381SOL     OW18775   0.356   2.138   5.015 -0.7465  0.2644 -0.7621
 2381SOL    HW118776   0.321   2.093   4.938  1.0425 -1.7502 -0.3932
 2381SOL    HW218777   0.401   2.205   4.963  1.1205 -0.2275  0.2153
 2382SOL     OW18778   3.985   4.467  15.076  0.5211  0.3887  0.3988
 2382SOL    HW118779   3.914   4.415  15.039  0.2007 -0.4244  2.1508
 2382SOL    HW218780   4.050   4.463  15.006  0.7524  2.3252  0.4931
 2383SOL     OW18781   4.198   1.504   8.736 -0.1224 -0.4443  0.3579
 2383SOL    HW118782   4.182   1.495   8.830 -0.7666 -0.5554  0.2409
 2383SOL    HW218783   4.115   1.471   8.700  0.2044 -2.6177  1.6063
 2384SOL     OW18784   0.927   2.779   0.405 -0.2492 -0.2260  0.1786
 2384SOL    HW118785   0.956   2.813   0.321 -3.4847  3.4747  0.6097
 2384SOL    HW218786   0.833   2.771   0.395  0.0221 -0.2855 -2.2083
 2385SOL     OW18787   1.859   3.545  14.562  0.5440 -0.5871  0.6777
 2385SOL    HW118788   1.912   3.604  14.508  1.0670 -1.3368  0.3543
 2385SOL    HW218789   1.921   3.478  14.592  0.3797 -0.9565  0.2088
 2386SOL     OW18790   1.951   3.420   5.047 -0.1988 -0.4687  0.4975
 2386SOL    HW118791   2.021   3.393   5.106  0.5889  1.5474  0.4709
 2386SOL    HW218792   1.993   3.499   5.013  0.6111  0.1845  3.0445
 2387SOL     OW18793   0.703   2.292   5.344 -0.6914  0.1805 -0.0056
 2387SOL    HW118794   0.720   2.207   5.385  1.4094 -0.7709 -2.8307
 2387SOL    HW218795   0.791   2.330   5.339  0.1697 -1.4364  2.4366
 2388SOL     OW18796   0.762   0.226  16.752 -0.7486 -0.1925  0.0281
 2388SOL    HW118797   0.816   0.300  16.727  0.7775 -0.6207  2.1107
 2388SOL    HW218798   0.702   0.201  16.681 -0.0525 -0.5468 -0.4349
 2389SOL     OW18799   3.244   1.040  11.006  0.4264  0.2199  0.1497
 2389SOL    HW118800   3.149   1.042  11.014  0.2942  0.5083 -1.5570
 2389SOL    HW218801   3.259   1.031  10.912 -1.5926 -0.4818 -0.1014
 2390SOL     OW18802   1.204   1.608  10.695 -0.6661 -0.2882 -0.7183
 2390SOL    HW118803   1.227   1.517  10.715  0.7594  0.8149  2.6611
 2390SOL    HW218804   1.117   1.612  10.736  0.9500 -1.7110  2.8277
 2391SOL     OW18805   4.255   1.746  11.099  0.4748  0.2914 -0.3489
 2391SOL    HW118806   4.262   1.658  11.062  1.9266 -0.4423  1.6325
 2391SOL    HW218807   4.166   1.777  11.084 -0.5632 -1.6942  1.7421
 2392SOL     OW18808   2.446   1.010   6.303  0.4332 -0.3662  0.1751
 2392SOL    HW118809   2.401   1.061   6.369 -2.9256 -1.5670 -1.1868
 2392SOL    HW218810   2.483   1.074   6.242  0.8320 -0.4850  0.2919
 2393SOL     OW18811   4.717   1.666  15.615  0.0499 -0.8431 -0.6332
 2393SOL    HW118812   4.678   1.748  15.584 -1.7197 -1.0636  1.0371
 2393SOL    HW218813   4.666   1.672  15.696 -4.1416  0.9201 -3.4369
 2394SOL     OW18814   3.939   3.781   8.588  0.0662 -0.0726  0.2984
 2394SOL    HW118815   3.853   3.798   8.627 -0.0192  0.3146 -0.0522
 2394SOL    HW218816   3.934   3.830   8.506 -2.7080 -1.3271 -0.2876
 2395SOL     OW18817   3.676   1.306  14.214 -0.7516 -0.8381 -0.0234
 2395SOL    HW118818   3.660   1.230  14.158  0.0151 -0.9320 -0.1226
 2395SOL    HW218819   3.621   1.371  14.171 -0.6589 -1.3764 -0.9602
 2396SOL     OW18820   4.415   3.986   7.098 -0.2923  0.0417  0.0496
 2396SOL    HW118821   4.496   4.037   7.094 -2.2132  3.1164  0.2616
 2396SOL    HW218822   4.443   3.902   7.060  0.4069 -0.0741  0.8245
 2397SOL     OW18823   4.500   0.860  16.706  0.5194  0.0063 -0.4797
 2397SOL    HW118824   4.406   0.858  16.725  0.3602 -1.8836 -1.4000
 2397SOL    HW218825   4.520   0.951  16.727 -0.1175  0.7862 -3.3167
 2398SOL     OW18826   4.517   0.005   5.800 -0.2853 -0.2784 -0.3526
 2398SOL    HW118827   4.430   4.706   5.785 -0.8388  1.0233 -0.4035
 2398SOL    HW218828   4.565   4.664   5.821  0.5098  0.8330  1.9526
 2399SOL     OW18829   3.009   1.683   8.862 -0.0944  0.5870 -0.1321
 2399SOL    HW118830   2.927   1.724   8.834  0.1230  1.1390  0.0277
 2399SOL    HW218831   3.043   1.762   8.905  2.3763  0.4572 -1.9090
 2400SOL     OW18832   2.400   4.427   5.634  0.1740  0.0022  0.1550
 2400SOL    HW118833   2.414   4.507   5.584  0.9923 -0.2857 -0.0836
 2400SOL    HW218834   2.469   4.432   5.701  0.7919  1.8578 -0.6158
 2401SOL     OW18835   2.474   0.493  10.857  0.0536  0.2586  0.3770
 2401SOL    HW118836   2.520   0.455  10.933  0.6368 -0.3852 -0.2881
 2401SOL    HW218837   2.408   0.553  10.891 -0.5794 -1.3699  2.0398
 2402SOL     OW18838   0.501   3.258   5.036  0.3284 -0.3514  0.0599
 2402SOL    HW118839   0.535   3.218   5.116  2.1462 -0.9468 -1.0314
 2402SOL    HW218840   0.498   3.191   4.968  0.1142  1.4848 -1.7509
 2403SOL     OW18841   4.271   2.627   7.515  0.6556  0.1197  0.2930
 2403SOL    HW118842   4.202   2.686   7.485 -2.0234 -1.5136  3.2568
 2403SOL    HW218843   4.297   2.678   7.592  2.1185 -0.8377  0.4212
 2404SOL     OW18844   4.606   2.048   4.123  0.5926 -0.6466  0.2483
 2404SOL    HW118845   4.582   2.101   4.198 -1.4338 -0.7130 -0.3426
 2404SOL    HW218846   4.637   2.123   4.072 -1.4370  1.4602  2.0985
 2405SOL     OW18847   1.804   3.066   5.798  0.2267  0.1173  0.3949
 2405SOL    HW118848   1.888   3.088   5.838  0.7432 -3.2678  1.1869
 2405SOL    HW218849   1.756   3.050   5.880 -0.6653 -0.6179 -0.2802
 2406SOL     OW18850   1.879   1.532  14.983  0.1744 -0.3204 -0.3696
 2406SOL    HW118851   1.943   1.462  14.969 -0.3659  0.0238 -4.3775
 2406SOL    HW218852   1.819   1.515  14.911 -2.3103 -1.1717  1.9052
 2407SOL     OW18853   1.116   0.415   5.797 -0.4508  0.3432  0.4741
 2407SOL    HW118854   1.057   0.345   5.825  2.6829 -2.3110  0.5666
 2407SOL    HW218855   1.072   0.487   5.841 -0.6129  0.5657 -0.0597
 2408SOL     OW18856   1.388   0.777   1.842  0.3461  0.4585  0.5973
 2408SOL    HW118857   1.392   0.704   1.903 -0.0702 -0.5831 -0.6267
 2408SOL    HW218858   1.423   0.746   1.758 -1.3245  1.2042 -0.3806
 2409SOL     OW18859   0.121   1.390   0.237 -0.0936 -0.0966  0.2860
 2409SOL    HW118860   0.212   1.392   0.207 -0.4652  1.5550 -0.7477
 2409SOL    HW218861   0.093   1.314   0.186 -3.0273 -0.4151  2.3368
 2410SOL     OW18862   0.892   1.798  15.501  0.2344 -0.1920 -0.6908
 2410SOL    HW118863   0.971   1.802  15.554 -0.0356  0.3856 -0.3323
 2410SOL    HW218864   0.896   1.704  15.486  1.0943 -0.1211 -0.8712
 2411SOL     OW18865   4.545   0.823   2.053  0.2858  0.6690 -0.1057
 2411SOL    HW118866   4.489   0.776   1.991  0.5738  0.0049  0.1326
 2411SOL    HW218867   4.626   0.778   2.033  0.0508  0.6574 -1.0221
 2412SOL     OW18868   3.009   4.154   5.224  0.7181  0.1036  0.2436
 2412SOL    HW118869   2.923   4.174   5.262  1.1402 -0.5630  1.5571
 2412SOL    HW218870   2.984   4.114   5.141  1.7529 -0.4265  0.1933
 2413SOL     OW18871   1.746   3.854   4.241 -0.1103 -0.5500  0.3006
 2413SOL    HW118872   1.665   3.904   4.230 -0.1439 -0.5562  0.5253
 2413SOL    HW218873   1.805   3.928   4.254 -1.0759  0.2755  0.0055
 2414SOL     OW18874   0.259   1.174   7.983 -1.2379  0.1480  0.8654
 2414SOL    HW118875   0.238   1.221   8.064  2.7222  1.9734  0.8246
 2414SOL    HW218876   0.219   1.089   8.004  0.7363 -1.1790 -0.7178
 2415SOL     OW18877   1.654   0.237   4.614 -0.5785  0.5167 -0.0493
 2415SOL    HW118878   1.730   0.185   4.642 -0.0394  1.1816 -0.2800
 2415SOL    HW218879   1.615   0.162   4.568 -3.2848  1.6972  0.3463
 2416SOL     OW18880   2.070   2.965  16.030 -0.0987  0.5268 -0.1476
 2416SOL    HW118881   2.071   2.879  16.072 -1.9587  0.3443 -0.4865
 2416SOL    HW218882   2.163   2.989  16.029 -0.2687  1.2643  1.6088
 2417SOL     OW18883   2.663   2.350   5.090 -0.1543  0.0840  0.0149
 2417SOL    HW118884   2.642   2.311   5.005  0.7794 -1.4104  0.4528
 2417SOL    HW218885   2.753   2.325   5.112  0.1166  1.4399  0.4379
 2418SOL     OW18886   3.293   0.719   0.267 -0.5635 -0.3051  0.7629
 2418SOL    HW118887   3.239   0.742   0.191  0.4190 -0.3019  0.0604
 2418SOL    HW218888   3.350   0.795   0.275  0.1622 -0.6926 -0.5491
 2419SOL     OW18889   3.546   3.663   6.277 -0.1334 -0.3103 -0.1478
 2419SOL    HW118890   3.518   3.753   6.295 -0.1867 -0.3915  0.1709
 2419SOL    HW218891   3.481   3.645   6.208 -1.3929 -1.0940  1.2501
 2420SOL     OW18892   1.866   2.431   4.813 -0.0374  0.0463 -0.2868
 2420SOL    HW118893   1.937   2.438   4.750  1.3098 -0.0544  1.2356
 2420SOL    HW218894   1.795   2.473   4.764  0.0356 -0.5424 -0.8994
 2421SOL     OW18895   4.636   3.073  13.046 -0.2444 -0.3813 -0.4590
 2421SOL    HW118896   4.680   3.146  13.002  0.3380  0.2000  1.0929
 2421SOL    HW218897   4.617   3.117  13.129  0.0780 -0.7357 -0.1990
 2422SOL     OW18898   1.803   1.885   6.800  0.5666  0.0988 -0.2083
 2422SOL    HW118899   1.824   1.825   6.872 -1.8901  0.8036  1.1295
 2422SOL    HW218900   1.880   1.941   6.801 -0.4656  1.5304  0.3362
 2423SOL     OW18901   1.193   0.108   3.772 -0.1294  0.3734 -0.0005
 2423SOL    HW118902   1.216   0.028   3.724 -0.3784  0.6496 -0.5809
 2423SOL    HW218903   1.100   0.094   3.755  0.5941 -2.4499 -1.6919
 2424SOL     OW18904   3.616   2.929   2.644 -0.5322  0.0532 -0.0420
 2424SOL    HW118905   3.626   2.910   2.737  0.3190  0.4000 -0.0602
 2424SOL    HW218906   3.644   3.020   2.633 -0.2515  0.1857  1.8227
 2425SOL     OW18907   2.118   0.910   9.554  0.1754 -0.1431 -0.9609
 2425SOL    HW118908   2.206   0.875   9.563  0.5742  2.2598  4.7082
 2425SOL    HW218909   2.086   0.836   9.503 -0.0866 -1.1550  0.6744
 2426SOL     OW18910   1.305   0.818  12.169  0.4745 -0.6814  0.6798
 2426SOL    HW118911   1.322   0.861  12.252  0.0504 -0.3530  0.5948
 2426SOL    HW218912   1.355   0.868  12.104 -0.1949  1.6582  1.9962
 2427SOL     OW18913   1.513   3.728   0.664  0.4396 -0.4729  0.0413
 2427SOL    HW118914   1.570   3.795   0.702 -0.5585  0.8318 -0.7785
 2427SOL    HW218915   1.505   3.750   0.571 -1.4659 -1.8986 -0.1390
 2428SOL     OW18916   3.413   3.206  12.963  0.1938 -0.0941 -0.0104
 2428SOL    HW118917   3.446   3.261  12.892 -2.0791  0.0453 -0.9558
 2428SOL    HW218918   3.408   3.117  12.927 -0.7678  0.7100 -1.8796
 2429SOL     OW18919   4.201   3.060   4.064 -0.0641  0.0244  0.1811
 2429SOL    HW118920   4.215   3.139   4.011  1.1022 -1.3180 -1.5060
 2429SOL    HW218921   4.287   3.018   4.068 -0.1162 -0.1641 -0.7402
 2430SOL     OW18922   2.251   1.774   1.072 -0.0550 -0.3009 -0.1020
 2430SOL    HW118923   2.221   1.854   1.028  0.0516 -1.0184 -1.4609
 2430SOL    HW218924   2.306   1.726   1.011  1.2276  1.1000 -0.0367
 2431SOL     OW18925   0.750   2.723   3.739 -0.0725 -0.2820  0.6241
 2431SOL    HW118926   0.763   2.640   3.693  2.1498 -0.0312  0.8271
 2431SOL    HW218927   0.658   2.745   3.720  0.0337  0.6390  1.1541
 2432SOL     OW18928   1.761   3.427  12.750  0.8352  0.0267  0.4232
 2432SOL    HW118929   1.848   3.460  12.771  1.5125  0.5028 -3.1575
 2432SOL    HW218930   1.733   3.485  12.679  0.7179 -0.7076 -0.1228
 2433SOL     OW18931   0.679   2.709  13.939 -0.1966 -0.0681 -0.0387
 2433SOL    HW118932   0.666   2.615  13.952 -0.2880 -0.3396 -2.1648
 2433SOL    HW218933   0.604   2.732  13.885  0.9339  1.8639 -0.7623
 2434SOL     OW18934   2.241   2.471   3.472  0.5516  0.3737 -0.0941
 2434SOL    HW118935   2.187   2.416   3.416 -1.1734 -0.8138  2.7069
 2434SOL    HW218936   2.307   2.508   3.414 -0.2190  0.7776 -0.7048
 2435SOL     OW18937   2.815   3.787   9.392 -0.1086  0.3266 -0.0779
 2435SOL    HW118938   2.752   3.724   9.358 -0.4989  0.1950  0.8779
 2435SOL    HW218939   2.778   3.869   9.358  1.9311  0.3365 -2.2459
 2436SOL     OW18940   3.762   2.574   4.786  0.4761  0.5747  0.6882
 2436SOL    HW118941   3.743   2.550   4.695 -2.3677  1.1671  1.1098
 2436SOL    HW218942   3.690   2.522   4.824 -0.3520 -1.1088 -3.1455
 2437SOL     OW18943   3.964   4.046   8.977 -0.1226 -0.1985 -0.5776
 2437SOL    HW118944   3.994   4.100   9.050 -0.2300 -0.3389 -0.4283
 2437SOL    HW218945   3.962   3.964   9.026  0.6438  0.1209 -0.0026
 2438SOL     OW18946   3.080   4.381   7.980  0.1316 -0.6636  0.2656
 2438SOL    HW118947   3.114   4.451   7.924 -1.4778  1.4681  1.9342
 2438SOL    HW218948   3.150   4.316   7.981  0.0679 -0.7451 -0.5808
 2439SOL     OW18949   1.469   0.530   7.352  0.3597 -0.6735  0.0893
 2439SOL    HW118950   1.470   0.436   7.373  0.3548 -0.5781  0.5168
 2439SOL    HW218951   1.529   0.548   7.280  1.5810  1.0101  1.5501
 2440SOL     OW18952   0.672   1.528   9.845  0.0784 -0.2190  0.4035
 2440SOL    HW118953   0.700   1.615   9.874 -0.5616  0.6955 -1.7057
 2440SOL    HW218954   0.586   1.553   9.812 -0.1108 -0.0275  1.0538
 2441SOL     OW18955   3.281   1.216   4.843 -0.1465 -0.4681 -0.6563
 2441SOL    HW118956   3.298   1.203   4.750 -0.6893 -1.5509 -0.6072
 2441SOL    HW218957   3.189   1.190   4.841 -0.6251  1.1865 -0.3773
 2442SOL     OW18958   4.095   2.717   7.015 -0.6975  0.5803 -0.4558
 2442SOL    HW118959   4.162   2.654   7.043 -0.1081  1.4304  0.0396
 2442SOL    HW218960   4.082   2.776   7.089  1.2214  2.4594 -1.5938
 2443SOL     OW18961   1.841   1.628   0.472  0.3717  0.1374  0.0493
 2443SOL    HW118962   1.767   1.689   0.473  0.1780 -0.0812 -1.2582
 2443SOL    HW218963   1.848   1.591   0.559  3.7902 -0.5077 -0.4805
 2444SOL     OW18964   3.538   1.158  15.977  0.1593 -0.0705 -0.5670
 2444SOL    HW118965   3.550   1.222  16.047  0.1014 -0.8623  0.1582
 2444SOL    HW218966   3.456   1.183  15.933  2.1014  2.7917 -2.5206
 2445SOL     OW18967   3.536   0.462   9.832  0.9889  0.4667 -0.0752
 2445SOL    HW118968   3.451   0.437   9.795  0.6607  3.0488 -1.0637
 2445SOL    HW218969   3.598   0.428   9.767  0.7341  0.9999 -0.5948
 2446SOL     OW18970   0.553   1.823   9.635  0.0117  0.0367 -0.4212
 2446SOL    HW118971   0.536   1.823   9.541 -0.0597  2.2953 -0.3965
 2446SOL    HW218972   0.489   1.755   9.658  0.5741 -0.0229  0.9406
 2447SOL     OW18973   0.083   4.624   5.584  0.4110  0.2919 -0.0631
 2447SOL    HW118974   0.174   4.616   5.614 -0.2649  1.5597  2.3121
 2447SOL    HW218975   0.050   4.705   5.623 -0.9823  1.6098 -3.9527
 2448SOL     OW18976   3.779   4.180   4.037  0.0598 -0.5318 -0.0868
 2448SOL    HW118977   3.709   4.156   3.976  0.7709  0.6581 -1.3475
 2448SOL    HW218978   3.729   4.232   4.099 -2.4030 -1.9948 -0.8255
 2449SOL     OW18979   3.279   0.620   4.614  0.0069 -0.1662  0.5842
 2449SOL    HW118980   3.277   0.716   4.618  0.1299 -0.2484  2.5795
 2449SOL    HW218981   3.280   0.616   4.518 -2.6590  0.7752  0.5164
 2450SOL     OW18982   0.119   1.104   5.605  0.1069 -0.0003  0.5838
 2450SOL    HW118983   0.162   1.058   5.532 -0.6904  0.3743 -0.1207
 2450SOL    HW218984   0.175   1.089   5.681  0.9294  1.7945  0.3246
 2451SOL     OW18985   4.677   3.332  16.065  0.1391 -0.0946  0.2784
 2451SOL    HW118986   4.584   3.310  16.065  0.4848 -1.6173 -2.6824
 2451SOL    HW218987   4.672   3.386  15.986 -1.2951 -2.6836 -1.4192
 2452SOL     OW18988   4.397   3.770  11.298  0.0383 -0.1725 -0.0772
 2452SOL    HW118989   4.431   3.810  11.377  0.0025 -1.4271  0.5607
 2452SOL    HW218990   4.458   3.699  11.281  0.0342  0.2788 -1.9873
 2453SOL     OW18991   0.190   0.635   5.110 -0.9060  0.4104 -0.0756
 2453SOL    HW118992   0.281   0.642   5.140 -0.0917  0.0497 -2.4603
 2453SOL    HW218993   0.206   0.581   5.033 -2.8412 -0.8972  0.4435
 2454SOL     OW18994   3.730   1.221  13.107 -0.2563  0.6843 -0.3688
 2454SOL    HW118995   3.748   1.208  13.200 -0.7712  2.4508 -0.0319
 2454SOL    HW218996   3.790   1.152  13.079 -1.0536 -1.5729  3.4322
 2455SOL     OW18997   2.276   3.991   5.475  0.1624 -0.1573 -0.1813
 2455SOL    HW118998   2.272   4.078   5.515  1.9127 -0.6119  1.0334
 2455SOL    HW218999   2.237   3.940   5.546  0.9415  1.2721  1.2890
 2456SOL     OW19000   1.842   1.862  14.359 -0.0342  0.1293 -0.3424
 2456SOL    HW119001   1.884   1.916  14.425  0.1027  0.3638 -0.6221
 2456SOL    HW219002   1.917   1.826  14.312  0.4239 -3.7443  3.3288
 2457SOL     OW19003   3.890   1.038  12.910 -0.2341  0.1060  0.1762
 2457SOL    HW119004   3.954   0.967  12.905  0.0424  0.4155 -0.8440
 2457SOL    HW219005   3.887   1.063  12.818 -0.9931 -2.2627 -0.4212
 2458SOL     OW19006   2.948   2.789   2.070  0.1250 -0.4234  0.0101
 2458SOL    HW119007   3.036   2.769   2.103  0.1828 -0.3599 -0.1045
 2458SOL    HW219008   2.890   2.761   2.140  2.5598 -1.0605  1.8064
 2459SOL     OW19009   2.961   3.532   6.433  0.1512  0.3200 -0.1396
 2459SOL    HW119010   3.015   3.475   6.487 -3.4297 -1.5841  1.4242
 2459SOL    HW219011   3.004   3.538   6.348 -2.4718  0.7335 -1.4260
 2460SOL     OW19012   3.166   1.630   2.697 -0.2489  0.0313  0.0722
 2460SOL    HW119013   3.194   1.718   2.671  0.5171  0.6965  3.1420
 2460SOL    HW219014   3.249   1.591   2.722 -1.0850  0.6000  3.6545
 2461SOL     OW19015   1.609   4.082   7.098 -0.0099  0.3918 -0.1591
 2461SOL    HW119016   1.535   4.023   7.083 -0.3368  0.6647  0.3548
 2461SOL    HW219017   1.598   4.085   7.193  1.7661 -1.1835  0.1078
 2462SOL     OW19018   1.018   4.173   8.279 -0.0688 -0.1637  0.0567
 2462SOL    HW119019   1.021   4.214   8.365  1.3819  1.5878 -0.8303
 2462SOL    HW219020   1.039   4.081   8.296 -0.7983 -0.1000  1.2481
 2463SOL     OW19021   3.604   2.344   1.797 -0.0268 -0.3924 -0.2104
 2463SOL    HW119022   3.647   2.385   1.872  0.6385  0.9572 -1.3233
 2463SOL    HW219023   3.531   2.291   1.827 -1.5699  0.9877 -1.5635
 2464SOL     OW19024   4.201   2.064  15.905  0.1021 -0.6972 -0.0314
 2464SOL    HW119025   4.108   2.051  15.925  0.2736 -0.6831  0.7951
 2464SOL    HW219026   4.206   2.101  15.817  2.5843 -2.4041 -0.6083
 2465SOL     OW19027   3.999   1.272   7.303  0.5035 -0.3410 -0.2054
 2465SOL    HW119028   4.042   1.303   7.222  2.1171 -0.0493  0.7614
 2465SOL    HW219029   4.080   1.259   7.352  0.3033  2.1728  0.7790
 2466SOL     OW19030   3.953   2.317  15.391  0.1767  0.3514  0.1888
 2466SOL    HW119031   3.860   2.316  15.412  0.4417  2.7329  1.3779
 2466SOL    HW219032   3.942   2.289  15.300 -0.3843 -0.4567  0.5042
 2467SOL     OW19033   1.177   1.668   4.184  0.5926  0.2854 -0.3137
 2467SOL    HW119034   1.184   1.628   4.271 -1.9453 -1.1665 -0.7962
 2467SOL    HW219035   1.186   1.593   4.125  1.2871  1.5537 -1.8059
 2468SOL     OW19036   3.856   2.197  15.153 -0.3738 -0.0858  0.1293
 2468SOL    HW119037   3.821   2.128  15.096 -1.5503 -0.7009  1.6121
 2468SOL    HW219038   3.822   2.277  15.112  0.3813 -0.6900 -1.6595
 2469SOL     OW19039   2.781   4.399   4.981 -0.2008  0.1412 -0.1110
 2469SOL    HW119040   2.824   4.418   4.898 -0.8439  1.0288 -0.2306
 2469SOL    HW219041   2.858   4.389   5.038 -0.7133 -1.4280  0.3028
 2470SOL     OW19042   1.374   0.675   2.941  0.6941 -0.3675  0.2941
 2470SOL    HW119043   1.413   0.698   2.856 -3.0671  0.4158 -1.2318
 2470SOL    HW219044   1.339   0.758   2.971 -0.0603  0.4179 -2.7048
 2471SOL     OW19045   0.483   1.474  14.181 -0.3052 -0.2468  0.3920
 2471SOL    HW119046   0.412   1.447  14.123  0.4924 -0.4250 -0.5000
 2471SOL    HW219047   0.556   1.444  14.127 -0.7867  1.9222 -1.4736
 2472SOL     OW19048   4.102   0.481   0.297 -0.2151 -0.2075  0.0938
 2472SOL    HW119049   4.041   0.503   0.367 -2.4365  0.1080 -1.9184
 2472SOL    HW219050   4.184   0.514   0.332 -1.1397 -2.3163  4.2965
 2473SOL     OW19051   4.127   3.157   9.089 -0.0646 -0.5084  0.3700
 2473SOL    HW119052   4.043   3.110   9.091 -0.5346  0.3124 -0.2959
 2473SOL    HW219053   4.174   3.132   9.010 -0.0865 -0.3399  0.3046
 2474SOL     OW19054   0.262   1.096   8.328  0.2551 -0.3237 -0.4012
 2474SOL    HW119055   0.210   1.037   8.382 -0.8986  1.9073  0.9491
 2474SOL    HW219056   0.295   1.028   8.270  2.2374 -0.1411  0.4887
 2475SOL     OW19057   2.112   3.463   5.835  0.3506  1.1970 -0.0243
 2475SOL    HW119058   2.204   3.485   5.852 -0.4808  3.4241  1.4413
 2475SOL    HW219059   2.079   3.453   5.924  1.1454  0.6715  0.2199
 2476SOL     OW19060   4.287   0.759  11.153 -0.4405  0.1698 -0.6182
 2476SOL    HW119061   4.210   0.771  11.096 -2.4909 -4.3583  1.1813
 2476SOL    HW219062   4.346   0.725  11.086 -1.7416 -0.1278 -1.6242
 2477SOL     OW19063   2.231   3.082   3.843  0.2967 -0.8805  0.2944
 2477SOL    HW119064   2.141   3.112   3.857  1.3590  1.8201  1.3372
 2477SOL    HW219065   2.211   2.989   3.835 -1.4191 -0.4741 -0.1801
 2478SOL     OW19066   0.447   4.729   9.428 -0.0890  0.6535  0.0618
 2478SOL    HW119067   0.429   0.008   9.335  0.8787  1.0982 -0.0368
 2478SOL    HW219068   0.370   4.676   9.450  0.1612  1.4503  2.7501
 2479SOL     OW19069   4.736   0.144   9.828 -0.2270 -0.4321  0.5148
 2479SOL    HW119070   0.082   0.133   9.784 -0.3104  0.3333  0.1687
 2479SOL    HW219071   4.694   0.058   9.819  0.9285 -0.9384 -0.2239
 2480SOL     OW19072   1.449   2.268  14.430 -0.1013  0.6897 -0.4462
 2480SOL    HW119073   1.500   2.194  14.461 -1.0594 -0.4880 -1.6899
 2480SOL    HW219074   1.478   2.279  14.340  0.6984  0.7057 -0.1832
 2481SOL     OW19075   3.176   3.395  16.925 -0.2079  0.1750  0.0536
 2481SOL    HW119076   3.213   3.387  16.837  0.7886 -0.5830  0.5444
 2481SOL    HW219077   3.243   3.439  16.977 -0.7808  0.3123  0.6615
 2482SOL     OW19078   4.063   3.369   3.444 -0.2617  0.6784  0.2880
 2482SOL    HW119079   4.110   3.393   3.363 -1.2899  0.7920 -0.2714
 2482SOL    HW219080   3.990   3.328   3.398  0.1956 -0.9076  0.9984
 2483SOL     OW19081   2.712   2.613   5.203 -0.4412 -0.7784 -0.3098
 2483SOL    HW119082   2.644   2.552   5.176  1.8210 -2.3415 -2.4749
 2483SOL    HW219083   2.656   2.672   5.254  0.5363 -1.1521  1.1771
 2484SOL     OW19084   0.719   2.843  16.760 -0.7856 -0.1007 -0.3911
 2484SOL    HW119085   0.629   2.874  16.746 -0.8817 -0.1213  0.1665
 2484SOL    HW219086   0.755   2.857  16.673 -0.0030 -0.1836 -0.0816
 2485SOL     OW19087   1.805   4.624   6.856  0.1117 -0.1861 -0.3383
 2485SOL    HW119088   1.868   4.552   6.857  2.0955  1.6149  1.9235
 2485SOL    HW219089   1.753   4.618   6.936  0.2715 -3.5284 -0.5050
 2486SOL     OW19090   1.663   2.878  10.862  0.5218  0.3471 -0.5565
 2486SOL    HW119091   1.725   2.946  10.834 -0.1172  2.0410  2.1014
 2486SOL    HW219092   1.685   2.800  10.812  0.1708 -0.4596  0.5442
 2487SOL     OW19093   4.167   3.651   6.800  0.0978  0.2585 -0.2374
 2487SOL    HW119094   4.197   3.573   6.845 -3.4851 -1.6835 -1.2185
 2487SOL    HW219095   4.081   3.616   6.780  0.9191 -2.3690  0.9124
 2488SOL     OW19096   1.299   0.191   7.795  0.4292  0.0957 -0.0560
 2488SOL    HW119097   1.309   0.152   7.708 -0.4849 -1.8219  0.7011
 2488SOL    HW219098   1.378   0.162   7.841  0.0980 -1.5015 -0.4836
 2489SOL     OW19099   4.555   3.791   3.166 -0.3256 -0.2545  0.5000
 2489SOL    HW119100   4.639   3.783   3.122 -0.9762 -2.0561 -0.3906
 2489SOL    HW219101   4.528   3.874   3.126 -2.5675 -0.9536  0.5531
 2490SOL     OW19102   3.818   3.792  13.225  0.1268 -0.3883 -0.5159
 2490SOL    HW119103   3.812   3.724  13.292 -1.3840  0.8929  0.6390
 2490SOL    HW219104   3.871   3.857  13.271 -0.3678  0.3373 -0.9619
 2491SOL     OW19105   3.784   0.796  14.468 -0.3537 -0.3996 -0.0545
 2491SOL    HW119106   3.857   0.840  14.513 -0.0209 -0.1713 -0.8191
 2491SOL    HW219107   3.724   0.866  14.446  0.9943  0.9475  0.5025
 2492SOL     OW19108   0.367   1.473   2.368 -0.0598  0.1538 -0.4414
 2492SOL    HW119109   0.408   1.442   2.449  1.1504  2.5752 -0.1388
 2492SOL    HW219110   0.380   1.394   2.314  2.1058  1.3036 -1.6031
 2493SOL     OW19111   4.475   0.240   2.662  0.1243  0.0720  0.0048
 2493SOL    HW119112   4.393   0.203   2.631  0.3511 -0.8883  0.5700
 2493SOL    HW219113   4.444   0.291   2.737  1.6658  0.7207  0.2101
 2494SOL     OW19114   4.362   0.059   7.460  0.6744 -0.0918  0.4463
 2494SOL    HW119115   4.454   0.085   7.462  0.7822 -0.5938  2.3553
 2494SOL    HW219116   4.322   0.141   7.489  1.0138 -0.5328  2.1933
 2495SOL     OW19117   2.933   1.961  16.120  0.3734  0.0996 -0.2050
 2495SOL    HW119118   2.924   1.870  16.149  1.6641 -0.1073 -0.4355
 2495SOL    HW219119   2.972   2.008  16.193 -0.2701  1.4294 -0.7089
 2496SOL     OW19120   1.750   4.034   4.623 -0.0096  0.1327  0.6043
 2496SOL    HW119121   1.782   4.095   4.556  2.7405 -0.6795  1.1587
 2496SOL    HW219122   1.706   4.093   4.684 -0.5038 -1.1748  1.5059
 2497SOL     OW19123   0.709   4.473   8.797  0.1499 -0.1036  0.0571
 2497SOL    HW119124   0.790   4.479   8.848 -0.7164 -3.3721  1.8668
 2497SOL    HW219125   0.713   4.552   8.745 -0.7145 -0.8346 -1.1251
 2498SOL     OW19126   2.877   3.225   3.184  0.3685  0.3563  0.0172
 2498SOL    HW119127   2.785   3.209   3.204  0.2312 -0.4270 -1.2537
 2498SOL    HW219128   2.864   3.266   3.098  0.4879 -0.8876 -0.5974
 2499SOL     OW19129   4.024   4.069   9.515 -0.1054 -0.2268  0.3201
 2499SOL    HW119130   3.980   4.001   9.464  2.4579 -0.6673 -1.3057
 2499SOL    HW219131   3.977   4.148   9.487 -2.5528 -1.7159  0.2325
 2500SOL     OW19132   2.624   3.409   5.768  0.0720  0.7019  0.0255
 2500SOL    HW119133   2.682   3.463   5.714  1.0144  0.9805  1.3130
 2500SOL    HW219134   2.622   3.455   5.852 -2.5922  0.5825  0.0165
 2501SOL     OW19135   3.471   0.776   3.562 -0.2862 -0.1403  0.2591
 2501SOL    HW119136   3.409   0.716   3.604  1.0263 -0.5395  1.6538
 2501SOL    HW219137   3.466   0.852   3.619 -1.3240  0.0984 -0.1490
 2502SOL     OW19138   3.346   3.083   7.539 -0.2756  0.2145  0.1138
 2502SOL    HW119139   3.321   3.017   7.603 -1.3815 -0.6515 -1.2074
 2502SOL    HW219140   3.369   3.162   7.587  0.6120  0.4850 -0.7608
 2503SOL     OW19141   0.102   0.649   6.874  0.3412  0.5397 -0.0665
 2503SOL    HW119142   0.116   0.739   6.845  0.4555  0.4181 -0.3890
 2503SOL    HW219143   0.100   0.599   6.792 -0.5749  1.5867 -0.6867
 2504SOL     OW19144   2.106   2.161  14.291  0.4372 -0.3734 -0.1324
 2504SOL    HW119145   2.065   2.109  14.359  2.3535 -0.3092  1.0715
 2504SOL    HW219146   2.073   2.251  14.289 -1.0385 -0.9109  0.3030
 2505SOL     OW19147   1.783   1.775   2.063  0.0463  0.2705  0.0398
 2505SOL    HW119148   1.821   1.826   1.992  1.1587  0.9493  1.1238
 2505SOL    HW219149   1.712   1.833   2.092  1.3407  2.5521 -1.3973
 2506SOL     OW19150   2.693   1.729   6.105 -0.1406 -0.2536 -0.6112
 2506SOL    HW119151   2.647   1.688   6.178 -0.2028  2.6616  0.9404
 2506SOL    HW219152   2.664   1.674   6.032 -0.9076 -0.2672 -0.2892
 2507SOL     OW19153   2.291   0.478   6.122  0.3303 -0.2226  0.0429
 2507SOL    HW119154   2.205   0.505   6.154  1.1985  0.0536  2.1490
 2507SOL    HW219155   2.336   0.561   6.110  0.2300 -0.1586  0.1015
 2508SOL     OW19156   0.090   2.365   3.261  0.0175 -0.0618 -0.3040
 2508SOL    HW119157   0.185   2.367   3.250  0.1733  2.7507  1.3676
 2508SOL    HW219158   0.063   2.370   3.170  3.9916  0.9725 -1.4160
 2509SOL     OW19159   1.696   2.253   8.165 -0.0674  0.0188  0.5161
 2509SOL    HW119160   1.791   2.250   8.160 -0.0697  0.4225  0.1991
 2509SOL    HW219161   1.682   2.325   8.103 -3.3142 -1.8157 -0.8821
 2510SOL     OW19162   1.927   2.297  13.696  0.0606 -0.0998 -0.3823
 2510SOL    HW119163   1.918   2.271  13.787 -0.0630  0.1095 -0.3346
 2510SOL    HW219164   2.015   2.271  13.668  1.5293  3.2202  1.0304
 2511SOL     OW19165   1.266   4.665   4.833 -0.0940  0.4381 -0.7036
 2511SOL    HW119166   1.238   4.699   4.748  0.4513  0.3984 -0.9038
 2511SOL    HW219167   1.206   4.593   4.849  1.4778 -0.6195  0.5552
 2512SOL     OW19168   1.192   1.661   8.089  0.1640 -0.5252 -0.3490
 2512SOL    HW119169   1.253   1.729   8.062 -1.8499  1.0628 -0.9217
 2512SOL    HW219170   1.113   1.710   8.111  1.5194  1.9746 -1.1625
 2513SOL     OW19171   0.308   1.359  13.998 -0.2036 -0.2043  0.0062
 2513SOL    HW119172   0.291   1.266  14.015  0.8397 -0.1256  1.4926
 2513SOL    HW219173   0.340   1.362  13.908 -0.5363 -0.7305 -0.1289
 2514SOL     OW19174   3.951   2.279   3.438  0.3905  0.3172 -0.0388
 2514SOL    HW119175   3.955   2.186   3.460  2.4547 -0.4020 -3.5421
 2514SOL    HW219176   3.860   2.279   3.407  0.0527  1.1706  0.9298
 2515SOL     OW19177   3.192   0.219   3.164  0.2164 -0.2080 -0.0554
 2515SOL    HW119178   3.150   0.165   3.097  0.5835 -2.0835  1.2349
 2515SOL    HW219179   3.144   0.297   3.137  0.0730 -0.9869 -2.0580
 2516SOL     OW19180   3.634   4.448   5.224 -0.3176  0.0313  0.6494
 2516SOL    HW119181   3.709   4.483   5.271  2.0529 -0.1481 -3.0070
 2516SOL    HW219182   3.588   4.523   5.186 -0.4286 -0.9271 -1.1205
 2517SOL     OW19183   3.996   4.320   4.765  0.1573  0.2014 -0.2749
 2517SOL    HW119184   3.963   4.404   4.795  4.3934  2.7002 -2.7001
 2517SOL    HW219185   4.088   4.325   4.794  0.0510 -1.8257  0.4574
 2518SOL     OW19186   1.110   0.830   3.894 -0.5208 -0.4296  0.6410
 2518SOL    HW119187   1.126   0.913   3.937  2.4801 -0.7194  0.1203
 2518SOL    HW219188   1.015   0.832   3.898 -0.5758 -0.5561 -0.3897
 2519SOL     OW19189   3.535   4.633   3.440 -0.0173  0.3230 -0.3208
 2519SOL    HW119190   3.534   4.698   3.510  1.3774 -1.2101  1.1124
 2519SOL    HW219191   3.627   4.647   3.417 -0.0982  0.0433 -0.8115
 2520SOL     OW19192   2.547   0.377  17.087  0.1738 -0.6028 -0.3718
 2520SOL    HW119193   2.487   0.342  17.021 -2.7105 -0.0873  1.9363
 2520SOL    HW219194   2.624   0.327  17.061  0.9796  0.9863 -1.0656
 2521SOL     OW19195   0.066   0.982   4.519  0.4789 -1.1386 -0.3591
 2521SOL    HW119196   4.717   0.949   4.537 -0.3410  1.0700 -0.3054
 2521SOL    HW219197   0.055   1.008   4.427 -0.6498  2.4672  0.7877
 2522SOL     OW19198   3.043   1.728   4.773  0.2303  0.6874 -0.1581
 2522SOL    HW119199   3.043   1.796   4.706  1.4763 -0.4743 -1.3459
 2522SOL    HW219200   3.027   1.788   4.847 -0.4602 -1.3959  1.3830
 2523SOL     OW19201   3.362   3.507  12.821 -0.4595  0.2437 -0.1299
 2523SOL    HW119202   3.429   3.443  12.798  0.6381  0.9060  1.2443
 2523SOL    HW219203   3.393   3.530  12.909  0.5295 -0.2666 -0.3497
 2524SOL     OW19204   2.088   0.643   1.428  0.4891 -0.3885  0.7316
 2524SOL    HW119205   2.066   0.722   1.477 -2.0953  0.6648 -2.1706
 2524SOL    HW219206   2.183   0.656   1.430  0.4143  0.0771  1.1502
 2525SOL     OW19207   0.017   2.363   5.821 -0.1262 -0.1626 -0.2272
 2525SOL    HW119208   0.028   2.407   5.737 -1.7590 -0.2537 -0.4986
 2525SOL    HW219209   0.075   2.289   5.806  0.5045  0.4589 -0.8259
 2526SOL     OW19210   1.625   1.701  14.243  0.3579  0.1333 -0.0529
 2526SOL    HW119211   1.684   1.762  14.287  0.7409 -3.3118  4.2203
 2526SOL    HW219212   1.678   1.691  14.164 -0.6446 -0.6520 -0.6175
 2527SOL     OW19213   1.282   3.313   2.972 -0.0965 -0.0815 -0.2742
 2527SOL    HW119214   1.228   3.250   3.020 -0.4259 -1.4211 -2.3835
 2527SOL    HW219215   1.225   3.345   2.902 -0.3993  1.1850  0.5519
 2528SOL     OW19216   4.429   0.152   8.175  0.3667 -0.1304 -0.1392
 2528SOL    HW119217   4.523   0.136   8.164  0.8690  0.1411  3.6535
 2528SOL    HW219218   4.400   0.145   8.085  1.2230 -1.9709 -0.2732
 2529SOL     OW19219   0.075   4.613   9.947 -0.1077 -0.7815 -0.7419
 2529SOL    HW119220   4.722   4.586   9.943 -1.0009  2.0765  0.1691
 2529SOL    HW219221   0.090   4.595  10.040  1.7727 -0.3084 -0.9553
 2530SOL     OW19222   1.322   1.013   1.660 -0.6317 -0.8105 -0.3107
 2530SOL    HW119223   1.343   1.075   1.590  0.9502 -0.8860  0.1121
 2530SOL    HW219224   1.382   0.941   1.641 -0.6309 -0.2680 -2.3373
 2531SOL     OW19225   2.583   4.196   1.638  0.1127 -0.1181  0.2166
 2531SOL    HW119226   2.656   4.257   1.646 -0.2701  0.4765 -0.7251
 2531SOL    HW219227   2.579   4.185   1.733 -0.8647 -1.3398  0.0317
 2532SOL     OW19228   4.471   1.963  12.633 -0.2040  0.7844  0.3109
 2532SOL    HW119229   4.512   2.031  12.580 -1.1229  0.6085 -0.5965
 2532SOL    HW219230   4.452   1.888  12.577  1.0952 -2.5303  4.3302
 2533SOL     OW19231   0.558   0.583   2.202 -0.4980 -0.3130 -0.3923
 2533SOL    HW119232   0.646   0.552   2.180 -0.5837  0.2141 -1.4947
 2533SOL    HW219233   0.545   0.548   2.290  1.6142  0.5740  0.2522
 2534SOL     OW19234   3.309   3.777   0.199 -0.0733 -0.5774  0.4373
 2534SOL    HW119235   3.240   3.721   0.165  1.4683 -0.6494 -2.6595
 2534SOL    HW219236   3.363   3.711   0.241  1.4374 -0.4722 -1.3230
 2535SOL     OW19237   3.653   3.363   4.818 -0.6131  0.1862 -0.1161
 2535SOL    HW119238   3.611   3.449   4.813  0.6486  0.9285  1.7958
 2535SOL    HW219239   3.620   3.324   4.899  0.9734  0.5619  0.7110
 2536SOL     OW19240   0.855   4.522   3.019  0.1218  0.4438  0.0728
 2536SOL    HW119241   0.874   4.540   3.111 -2.0472  0.1135  0.5918
 2536SOL    HW219242   0.869   4.607   2.978  1.0802  0.5219  0.5694
 2537SOL     OW19243   1.492   2.998   3.712  0.1213  0.4725 -0.2159
 2537SOL    HW119244   1.419   2.977   3.771  1.1707  1.8468  1.5624
 2537SOL    HW219245   1.504   2.917   3.662  0.7826  1.2769 -1.3641
 2538SOL     OW19246   0.123   3.975  14.818 -0.2631  0.6600  0.6531
 2538SOL    HW119247   0.107   3.881  14.826 -0.2604  0.5487 -0.6119
 2538SOL    HW219248   0.071   4.018  14.885 -2.4643 -1.8213  0.5008
 2539SOL     OW19249   3.195   1.992  12.872  0.1614 -0.0957 -0.3348
 2539SOL    HW119250   3.131   2.058  12.847  0.6052  0.3323 -0.3556
 2539SOL    HW219251   3.261   2.015  12.806 -1.4595  0.7214 -1.6548
 2540SOL     OW19252   3.514   2.158   7.465  0.7983 -0.0357 -0.2241
 2540SOL    HW119253   3.452   2.166   7.537  2.0172 -4.5432  1.3260
 2540SOL    HW219254   3.456   2.181   7.392  1.2544  0.6509 -0.3648
 2541SOL     OW19255   0.825   4.092   6.231 -0.0140 -0.1802 -0.0814
 2541SOL    HW119256   0.896   4.154   6.248 -2.1081  1.5315  2.4413
 2541SOL    HW219257   0.754   4.144   6.194 -0.4355 -0.9499 -0.3492
 2542SOL     OW19258   1.713   3.026   7.195  0.6892 -0.1449 -0.4297
 2542SOL    HW119259   1.643   2.994   7.252  2.1360 -0.6726  1.0671
 2542SOL    HW219260   1.693   3.118   7.177 -0.4450 -0.0803  1.1624
 2543SOL     OW19261   0.865   2.454  11.296  0.0215  0.7567  0.0460
 2543SOL    HW119262   0.879   2.438  11.389 -0.0460  2.5007  0.3698
 2543SOL    HW219263   0.941   2.424  11.246 -0.4195 -2.7323  1.4857
 2544SOL     OW19264   0.354   4.209   2.338  0.1302 -0.0162 -0.4236
 2544SOL    HW119265   0.308   4.229   2.420  0.8672 -0.3898  0.0893
 2544SOL    HW219266   0.307   4.131   2.307 -2.0039  1.3429 -0.5748
 2545SOL     OW19267   1.918   1.646   2.270 -0.1513 -0.1322  0.1569
 2545SOL    HW119268   1.973   1.709   2.315  0.8888 -1.6166  0.9628
 2545SOL    HW219269   1.874   1.707   2.210  1.1449 -1.9430 -2.6396
 2546SOL     OW19270   1.019   3.371   9.061 -0.6885  0.0888  0.4711
 2546SOL    HW119271   0.997   3.420   8.981 -1.5605 -1.1175 -0.0308
 2546SOL    HW219272   0.958   3.402   9.127  0.1865 -0.0928  1.3631
 2547SOL     OW19273   4.365   0.711  13.467  0.4615 -0.0386 -0.2194
 2547SOL    HW119274   4.365   0.790  13.413  4.1401 -0.3718 -0.7294
 2547SOL    HW219275   4.419   0.733  13.543 -0.4541 -0.5240  0.5519
 2548SOL     OW19276   2.138   2.280   7.295  0.1795 -0.3630 -0.1713
 2548SOL    HW119277   2.110   2.214   7.232 -0.1312 -1.0273  0.6463
 2548SOL    HW219278   2.173   2.348   7.239 -0.0739  0.0146  0.1232
 2549SOL     OW19279   3.434   3.845   8.160 -0.3835 -0.0582 -0.7510
 2549SOL    HW119280   3.375   3.920   8.158 -2.9326 -2.0539 -0.1294
 2549SOL    HW219281   3.382   3.778   8.115 -2.3174  0.8775  0.0934
 2550SOL     OW19282   3.471   1.378   7.944  0.1191 -0.8259  0.1212
 2550SOL    HW119283   3.416   1.453   7.969  0.9853 -0.7089  1.6825
 2550SOL    HW219284   3.552   1.415   7.907  0.1032 -0.2480  0.6505
 2551SOL     OW19285   3.406   3.245   3.618 -0.0027 -0.4766 -0.4308
 2551SOL    HW119286   3.424   3.162   3.661 -1.1270  0.6056  2.1345
 2551SOL    HW219287   3.494   3.282   3.606 -1.8321  3.8243 -0.5268
 2552SOL     OW19288   3.514   2.227   2.784  0.0947 -0.2766  0.8181
 2552SOL    HW119289   3.506   2.154   2.847 -0.7608 -2.1250 -1.4370
 2552SOL    HW219290   3.559   2.285   2.845  0.9398 -0.5916  0.4971
 2553SOL     OW19291   1.190   0.080   9.787 -0.2391  0.0519 -0.4985
 2553SOL    HW119292   1.282   0.099   9.772 -0.4394  1.0757 -0.4481
 2553SOL    HW219293   1.206   4.726   9.803 -0.8948 -0.2525 -1.5703
 2554SOL     OW19294   2.556   3.563   1.004 -0.1980  0.4654  0.5019
 2554SOL    HW119295   2.642   3.605   1.012  0.3246  0.0173 -2.8731
 2554SOL    HW219296   2.545   3.541   1.097 -0.3254 -1.4340  0.0439
 2555SOL     OW19297   1.147   4.546   6.434 -0.7756 -0.0274 -0.3331
 2555SOL    HW119298   1.195   4.482   6.485  1.1165  1.5868 -0.0686
 2555SOL    HW219299   1.124   4.611   6.501  0.3290  1.2967 -1.2268
 2556SOL     OW19300   2.164   3.472   3.199 -0.1262 -0.8736  0.0886
 2556SOL    HW119301   2.227   3.469   3.127  1.0879 -0.1380  1.1174
 2556SOL    HW219302   2.105   3.414   3.152 -0.2569  1.4256 -2.5978
 2557SOL     OW19303   2.166   1.659   1.962  0.2768 -0.9188  0.0273
 2557SOL    HW119304   2.237   1.643   1.901 -0.4645  0.5122 -1.2003
 2557SOL    HW219305   2.123   1.574   1.965 -2.0684  0.2441 -0.3512
 2558SOL     OW19306   1.444   0.580   3.639 -0.0753 -0.2153 -0.0718
 2558SOL    HW119307   1.495   0.608   3.715  2.8774 -1.1912 -1.6947
 2558SOL    HW219308   1.363   0.629   3.658  0.0827 -0.4037  1.0763
 2559SOL     OW19309   0.285   2.662  15.352  0.1641  0.2738  0.4547
 2559SOL    HW119310   0.243   2.649  15.267 -0.0497 -0.1270  0.6242
 2559SOL    HW219311   0.315   2.752  15.336 -1.5502  0.3453 -2.3450
 2560SOL     OW19312   1.281   3.384  14.000 -0.0599 -0.1622  0.1442
 2560SOL    HW119313   1.215   3.403  14.066 -0.8004 -0.5330 -0.4954
 2560SOL    HW219314   1.354   3.387  14.062  0.3123  2.2585 -0.4108
 2561SOL     OW19315   4.079   0.511   6.086  0.5466 -0.4098 -0.8092
 2561SOL    HW119316   4.035   0.522   6.002 -0.1477  0.9223 -0.2810
 2561SOL    HW219317   4.067   0.418   6.101  1.0551 -0.3844 -0.2401
 2562SOL     OW19318   2.876   0.031   3.546 -0.9179  0.4492  0.4398
 2562SOL    HW119319   2.942   0.058   3.483 -1.1276 -0.6479 -0.2512
 2562SOL    HW219320   2.798   0.005   3.497 -2.0193  1.8798  1.4355
 2563SOL     OW19321   3.398   3.275   2.473 -0.2216 -0.1368 -0.0566
 2563SOL    HW119322   3.462   3.204   2.459  1.2502  1.3166 -0.7505
 2563SOL    HW219323   3.362   3.275   2.384 -0.0108  1.9165 -0.1346
 2564SOL     OW19324   0.696   0.441   9.839  0.2990 -0.7123 -0.2262
 2564SOL    HW119325   0.700   0.423   9.933  2.0359 -1.2342 -0.4139
 2564SOL    HW219326   0.728   0.355   9.815  1.1536 -0.6700  0.7518
 2565SOL     OW19327   2.685   0.225   3.625  0.1375  0.0224  0.2196
 2565SOL    HW119328   2.665   0.315   3.598  2.0993  0.2307 -0.5287
 2565SOL    HW219329   2.765   0.203   3.576 -0.3480 -0.2416 -0.4517
 2566SOL     OW19330   2.926   4.530  14.426  0.0224 -0.0314  0.2349
 2566SOL    HW119331   2.846   4.557  14.470  0.2229 -0.7036  1.0149
 2566SOL    HW219332   2.898   4.439  14.411  0.7786  0.6175 -5.2285
 2567SOL     OW19333   2.675   2.136   8.978  0.0778 -0.3642 -0.2066
 2567SOL    HW119334   2.598   2.132   9.035  0.9566 -3.9726  0.7339
 2567SOL    HW219335   2.719   2.051   8.988  1.5582  0.4617  0.2761
 2568SOL     OW19336   4.235   2.027   1.134 -0.1308 -0.1797  0.0588
 2568SOL    HW119337   4.324   2.016   1.099  1.5154  1.4555  3.7304
 2568SOL    HW219338   4.238   1.986   1.221  1.3280  2.9521  1.4804
 2569SOL     OW19339   2.588   3.390  16.084  0.4767 -0.2316 -0.3816
 2569SOL    HW119340   2.652   3.363  16.150  1.1160  1.0988 -0.4669
 2569SOL    HW219341   2.514   3.406  16.142  1.4258 -0.3826  0.8748
 2570SOL     OW19342   2.838   0.710   2.755 -0.8554 -0.0451 -0.1464
 2570SOL    HW119343   2.877   0.669   2.678 -1.3509  1.4539 -1.1927
 2570SOL    HW219344   2.794   0.778   2.704 -0.2369  0.1923 -0.3581
 2571SOL     OW19345   4.624   0.580   5.281 -0.2378  0.1917 -0.1619
 2571SOL    HW119346   4.677   0.656   5.258 -0.4692 -0.3470 -2.5232
 2571SOL    HW219347   4.581   0.634   5.347  1.5358  2.0175 -0.4989
 2572SOL     OW19348   3.020   2.091  16.550  0.0113 -0.0234  0.2324
 2572SOL    HW119349   3.089   2.039  16.591  1.2647 -0.1383 -2.0262
 2572SOL    HW219350   2.941   2.042  16.570 -1.2494  1.1620 -1.8562
 2573SOL     OW19351   0.302   1.421   3.926  0.5911  0.1752 -0.4508
 2573SOL    HW119352   0.231   1.480   3.950 -0.0889 -1.0650  0.5528
 2573SOL    HW219353   0.350   1.481   3.868  0.1084  0.6713 -0.3387
 2574SOL     OW19354   0.630   2.266   7.622 -0.6116 -0.1451  0.3497
 2574SOL    HW119355   0.550   2.228   7.584  1.3896 -1.1328 -2.8830
 2574SOL    HW219356   0.688   2.191   7.628  1.6170  1.6364  0.7942
 2575SOL     OW19357   2.711   4.593  13.573 -0.8169  0.0661  0.2822
 2575SOL    HW119358   2.727   4.656  13.502  3.0201 -1.6557 -0.3839
 2575SOL    HW219359   2.648   4.630  13.635 -2.0407 -0.3365 -0.7199
 2576SOL     OW19360   2.174   1.291  11.698  0.1544 -0.3005 -0.6354
 2576SOL    HW119361   2.172   1.197  11.679  0.4470 -0.7060  1.3679
 2576SOL    HW219362   2.105   1.327  11.641  0.9977 -0.1708 -1.5737
 2577SOL     OW19363   0.480   0.864   4.165 -0.0210  0.0042  0.3554
 2577SOL    HW119364   0.409   0.879   4.103 -0.4076  0.6941  0.9561
 2577SOL    HW219365   0.525   0.948   4.163  0.9968 -0.5997 -1.2717
 2578SOL     OW19366   2.388   1.239  15.217 -0.2165  0.0588  0.3981
 2578SOL    HW119367   2.376   1.161  15.162  0.4519  1.5637 -1.8772
 2578SOL    HW219368   2.441   1.288  15.154 -1.7345  0.5698 -0.4799
 2579SOL     OW19369   1.767   3.738  14.739 -0.2134  0.6045  0.0626
 2579SOL    HW119370   1.794   3.664  14.685  0.5012  0.5361  0.5157
 2579SOL    HW219371   1.716   3.785  14.673 -1.0896 -0.0520  0.2675
 2580SOL     OW19372   3.187   1.217   8.749  0.2432 -0.5189  0.4704
 2580SOL    HW119373   3.191   1.312   8.742 -0.9805 -0.4046  1.2838
 2580SOL    HW219374   3.126   1.214   8.823 -0.3770  1.1957  0.0345
 2581SOL     OW19375   3.701   1.333   2.812 -0.0629 -0.2304 -0.2565
 2581SOL    HW119376   3.753   1.315   2.734  1.2065 -0.7261  0.7121
 2581SOL    HW219377   3.634   1.265   2.801 -1.1879  0.7668  0.3489
 2582SOL     OW19378   0.552   3.235   3.793 -0.4113  0.1840  0.8872
 2582SOL    HW119379   0.544   3.155   3.845  1.9991 -0.5224  0.1907
 2582SOL    HW219380   0.627   3.273   3.839  1.8609 -2.1716 -0.8619
 2583SOL     OW19381   3.635   2.033   3.823 -0.4294  0.4334 -0.1718
 2583SOL    HW119382   3.560   1.979   3.850 -0.3207  1.8900  3.0834
 2583SOL    HW219383   3.688   1.999   3.896 -0.3912  2.0466  0.5456
 2584SOL     OW19384   3.768   0.354   3.047 -0.1982 -0.0237 -0.1682
 2584SOL    HW119385   3.815   0.274   3.071 -1.1913 -0.7831 -0.7288
 2584SOL    HW219386   3.798   0.408   3.120 -0.7036 -3.2635  2.4356
 2585SOL     OW19387   1.007   0.698   6.562  0.0294 -0.2938 -0.1951
 2585SOL    HW119388   1.007   0.687   6.467 -1.0872 -3.8970  0.2122
 2585SOL    HW219389   1.021   0.605   6.579  1.3479 -0.1121 -0.3147
 2586SOL     OW19390   0.306   3.701  13.346 -0.2059 -0.1065 -0.0958
 2586SOL    HW119391   0.299   3.608  13.326  2.6267 -0.9301  2.8615
 2586SOL    HW219392   0.399   3.705  13.324 -0.4008 -0.4575 -0.9620
 2587SOL     OW19393   1.095   3.762   6.420 -0.0935  0.5962 -0.1243
 2587SOL    HW119394   1.168   3.700   6.415 -0.8609 -0.5361  2.3983
 2587SOL    HW219395   1.019   3.705   6.404 -0.0697  0.3538  0.6272
 2588SOL     OW19396   0.158   4.491   2.292 -0.2673 -0.2126  0.4157
 2588SOL    HW119397   0.208   4.432   2.236 -0.8493 -0.4644  0.1621
 2588SOL    HW219398   0.183   4.453   2.376 -0.6724 -1.7548 -0.1611
 2589SOL     OW19399   3.518   2.478   4.981 -0.0117  0.2321 -0.1498
 2589SOL    HW119400   3.484   2.567   4.975  0.3707  0.4159  0.3538
 2589SOL    HW219401   3.510   2.463   5.076  0.8427  0.1934 -0.0841
 2590SOL     OW19402   1.073   3.618  12.689  0.0068  0.2899 -0.0795
 2590SOL    HW119403   1.167   3.614  12.709 -0.5010  0.7074  2.3888
 2590SOL    HW219404   1.040   3.552  12.750  1.8020 -1.1922 -0.6971
 2591SOL     OW19405   3.782   2.966   3.838 -0.2820 -0.2001  0.1937
 2591SOL    HW119406   3.767   2.872   3.831  3.3288 -0.6914 -0.7976
 2591SOL    HW219407   3.723   2.978   3.912 -1.5580  2.7054 -1.2767
 2592SOL     OW19408   0.919   3.603  11.120 -0.6637  0.3423  0.0905
 2592SOL    HW119409   0.876   3.519  11.139 -0.2294  0.5801  2.1954
 2592SOL    HW219410   1.013   3.586  11.121 -0.6920  0.1224 -1.0775
 2593SOL     OW19411   0.832   2.553   8.069 -0.3669 -0.2625  0.2814
 2593SOL    HW119412   0.743   2.520   8.079 -0.7926  0.7623 -0.1470
 2593SOL    HW219413   0.834   2.612   8.144 -0.5062  1.2130 -0.8860
 2594SOL     OW19414   0.239   2.904   2.738 -0.1916 -0.8727  0.0031
 2594SOL    HW119415   0.319   2.952   2.759 -0.0955 -0.4473 -1.2959
 2594SOL    HW219416   0.193   2.903   2.822  0.5197  1.7008  0.4449
 2595SOL     OW19417   2.992   4.030  12.352  0.6664  0.5807  0.5056
 2595SOL    HW119418   3.031   4.117  12.340  0.3334  0.5361 -0.9219
 2595SOL    HW219419   2.959   4.019  12.263  0.9644  0.6294  0.3869
 2596SOL     OW19420   0.751   1.758  14.684  0.1154 -0.1394  0.5168
 2596SOL    HW119421   0.664   1.736  14.718  1.0026 -1.0161  2.2539
 2596SOL    HW219422   0.728   1.762  14.591  1.4710  1.0946  0.2298
 2597SOL     OW19423   2.337   2.417  13.154 -0.0598 -0.0200 -0.4166
 2597SOL    HW119424   2.260   2.438  13.101  0.3678 -0.2637 -1.1249
 2597SOL    HW219425   2.365   2.506  13.178  0.1278  0.1936 -1.4228
 2598SOL     OW19426   1.827   2.114   3.741 -0.3879 -0.0168  0.2753
 2598SOL    HW119427   1.814   2.200   3.781 -1.3010 -0.9936  2.0401
 2598SOL    HW219428   1.739   2.089   3.713  0.1894  0.0023 -1.5955
 2599SOL     OW19429   3.709   4.354  10.655 -0.6298  0.0738 -0.0387
 2599SOL    HW119430   3.727   4.435  10.607  2.6704 -1.9128 -2.1916
 2599SOL    HW219431   3.796   4.328  10.686  0.4055  2.0743 -1.2540
 2600SOL     OW19432   2.150   4.134  14.657 -0.3065  0.4600  0.9280
 2600SOL    HW119433   2.093   4.059  14.642 -3.1374  2.5497  1.0687
 2600SOL    HW219434   2.196   4.131  14.573  0.7697  2.6272  1.4310
 2601SOL     OW19435   0.417   1.234  17.492 -0.3914  0.6819 -0.1889
 2601SOL    HW119436   0.339   1.259  17.542 -0.7273 -2.0420  0.6794
 2601SOL    HW219437   0.383   1.157  17.447  2.6197  0.5810 -2.2561
 2602SOL     OW19438   1.648   2.813   9.697 -0.0005  0.1812  0.3542
 2602SOL    HW119439   1.638   2.889   9.755 -2.6674  0.1834 -0.1158
 2602SOL    HW219440   1.558   2.795   9.671  0.3651  0.2464 -0.9670
 2603SOL     OW19441   3.809   1.989   4.040 -0.3412  0.2664 -0.0361
 2603SOL    HW119442   3.786   1.953   4.126  1.6339 -0.5885  0.1281
 2603SOL    HW219443   3.904   1.998   4.040 -0.4949  1.7934  0.9763
 2604SOL     OW19444   4.439   2.290   5.562  0.0986 -0.2146  0.1259
 2604SOL    HW119445   4.390   2.232   5.503 -0.5973  1.4189 -0.9022
 2604SOL    HW219446   4.507   2.333   5.511  1.1612 -1.6174  0.3841
 2605SOL     OW19447   2.425   1.136   9.208 -0.2170  0.3734  0.3964
 2605SOL    HW119448   2.399   1.228   9.218 -1.9764  0.0608 -1.3194
 2605SOL    HW219449   2.343   1.089   9.226 -0.1838  0.2844  0.3133
 2606SOL     OW19450   2.456   1.402  17.315  0.0728  0.1575  0.1054
 2606SOL    HW119451   2.497   1.318  17.334 -0.4760 -0.2834 -0.6535
 2606SOL    HW219452   2.513   1.463  17.362 -0.8086 -0.7621  2.4189
 2607SOL     OW19453   1.875   2.592   6.546 -0.3293 -0.3758  0.1291
 2607SOL    HW119454   1.811   2.527   6.573  0.6457 -0.8014  1.3860
 2607SOL    HW219455   1.953   2.549   6.580  0.7134 -0.0447 -1.8053
 2608SOL     OW19456   4.319   3.178   3.720 -0.2652  0.3788 -0.0658
 2608SOL    HW119457   4.355   3.140   3.801 -1.5970  0.6089  0.6412
 2608SOL    HW219458   4.341   3.270   3.729  1.4447  0.0546 -0.8848
 2609SOL     OW19459   3.054   0.682   5.676 -0.1359  0.1395 -0.0182
 2609SOL    HW119460   3.106   0.719   5.605 -1.2873 -0.0386 -0.9491
 2609SOL    HW219461   3.062   0.751   5.742 -2.1073 -0.9609  1.3797
 2610SOL     OW19462   4.676   2.973   4.941 -0.3893 -0.6761  0.0730
 2610SOL    HW119463   0.006   2.908   4.928 -1.2923 -1.0558 -2.9139
 2610SOL    HW219464   4.613   2.957   4.870  0.4574 -0.9417 -0.6125
 2611SOL     OW19465   0.829   1.705   7.555 -0.1583 -0.6296  0.1072
 2611SOL    HW119466   0.828   1.770   7.625  1.5114  0.2509 -0.6686
 2611SOL    HW219467   0.778   1.637   7.598  0.6874 -0.7421  0.9497
 2612SOL     OW19468   1.506   3.252   8.306 -0.4681 -0.1291  0.0067
 2612SOL    HW119469   1.488   3.250   8.400  4.0845 -1.9082  0.8683
 2612SOL    HW219470   1.593   3.293   8.304 -2.1521  3.4051 -0.3069
 2613SOL     OW19471   4.549   2.088  15.810  0.1676  0.0483 -0.2985
 2613SOL    HW119472   4.632   2.041  15.802  0.5548  1.0321 -2.1718
 2613SOL    HW219473   4.521   2.073  15.900 -1.4187  0.0067 -0.7928
 2614SOL     OW19474   0.034   4.050   7.857  0.2022  0.5545 -0.4972
 2614SOL    HW119475   0.120   4.021   7.887 -0.1637  0.8544  0.8358
 2614SOL    HW219476   0.057   4.117   7.792  0.4697  1.4783  0.5387
 2615SOL     OW19477   1.725   2.827   1.596 -0.0235 -0.3155 -0.2991
 2615SOL    HW119478   1.752   2.886   1.666 -0.2233 -0.9693  0.3276
 2615SOL    HW219479   1.714   2.895   1.529 -1.3534 -3.1413 -2.9375
 2616SOL     OW19480   0.998   4.452  14.792  0.6665 -0.1239  0.7070
 2616SOL    HW119481   1.078   4.492  14.756  0.1258  1.1081  0.8832
 2616SOL    HW219482   1.017   4.359  14.778 -1.1078 -0.1281 -1.6851
 2617SOL     OW19483   0.574   1.180  13.966 -0.1884  0.0758 -0.5576
 2617SOL    HW119484   0.565   1.195  13.872  3.1189 -1.4735 -1.1029
 2617SOL    HW219485   0.611   1.265  13.988  0.6293 -0.3718 -0.2133
 2618SOL     OW19486   0.389   1.436   7.848 -0.0721  0.7140  0.1492
 2618SOL    HW119487   0.451   1.432   7.921 -0.3282 -0.6151  0.3041
 2618SOL    HW219488   0.303   1.434   7.891  0.2372 -1.0386  0.6877
 2619SOL     OW19489   3.863   1.196   5.153  0.3351 -0.2075  0.1462
 2619SOL    HW119490   3.958   1.189   5.165  0.2102 -0.9992  0.7154
 2619SOL    HW219491   3.835   1.287   5.162 -1.5617 -0.6516 -1.3506
 2620SOL     OW19492   4.312   1.666   9.216 -0.5076 -0.1090  0.0965
 2620SOL    HW119493   4.295   1.727   9.287  3.1013  2.1406 -0.9657
 2620SOL    HW219494   4.407   1.670   9.209 -0.6186  1.4929 -0.4901
 2621SOL     OW19495   2.876   1.269   3.113  0.5318 -0.3038 -0.1512
 2621SOL    HW119496   2.936   1.207   3.072  1.3432  0.5080 -0.2121
 2621SOL    HW219497   2.894   1.349   3.064  0.6522  0.0754  0.4994
 2622SOL     OW19498   1.899   0.461   6.421 -0.0361  0.2417 -0.1345
 2622SOL    HW119499   1.861   0.404   6.488  0.0808 -2.1504 -2.1189
 2622SOL    HW219500   1.911   0.543   6.469  5.2507 -1.9082  2.2324
 2623SOL     OW19501   3.596   4.036   6.115 -0.3601 -0.1280 -0.5432
 2623SOL    HW119502   3.544   4.098   6.065 -0.3566 -0.2317 -0.6769
 2623SOL    HW219503   3.535   4.009   6.183 -0.4641 -2.4762 -1.5451
 2624SOL     OW19504   2.935   1.335   6.585  0.4243  0.5648  0.4676
 2624SOL    HW119505   2.974   1.258   6.627 -0.5558  0.1643  0.6459
 2624SOL    HW219506   2.911   1.376   6.668 -0.7232  0.7258  0.0525
 2625SOL     OW19507   1.815   0.878  10.040 -0.2181  0.0372  0.8639
 2625SOL    HW119508   1.783   0.793  10.069  0.0430 -0.5159 -0.4838
 2625SOL    HW219509   1.859   0.913  10.118  1.2161 -0.2701  0.1998
 2626SOL     OW19510   3.026   2.539  15.371 -0.1017  0.0598  0.5699
 2626SOL    HW119511   2.989   2.571  15.288  0.8972  0.0469  0.1275
 2626SOL    HW219512   3.118   2.566  15.367  0.1796 -1.2261 -1.8420
 2627SOL     OW19513   3.561   2.087   7.896  0.7310 -0.6518  0.3383
 2627SOL    HW119514   3.523   2.172   7.921 -0.2783 -1.5939  2.0815
 2627SOL    HW219515   3.628   2.082   7.964  1.0809  1.7721  0.1622
 2628SOL     OW19516   1.531   4.060   9.422 -0.2400 -0.0745  0.0608
 2628SOL    HW119517   1.474   4.060   9.499  1.3566  1.2800  1.2238
 2628SOL    HW219518   1.529   3.966   9.400  4.0338  0.3598 -2.0607
 2629SOL     OW19519   4.563   1.817  12.869  0.1786  0.1028 -0.2241
 2629SOL    HW119520   4.538   1.878  12.799  0.9786  2.4168  1.5266
 2629SOL    HW219521   4.649   1.854  12.888 -0.4577  0.5867  1.7515
 2630SOL     OW19522   1.339   1.857  14.179 -0.8204 -0.3366 -0.2135
 2630SOL    HW119523   1.393   1.821  14.108  0.8215 -1.4638  1.5904
 2630SOL    HW219524   1.289   1.777  14.199 -2.1775  0.3241 -1.0001
 2631SOL     OW19525   3.538   4.150  16.540  0.4399  0.0241 -1.0147
 2631SOL    HW119526   3.594   4.088  16.495  1.5747  0.7684 -0.6195
 2631SOL    HW219527   3.482   4.095  16.595  3.1076 -0.2998  1.4043
 2632SOL     OW19528   3.638   1.761   9.909 -0.6036 -0.4383 -0.2984
 2632SOL    HW119529   3.692   1.726   9.838 -1.0468  1.7020 -1.6821
 2632SOL    HW219530   3.592   1.838   9.875 -0.2710 -1.2476 -2.6167
 2633SOL     OW19531   1.374   1.978   4.211 -0.2937 -1.2870  0.6360
 2633SOL    HW119532   1.378   1.955   4.304  1.0086 -1.2129  0.6066
 2633SOL    HW219533   1.280   1.983   4.197 -0.2543 -3.4241 -0.3569
 2634SOL     OW19534   0.345   0.299  15.336 -0.3362 -0.3741 -0.3156
 2634SOL    HW119535   0.400   0.376  15.351 -0.9155 -0.0414  0.0927
 2634SOL    HW219536   0.400   0.233  15.377 -0.5146  0.3153  1.0223
 2635SOL     OW19537   0.073   3.980  10.215  0.3743  0.1993  0.6132
 2635SOL    HW119538   0.080   3.942  10.303  0.4476 -0.1774  0.4435
 2635SOL    HW219539   0.148   3.955  10.161 -2.5631 -2.5424 -2.1818
 2636SOL     OW19540   4.706   1.711   2.656  0.2920  0.2674 -0.2465
 2636SOL    HW119541   0.046   1.765   2.659  0.3561  0.0678  1.5196
 2636SOL    HW219542   4.661   1.765   2.721 -2.1889  1.7793 -3.2625
 2637SOL     OW19543   2.215   2.215  10.691  0.7493  0.7104 -0.1735
 2637SOL    HW119544   2.173   2.227  10.777  0.0236 -2.3216 -0.1034
 2637SOL    HW219545   2.301   2.183  10.718  0.6748 -0.1083 -0.9165
 2638SOL     OW19546   3.195   1.729   5.961  0.2663 -0.1474  0.2258
 2638SOL    HW119547   3.116   1.773   5.994  0.7642 -1.6373  3.4632
 2638SOL    HW219548   3.264   1.764   6.017  1.9040 -0.2759 -1.7357
 2639SOL     OW19549   4.705   1.558  13.841 -0.2459  0.1260  0.7807
 2639SOL    HW119550   4.649   1.598  13.907 -0.9341 -0.2538  0.4153
 2639SOL    HW219551   0.038   1.621  13.854  1.3448 -1.5816  0.3320
 2640SOL     OW19552   0.385   4.517   2.645  0.2592  0.1975  0.2495
 2640SOL    HW119553   0.377   4.562   2.561  0.7680  0.0504  0.1182
 2640SOL    HW219554   0.358   4.426   2.635  0.6879  0.1364 -0.3645
 2641SOL     OW19555   2.907   1.747  16.273 -0.1508 -0.0694  0.5216
 2641SOL    HW119556   2.826   1.707  16.304 -0.0058 -0.7900 -0.0146
 2641SOL    HW219557   2.965   1.753  16.349  2.0564  0.7946 -1.1940
 2642SOL     OW19558   3.393   3.518   3.170 -0.1674 -0.3664  0.3982
 2642SOL    HW119559   3.397   3.460   3.246  0.5105  0.3196  0.8832
 2642SOL    HW219560   3.323   3.478   3.119  0.4244  0.3793 -1.0068
 2643SOL     OW19561   2.192   2.340   8.317  0.3188  0.2874 -0.2738
 2643SOL    HW119562   2.174   2.379   8.402  0.9102  3.2152 -1.4853
 2643SOL    HW219563   2.239   2.263   8.348  0.4028  0.3773 -0.1761
 2644SOL     OW19564   2.311   4.278   2.486  0.1557  0.1646  0.8163
 2644SOL    HW119565   2.223   4.284   2.450  0.4663  0.7672  0.1602
 2644SOL    HW219566   2.295   4.263   2.579 -0.7924 -0.2189  0.5885
 2645SOL     OW19567   3.624   0.017   5.448 -0.4216  0.1397 -0.3276
 2645SOL    HW119568   3.573   0.058   5.379 -1.1886 -1.0884 -0.4952
 2645SOL    HW219569   3.572   4.677   5.464 -1.7677  0.6529 -2.1552
 2646SOL     OW19570   1.994   4.723   3.096  0.0326 -0.8266  0.2358
 2646SOL    HW119571   2.002   0.047   3.023 -0.3128 -0.0489  0.8638
 2646SOL    HW219572   2.081   4.691   3.119  0.1496  1.0412  2.3424
 2647SOL     OW19573   1.645   4.468  10.644 -0.6963  0.2757 -0.6590
 2647SOL    HW119574   1.680   4.403  10.705 -1.2514  1.1999  0.6442
 2647SOL    HW219575   1.646   4.552  10.690 -2.5366 -0.1287  0.1561
 2648SOL     OW19576   1.014   3.865   5.673  0.4011  0.2761  0.3059
 2648SOL    HW119577   1.011   3.955   5.703  0.6605  0.0523  1.0127
 2648SOL    HW219578   1.012   3.870   5.578 -0.3579 -1.4866  0.2259
 2649SOL     OW19579   3.378   1.829   4.565  0.1595  0.4917  0.4975
 2649SOL    HW119580   3.333   1.768   4.507  1.3978  0.4758 -0.4490
 2649SOL    HW219581   3.469   1.802   4.556  0.0799 -0.3558  2.2160
 2650SOL     OW19582   4.293   1.060   4.477 -0.2412  0.2558 -0.5067
 2650SOL    HW119583   4.257   1.051   4.565  0.3288  0.8218 -0.2191
 2650SOL    HW219584   4.313   1.153   4.472  1.2872 -0.0482  0.0676
 2651SOL     OW19585   3.978   0.525   5.839 -0.1716 -0.2228  0.3349
 2651SOL    HW119586   4.066   0.550   5.811  0.3004 -1.2108  0.9538
 2651SOL    HW219587   3.963   0.447   5.786 -1.6369  0.7147 -0.6237
 2652SOL     OW19588   0.822   4.689   6.676  0.1250 -0.0237 -0.0606
 2652SOL    HW119589   0.917   4.679   6.686 -0.0254  1.2361  2.4650
 2652SOL    HW219590   0.834   0.040   6.645  0.0226 -0.2273 -0.6872
 2653SOL     OW19591   3.564   0.802  12.606  0.5027  0.3309 -0.5478
 2653SOL    HW119592   3.564   0.806  12.701  0.9378  0.6068 -0.5615
 2653SOL    HW219593   3.538   0.888  12.574 -0.1949  0.3207 -0.0175
 2654SOL     OW19594   0.421   1.208  11.526  0.4756  0.5213 -0.0817
 2654SOL    HW119595   0.341   1.227  11.478 -0.6963 -1.0361  1.2714
 2654SOL    HW219596   0.386   1.211  11.614  0.0954  1.3912 -0.2689
 2655SOL     OW19597   0.805   1.771  11.492 -0.2612  0.1376  0.3751
 2655SOL    HW119598   0.795   1.685  11.450 -1.5543 -0.3659  1.7174
 2655SOL    HW219599   0.739   1.765  11.561 -0.2234  1.7838  0.5531
 2656SOL     OW19600   0.395   3.569   7.277  0.3924  0.0492  0.1710
 2656SOL    HW119601   0.396   3.492   7.221 -0.3149  0.0792  0.1279
 2656SOL    HW219602   0.326   3.621   7.237 -0.0325  0.3889  1.3570
 2657SOL     OW19603   3.822   2.104   8.890  1.1520  0.0562  0.4394
 2657SOL    HW119604   3.765   2.038   8.931  1.0324  0.5834  1.1088
 2657SOL    HW219605   3.783   2.105   8.802 -1.1207  2.1680  1.4736
 2658SOL     OW19606   1.534   3.998  15.694 -0.0290 -0.7618 -0.2062
 2658SOL    HW119607   1.555   3.996  15.787 -0.9227  0.6041  0.0271
 2658SOL    HW219608   1.465   4.064  15.693 -1.7612 -2.5802 -1.3162
 2659SOL     OW19609   4.670   3.658   4.144 -0.6287  0.1759 -0.2713
 2659SOL    HW119610   4.666   3.708   4.226 -0.4309  2.6582 -1.7553
 2659SOL    HW219611   4.616   3.711   4.086 -0.4058  1.1279  0.3921
 2660SOL     OW19612   3.704   0.960   6.170  0.5243  0.5911  0.2381
 2660SOL    HW119613   3.630   0.946   6.230  1.7722 -0.0788  1.6453
 2660SOL    HW219614   3.758   0.883   6.189  0.2488  0.3726  0.1433
 2661SOL     OW19615   3.400   3.511   4.920 -0.1127 -0.0610 -0.0388
 2661SOL    HW119616   3.393   3.606   4.932 -2.0264 -0.2829  0.6048
 2661SOL    HW219617   3.412   3.517   4.825  0.4285 -0.5656 -0.0014
 2662SOL     OW19618   2.003   2.670   9.343  0.0455 -0.2822 -0.0543
 2662SOL    HW119619   1.944   2.665   9.419  0.0035 -2.4901 -0.2245
 2662SOL    HW219620   2.009   2.582   9.305 -0.7349 -1.0156  1.5310
 2663SOL     OW19621   1.880   4.538   8.594 -0.4698 -0.1709  0.3588
 2663SOL    HW119622   1.940   4.611   8.578 -0.7921 -0.1174 -0.6120
 2663SOL    HW219623   1.918   4.470   8.539  0.7483  0.3151  0.5929
 2664SOL     OW19624   0.500   3.015   7.320 -0.3037  0.0160  0.1346
 2664SOL    HW119625   0.432   3.025   7.387  0.7051 -0.3814  1.2096
 2664SOL    HW219626   0.457   2.953   7.260 -2.4807  2.3527 -0.7255
 2665SOL     OW19627   3.608   4.410   1.332 -0.4504 -0.0327 -0.2220
 2665SOL    HW119628   3.564   4.438   1.252 -0.6846 -1.9593 -0.7634
 2665SOL    HW219629   3.673   4.346   1.301 -1.7427 -1.9412  0.9980
 2666SOL     OW19630   0.170   0.269   3.296 -0.4163  0.2562  0.3043
 2666SOL    HW119631   0.136   0.349   3.256  0.5163  0.1421 -0.7076
 2666SOL    HW219632   0.176   0.296   3.388  2.9115  2.8988 -0.6766
 2667SOL     OW19633   1.447   4.039   0.528 -0.3607  0.3592 -0.2244
 2667SOL    HW119634   1.470   4.128   0.501 -0.2415  0.5501  0.4890
 2667SOL    HW219635   1.472   3.982   0.455 -0.7010  1.1136 -0.9335
 2668SOL     OW19636   1.658   1.113   5.310  0.1597 -0.1691 -0.8820
 2668SOL    HW119637   1.679   1.023   5.335  0.0415 -0.1390 -0.6713
 2668SOL    HW219638   1.635   1.091   5.220  1.6076 -0.2795 -1.2239
 2669SOL     OW19639   4.177   0.635   3.194 -0.7693 -0.1898  0.2121
 2669SOL    HW119640   4.236   0.562   3.176  1.1299  0.7218  2.7930
 2669SOL    HW219641   4.195   0.656   3.286 -0.5536  0.3209  0.0496
 2670SOL     OW19642   0.441   1.184   2.888 -0.1006  0.5978 -0.2957
 2670SOL    HW119643   0.533   1.210   2.890  0.3181 -0.9590  0.4120
 2670SOL    HW219644   0.441   1.103   2.837 -1.5963 -0.2391  1.0063
 2671SOL     OW19645   2.440   3.087   2.404  0.4315 -0.1934 -0.0332
 2671SOL    HW119646   2.488   3.089   2.488  2.0059  0.3931 -0.9387
 2671SOL    HW219647   2.471   3.165   2.357  0.9631 -0.6494 -0.4412
 2672SOL     OW19648   0.498   1.636   7.375  0.9070 -0.6156 -0.1605
 2672SOL    HW119649   0.545   1.554   7.362  0.2247 -0.6657 -2.3717
 2672SOL    HW219650   0.477   1.620   7.467 -1.7418 -0.7971 -0.7935
 2673SOL     OW19651   1.246   1.255  13.050 -0.1945  0.4176  0.1444
 2673SOL    HW119652   1.285   1.167  13.054 -0.6527  0.3549  3.2953
 2673SOL    HW219653   1.150   1.254  13.050 -0.1883  0.3018  2.2884
 2674SOL     OW19654   3.706   0.512   4.866 -0.3391  0.3554  0.4026
 2674SOL    HW119655   3.626   0.525   4.815  0.4399  1.7484 -0.4578
 2674SOL    HW219656   3.770   0.550   4.805 -1.8293 -0.3066 -1.5941
 2675SOL     OW19657   3.290   2.015   9.487 -0.3994 -0.6677  0.0599
 2675SOL    HW119658   3.241   1.942   9.449  0.5927 -0.5430 -1.4365
 2675SOL    HW219659   3.215   2.074   9.485  0.2805  0.1750 -0.3373
 2676SOL     OW19660   3.666   0.400   5.803 -0.1309 -0.8598  0.4315
 2676SOL    HW119661   3.674   0.345   5.881 -0.7562 -0.8291  0.5184
 2676SOL    HW219662   3.707   0.479   5.838 -3.7754  1.1060  0.2511
 2677SOL     OW19663   0.408   1.850   9.128 -0.2411  0.1159 -0.2869
 2677SOL    HW119664   0.403   1.796   9.049 -1.4232 -2.0514  1.2710
 2677SOL    HW219665   0.430   1.934   9.088 -1.0858  1.9285  3.0442
 2678SOL     OW19666   4.699   2.910   9.637 -0.4117  0.2576  0.0821
 2678SOL    HW119667   4.640   2.940   9.568 -0.3404  0.7997  0.2577
 2678SOL    HW219668   4.688   2.988   9.691 -1.2070 -0.0928  0.4242
 2679SOL     OW19669   3.107   1.556   8.407  0.0417 -0.0378  0.0430
 2679SOL    HW119670   3.152   1.624   8.456  0.1318  0.3899 -0.6369
 2679SOL    HW219671   3.085   1.611   8.332 -0.3902  0.8603  0.8350
 2680SOL     OW19672   1.886   2.354   4.010  0.1443 -0.2398  0.2954
 2680SOL    HW119673   1.835   2.385   3.936 -1.3656 -1.6483  0.7485
 2680SOL    HW219674   1.834   2.280   4.041  1.3905 -1.2706 -0.0734
 2681SOL     OW19675   2.285   0.968  12.551 -0.5799  0.0677 -0.0037
 2681SOL    HW119676   2.213   0.920  12.593 -0.2054 -1.5039 -1.1262
 2681SOL    HW219677   2.364   0.950  12.602 -1.2687  1.7744  1.6453
 2682SOL     OW19678   0.405   1.121   0.097 -0.1837  0.0265  0.2834
 2682SOL    HW119679   0.327   1.100   0.047  0.7465 -1.1962 -0.6539
 2682SOL    HW219680   0.385   1.205   0.139 -0.0224  0.4121 -0.4227
 2683SOL     OW19681   4.270   1.544   6.926 -0.6539 -0.0198 -0.1765
 2683SOL    HW119682   4.260   1.610   6.994 -0.4460  0.9196 -1.0689
 2683SOL    HW219683   4.364   1.531   6.914 -0.2208  0.1383  3.0253
 2684SOL     OW19684   4.514   2.495   0.139  0.0446  0.3211 -0.1586
 2684SOL    HW119685   4.525   2.559   0.068  1.0905  0.0623 -0.2215
 2684SOL    HW219686   4.464   2.544   0.203  1.0878  2.3828 -0.9382
 2685SOL     OW19687   0.934   3.103   5.295 -0.2552 -0.5164  0.4548
 2685SOL    HW119688   1.028   3.116   5.306 -0.5078  1.7364  0.0937
 2685SOL    HW219689   0.908   3.103   5.387  2.4682  0.7107  1.2278
 2686SOL     OW19690   2.525   2.312   5.708  0.3246  0.6448 -0.3351
 2686SOL    HW119691   2.608   2.360   5.707  1.7201 -1.7973 -0.3976
 2686SOL    HW219692   2.486   2.347   5.628 -0.6745  2.3341  0.8872
 2687SOL     OW19693   2.308   2.049  13.591 -0.4129  0.0218  0.0012
 2687SOL    HW119694   2.298   1.981  13.657 -1.0192 -2.4980 -2.7211
 2687SOL    HW219695   2.258   2.122  13.628  1.2139  0.7919  0.6682
 2688SOL     OW19696   2.413   0.692   8.522 -0.3566  0.1504 -0.1208
 2688SOL    HW119697   2.341   0.663   8.578 -0.7942 -0.9344 -1.2579
 2688SOL    HW219698   2.440   0.770   8.571  0.3979  0.6392 -1.3234
 2689SOL     OW19699   4.392   1.252   5.455  0.3198 -0.6655  0.3541
 2689SOL    HW119700   4.395   1.297   5.371 -1.9015 -1.7773 -0.3411
 2689SOL    HW219701   4.463   1.293   5.504 -0.7398  3.2628 -1.4027
 2690SOL     OW19702   4.646   3.873   0.747 -0.1760 -0.7975 -0.3123
 2690SOL    HW119703   4.640   3.886   0.842  3.3812 -4.0214  0.3767
 2690SOL    HW219704   4.582   3.804   0.729  1.1700 -2.3753  0.9085
 2691SOL     OW19705   4.178   0.824   6.788  0.5213  0.1212  0.3051
 2691SOL    HW119706   4.205   0.756   6.726 -0.5137 -0.2329  0.2409
 2691SOL    HW219707   4.215   0.902   6.747  1.9685 -0.2628  0.8914
 2692SOL     OW19708   4.589   0.080  10.146  0.3767  0.0321 -0.0557
 2692SOL    HW119709   4.548   0.152  10.097  1.3776  0.3465 -0.4364
 2692SOL    HW219710   4.599   0.014  10.078 -1.5859 -0.0310 -0.2882
 2693SOL     OW19711   4.070   2.390   5.097 -0.0366 -0.3153  0.2972
 2693SOL    HW119712   4.118   2.401   5.179  1.4665 -0.4730 -0.5628
 2693SOL    HW219713   4.128   2.435   5.034 -0.2519  1.1177  1.1279
 2694SOL     OW19714   0.627   2.952  12.836 -0.2598 -0.0240  0.1614
 2694SOL    HW119715   0.570   2.880  12.809  0.1725 -0.1957 -0.2886
 2694SOL    HW219716   0.650   2.920  12.923 -0.7547 -0.4644  0.1315
 2695SOL     OW19717   1.067   2.436   6.019 -0.5902  0.7511 -0.2357
 2695SOL    HW119718   1.107   2.462   6.102  0.0935 -0.7768 -0.0971
 2695SOL    HW219719   1.079   2.342   6.017 -0.0544  0.8189  0.0195
 2696SOL     OW19720   0.439   0.392   6.761 -0.0633 -0.7753 -0.4741
 2696SOL    HW119721   0.352   0.387   6.800 -0.3560 -0.1729 -1.0421
 2696SOL    HW219722   0.494   0.433   6.828  0.2849 -0.1831 -1.1123
 2697SOL     OW19723   4.314   3.364   8.080 -0.1996  0.4074  0.6207
 2697SOL    HW119724   4.327   3.329   8.169 -1.1135 -1.6408 -0.0444
 2697SOL    HW219725   4.220   3.357   8.062 -0.0859  2.1791 -0.6163
 2698SOL     OW19726   2.376   0.825   9.597 -0.3761  0.6666  0.6929
 2698SOL    HW119727   2.438   0.843   9.526 -1.4344  0.7330 -0.2066
 2698SOL    HW219728   2.406   0.748   9.644  0.9066  0.2165 -0.8347
 2699SOL     OW19729   0.844   1.420   5.163  0.1116 -0.2062 -0.5936
 2699SOL    HW119730   0.922   1.365   5.171  2.2128  3.0259  1.1336
 2699SOL    HW219731   0.858   1.479   5.237 -0.8944  1.4376 -1.7418
 2700SOL     OW19732   2.711   2.213   2.662  0.3844 -0.0745 -0.2478
 2700SOL    HW119733   2.744   2.259   2.585 -2.1998  0.6060 -0.9356
 2700SOL    HW219734   2.757   2.259   2.732 -0.8288  1.2438 -0.3179
 2701SOL     OW19735   1.211   2.317  10.317  0.2797  0.1371  0.4207
 2701SOL    HW119736   1.209   2.397  10.263  1.4762 -1.0534 -1.3740
 2701SOL    HW219737   1.125   2.280  10.297 -0.0837  1.7209 -1.0359
 2702SOL     OW19738   4.462   1.697  11.270  0.1401  0.6127 -0.8427
 2702SOL    HW119739   4.402   1.742  11.212 -0.7923 -2.1501 -2.0526
 2702SOL    HW219740   4.514   1.771  11.302 -2.7466  2.3345 -0.1618
 2703SOL     OW19741   4.025   1.624   5.063 -0.7229 -0.5090 -0.1887
 2703SOL    HW119742   4.107   1.575   5.072 -0.7204 -0.6125 -0.7655
 2703SOL    HW219743   4.054   1.701   5.013  1.3241 -1.4111 -0.3821
 2704SOL     OW19744   1.425   1.048  13.000  0.0812  0.2418 -0.3599
 2704SOL    HW119745   1.509   1.027  13.039 -0.9763 -2.2517  0.5798
 2704SOL    HW219746   1.456   1.116  12.940 -0.0836  0.0155 -0.6976
 2705SOL     OW19747   0.063   2.655   5.884 -0.2209 -0.1097 -0.0914
 2705SOL    HW119748   0.053   2.710   5.806  2.0865  1.1798  0.5213
 2705SOL    HW219749   0.037   2.571   5.846 -3.7595 -0.0270  2.2361
 2706SOL     OW19750   0.969   1.176  10.130 -0.4909 -0.3339  0.2703
 2706SOL    HW119751   1.057   1.202  10.156 -0.3774  2.2737 -2.7247
 2706SOL    HW219752   0.941   1.143  10.215  2.1503  0.4169  1.4035
 2707SOL     OW19753   2.571   1.292   5.693 -0.0621 -0.1833 -0.2554
 2707SOL    HW119754   2.577   1.206   5.651 -1.7341  0.2029 -1.2942
 2707SOL    HW219755   2.521   1.348   5.633 -2.1997 -2.4237 -0.5851
 2708SOL     OW19756   3.932   0.974   5.386  0.3811  0.4422 -0.0650
 2708SOL    HW119757   3.998   1.027   5.431  1.0043  0.1062 -0.5865
 2708SOL    HW219758   3.856   1.013   5.429  0.4492  0.5209 -0.0171
 2709SOL     OW19759   1.964   0.387   4.682  0.0432 -0.2732 -0.0661
 2709SOL    HW119760   1.949   0.382   4.588  0.7018 -3.3182 -0.0082
 2709SOL    HW219761   2.059   0.403   4.685 -0.2012  1.5066 -1.8336
 2710SOL     OW19762   1.708   0.754   2.868  0.1635  0.0195 -0.6494
 2710SOL    HW119763   1.698   0.723   2.958  1.6991  1.8689  0.1581
 2710SOL    HW219764   1.761   0.833   2.881 -1.7329  0.9413  1.3524
 2711SOL     OW19765   0.838   0.545  15.183 -0.2339 -0.6106 -0.3291
 2711SOL    HW119766   0.773   0.606  15.149 -0.2821  1.0161  2.6542
 2711SOL    HW219767   0.809   0.462  15.144 -1.4660  0.0091 -0.7027
 2712SOL     OW19768   0.340   0.895   6.892 -0.3141 -0.2899  0.4723
 2712SOL    HW119769   0.357   0.831   6.823  1.8303  1.4904 -0.6409
 2712SOL    HW219770   0.268   0.936   6.844  1.1753  0.3866 -1.2044
 2713SOL     OW19771   0.202   3.978   2.259  0.3395  0.3087  0.0628
 2713SOL    HW119772   0.237   3.930   2.334  0.2534  0.4043  0.1644
 2713SOL    HW219773   0.236   3.939   2.178  0.8847  0.2421  0.3253
 2714SOL     OW19774   4.723   4.025   2.395 -0.0938 -0.1324 -0.5670
 2714SOL    HW119775   0.060   3.987   2.352 -1.1817 -1.2091 -1.5478
 2714SOL    HW219776   4.726   4.112   2.354  0.7757 -1.7965 -4.0673
 2715SOL     OW19777   0.825   4.485   7.581  0.7025 -0.3971 -0.0111
 2715SOL    HW119778   0.869   4.567   7.603 -1.3881 -0.3364  3.9108
 2715SOL    HW219779   0.761   4.517   7.517 -1.0758  1.8201  2.9119
 2716SOL     OW19780   3.594   0.208   2.491  0.6989 -0.0032 -0.0510
 2716SOL    HW119781   3.621   0.116   2.499  0.5490  0.0874  1.4109
 2716SOL    HW219782   3.575   0.220   2.398 -0.9562 -1.6223  0.0723
 2717SOL     OW19783   1.034   1.260   1.791  0.2712  0.3384  0.6490
 2717SOL    HW119784   1.021   1.277   1.698 -0.0713 -0.2214  0.5961
 2717SOL    HW219785   1.126   1.235   1.790 -0.4489 -2.2341  0.0352
 2718SOL     OW19786   2.620   1.484   7.608  0.2051 -0.0048  0.4372
 2718SOL    HW119787   2.609   1.566   7.657  1.1308 -0.0280  0.6791
 2718SOL    HW219788   2.700   1.457   7.654 -1.1266 -0.4476  2.4862
 2719SOL     OW19789   0.984   3.384  13.099  0.2436  0.0198  0.0177
 2719SOL    HW119790   1.007   3.302  13.142 -1.8487 -0.2674  0.5995
 2719SOL    HW219791   0.944   3.363  13.014 -4.0540 -0.2047  2.0762
 2720SOL     OW19792   4.666   1.912   5.903  0.4591 -0.2412 -0.4232
 2720SOL    HW119793   4.712   1.990   5.872  2.2217 -1.1196 -0.0514
 2720SOL    HW219794   4.735   1.878   5.960 -1.0680 -1.6727  0.5831
 2721SOL     OW19795   1.268   3.271   4.630  0.0227 -0.1456 -0.3410
 2721SOL    HW119796   1.361   3.255   4.615 -0.0975 -0.4210 -0.8009
 2721SOL    HW219797   1.253   3.339   4.564  1.4426  0.4583 -0.0431
 2722SOL     OW19798   2.800   1.418   0.190 -0.0301  0.0340  0.0871
 2722SOL    HW119799   2.864   1.407   0.261 -1.0661  3.0291  1.4835
 2722SOL    HW219800   2.837   1.359   0.124 -1.7111 -0.4052 -0.4553
 2723SOL     OW19801   2.605   4.116   1.228  0.1248  0.2669  0.0260
 2723SOL    HW119802   2.575   4.099   1.138 -1.6170  0.2213  0.6190
 2723SOL    HW219803   2.588   4.031   1.268 -0.9900  1.1249  1.3503
 2724SOL     OW19804   2.092   1.407   6.449 -0.0708 -0.1140  0.1546
 2724SOL    HW119805   2.055   1.385   6.364  0.0732  2.3307 -0.5301
 2724SOL    HW219806   2.080   1.322   6.491  1.0742 -1.0521 -1.4476
 2725SOL     OW19807   4.223   1.921   1.389 -0.3811  0.2506 -0.6452
 2725SOL    HW119808   4.257   1.836   1.416  0.2360 -0.2188 -2.9177
 2725SOL    HW219809   4.207   1.970   1.469  0.3816  0.3194 -0.5337
 2726SOL     OW19810   0.019   2.036   8.925  0.0077 -0.6015  0.6259
 2726SOL    HW119811   0.070   2.109   8.960  0.4455  0.4236 -2.1383
 2726SOL    HW219812   4.672   2.061   8.960 -0.9234 -2.3438 -0.4647
 2727SOL     OW19813   4.376   1.180   8.174  0.4127  0.0053  0.1125
 2727SOL    HW119814   4.471   1.179   8.188  0.4685 -1.8510 -0.4586
 2727SOL    HW219815   4.346   1.229   8.250 -2.1919 -0.2387 -0.7617
 2728SOL     OW19816   4.229   4.417  10.259  0.8804  0.1898 -0.2935
 2728SOL    HW119817   4.287   4.375  10.196 -1.5179 -3.2917 -0.1906
 2728SOL    HW219818   4.261   4.370  10.336  0.8573  0.0887 -0.3455
 2729SOL     OW19819   1.740   2.238   5.048 -0.2292  0.3336 -0.1651
 2729SOL    HW119820   1.831   2.267   5.038  0.5533 -1.4811  1.5471
 2729SOL    HW219821   1.709   2.293   5.120  2.1609 -0.1830  1.2640
 2730SOL     OW19822   2.147   0.308   6.925  0.6769  0.1487 -0.0987
 2730SOL    HW119823   2.153   0.214   6.907 -1.7741  0.2655 -1.5880
 2730SOL    HW219824   2.201   0.351   6.859  0.7020 -0.5077 -0.5095
 2731SOL     OW19825   4.401   0.282   2.946 -0.0850 -0.0097 -0.4592
 2731SOL    HW119826   4.470   0.238   2.996 -0.2177 -1.0546 -1.1948
 2731SOL    HW219827   4.399   0.368   2.988  0.6907  0.2337 -0.9207
 2732SOL     OW19828   0.734   3.399   3.468 -0.1397  0.3824 -0.1733
 2732SOL    HW119829   0.811   3.426   3.518 -0.9338  2.4170 -0.0700
 2732SOL    HW219830   0.670   3.463   3.499  0.1812  0.3171  0.6244
 2733SOL     OW19831   1.878   2.233  11.640  0.7512 -0.1361  0.0849
 2733SOL    HW119832   1.872   2.145  11.603  2.5348 -0.7072  1.1570
 2733SOL    HW219833   1.934   2.212  11.715  1.2273  0.1628 -0.1925
 2734SOL     OW19834   2.678   3.794  10.575 -0.6016  0.6567 -0.1135
 2734SOL    HW119835   2.607   3.858  10.581  1.5225  2.8116  2.2743
 2734SOL    HW219836   2.679   3.770  10.482 -1.6070 -3.7445  1.0322
 2735SOL     OW19837   2.173   2.007   3.769  0.1563  0.3861 -0.2620
 2735SOL    HW119838   2.216   1.924   3.747 -0.5687 -0.4466  1.4796
 2735SOL    HW219839   2.246   2.061   3.798 -0.0579  0.9024 -0.6809
 2736SOL     OW19840   1.312   2.027  11.796 -0.0400 -0.0168  0.3360
 2736SOL    HW119841   1.406   2.036  11.810  0.0415 -0.3889  0.0127
 2736SOL    HW219842   1.275   2.068  11.875 -1.0394 -2.6066  1.2333
 2737SOL     OW19843   1.541   0.982  14.438 -0.6585 -0.2151  1.1641
 2737SOL    HW119844   1.522   0.926  14.362  1.2137 -0.7596  1.1086
 2737SOL    HW219845   1.635   0.968  14.440 -0.4180  1.3316  0.7069
 2738SOL     OW19846   4.414   3.471  11.574 -0.5210  0.1212  0.4360
 2738SOL    HW119847   4.449   3.559  11.591 -1.8395  0.8629 -0.6966
 2738SOL    HW219848   4.320   3.487  11.575 -0.4574  0.4858  0.8209
 2739SOL     OW19849   1.439   0.668   2.298  0.1046  0.0198  0.0532
 2739SOL    HW119850   1.512   0.630   2.348  0.5083 -0.6313 -1.0467
 2739SOL    HW219851   1.460   0.621   2.218  0.4586 -0.9822  0.7389
 2740SOL     OW19852   1.194   3.602   2.807 -0.3819 -0.2147  0.2130
 2740SOL    HW119853   1.151   3.652   2.738 -0.5622  0.3459  0.7337
 2740SOL    HW219854   1.153   3.647   2.881 -0.6261  0.0196 -0.0636
 2741SOL     OW19855   2.897   2.810   6.822  0.1090  0.6089 -0.3650
 2741SOL    HW119856   2.855   2.838   6.741  0.4333  0.4401 -0.5935
 2741SOL    HW219857   2.831   2.754   6.863 -0.6548  1.0857 -0.9616
 2742SOL     OW19858   0.478   3.310   9.444  0.5763  0.0932  0.3427
 2742SOL    HW119859   0.552   3.259   9.477 -1.0449 -2.3380  0.1802
 2742SOL    HW219860   0.508   3.398   9.470 -0.6435  0.9674 -1.2444
 2743SOL     OW19861   2.990   1.493  16.182  0.8566  0.2168 -1.1649
 2743SOL    HW119862   3.048   1.560  16.220 -0.6466  1.1923 -0.5954
 2743SOL    HW219863   2.920   1.550  16.150  0.1738 -0.3421 -0.6532
 2744SOL     OW19864   3.756   2.622   8.755  0.2017  0.3360  0.7191
 2744SOL    HW119865   3.700   2.665   8.820 -0.9377 -2.1266  1.3665
 2744SOL    HW219866   3.836   2.663   8.790  1.1306 -0.6020 -0.2882
 2745SOL     OW19867   1.109   4.572   4.489  0.4427 -0.1267 -0.2171
 2745SOL    HW119868   1.100   4.649   4.544 -0.1691 -1.5531  1.6885
 2745SOL    HW219869   1.045   4.514   4.530  0.8926 -1.1739 -0.9757
 2746SOL     OW19870   0.399   4.087  10.203  0.3796  0.0737  0.4626
 2746SOL    HW119871   0.373   4.159  10.146 -1.8165 -0.6045  0.6115
 2746SOL    HW219872   0.335   4.017  10.193  0.0996  0.3751  0.1690
 2747SOL     OW19873   4.735   3.242   6.472 -0.3281 -0.8158  0.5319
 2747SOL    HW119874   4.701   3.191   6.399 -2.5687  2.7405 -0.9006
 2747SOL    HW219875   4.658   3.288   6.505  0.0438 -1.4228  2.2520
 2748SOL     OW19876   2.901   0.608  12.148  0.2070  0.0547 -0.1898
 2748SOL    HW119877   2.808   0.594  12.165 -0.0671  1.3229 -0.6974
 2748SOL    HW219878   2.907   0.701  12.169  1.2776 -0.1282  0.2974
 2749SOL     OW19879   3.378   2.674   3.991  0.3952 -0.2553 -0.6665
 2749SOL    HW119880   3.447   2.697   3.930 -1.1179  1.3025 -1.8148
 2749SOL    HW219881   3.419   2.717   4.066 -1.7458 -0.4914  0.6716
 2750SOL     OW19882   0.594   2.778  14.728  0.2524 -0.1587  0.1988
 2750SOL    HW119883   0.527   2.844  14.708 -0.2250 -0.5281  0.5679
 2750SOL    HW219884   0.669   2.830  14.700 -0.8722  1.1830 -0.3596
 2751SOL     OW19885   3.017   1.127   5.071  0.0996 -0.2087  0.6655
 2751SOL    HW119886   2.964   1.172   5.006  0.9471  0.1534  0.2284
 2751SOL    HW219887   2.971   1.146   5.153  0.7403  0.7391  0.7977
 2752SOL     OW19888   0.583   0.364  12.057 -0.4703 -0.3281  0.0463
 2752SOL    HW119889   0.546   0.355  11.970 -1.5728 -1.5348  0.6340
 2752SOL    HW219890   0.625   0.449  12.051  0.5379 -0.8998 -0.9166
 2753SOL     OW19891   0.876   4.353   7.268  0.5743  0.0568  0.5392
 2753SOL    HW119892   0.933   4.396   7.332  0.2567 -0.2573  1.0327
 2753SOL    HW219893   0.835   4.433   7.236  1.4194 -0.3717 -1.6292
 2754SOL     OW19894   2.073   1.316   2.167  0.4873  0.9205 -0.3899
 2754SOL    HW119895   2.118   1.386   2.215 -0.7563  0.1218  1.9282
 2754SOL    HW219896   1.996   1.364   2.137  1.5913  2.7118 -0.3569
 2755SOL     OW19897   1.904   3.217   9.409  0.5741  0.0348 -0.1859
 2755SOL    HW119898   1.997   3.233   9.418  0.6488 -0.1711 -0.6030
 2755SOL    HW219899   1.899   3.124   9.387 -1.2283 -0.1757  1.1003
 2756SOL     OW19900   2.812   1.178   3.574 -0.2716 -0.7491  0.7247
 2756SOL    HW119901   2.741   1.161   3.512 -0.0137 -3.2059  1.1020
 2756SOL    HW219902   2.838   1.265   3.545  0.1685 -1.0149  0.3385
 2757SOL     OW19903   0.639   2.001   6.283  0.0688 -0.1556  0.5190
 2757SOL    HW119904   0.639   1.913   6.322 -1.0728  0.6774  2.3721
 2757SOL    HW219905   0.726   2.038   6.298  0.2338 -0.2138 -0.2759
 2758SOL     OW19906   1.612   3.165   5.355 -0.5481 -0.2867 -0.1735
 2758SOL    HW119907   1.658   3.136   5.434 -0.0461 -0.9029 -0.6969
 2758SOL    HW219908   1.665   3.229   5.309 -1.5628  2.8585  2.9919
 2759SOL     OW19909   1.723   2.711   1.065 -0.2955 -0.1554 -0.1808
 2759SOL    HW119910   1.666   2.667   1.001 -0.1535  0.0787 -0.4686
 2759SOL    HW219911   1.791   2.648   1.092  0.7522  1.2660  0.4855
 2760SOL     OW19912   0.779   1.235  16.876 -0.1919 -0.7178 -0.1566
 2760SOL    HW119913   0.722   1.164  16.845  0.0226 -1.1724  0.5125
 2760SOL    HW219914   0.718   1.292  16.923 -0.5542 -1.7226  0.5875
 2761SOL     OW19915   3.291   1.881   7.546  0.0312 -0.2932 -0.1859
 2761SOL    HW119916   3.297   1.800   7.596  1.7864  1.3172  2.1985
 2761SOL    HW219917   3.353   1.921   7.606  2.5106 -1.0392 -2.2588
 2762SOL     OW19918   3.615   2.958   1.261 -0.1705  0.2515  0.0704
 2762SOL    HW119919   3.544   3.017   1.234  0.1376  0.4178 -0.3642
 2762SOL    HW219920   3.573   2.906   1.330  1.1621  1.0145  1.4559
 2763SOL     OW19921   3.542   0.903   2.177 -0.4810 -0.5506 -0.3183
 2763SOL    HW119922   3.628   0.896   2.137 -0.3241 -0.7308  0.0520
 2763SOL    HW219923   3.502   0.826   2.137  0.1395 -2.0476  1.9744
 2764SOL     OW19924   0.904   2.171   8.771 -0.3474  0.0664 -0.2276
 2764SOL    HW119925   0.864   2.197   8.853 -0.3223 -1.3276  0.2351
 2764SOL    HW219926   0.877   2.249   8.723 -3.8790 -1.1606 -0.2468
 2765SOL     OW19927   0.482   4.542   8.455 -0.6594 -0.1108  0.0839
 2765SOL    HW119928   0.505   4.580   8.370  0.1380  1.1224  0.8469
 2765SOL    HW219929   0.450   4.459   8.420 -1.3707  0.3676 -0.3996
 2766SOL     OW19930   0.375   2.429  16.999 -0.5576 -0.3189  0.1214
 2766SOL    HW119931   0.315   2.360  17.028  0.6917 -0.1590  3.0761
 2766SOL    HW219932   0.454   2.414  17.051  0.0812 -0.4657 -0.8933
 2767SOL     OW19933   1.768   0.680   8.738 -0.2422 -0.0379  0.0754
 2767SOL    HW119934   1.746   0.587   8.738  0.7114 -0.2618  0.9305
 2767SOL    HW219935   1.692   0.726   8.702 -0.2847  0.6299  1.0104
 2768SOL     OW19936   1.832   4.487  16.028 -0.5044  0.4654  0.3186
 2768SOL    HW119937   1.864   4.576  16.017  0.6660 -0.1051 -0.9160
 2768SOL    HW219938   1.762   4.500  16.092  0.3226 -1.5470  1.6551
 2769SOL     OW19939   4.443   1.863   2.877  0.4118 -0.5386 -0.0270
 2769SOL    HW119940   4.406   1.939   2.921 -0.9025 -2.2560  1.8351
 2769SOL    HW219941   4.474   1.901   2.795  0.0497  1.0698  0.5910
 2770SOL     OW19942   3.496   1.209  13.528  0.3249  0.5961 -0.4152
 2770SOL    HW119943   3.445   1.160  13.463 -0.5896 -1.6808  1.9884
 2770SOL    HW219944   3.523   1.134  13.582  0.1178 -0.0724 -1.2370
 2771SOL     OW19945   0.143   3.497   1.839  0.4707  0.3545  0.2294
 2771SOL    HW119946   0.234   3.472   1.858 -0.4694 -2.3586  0.9972
 2771SOL    HW219947   0.129   3.464   1.751 -1.1617 -2.9175  1.7350
 2772SOL     OW19948   4.718   2.257   2.330  0.2787 -0.2990  0.0173
 2772SOL    HW119949   4.701   2.341   2.371  0.3375 -0.3304  0.1068
 2772SOL    HW219950   0.020   2.207   2.401 -1.3403 -1.1796  0.3452
 2773SOL     OW19951   1.770   1.948   0.762 -0.3877  0.7874 -0.4077
 2773SOL    HW119952   1.778   1.999   0.842 -0.9500 -0.4562  0.4270
 2773SOL    HW219953   1.863   1.924   0.755  0.0194  2.2450 -0.0021
 2774SOL     OW19954   0.613   0.385   3.307  0.0545 -0.4329  0.1234
 2774SOL    HW119955   0.542   0.377   3.244 -0.6065 -0.9711  0.9372
 2774SOL    HW219956   0.555   0.413   3.379 -1.9068  0.4620 -1.8188
 2775SOL     OW19957   3.287   4.164   2.669  0.0259  0.5061 -0.1561
 2775SOL    HW119958   3.259   4.079   2.704 -2.7867  2.0317  1.3337
 2775SOL    HW219959   3.328   4.202   2.747 -0.7087  2.2170 -0.6108
 2776SOL     OW19960   1.688   1.187   4.207 -0.2949 -0.4162  0.3237
 2776SOL    HW119961   1.608   1.135   4.220  0.0774 -0.7170  1.4332
 2776SOL    HW219962   1.665   1.268   4.251  1.8932  0.5628 -0.3348
 2777SOL     OW19963   4.646   0.330   1.055  0.3954 -0.5425 -0.2884
 2777SOL    HW119964   4.556   0.321   1.086  0.4694 -1.9503 -0.5198
 2777SOL    HW219965   4.634   0.397   0.987  0.3403  0.5145  0.7574
 2778SOL     OW19966   0.018   0.506   9.734 -0.0657 -0.5175  0.6680
 2778SOL    HW119967   4.734   0.493   9.826 -1.6193  0.7961  0.4720
 2778SOL    HW219968   0.104   0.465   9.721 -0.3681 -0.7986 -0.4078
 2779SOL     OW19969   2.177   0.072  16.533 -0.1891  0.2784 -0.3132
 2779SOL    HW119970   2.184   4.717  16.515 -0.3909  0.4509 -1.2814
 2779SOL    HW219971   2.094   0.063  16.580  1.5595  1.8229  3.0895
 2780SOL     OW19972   0.666   0.102  17.542 -0.1911  0.2332  0.1968
 2780SOL    HW119973   0.721   0.026  17.524 -1.6336 -1.1404  1.6739
 2780SOL    HW219974   0.622   0.119  17.459  2.4097  0.3855 -1.1826
 2781SOL     OW19975   2.617   0.633  12.153  0.1984  0.4959 -0.8373
 2781SOL    HW119976   2.561   0.595  12.220  0.2263  1.8222 -0.0634
 2781SOL    HW219977   2.552   0.650  12.085 -0.5291 -0.3783 -0.3599
 2782SOL     OW19978   0.739   0.152  15.541  0.2412  0.4801 -0.1036
 2782SOL    HW119979   0.789   0.144  15.622 -2.8442  0.7752  1.8733
 2782SOL    HW219980   0.777   0.232  15.505  0.4372  0.7952  0.7965
 2783SOL     OW19981   1.998   1.283  16.023  0.0344  0.1866 -0.3046
 2783SOL    HW119982   1.911   1.322  16.030 -0.8085 -1.7957  0.4002
 2783SOL    HW219983   2.057   1.347  16.063  1.5988  0.1778 -2.6214
 2784SOL     OW19984   0.468   4.568   3.617 -0.7091 -0.4045 -0.2046
 2784SOL    HW119985   0.460   4.649   3.668 -0.8057 -1.2686  1.1367
 2784SOL    HW219986   0.404   4.511   3.658  0.1138 -0.8073  0.5296
 2785SOL     OW19987   1.242   3.922   6.211  0.1240 -0.1518 -0.1795
 2785SOL    HW119988   1.174   3.888   6.269  2.1845 -0.3030  2.1710
 2785SOL    HW219989   1.249   3.850   6.149 -0.9128 -1.3382  1.0799
 2786SOL     OW19990   1.077   2.706   1.942 -0.2345 -0.1096 -0.1281
 2786SOL    HW119991   1.161   2.744   1.917  0.0427 -0.1036  0.8087
 2786SOL    HW219992   1.078   2.691   2.037  0.1500 -0.5068 -0.1978
 2787SOL     OW19993   0.538   2.149   8.628  0.1080 -0.3008  0.1089
 2787SOL    HW119994   0.605   2.210   8.660  0.9945  0.5235 -3.3772
 2787SOL    HW219995   0.578   2.063   8.642 -1.5130 -0.9414  0.7681
 2788SOL     OW19996   3.826   1.991  14.407  0.3862  0.5032  0.3395
 2788SOL    HW119997   3.865   2.055  14.467 -1.6729  1.9815  0.0949
 2788SOL    HW219998   3.892   1.921  14.406  0.8567  0.9400  0.6233
 2789SOL     OW19999   3.087   2.077  17.483  0.1479 -0.5396  0.0665
 2789SOL    HW120000   3.068   2.144  17.550  0.8506  1.3507 -1.6189
 2789SOL    HW220001   3.182   2.088  17.486  0.3917 -1.8612 -3.3779
 2790SOL     OW20002   4.620   3.679   2.359  0.2790  0.3703  0.5646
 2790SOL    HW120003   4.655   3.726   2.283  2.4923  0.6418  1.7614
 2790SOL    HW220004   4.695   3.621   2.373  1.3290  1.2145 -1.5213
 2791SOL     OW20005   4.646   3.798   4.391  0.6731  0.0243  0.5369
 2791SOL    HW120006   4.668   3.870   4.333  2.8035 -1.5121 -0.5813
 2791SOL    HW220007   4.729   3.772   4.431  1.8034  0.1103 -1.7888
 2792SOL     OW20008   2.200   3.915   5.768 -0.0969 -0.0401  0.1143
 2792SOL    HW120009   2.145   3.957   5.834  2.9484  0.2944  2.3936
 2792SOL    HW220010   2.143   3.840   5.751 -1.3189  0.5280  1.6418
 2793SOL     OW20011   0.811   0.398   1.213 -0.2379  0.1483  0.5753
 2793SOL    HW120012   0.724   0.425   1.183 -0.8641  0.4603  2.6426
 2793SOL    HW220013   0.785   0.345   1.289 -2.1417 -0.9338 -0.8090
 2794SOL     OW20014   3.833   2.815   1.571 -0.3473  0.1185 -0.0882
 2794SOL    HW120015   3.829   2.748   1.502  0.4503 -0.2092  0.1940
 2794SOL    HW220016   3.910   2.867   1.548  1.1073 -1.1267  1.9354
 2795SOL     OW20017   0.030   3.112  10.281 -0.2502  0.0062 -0.0822
 2795SOL    HW120018   0.089   3.038  10.288 -0.6232 -0.2291  0.5025
 2795SOL    HW220019   0.077   3.172  10.338  0.9137  0.8147 -1.8640
 2796SOL     OW20020   2.668   4.477   0.113  0.0734  0.2281  0.0181
 2796SOL    HW120021   2.579   4.478   0.076  0.6335  0.1218 -1.3189
 2796SOL    HW220022   2.703   4.393   0.084 -0.1294  0.4168 -0.7973
 2797SOL     OW20023   4.331   1.832   4.272  0.1463  0.6847 -0.8229
 2797SOL    HW120024   4.368   1.758   4.224 -0.0758  1.4941 -2.2570
 2797SOL    HW220025   4.369   1.911   4.233 -2.5274  0.9285 -2.9671
 2798SOL     OW20026   2.392   3.877   6.740 -0.0244 -0.3381  0.9533
 2798SOL    HW120027   2.308   3.860   6.783  0.2833 -0.4636  1.4984
 2798SOL    HW220028   2.358   3.892   6.652  1.0937 -0.8920  0.4187
 2799SOL     OW20029   2.261   1.002   1.379  0.8066 -0.0642  0.0009
 2799SOL    HW120030   2.270   1.091   1.412  1.2033 -0.1300  0.0781
 2799SOL    HW220031   2.253   0.955   1.462 -0.9407  0.2570  0.0054
 2800SOL     OW20032   2.922   3.364  16.820  0.1263  0.5411 -0.5140
 2800SOL    HW120033   3.005   3.394  16.857  0.0274  0.4905 -0.2580
 2800SOL    HW220034   2.957   3.312  16.747  1.5638 -0.7647  1.1261
 2801SOL     OW20035   3.839   1.336  10.243  0.2926 -0.0464  0.7262
 2801SOL    HW120036   3.865   1.329  10.335 -0.4775 -1.7093  0.8228
 2801SOL    HW220037   3.751   1.299  10.247  0.4027 -0.4021  0.0251
 2802SOL     OW20038   3.241   2.648   7.796  0.3513 -0.7043 -0.1195
 2802SOL    HW120039   3.221   2.611   7.882 -0.4564  0.3670  0.1471
 2802SOL    HW220040   3.330   2.623   7.770 -0.5827 -1.7850 -2.2500
 2803SOL     OW20041   2.941   3.539  16.311 -0.0962 -0.3318 -0.0923
 2803SOL    HW120042   2.940   3.627  16.349 -3.0177  0.3337 -1.7203
 2803SOL    HW220043   3.019   3.532  16.255  1.1750 -0.0573  1.6619
 2804SOL     OW20044   2.797   2.299   1.748 -0.0977 -0.5608  0.7934
 2804SOL    HW120045   2.707   2.272   1.768 -0.9085  1.3776 -0.2896
 2804SOL    HW220046   2.807   2.245   1.670  0.0849 -2.1171  1.8955
 2805SOL     OW20047   0.974   0.696  16.234  0.0745 -0.0157  0.4993
 2805SOL    HW120048   0.892   0.714  16.189  0.6611  1.3325 -0.0246
 2805SOL    HW220049   1.021   0.643  16.169 -0.5411  1.0309 -0.8101
 2806SOL     OW20050   2.559   2.493   6.216  0.5829  1.1160 -0.2145
 2806SOL    HW120051   2.513   2.460   6.138 -2.0692 -1.2141  2.3519
 2806SOL    HW220052   2.642   2.528   6.183  1.0875 -1.3951 -1.6033
 2807SOL     OW20053   3.187   0.789   1.520 -0.3707  0.0782  0.3244
 2807SOL    HW120054   3.163   0.697   1.530  2.9313 -1.1920 -3.1343
 2807SOL    HW220055   3.199   0.803   1.426  2.5859  4.6741  1.3249
 2808SOL     OW20056   3.693   3.536   7.299  0.6790  0.1269  0.1595
 2808SOL    HW120057   3.631   3.465   7.283  2.2652 -1.7424  2.1490
 2808SOL    HW220058   3.695   3.566   7.208 -3.8359 -0.1020 -0.0091
 2809SOL     OW20059   0.335   3.410   2.940 -0.2571  0.0218  0.4068
 2809SOL    HW120060   0.354   3.344   3.007  2.3023  0.7621  0.4380
 2809SOL    HW220061   0.394   3.381   2.870  1.7622 -0.3478  2.2624
 2810SOL     OW20062   0.374   2.723   0.527 -0.4526 -0.0859  0.6291
 2810SOL    HW120063   0.351   2.675   0.448  0.0286 -2.2423  1.8004
 2810SOL    HW220064   0.452   2.671   0.549 -0.2383 -0.3658 -0.8244
 2811SOL     OW20065   0.022   1.984   3.279  0.0583 -0.1274 -0.1244
 2811SOL    HW120066   0.006   2.030   3.197  0.7013  0.5257  0.1084
 2811SOL    HW220067   4.673   2.004   3.309  0.0325 -0.6807  0.1706
 2812SOL     OW20068   3.674   4.039   5.583 -0.3229 -0.3528 -0.1316
 2812SOL    HW120069   3.698   3.949   5.560  0.3573 -0.2139  0.0318
 2812SOL    HW220070   3.725   4.092   5.522 -0.2054  1.3294  1.4287
 2813SOL     OW20071   0.539   0.154   7.523  0.3654 -0.3205  0.1579
 2813SOL    HW120072   0.566   0.094   7.592  0.6955 -1.0217 -0.5734
 2813SOL    HW220073   0.472   0.100   7.479  1.0802  0.8595 -2.4079
 2814SOL     OW20074   3.588   2.924  12.985 -0.6846  0.1321 -0.2292
 2814SOL    HW120075   3.679   2.940  13.013  0.5522 -1.4701 -3.3264
 2814SOL    HW220076   3.595   2.921  12.890 -0.7179  1.1753 -0.2624
 2815SOL     OW20077   0.321   4.183  11.636 -0.7277  0.1808  0.2005
 2815SOL    HW120078   0.305   4.269  11.675  0.3394  0.3279  0.3142
 2815SOL    HW220079   0.370   4.208  11.557  0.5309  0.3297  1.0231
 2816SOL     OW20080   0.621   0.822  12.760  0.0633 -1.1132 -0.5278
 2816SOL    HW120081   0.589   0.822  12.670 -2.2030  0.2856  0.2799
 2816SOL    HW220082   0.538   0.827  12.808 -1.0562  2.1232 -2.8430
 2817SOL     OW20083   1.177   0.261  14.076  0.5235 -0.5289 -0.3069
 2817SOL    HW120084   1.236   0.303  14.139 -1.9681  0.8942  1.0748
 2817SOL    HW220085   1.238   0.192  14.049 -1.3701 -2.9069  1.4910
 2818SOL     OW20086   3.471   3.570  13.058 -0.2086 -0.5448 -0.1773
 2818SOL    HW120087   3.447   3.608  13.142  0.7542  1.8674 -0.9848
 2818SOL    HW220088   3.539   3.629  13.024 -0.0904 -1.3209 -1.2887
 2819SOL     OW20089   0.134   4.596  15.113  0.1989  0.0694  0.5559
 2819SOL    HW120090   0.166   4.515  15.075 -0.4343 -0.2007  0.6033
 2819SOL    HW220091   0.212   4.652  15.115  0.1934  0.1184 -1.3337
 2820SOL     OW20092   4.579   1.985   4.759 -0.3867  0.1403 -0.7065
 2820SOL    HW120093   4.564   2.049   4.690 -0.6833  2.3689  1.4251
 2820SOL    HW220094   4.531   1.906   4.735 -1.3550 -0.4535  3.1154
 2821SOL     OW20095   2.005   0.209   5.723  0.4034 -0.3304 -0.4328
 2821SOL    HW120096   2.079   0.187   5.780  0.6810 -0.6311 -0.9070
 2821SOL    HW220097   1.930   0.202   5.783  3.7001 -0.7908  3.6758
 2822SOL     OW20098   3.077   4.110   4.445  0.3196 -0.7311  0.6276
 2822SOL    HW120099   3.016   4.181   4.425 -0.0648 -0.7142  1.8286
 2822SOL    HW220100   3.138   4.137   4.514 -0.6986 -0.9270  1.6040
 2823SOL     OW20101   2.977   3.710   5.727  0.5405  0.4699 -0.0847
 2823SOL    HW120102   3.011   3.762   5.654  1.1789  1.0297  0.6095
 2823SOL    HW220103   2.993   3.772   5.798 -0.0460  1.1047 -0.5067
 2824SOL     OW20104   2.806   1.538  13.669 -0.0106 -0.3108  0.1630
 2824SOL    HW120105   2.807   1.565  13.578 -1.1536  1.6401  0.7155
 2824SOL    HW220106   2.767   1.451  13.661  0.0639 -0.4158  0.9221
 2825SOL     OW20107   2.512   0.878   5.697  0.6170  0.4352  0.8724
 2825SOL    HW120108   2.479   0.869   5.786 -0.6882 -1.3691  0.2078
 2825SOL    HW220109   2.538   0.791   5.670 -0.9453  0.6485 -1.3429
 2826SOL     OW20110   1.279   2.251   8.350 -0.2400 -0.0056 -0.3130
 2826SOL    HW120111   1.228   2.329   8.372  0.0752  0.3367 -0.7880
 2826SOL    HW220112   1.206   2.193   8.326 -1.4627  0.7780  1.4938
 2827SOL     OW20113   0.360   2.365  10.189 -0.6194 -0.1268 -0.3777
 2827SOL    HW120114   0.301   2.388  10.117  0.8995 -0.8143 -1.8578
 2827SOL    HW220115   0.447   2.381  10.151 -0.9132  1.1587 -0.4795
 2828SOL     OW20116   2.510   3.614   7.533 -0.2025  0.3342  0.3151
 2828SOL    HW120117   2.580   3.549   7.538 -0.9574 -0.5462 -0.4126
 2828SOL    HW220118   2.442   3.559   7.493  1.3155  0.0545 -1.8414
 2829SOL     OW20119   1.004   4.038   8.674  0.3094  0.8618 -0.9477
 2829SOL    HW120120   0.997   4.128   8.642  1.5526  1.2104 -0.2509
 2829SOL    HW220121   0.949   3.987   8.615 -0.2846 -0.9803  1.2082
 2830SOL     OW20122   2.062   3.551   4.106 -0.0459  0.1446  0.0587
 2830SOL    HW120123   2.085   3.583   4.193 -2.0010  0.2757  0.5309
 2830SOL    HW220124   2.019   3.630   4.072 -1.0248 -0.1805  0.5144
 2831SOL     OW20125   3.253   1.846  11.144 -0.3090  0.2917 -0.5972
 2831SOL    HW120126   3.234   1.801  11.227  0.5619 -2.3959 -1.8562
 2831SOL    HW220127   3.347   1.863  11.153 -0.0357 -1.6611  0.3675
 2832SOL     OW20128   2.282   3.320  16.045  0.3242 -0.4301 -0.1352
 2832SOL    HW120129   2.326   3.398  16.077 -1.5913  0.5232  0.2127
 2832SOL    HW220130   2.193   3.315  16.081  1.5303  0.0322  2.8545
 2833SOL     OW20131   2.533   2.088  16.819 -0.1022 -0.5671  0.5210
 2833SOL    HW120132   2.447   2.129  16.805 -0.2081 -0.1260  2.4018
 2833SOL    HW220133   2.564   2.089  16.729 -0.7709  2.5838  0.3311
 2834SOL     OW20134   1.772   0.277   6.592  0.1309  0.0058  0.5269
 2834SOL    HW120135   1.785   0.246   6.682 -0.7838 -0.4024  0.5171
 2834SOL    HW220136   1.678   0.294   6.591  0.6840  3.0578 -0.0520
 2835SOL     OW20137   3.134   3.002  12.251 -0.5775 -0.1921  0.0048
 2835SOL    HW120138   3.176   3.059  12.316 -0.4520 -0.4184  0.1217
 2835SOL    HW220139   3.050   2.994  12.297  0.5298 -2.1369  1.6644
 2836SOL     OW20140   0.855   0.177   9.918 -0.2010 -0.2512 -0.0961
 2836SOL    HW120141   0.872   0.149   9.828  1.6389  4.3318 -1.1640
 2836SOL    HW220142   0.937   0.219   9.943  0.0560 -0.9695  0.2315
 2837SOL     OW20143   0.839   3.074  11.859  0.5939 -0.4099 -0.0329
 2837SOL    HW120144   0.759   3.053  11.812  0.0259  2.0155 -0.1364
 2837SOL    HW220145   0.818   3.022  11.937 -0.2592  2.0938  1.3854
 2838SOL     OW20146   2.802   1.920   8.821  0.1168 -0.2321 -0.0636
 2838SOL    HW120147   2.848   1.928   8.738 -0.4400 -0.0406 -0.3531
 2838SOL    HW220148   2.712   1.897   8.796  0.4047 -1.0439 -0.3523
 2839SOL     OW20149   1.027   2.324   1.530  0.0528  0.3694 -0.4351
 2839SOL    HW120150   1.061   2.250   1.580 -1.3646  0.2191  0.3264
 2839SOL    HW220151   1.026   2.389   1.601  0.0907  1.2578 -1.2424
 2840SOL     OW20152   1.179   1.590  15.336 -0.5338  0.1057 -0.3190
 2840SOL    HW120153   1.250   1.530  15.361 -1.2835  0.0579  1.7191
 2840SOL    HW220154   1.147   1.618  15.421 -2.1798 -0.5828 -0.7145
 2841SOL     OW20155   1.049   0.977   6.927  0.3886  0.3687 -0.3247
 2841SOL    HW120156   1.123   1.005   6.873 -1.3271 -0.6639 -3.2630
 2841SOL    HW220157   0.987   0.939   6.865 -0.5804  1.1442  0.1610
 2842SOL     OW20158   2.251   4.354   6.652 -0.6275 -0.3431 -0.2695
 2842SOL    HW120159   2.234   4.448   6.655  2.0827  0.2065 -2.0337
 2842SOL    HW220160   2.252   4.334   6.558 -0.9593  2.1470 -0.8034
 2843SOL     OW20161   4.103   2.089  13.029  0.3334 -0.0141 -0.1423
 2843SOL    HW120162   4.199   2.083  13.030  0.1107 -4.1571 -1.0134
 2843SOL    HW220163   4.090   2.057  12.940  2.1085 -0.2429 -0.3261
 2844SOL     OW20164   0.637   4.241   2.370  0.4665  0.5251  0.3580
 2844SOL    HW120165   0.544   4.233   2.350  0.0853  0.0580  2.3047
 2844SOL    HW220166   0.625   4.231   2.464 -0.5030  0.7808  0.2568
 2845SOL     OW20167   4.519   2.806   9.241 -0.2601 -0.3760  0.4277
 2845SOL    HW120168   4.483   2.792   9.329 -1.0090 -1.4545 -0.0523
 2845SOL    HW220169   4.448   2.841   9.188 -0.1337  0.9527  1.1187
 2846SOL     OW20170   1.381   0.651   7.954 -0.1936 -0.2168  0.0153
 2846SOL    HW120171   1.417   0.607   7.878  1.7387  2.0369 -0.3794
 2846SOL    HW220172   1.437   0.729   7.963  1.9884 -1.7314 -0.5114
 2847SOL     OW20173   3.367   2.471   5.547  0.0576 -0.5209 -0.1396
 2847SOL    HW120174   3.409   2.545   5.503 -1.0818 -1.1846 -2.3197
 2847SOL    HW220175   3.302   2.529   5.585  0.2058 -0.0141 -0.6670
 2848SOL     OW20176   4.669   2.802   8.079  0.4107  0.1883 -0.4410
 2848SOL    HW120177   0.002   2.847   8.035 -0.6636 -0.6405 -3.0124
 2848SOL    HW220178   4.682   2.718   8.036  2.5765  0.2543  0.0425
 2849SOL     OW20179   1.856   2.194   1.450 -0.5096  0.1674 -0.4684
 2849SOL    HW120180   1.786   2.245   1.491 -1.2191 -0.7893 -0.4845
 2849SOL    HW220181   1.792   2.126   1.428  1.2326 -1.1309 -1.5478
 2850SOL     OW20182   3.853   2.947  13.025 -0.1739  0.0603  0.1962
 2850SOL    HW120183   3.898   2.868  13.056 -3.2078 -1.1961  1.4081
 2850SOL    HW220184   3.922   3.012  13.040 -0.6303  0.1496  1.9124
 2851SOL     OW20185   0.851   2.513   2.546  0.7081 -0.0986  0.3196
 2851SOL    HW120186   0.843   2.444   2.611  1.0542  0.7779  1.3024
 2851SOL    HW220187   0.944   2.511   2.524  0.2058  2.1159 -2.1093
 2852SOL     OW20188   4.285   3.151   8.844 -0.3417  0.0433  0.0446
 2852SOL    HW120189   4.356   3.212   8.860 -0.1290 -0.6388  1.7013
 2852SOL    HW220190   4.326   3.082   8.792 -0.2943 -0.5392  0.8607
 2853SOL     OW20191   0.165   2.233   8.302 -0.2394 -0.5668 -0.0370
 2853SOL    HW120192   0.257   2.209   8.308 -0.0164 -0.0212 -1.3019
 2853SOL    HW220193   0.174   2.319   8.261  0.4003 -0.9105 -0.6039
 2854SOL     OW20194   2.612   2.912  13.830 -0.1276 -0.2802 -0.2872
 2854SOL    HW120195   2.538   2.899  13.769  0.5964 -3.3974 -0.5088
 2854SOL    HW220196   2.575   2.971  13.895 -2.5353 -1.7049 -0.3618
 2855SOL     OW20197   0.883   2.158   7.370  0.7377  0.0310 -0.5909
 2855SOL    HW120198   0.882   2.063   7.379  1.5844 -0.0044 -0.9025
 2855SOL    HW220199   0.813   2.176   7.307  0.5869 -1.7257 -0.9326
 2856SOL     OW20200   2.497   0.708   1.000  0.5097  0.3381 -0.4115
 2856SOL    HW120201   2.405   0.702   1.026  1.2861 -0.3903  2.2503
 2856SOL    HW220202   2.480   0.771   0.930 -0.7108  1.5164  0.9278
 2857SOL     OW20203   3.704   0.734   2.563  0.1239 -0.5164  0.0719
 2857SOL    HW120204   3.690   0.751   2.656 -1.0472 -1.6954  0.1004
 2857SOL    HW220205   3.616   0.746   2.527 -1.1272 -0.9974  2.9169
 2858SOL     OW20206   4.628   0.345   0.136  0.2081  0.1292 -0.1522
 2858SOL    HW120207   4.706   0.350   0.191  0.1486 -0.3183 -0.0268
 2858SOL    HW220208   4.599   0.436   0.144 -2.6072 -0.8734  1.1079
 2859SOL     OW20209   1.485   3.180  17.022  0.1378  0.2049  0.0875
 2859SOL    HW120210   1.436   3.258  16.995  0.6471  0.5670  0.2215
 2859SOL    HW220211   1.553   3.220  17.077  0.8062 -1.8200  0.7441
 2860SOL     OW20212   0.971   0.729   7.901  0.3316 -0.1469  0.0040
 2860SOL    HW120213   0.897   0.789   7.892 -1.3045 -2.5254 -2.6078
 2860SOL    HW220214   1.018   0.728   7.817  2.4874  1.0349  1.2130
 2861SOL     OW20215   1.196   0.801  11.289  0.3830  0.4175 -0.5866
 2861SOL    HW120216   1.268   0.768  11.343 -0.5945 -0.2516  0.3088
 2861SOL    HW220217   1.129   0.824  11.354 -1.5009 -2.2135 -1.6051
 2862SOL     OW20218   1.967   2.599   5.675  0.5918  0.0580  0.4043
 2862SOL    HW120219   2.009   2.683   5.692  0.4485  0.0997  0.5540
 2862SOL    HW220220   1.946   2.613   5.583 -0.1960  2.6406  0.9908
 2863SOL     OW20221   2.300   3.622  14.438 -0.3274  0.2172 -0.1272
 2863SOL    HW120222   2.293   3.534  14.474  0.3868  0.3088  0.2441
 2863SOL    HW220223   2.208   3.627  14.413 -0.0596 -1.6703 -1.5115
 2864SOL     OW20224   0.112   1.645   8.373 -0.3418 -0.2856 -0.1845
 2864SOL    HW120225   0.035   1.629   8.318 -2.3337  1.2811  2.1235
 2864SOL    HW220226   0.092   1.626   8.464 -2.4218 -0.8323 -0.7601
 2865SOL     OW20227   1.740   2.510  13.633 -0.0427 -0.4535  0.4888
 2865SOL    HW120228   1.800   2.441  13.659 -0.8653 -1.2195  0.3645
 2865SOL    HW220229   1.722   2.555  13.716  1.9159  1.2473 -0.0115
 2866SOL     OW20230   1.198   2.363   2.010  0.6084 -0.5249 -0.5275
 2866SOL    HW120231   1.267   2.426   1.989  0.4978  0.1123  1.0262
 2866SOL    HW220232   1.235   2.325   2.089  0.1766 -0.8588 -0.4850
 2867SOL     OW20233   0.656   3.660   2.726 -0.0534 -0.0845 -0.0185
 2867SOL    HW120234   0.639   3.747   2.762 -1.0642 -0.5440  0.6137
 2867SOL    HW220235   0.575   3.615   2.750 -0.5717  2.1718  2.4891
 2868SOL     OW20236   2.638   1.795  16.773 -0.0066  0.1242  0.1669
 2868SOL    HW120237   2.556   1.747  16.778  0.3514 -0.4370  0.5938
 2868SOL    HW220238   2.609   1.882  16.800 -1.8204  0.1693 -1.9613
 2869SOL     OW20239   3.184   1.481   8.742  0.6737 -0.0786 -0.6948
 2869SOL    HW120240   3.147   1.563   8.773  0.0573 -0.4228 -0.5385
 2869SOL    HW220241   3.207   1.505   8.652  3.0088  1.6101  0.3344
 2870SOL     OW20242   2.184   1.441   5.820 -0.0380  0.1100  0.3004
 2870SOL    HW120243   2.269   1.423   5.859  0.8125  2.3259 -0.5185
 2870SOL    HW220244   2.162   1.350   5.800 -1.9017  0.6059  0.0541
 2871SOL     OW20245   1.114   0.049   4.649  0.3878 -0.1002  0.1827
 2871SOL    HW120246   1.038   0.105   4.636 -2.5558 -4.0375  0.4384
 2871SOL    HW220247   1.174   0.085   4.583  4.4140 -0.6751  3.4877
 2872SOL     OW20248   3.445   2.253   3.274  0.2371 -0.0994  0.4626
 2872SOL    HW120249   3.488   2.179   3.232  2.6878  2.3267 -1.2963
 2872SOL    HW220250   3.382   2.271   3.205  0.8078 -3.1637 -0.8538
 2873SOL     OW20251   3.778   0.171   6.742 -0.3181 -0.0079  0.0763
 2873SOL    HW120252   3.734   0.255   6.759  2.8249  1.8033 -0.5866
 2873SOL    HW220253   3.869   0.185   6.715 -0.4603  1.8286  0.5085
 2874SOL     OW20254   1.094   3.549  16.910  0.0441  0.3998 -0.0056
 2874SOL    HW120255   1.093   3.578  17.001  0.6193 -1.8904  0.7195
 2874SOL    HW220256   1.186   3.530  16.894  0.3441  3.7767 -2.3280
 2875SOL     OW20257   4.718   2.795   5.667  0.1696  0.2723  0.3239
 2875SOL    HW120258   4.625   2.817   5.664 -0.0602 -0.8031 -0.3539
 2875SOL    HW220259   0.015   2.866   5.612 -2.3238  0.5625 -0.9095
 2876SOL     OW20260   1.900   2.264   6.509 -0.1109  0.2312  0.1607
 2876SOL    HW120261   1.822   2.308   6.544 -0.7420  0.3918 -1.4552
 2876SOL    HW220262   1.958   2.249   6.584  0.6411 -4.0607 -1.2539
 2877SOL     OW20263   4.056   1.494   6.749  0.1257 -0.0021 -0.1771
 2877SOL    HW120264   4.033   1.568   6.805 -0.0481  0.3943 -0.7820
 2877SOL    HW220265   4.144   1.474   6.782 -0.1804 -1.6182 -0.3369
 2878SOL     OW20266   1.064   0.372   2.234 -0.8293 -0.0888  0.0959
 2878SOL    HW120267   1.033   0.373   2.325  0.0903  0.2536  0.4007
 2878SOL    HW220268   1.159   0.368   2.243 -0.8597  0.8888  0.8435
 2879SOL     OW20269   1.331   4.442  13.958  0.9239 -0.0059  0.2785
 2879SOL    HW120270   1.240   4.465  13.938  0.2879 -0.4931  2.6243
 2879SOL    HW220271   1.371   4.483  13.881 -0.1925  1.6456  0.5688
 2880SOL     OW20272   4.631   4.281  14.233 -0.2618 -0.3233 -0.1351
 2880SOL    HW120273   4.668   4.300  14.147  0.1122  0.0814  0.1140
 2880SOL    HW220274   4.704   4.304  14.291 -0.3340 -0.9173  0.1901
 2881SOL     OW20275   0.967   3.450   3.606 -0.0916  0.5904  0.1119
 2881SOL    HW120276   0.974   3.540   3.636 -0.6154  0.4679  0.5944
 2881SOL    HW220277   1.058   3.421   3.601 -0.3088  0.0797 -1.0266
 2882SOL     OW20278   0.001   1.822   5.347 -0.6341  0.6256 -0.7555
 2882SOL    HW120279   4.729   1.729   5.369 -3.2792  0.5355 -2.3366
 2882SOL    HW220280   0.040   1.838   5.433 -0.6922 -1.9861 -0.2322
 2883SOL     OW20281   4.144   3.597  11.520 -0.2793 -0.2401  0.0851
 2883SOL    HW120282   4.062   3.607  11.569  0.8841 -0.5185  2.0637
 2883SOL    HW220283   4.119   3.639  11.438  0.3445 -0.8987 -0.4354
 2884SOL     OW20284   0.964   4.150   2.635 -0.0214  0.3090 -0.4450
 2884SOL    HW120285   0.909   4.101   2.574  2.6231 -2.1505 -0.8838
 2884SOL    HW220286   0.920   4.234   2.646 -1.4368 -0.5900  0.6727
 2885SOL     OW20287   4.250   3.029   1.237  0.5008 -0.0928  0.0548
 2885SOL    HW120288   4.328   2.974   1.243  1.0135  1.0356  3.5984
 2885SOL    HW220289   4.290   3.115   1.245 -2.1551  1.3014 -1.5736
 2886SOL     OW20290   1.832   4.215   4.444  0.3506 -0.0537 -0.1662
 2886SOL    HW120291   1.744   4.224   4.406  0.1717 -1.3219 -0.0289
 2886SOL    HW220292   1.880   4.260   4.373 -0.6002 -0.6313 -1.1720
 2887SOL     OW20293   4.560   3.122   3.576  0.0051 -0.2045 -0.0256
 2887SOL    HW120294   4.543   3.216   3.577  0.5056 -0.1415  1.6947
 2887SOL    HW220295   4.485   3.082   3.621  1.1303 -2.5817 -0.2416
 2888SOL     OW20296   3.703   3.706  12.979  0.7191 -0.2682  1.0942
 2888SOL    HW120297   3.744   3.634  12.932 -1.9904  1.4639 -3.9181
 2888SOL    HW220298   3.755   3.708  13.059  0.1152  1.9850  1.4184
 2889SOL     OW20299   2.769   3.806   4.288 -0.5521  0.1025  0.5840
 2889SOL    HW120300   2.689   3.812   4.236  0.2735 -0.6975 -0.7906
 2889SOL    HW220301   2.757   3.885   4.340  0.7701 -1.2541  2.9459
 2890SOL     OW20302   2.943   0.376   4.121 -0.7900  0.3077  0.0457
 2890SOL    HW120303   2.867   0.423   4.153 -1.7177 -1.4565  0.4491
 2890SOL    HW220304   2.947   0.293   4.170 -0.4198 -1.3772 -2.8064
 2891SOL     OW20305   1.860   4.720   9.524 -0.0075  0.3439 -1.0066
 2891SOL    HW120306   1.764   4.712   9.524  0.0686 -0.5574  0.4578
 2891SOL    HW220307   1.866   0.070   9.490 -0.4163  1.7538  2.5237
 2892SOL     OW20308   0.162   0.541   2.484 -0.0668 -0.5800  0.6401
 2892SOL    HW120309   0.255   0.523   2.495  0.4389  1.6663  0.0048
 2892SOL    HW220310   0.124   0.472   2.538 -0.8196 -0.5781  0.1130
 2893SOL     OW20311   1.738   2.070  12.522 -0.0792  0.1440 -0.6246
 2893SOL    HW120312   1.676   2.052  12.451  0.8317 -0.9868 -1.1233
 2893SOL    HW220313   1.807   2.005  12.510  0.8212  1.0563 -0.4062
 2894SOL     OW20314   3.114   0.066   7.334 -0.3840 -0.2950 -0.2355
 2894SOL    HW120315   3.093   4.712   7.322 -1.3153 -0.3171  1.7276
 2894SOL    HW220316   3.209   0.051   7.339 -0.9963 -3.5819  1.3848
 2895SOL     OW20317   2.259   1.775   8.826  0.5228  0.0113 -0.0116
 2895SOL    HW120318   2.238   1.725   8.905 -3.3811 -0.3471 -1.2537
 2895SOL    HW220319   2.348   1.806   8.840  0.8389 -0.2033 -1.5512
 2896SOL     OW20320   1.970   0.379   9.190 -0.0219  0.0426  0.2844
 2896SOL    HW120321   1.925   0.301   9.222 -0.9209 -0.1007 -1.3239
 2896SOL    HW220322   1.933   0.435   9.257  0.8074  1.0753 -0.1127
 2897SOL     OW20323   2.898   3.354   7.183 -0.2349  0.2107  0.1769
 2897SOL    HW120324   2.902   3.259   7.170  0.5572  0.5370 -1.8974
 2897SOL    HW220325   2.811   3.372   7.147 -0.2305 -0.2662 -0.0735
 2898SOL     OW20326   4.387   2.415   6.849 -0.6716  0.0618 -0.3055
 2898SOL    HW120327   4.291   2.418   6.842 -0.6845  1.5254  0.4407
 2898SOL    HW220328   4.406   2.489   6.908 -1.1923  0.2638 -0.3907
 2899SOL     OW20329   2.563   4.260   6.039 -0.2231 -0.3709  0.0724
 2899SOL    HW120330   2.513   4.180   6.019  1.0494 -1.6313  1.9715
 2899SOL    HW220331   2.504   4.313   6.091  0.3641  1.4458 -1.1345
 2900SOL     OW20332   0.380   3.836   3.785 -0.4207 -0.5412  0.3208
 2900SOL    HW120333   0.333   3.915   3.813  1.2072 -0.0173  1.5843
 2900SOL    HW220334   0.336   3.776   3.845  0.4767 -0.7725  0.7306
 2901SOL     OW20335   1.164   4.402  16.318  0.2309  0.0115  0.3330
 2901SOL    HW120336   1.162   4.489  16.278 -0.2765  0.0293  0.4005
 2901SOL    HW220337   1.248   4.407  16.363  0.6980  1.2828 -0.6624
 2902SOL     OW20338   1.194   3.436   8.746  0.4117 -0.1157  0.5421
 2902SOL    HW120339   1.224   3.482   8.824  1.0440 -0.6996  0.6379
 2902SOL    HW220340   1.100   3.445   8.760  0.4511  2.8581 -1.0791
 2903SOL     OW20341   3.257   0.990   5.679  0.3805  0.3430  0.5577
 2903SOL    HW120342   3.276   0.922   5.744  4.1963 -0.9922 -1.9381
 2903SOL    HW220343   3.257   1.070   5.732  0.8892  0.9501 -0.3649
 2904SOL     OW20344   3.274   0.202   8.722 -0.1057 -0.1117 -0.2282
 2904SOL    HW120345   3.216   0.145   8.774  0.7627  0.3543  1.2390
 2904SOL    HW220346   3.246   0.192   8.631  0.5606 -1.4444 -0.2845
 2905SOL     OW20347   1.345   1.414   1.182 -0.3334 -0.0153  0.1331
 2905SOL    HW120348   1.303   1.475   1.243  2.7410  1.6110  0.6408
 2905SOL    HW220349   1.431   1.455   1.173  0.1110 -0.4865  2.2473
 2906SOL     OW20350   1.913   0.863   9.792 -0.4074 -0.3327 -0.1643
 2906SOL    HW120351   2.005   0.888   9.794 -0.9455  1.6130  0.6623
 2906SOL    HW220352   1.883   0.859   9.882 -0.8138 -0.2779 -0.2979
 2907SOL     OW20353   2.476   2.793  12.124 -0.5278 -0.6437  0.5010
 2907SOL    HW120354   2.472   2.704  12.158 -0.0041 -0.8939 -0.1016
 2907SOL    HW220355   2.429   2.773  12.043  1.0747  1.9998 -1.0958
 2908SOL     OW20356   2.083   3.172   9.995  0.1263 -0.1733  0.1073
 2908SOL    HW120357   2.056   3.154   9.905  0.6050  1.0230 -0.2771
 2908SOL    HW220358   2.167   3.217   9.987  0.7838 -1.2974  0.5901
 2909SOL     OW20359   2.888   3.389   4.867  0.0535  0.4400 -0.2860
 2909SOL    HW120360   2.959   3.333   4.835 -0.4618  0.0566 -0.7578
 2909SOL    HW220361   2.948   3.444   4.918 -0.7277 -0.4499  1.5955
 2910SOL     OW20362   0.774   4.516   4.839 -0.5226 -0.2603 -0.4956
 2910SOL    HW120363   0.702   4.580   4.836 -1.0859 -0.8556  0.5439
 2910SOL    HW220364   0.763   4.487   4.929  0.9348 -0.9499 -0.5495
 2911SOL     OW20365   3.030   4.194   3.469  0.4086 -0.6983  0.5022
 2911SOL    HW120366   3.094   4.265   3.462 -0.0872 -0.4254 -1.3023
 2911SOL    HW220367   2.982   4.218   3.548  1.7675  3.2205  0.1026
 2912SOL     OW20368   0.232   4.200   9.284 -0.3728 -0.3019  0.4317
 2912SOL    HW120369   0.163   4.221   9.220  2.2400 -0.4262 -2.4042
 2912SOL    HW220370   0.288   4.278   9.277 -1.1569  0.2990  0.8061
 2913SOL     OW20371   4.373   0.629   9.935  0.1996  0.1671 -0.6751
 2913SOL    HW120372   4.445   0.681   9.971 -0.7968  1.2449 -0.2337
 2913SOL    HW220373   4.398   0.550   9.983  4.3243  1.8558 -0.0409
 2914SOL     OW20374   3.645   0.691   8.059  0.2867 -0.7459 -0.0300
 2914SOL    HW120375   3.584   0.692   8.133  1.9324  0.9348  1.2943
 2914SOL    HW220376   3.693   0.611   8.081  2.9672  0.7996 -0.3198
 2915SOL     OW20377   0.253   1.745  14.533  0.5796 -0.1259 -0.2260
 2915SOL    HW120378   0.313   1.698  14.476 -0.4601  1.6571 -2.7868
 2915SOL    HW220379   0.177   1.700  14.496  0.8920 -1.6226  0.9880
 2916SOL     OW20380   2.782   4.424   1.657  0.0308  0.6952 -0.5541
 2916SOL    HW120381   2.851   4.360   1.671 -0.9976 -0.8000 -2.2194
 2916SOL    HW220382   2.803   4.448   1.567  0.6610  0.7756 -0.3855
 2917SOL     OW20383   0.818   4.025   4.599 -0.5245 -0.4674 -0.1926
 2917SOL    HW120384   0.837   3.939   4.562 -3.1363 -0.3789 -1.7876
 2917SOL    HW220385   0.722   4.033   4.595 -0.4885 -0.2088 -0.5876
 2918SOL     OW20386   1.687   4.065   3.582  0.2507  0.7004  0.0132
 2918SOL    HW120387   1.712   4.092   3.493  1.7782  1.2323  0.6007
 2918SOL    HW220388   1.759   4.089   3.640 -0.9934 -0.4028  2.0012
 2919SOL     OW20389   1.995   4.073   8.262 -0.7670  0.2886  0.0664
 2919SOL    HW120390   2.064   4.111   8.208 -0.9245 -1.6276 -1.5044
 2919SOL    HW220391   1.917   4.104   8.215 -0.3388  2.7702  1.0008
 2920SOL     OW20392   2.295   2.962   8.119 -0.0327  0.5089 -0.1261
 2920SOL    HW120393   2.291   2.983   8.212  2.5069 -2.1538  0.6035
 2920SOL    HW220394   2.205   2.964   8.088 -0.0855 -0.9259 -0.0618
 2921SOL     OW20395   4.494   4.561  17.747 -0.1229  0.0038  0.2755
 2921SOL    HW120396   4.464   4.646   0.027  0.3997 -0.0496  0.8884
 2921SOL    HW220397   4.462   4.513   0.070 -0.6471 -0.7615 -0.4283
 2922SOL     OW20398   2.048   3.329   6.995  0.3920 -0.1250  0.1581
 2922SOL    HW120399   2.072   3.419   6.975  0.3372 -0.0318  0.5146
 2922SOL    HW220400   2.130   3.281   6.983  0.3375  0.4278 -2.3411
 2923SOL     OW20401   0.939   1.656   6.462 -0.0999 -0.0658 -0.1773
 2923SOL    HW120402   0.948   1.654   6.558 -1.7650  2.0293  0.0329
 2923SOL    HW220403   0.935   1.562   6.446  2.0452 -0.2147  0.1720
 2924SOL     OW20404   1.800   1.358  16.871  0.7073  0.0264 -1.1173
 2924SOL    HW120405   1.792   1.287  16.934  0.1617 -0.7026 -2.0131
 2924SOL    HW220406   1.708   1.380  16.854  1.1421  1.3739 -1.7587
 2925SOL     OW20407   3.874   1.069   4.583  0.4997  0.1406 -0.0611
 2925SOL    HW120408   3.886   1.097   4.674 -4.0680  3.0880 -0.3893
 2925SOL    HW220409   3.835   0.981   4.582  1.7677 -0.4476  1.3898
 2926SOL     OW20410   4.666   1.338  16.783 -0.1953 -0.1068 -0.3799
 2926SOL    HW120411   0.020   1.328  16.804  0.4953  2.4976 -2.2772
 2926SOL    HW220412   4.671   1.432  16.770 -0.5048 -0.3099 -1.9453
 2927SOL     OW20413   4.044   0.844  12.805  0.2423  0.7377  0.2566
 2927SOL    HW120414   4.009   0.758  12.830  0.2166  0.5417 -0.4512
 2927SOL    HW220415   4.105   0.814  12.737 -0.7686 -0.3755 -0.1493
 2928SOL     OW20416   0.861   4.123  10.402 -0.0475 -0.3463 -0.0804
 2928SOL    HW120417   0.953   4.139  10.426 -0.0634 -0.3014 -0.0489
 2928SOL    HW220418   0.863   4.057  10.333 -2.3767  0.1986 -0.6479
 2929SOL     OW20419   0.747   2.861   5.566 -0.0856  0.0413 -0.6617
 2929SOL    HW120420   0.736   2.831   5.657  2.0566 -1.2744 -0.8405
 2929SOL    HW220421   0.834   2.899   5.574 -0.4386  1.3660 -3.2150
 2930SOL     OW20422   1.723   0.873   7.477  0.2724 -0.5467  0.4315
 2930SOL    HW120423   1.716   0.873   7.382  0.8363 -0.3032  0.3913
 2930SOL    HW220424   1.634   0.880   7.510  0.8047  0.5425  1.6295
 2931SOL     OW20425   4.712   1.781   8.112 -0.6007 -0.0100 -0.0194
 2931SOL    HW120426   0.059   1.789   8.153 -0.0863  1.7166 -1.4504
 2931SOL    HW220427   4.719   1.862   8.061  1.0520 -0.8088 -1.0479
 2932SOL     OW20428   4.125   0.820   1.898 -0.0589  0.3398 -0.4826
 2932SOL    HW120429   4.070   0.758   1.850  0.4396 -0.4381 -0.0469
 2932SOL    HW220430   4.203   0.779   1.863  1.4380 -0.1251  3.3474
 2933SOL     OW20431   1.668   3.874  16.373 -0.1265 -0.1326  0.3648
 2933SOL    HW120432   1.708   3.959  16.392 -1.0010 -0.1431  2.2242
 2933SOL    HW220433   1.708   3.826  16.446  1.4033 -0.8033 -0.9096
 2934SOL     OW20434   4.609   0.672   6.433 -0.3329  0.1479 -0.2154
 2934SOL    HW120435   4.547   0.600   6.437 -0.1651  0.2041  2.9560
 2934SOL    HW220436   4.557   0.747   6.464  1.9984  1.7491 -0.1436
 2935SOL     OW20437   2.837   1.889  16.586 -0.4690  0.5080  0.1349
 2935SOL    HW120438   2.755   1.929  16.559 -0.6969 -1.5696 -2.2829
 2935SOL    HW220439   2.810   1.859  16.673  2.4527  0.6320  1.0972
 2936SOL     OW20440   0.989   2.458   1.292 -0.2646  0.4030 -0.4793
 2936SOL    HW120441   1.003   2.370   1.258 -0.3964  0.0481  0.3800
 2936SOL    HW220442   0.988   2.436   1.385  1.6965  1.8392 -0.1123
 2937SOL     OW20443   2.467   2.270   6.837  0.2254  0.1273 -0.2756
 2937SOL    HW120444   2.430   2.357   6.825  0.6480  0.3857  0.2786
 2937SOL    HW220445   2.474   2.232   6.750 -1.6997  1.2884 -0.9289
 2938SOL     OW20446   0.276   0.147  10.908  0.1656  0.2689 -0.2534
 2938SOL    HW120447   0.354   0.120  10.861  0.3601  2.4352 -1.1686
 2938SOL    HW220448   0.220   0.078  10.872  2.1842 -0.7092 -1.4958
 2939SOL     OW20449   0.025   0.578  17.267  0.0993 -0.1084  0.0913
 2939SOL    HW120450   4.718   0.512  17.318  0.8977  0.0102  0.9666
 2939SOL    HW220451   4.729   0.553  17.181  3.6998 -1.0631 -1.1102
 2940SOL     OW20452   4.617   3.969   5.630 -0.0981 -0.0430 -0.2156
 2940SOL    HW120453   4.673   3.912   5.576  0.6568  0.1164  0.3994
 2940SOL    HW220454   4.668   4.048   5.613  1.5940 -1.3764 -1.3839
 2941SOL     OW20455   0.492   0.647  13.355  0.1765 -0.1218 -0.2735
 2941SOL    HW120456   0.536   0.615  13.434  1.4830 -3.6037 -2.4289
 2941SOL    HW220457   0.483   0.561  13.315 -0.4371 -1.6771  3.1903
 2942SOL     OW20458   0.312   1.347   7.190 -0.5051 -0.3742  0.1681
 2942SOL    HW120459   0.280   1.257   7.191 -0.8293 -0.2598  0.1362
 2942SOL    HW220460   0.258   1.382   7.260  0.0372 -1.7964  1.2820
 2943SOL     OW20461   2.913   0.982   1.896 -0.2970  0.1390 -0.1043
 2943SOL    HW120462   2.939   0.917   1.831  2.3243  0.7247  0.3323
 2943SOL    HW220463   2.989   0.984   1.955  1.1768  1.7979 -2.0479
 2944SOL     OW20464   0.629   1.959   8.977  0.0022 -0.3720 -0.0503
 2944SOL    HW120465   0.607   1.946   8.885  0.5995 -0.7397 -0.1425
 2944SOL    HW220466   0.683   1.880   8.989  1.4066  0.4812 -0.6579
 2945SOL     OW20467   4.501   0.929  10.457 -0.1349 -0.2433  0.4614
 2945SOL    HW120468   4.497   1.025  10.466  0.0772 -0.0011 -2.1306
 2945SOL    HW220469   4.530   0.921  10.366  0.8571 -0.3576  0.7875
 2946SOL     OW20470   2.830   0.717   7.021 -0.0007  0.0538 -0.5693
 2946SOL    HW120471   2.868   0.629   7.026  1.2305  0.5910 -0.4682
 2946SOL    HW220472   2.736   0.705   7.008 -0.0402  0.5063 -0.7015
 2947SOL     OW20473   0.454   0.976  16.526  0.1934 -0.1375 -0.1754
 2947SOL    HW120474   0.536   1.022  16.508 -0.1285  1.2513  1.8528
 2947SOL    HW220475   0.488   0.904  16.580 -1.3441  1.2484  2.6798
 2948SOL     OW20476   1.905   0.325   8.334  0.8522  0.1465 -0.2310
 2948SOL    HW120477   1.823   0.291   8.370  1.0388  0.2641  0.2942
 2948SOL    HW220478   1.869   0.340   8.246 -1.7753 -0.6485  0.6916
 2949SOL     OW20479   4.102   1.595   4.197  0.2446  0.0904 -0.1722
 2949SOL    HW120480   4.018   1.636   4.218 -0.5961 -1.8319  0.2545
 2949SOL    HW220481   4.138   1.583   4.285 -0.9539  2.1027  0.5993
 2950SOL     OW20482   0.738   3.625   8.960  0.5050  0.6901 -0.8270
 2950SOL    HW120483   0.826   3.645   8.928  0.5206  0.4937 -0.9088
 2950SOL    HW220484   0.691   3.600   8.880 -1.0500  3.1895 -0.6994
 2951SOL     OW20485   2.412   1.628   1.826  0.2259 -0.2094 -0.0544
 2951SOL    HW120486   2.489   1.659   1.874  0.4199 -1.1356  0.2222
 2951SOL    HW220487   2.421   1.534   1.843  0.8893 -0.6540 -2.8392
 2952SOL     OW20488   3.988   1.206   4.371  0.0220  0.0517 -0.3787
 2952SOL    HW120489   4.016   1.272   4.434  1.7401 -1.6249  0.5857
 2952SOL    HW220490   3.947   1.145   4.432 -1.6203  2.2114  0.6809
 2953SOL     OW20491   1.746   0.783   5.727 -0.0180  0.3368 -0.5796
 2953SOL    HW120492   1.722   0.728   5.801  0.5134  0.6297 -0.1923
 2953SOL    HW220493   1.792   0.723   5.668  1.3123  0.8636 -0.0863
 2954SOL     OW20494   0.667   2.099   4.980  0.5041  0.1318 -0.4926
 2954SOL    HW120495   0.576   2.119   5.002  0.6958 -0.6649  1.0054
 2954SOL    HW220496   0.706   2.082   5.066 -0.7600 -0.4875 -0.0516
 2955SOL     OW20497   0.198   4.191   1.926  0.1565  0.0788 -1.2581
 2955SOL    HW120498   0.180   4.118   1.867  3.3213  0.1105 -2.2553
 2955SOL    HW220499   0.219   4.261   1.865 -0.0285 -0.1280 -1.5569
 2956SOL     OW20500   4.334   4.602  14.705 -0.6174  0.1272  0.4463
 2956SOL    HW120501   4.314   4.569  14.793 -0.9852 -0.1203  0.2679
 2956SOL    HW220502   4.293   4.689  14.709 -3.0388 -0.7487 -6.0589
 2957SOL     OW20503   2.693   1.104   8.259 -0.4843 -0.3324 -0.8702
 2957SOL    HW120504   2.726   1.105   8.349  0.6993  0.4370 -1.3095
 2957SOL    HW220505   2.679   1.195   8.232  0.0009  0.5985  1.9814
 2958SOL     OW20506   4.475   1.897   1.042  0.0902 -0.2639 -0.3236
 2958SOL    HW120507   4.515   1.819   1.001  1.5585  0.1772  0.2811
 2958SOL    HW220508   4.520   1.903   1.126  0.8947 -0.6467 -0.7242
 2959SOL     OW20509   2.742   1.608   6.937  0.1972 -0.2683 -0.1177
 2959SOL    HW120510   2.795   1.542   6.892 -0.1940 -0.5230 -0.2087
 2959SOL    HW220511   2.687   1.545   6.984 -0.1340 -0.5957 -0.9420
 2960SOL     OW20512   0.637   3.216   5.538  0.1088 -0.3460  0.1705
 2960SOL    HW120513   0.604   3.199   5.627 -0.5159 -0.4658 -0.0860
 2960SOL    HW220514   0.688   3.296   5.549 -3.0242  1.5469  1.0750
 2961SOL     OW20515   0.865   0.533   5.927 -0.1714 -0.6500  0.9764
 2961SOL    HW120516   0.923   0.590   5.976 -2.7959  2.0729  0.9162
 2961SOL    HW220517   0.840   0.591   5.856 -1.3563 -1.9271  0.3470
 2962SOL     OW20518   1.939   0.892   4.480 -1.3090  0.0224  0.2957
 2962SOL    HW120519   1.914   0.948   4.406  0.5534  0.2883 -0.1329
 2962SOL    HW220520   1.975   0.810   4.447 -0.1533  1.0789 -1.0341
 2963SOL     OW20521   3.585   1.337   4.889 -0.6344 -0.2718 -0.2616
 2963SOL    HW120522   3.591   1.289   4.971  1.5668  0.7368  0.1679
 2963SOL    HW220523   3.506   1.298   4.851  2.0641 -2.6558 -3.4346
 2964SOL     OW20524   4.263   0.460   0.612 -0.1209  0.2429 -0.0512
 2964SOL    HW120525   4.356   0.464   0.589  0.2002 -0.8502  1.0535
 2964SOL    HW220526   4.272   0.391   0.677  1.9538 -1.6167 -2.3334
 2965SOL     OW20527   3.852   0.803   2.943  0.3742  0.0267 -0.4863
 2965SOL    HW120528   3.859   0.772   2.853  0.3366 -1.6062  0.0808
 2965SOL    HW220529   3.919   0.871   2.954 -0.9233  1.2397 -0.0727
 2966SOL     OW20530   2.248   1.111  16.160 -0.2740 -0.0249 -0.0160
 2966SOL    HW120531   2.236   1.149  16.073  0.9161  0.0350 -0.1447
 2966SOL    HW220532   2.212   1.023  16.149  2.0864 -0.9934  0.0962
 2967SOL     OW20533   4.221   4.496   6.034  0.1375  0.3670  0.0279
 2967SOL    HW120534   4.310   4.480   6.066 -0.9306 -0.9439  2.3476
 2967SOL    HW220535   4.203   4.420   5.978 -1.5445  0.1940  0.8176
 2968SOL     OW20536   2.908   4.148   4.809 -0.2543 -0.3977  0.2280
 2968SOL    HW120537   2.996   4.178   4.832 -0.5881 -0.7901  2.0273
 2968SOL    HW220538   2.889   4.192   4.726 -0.8666 -2.0802 -0.5185
 2969SOL     OW20539   4.652   0.714  11.829  0.0846 -0.6379  0.2701
 2969SOL    HW120540   4.671   0.631  11.872 -1.9360 -0.1732  2.0733
 2969SOL    HW220541   4.563   0.699  11.796 -0.8853  1.3953  1.9348
 2970SOL     OW20542   4.646   3.576  12.863 -0.5544  0.3277 -0.4447
 2970SOL    HW120543   4.575   3.640  12.857  0.2243  1.3292  1.0160
 2970SOL    HW220544   4.724   3.632  12.859 -1.2256  1.2748 -0.1845
 2971SOL     OW20545   0.417   2.064   3.560  0.1621  0.1959  0.1665
 2971SOL    HW120546   0.324   2.043   3.557  0.2872 -0.2730 -0.6130
 2971SOL    HW220547   0.414   2.149   3.603  1.8894 -0.1011  0.9000
 2972SOL     OW20548   4.173   2.090  14.954  0.5906  0.3277  0.1631
 2972SOL    HW120549   4.113   2.159  14.926  0.9217  0.3338 -0.5159
 2972SOL    HW220550   4.125   2.013  14.923 -0.3126  0.6016  0.8764
 2973SOL     OW20551   2.179   2.105   5.370 -0.2412  0.2734  0.0621
 2973SOL    HW120552   2.131   2.035   5.326  1.3313 -1.0666  0.5196
 2973SOL    HW220553   2.109   2.126   5.432  0.9544  1.6706  0.9169
 2974SOL     OW20554   3.661   4.485   2.178  0.5734 -0.1031  0.3720
 2974SOL    HW120555   3.597   4.414   2.168 -1.6289  2.1431 -1.7834
 2974SOL    HW220556   3.627   4.541   2.108 -1.0350 -1.2084  0.2759
 2975SOL     OW20557   2.378   1.825  17.029  0.1129 -0.0113 -0.5123
 2975SOL    HW120558   2.385   1.858  16.940 -1.1858  0.3954 -0.4604
 2975SOL    HW220559   2.289   1.790  17.029 -0.6702  2.0234 -0.3987
 2976SOL     OW20560   1.253   4.139  14.486 -0.6578  0.2166  0.1160
 2976SOL    HW120561   1.286   4.129  14.397  1.5583 -1.2285  1.1296
 2976SOL    HW220562   1.211   4.225  14.481 -1.4347 -0.2468 -1.2768
 2977SOL     OW20563   0.127   1.990   7.264 -1.3298 -0.2463 -0.3470
 2977SOL    HW120564   0.202   1.932   7.256 -1.3585 -0.5265  1.5158
 2977SOL    HW220565   0.053   1.932   7.250 -0.4072 -0.9999 -2.0818
 2978SOL     OW20566   2.755   4.168   2.939  0.2857  0.2931  0.9769
 2978SOL    HW120567   2.843   4.152   2.974  0.2986  0.4550  1.0202
 2978SOL    HW220568   2.775   4.225   2.865 -0.1284 -1.4958 -0.5081
 2979SOL     OW20569   3.434   3.786  13.588  0.0639  0.1474  0.9900
 2979SOL    HW120570   3.425   3.708  13.643  0.3806 -0.6538 -0.0885
 2979SOL    HW220571   3.517   3.823  13.619 -0.3987  0.8097  1.4267
 2980SOL     OW20572   3.428   4.382  10.669 -0.7736 -0.2286  0.7544
 2980SOL    HW120573   3.522   4.363  10.664 -1.1320 -1.4216 -1.2369
 2980SOL    HW220574   3.424   4.462  10.723  0.2512  1.3211 -1.4624
 2981SOL     OW20575   1.439   3.329   3.184  0.5503 -0.1026  0.3461
 2981SOL    HW120576   1.461   3.236   3.177 -0.5063 -0.1492 -2.1414
 2981SOL    HW220577   1.383   3.336   3.107  0.3912 -0.2331  0.4479
 2982SOL     OW20578   4.185   3.469   2.313 -0.0884  0.3754 -0.0281
 2982SOL    HW120579   4.254   3.535   2.301  0.3862 -0.0647  0.2406
 2982SOL    HW220580   4.125   3.485   2.241 -0.1391  0.5644  0.0553
 2983SOL     OW20581   2.270   3.600   4.377 -0.2601 -0.0852  0.0271
 2983SOL    HW120582   2.183   3.636   4.392  0.5713  2.2528 -0.7020
 2983SOL    HW220583   2.261   3.506   4.388 -1.1375  0.1326  1.1604
 2984SOL     OW20584   4.287   1.679  16.231  0.0555 -0.4758  0.6839
 2984SOL    HW120585   4.297   1.766  16.192  0.5883 -0.7656  0.1936
 2984SOL    HW220586   4.232   1.631  16.169 -0.0267  1.4440 -0.7121
 2985SOL     OW20587   3.424   3.817   6.934 -0.4477  0.4073  0.5220
 2985SOL    HW120588   3.509   3.780   6.911 -0.6695  0.3802 -0.2616
 2985SOL    HW220589   3.369   3.745   6.965 -0.7564  1.3109  2.0724
 2986SOL     OW20590   3.134   3.129   6.515 -0.3738  0.3094 -0.2918
 2986SOL    HW120591   3.183   3.083   6.583 -0.0106  1.5582  0.2761
 2986SOL    HW220592   3.203   3.156   6.455  0.1165  0.8439  0.5191
 2987SOL     OW20593   2.458   0.072   3.655  0.0213 -0.4033 -0.3863
 2987SOL    HW120594   2.541   0.115   3.633 -0.2814 -0.3736 -1.4560
 2987SOL    HW220595   2.404   0.145   3.624  0.3533  0.0735  0.1452
 2988SOL     OW20596   2.095   2.415  12.736 -0.0470  0.5302  0.1261
 2988SOL    HW120597   2.063   2.457  12.656  0.4422 -1.0832 -0.9216
 2988SOL    HW220598   2.133   2.336  12.698  0.3372  0.9215 -0.3074
 2989SOL     OW20599   3.088   1.680   5.172  0.8433 -0.0507 -0.4511
 2989SOL    HW120600   3.112   1.743   5.240  0.1395  0.6164 -0.8241
 2989SOL    HW220601   3.104   1.594   5.212  0.1017  1.2537  2.6389
 2990SOL     OW20602   1.194   1.756  15.112  0.3684 -0.5477 -0.1406
 2990SOL    HW120603   1.230   1.676  15.073 -1.3128 -1.4981  0.2959
 2990SOL    HW220604   1.175   1.727  15.201 -1.1085  1.4117  0.1763
 2991SOL     OW20605   2.463   0.295   4.728 -0.1203  0.3821 -0.1186
 2991SOL    HW120606   2.521   0.351   4.779 -0.0273 -0.1606  0.3712
 2991SOL    HW220607   2.395   0.274   4.792 -0.3079 -0.6726 -0.6570
 2992SOL     OW20608   3.054   0.520   7.222 -0.9539  0.4516  0.2642
 2992SOL    HW120609   3.089   0.579   7.156 -0.4906 -0.6626 -0.4798
 2992SOL    HW220610   3.103   0.544   7.300 -0.3199  2.4562 -0.7395
 2993SOL     OW20611   3.657   3.595   2.578  0.3928  0.3535 -0.5393
 2993SOL    HW120612   3.741   3.633   2.605  0.5977 -0.7110  0.3292
 2993SOL    HW220613   3.587   3.650   2.613 -0.3577  0.0630 -1.5547
 2994SOL     OW20614   2.693   4.570   3.072 -0.4018  0.4561 -0.1811
 2994SOL    HW120615   2.670   4.614   2.990  0.9408 -0.0527 -0.8384
 2994SOL    HW220616   2.787   4.563   3.054 -0.0652  0.1884  1.7601
 2995SOL     OW20617   3.507   4.556   6.269  0.1216 -0.0757 -0.5208
 2995SOL    HW120618   3.419   4.530   6.242  0.2676  0.2793 -1.3397
 2995SOL    HW220619   3.513   4.513   6.354  0.4764  0.1673 -0.4210
 2996SOL     OW20620   2.408   1.033  15.922  0.3166 -0.1063 -0.1092
 2996SOL    HW120621   2.366   0.978  15.988  0.8314  1.2236  1.3516
 2996SOL    HW220622   2.485   1.056  15.974  0.9357  3.0272 -2.4105
 2997SOL     OW20623   2.557   2.853  10.786  0.6108 -0.1380  0.1196
 2997SOL    HW120624   2.606   2.931  10.763 -0.5443  1.2110  2.2127
 2997SOL    HW220625   2.613   2.819  10.856  0.5234 -1.0786 -0.2610
 2998SOL     OW20626   1.344   1.330   2.558  0.3747 -0.1639 -0.0961
 2998SOL    HW120627   1.386   1.317   2.473  0.8850 -0.1437  0.1550
 2998SOL    HW220628   1.332   1.425   2.553  1.3899 -0.0385 -0.0046
 2999SOL     OW20629   3.698   1.734   5.367  0.1011 -0.0252 -0.2831
 2999SOL    HW120630   3.741   1.654   5.396 -0.1741  0.1157  0.4966
 2999SOL    HW220631   3.765   1.782   5.317 -0.3023  0.3586 -0.4480
 3000SOL     OW20632   1.518   1.309   3.229 -0.2737 -0.3332  0.4617
 3000SOL    HW120633   1.442   1.367   3.233  0.4491  0.6850 -0.4673
 3000SOL    HW220634   1.468   1.230   3.214  0.3903 -0.6240 -0.2270
 3001SOL     OW20635   0.663   4.738   9.817  0.5837  0.1981 -0.0014
 3001SOL    HW120636   0.744   4.695   9.843  0.8455  0.9664  0.4605
 3001SOL    HW220637   0.615   4.731   9.899 -1.2856 -2.7378 -1.3768
 3002SOL     OW20638   4.629   1.005  13.155  0.5250  0.0168 -0.6084
 3002SOL    HW120639   4.557   0.942  13.163 -0.7969  1.7754  1.3806
 3002SOL    HW220640   4.681   0.983  13.233  2.2407 -0.6397 -1.9574
 3003SOL     OW20641   2.338   0.743  11.041  0.2985 -0.5031  0.0273
 3003SOL    HW120642   2.430   0.770  11.042  0.2443 -0.3073 -0.2777
 3003SOL    HW220643   2.294   0.783  11.116 -1.1456  0.8314 -1.5044
 3004SOL     OW20644   2.126   0.089   1.050  0.0179  0.2961  0.3028
 3004SOL    HW120645   2.062   0.032   1.008  2.0457 -0.9451 -1.0796
 3004SOL    HW220646   2.075   0.148   1.105 -2.4982 -4.2078  2.7401
 3005SOL     OW20647   1.760   2.726   8.909 -0.2912  0.3382 -0.0783
 3005SOL    HW120648   1.761   2.655   8.845 -0.7842  1.4650 -1.3551
 3005SOL    HW220649   1.701   2.785   8.862 -0.9202 -0.5323 -0.3795
 3006SOL     OW20650   1.264   2.014   4.789  0.3460  0.2103  0.1373
 3006SOL    HW120651   1.220   2.073   4.851 -0.1844 -0.0172 -0.0231
 3006SOL    HW220652   1.196   2.020   4.722 -1.8490 -2.5762  2.0903
 3007SOL     OW20653   1.160   2.017   0.712 -0.2286  0.3900 -0.5010
 3007SOL    HW120654   1.243   1.973   0.734 -2.1793 -1.2866  3.4922
 3007SOL    HW220655   1.140   1.982   0.626 -4.2271 -0.9316  0.9593
 3008SOL     OW20656   3.631   3.930   7.988  0.2182  0.1069  0.3532
 3008SOL    HW120657   3.571   3.895   8.054  0.2032 -0.0985  0.2291
 3008SOL    HW220658   3.588   4.012   7.961  2.2295  0.6613 -1.1947
 3009SOL     OW20659   4.360   3.853   6.796  0.0055 -0.7499  0.5755
 3009SOL    HW120660   4.417   3.804   6.856 -0.3580 -0.3308  1.2572
 3009SOL    HW220661   4.287   3.791   6.793  0.3194 -1.0336 -1.5466
 3010SOL     OW20662   3.920   4.156   8.715  0.0399 -0.2144  0.3454
 3010SOL    HW120663   4.013   4.180   8.715  0.7016 -2.7441 -1.5340
 3010SOL    HW220664   3.926   4.119   8.804  1.4759 -1.2991 -0.2025
 3011SOL     OW20665   0.244   1.170   1.957  0.2762 -0.1534  0.0261
 3011SOL    HW120666   0.246   1.095   1.898 -1.2479 -1.4992  1.6981
 3011SOL    HW220667   0.218   1.133   2.041 -2.0473 -0.6189 -0.8804
 3012SOL     OW20668   2.039   0.729   7.940  0.1155 -0.4255  0.1752
 3012SOL    HW120669   2.036   0.771   8.026  0.1344  0.1159 -0.0868
 3012SOL    HW220670   2.111   0.778   7.899  0.9051 -1.3604  0.4331
 3013SOL     OW20671   2.660   4.598  14.505 -0.3085  0.3391 -0.0306
 3013SOL    HW120672   2.610   4.634  14.432  1.0915 -0.9425 -1.5898
 3013SOL    HW220673   2.632   4.507  14.502 -0.7002  0.3551  2.5018
 3014SOL     OW20674   0.066   0.325   8.012 -0.3389 -0.3996  0.4487
 3014SOL    HW120675   0.100   0.297   7.927 -0.5699 -1.4794  0.7222
 3014SOL    HW220676   0.146   0.370   8.042 -0.4372  0.3241 -0.3820
 3015SOL     OW20677   0.996   3.396   7.367 -0.7445 -0.1898 -0.6803
 3015SOL    HW120678   1.091   3.391   7.355 -0.6147 -2.3123  1.3542
 3015SOL    HW220679   0.972   3.304   7.378  0.0683 -0.1600  1.3243
 3016SOL     OW20680   0.320   3.371   4.667  0.0052  0.3907  0.1928
 3016SOL    HW120681   0.350   3.281   4.652  2.1969  1.0012  0.8750
 3016SOL    HW220682   0.333   3.376   4.762  0.8231 -0.6322  0.1281
 3017SOL     OW20683   2.440   2.677   8.213  0.5052 -0.0045  0.7734
 3017SOL    HW120684   2.436   2.637   8.126 -1.6057 -0.1048  0.9205
 3017SOL    HW220685   2.508   2.742   8.193 -0.9921  1.4032  0.2030
 3018SOL     OW20686   3.905   2.947   5.812 -0.8662  0.2789 -0.2671
 3018SOL    HW120687   3.879   2.896   5.736 -1.7910 -0.5030  0.5654
 3018SOL    HW220688   3.908   2.879   5.879 -1.8555 -1.2623 -1.7902
 3019SOL     OW20689   1.494   3.576   7.531 -0.2978  0.1349  0.0493
 3019SOL    HW120690   1.560   3.529   7.582  0.4606  1.3648  0.2119
 3019SOL    HW220691   1.415   3.566   7.584 -1.5674  0.4873 -1.7784
 3020SOL     OW20692   2.778   0.651   3.910 -0.4178 -0.2581 -0.0282
 3020SOL    HW120693   2.750   0.562   3.890  0.2452 -0.7169  1.1185
 3020SOL    HW220694   2.825   0.676   3.831 -0.5166  0.1778  0.0481
 3021SOL     OW20695   3.023   1.667   3.880 -0.3241 -0.1506 -0.4690
 3021SOL    HW120696   2.992   1.632   3.797  2.1851 -2.5577 -0.4013
 3021SOL    HW220697   2.959   1.624   3.936  0.0442  0.6828  0.5988
 3022SOL     OW20698   1.605   4.279   4.278 -0.2518  0.7330 -0.0989
 3022SOL    HW120699   1.587   4.368   4.309 -0.7456 -0.4934  3.1492
 3022SOL    HW220700   1.520   4.249   4.247  0.3095 -0.2362 -0.7003
 3023SOL     OW20701   2.382   3.692   2.879 -0.0372 -0.6787 -0.2135
 3023SOL    HW120702   2.381   3.787   2.884  1.1273 -0.6064 -1.1152
 3023SOL    HW220703   2.292   3.675   2.907 -1.2426  0.9427 -3.1331
 3024SOL     OW20704   3.751   4.553  12.606 -0.0455 -0.3108  0.4562
 3024SOL    HW120705   3.759   4.645  12.631  0.2705 -0.3160  0.3812
 3024SOL    HW220706   3.703   4.524  12.683  1.7261  0.0700  1.7172
 3025SOL     OW20707   4.433   3.218   7.744 -0.2072  0.2963 -0.2754
 3025SOL    HW120708   4.386   3.287   7.791 -1.7536  0.2131 -1.6950
 3025SOL    HW220709   4.448   3.162   7.821  0.7068  0.8533 -0.0621
 3026SOL     OW20710   2.542   3.054   2.669  0.5699  0.1266 -0.1507
 3026SOL    HW120711   2.602   3.054   2.744 -0.6973  1.5409  0.8327
 3026SOL    HW220712   2.518   2.961   2.676  1.9006 -0.1998  0.2198
 3027SOL     OW20713   2.382   1.774   5.716  0.4283 -0.0244  0.0170
 3027SOL    HW120714   2.420   1.773   5.627 -0.0178 -1.2041 -0.1700
 3027SOL    HW220715   2.439   1.841   5.752 -0.8668  0.9842  0.1683
 3028SOL     OW20716   3.839   1.240   1.883 -0.2265  0.1338  0.2463
 3028SOL    HW120717   3.866   1.324   1.920 -0.3847  0.2097  0.1897
 3028SOL    HW220718   3.824   1.255   1.790 -3.0882  1.2464  0.8843
 3029SOL     OW20719   2.202   1.500   7.930  0.2206 -0.1440 -0.1258
 3029SOL    HW120720   2.227   1.410   7.911  0.1122 -0.2669  0.3171
 3029SOL    HW220721   2.197   1.497   8.025 -3.4647  2.0659 -0.2746
 3030SOL     OW20722   2.108   4.335  15.053  1.0913  0.3459 -0.1754
 3030SOL    HW120723   2.172   4.264  15.044 -0.2720 -0.6597 -1.9847
 3030SOL    HW220724   2.043   4.298  14.993  1.0004 -0.1241  0.2224
 3031SOL     OW20725   3.307   4.010   3.455  0.6420 -0.3447  0.1133
 3031SOL    HW120726   3.216   4.039   3.462  0.7214 -0.0044 -0.2653
 3031SOL    HW220727   3.308   3.920   3.423  1.8224  0.5411 -2.3215
 3032SOL     OW20728   0.690   4.099   3.045 -0.2037  0.3460  0.1346
 3032SOL    HW120729   0.643   4.148   2.978  0.5783  0.4122 -0.3745
 3032SOL    HW220730   0.783   4.119   3.030 -0.8042  1.0303 -2.6514
 3033SOL     OW20731   2.965   2.939   8.881  0.0989  0.2036 -0.3308
 3033SOL    HW120732   2.985   2.973   8.794  1.5379 -1.7548 -0.7817
 3033SOL    HW220733   2.964   2.843   8.875  1.3582  0.3177 -2.3364
 3034SOL     OW20734   3.131   0.178   8.415 -0.2114  0.0232  0.3146
 3034SOL    HW120735   3.130   0.172   8.320  1.4796  2.1866  0.1718
 3034SOL    HW220736   3.215   0.223   8.417 -0.1497 -0.0634 -0.2709
 3035SOL     OW20737   3.416   0.196   4.461 -0.0930  0.2502  0.0854
 3035SOL    HW120738   3.351   0.201   4.531  0.3878 -0.9714  0.6392
 3035SOL    HW220739   3.365   0.153   4.393 -2.2122  1.3630  0.9922
 3036SOL     OW20740   2.948   2.074   5.306  0.2314  0.1070 -0.0251
 3036SOL    HW120741   2.862   2.088   5.267 -0.0635  1.3668  1.0643
 3036SOL    HW220742   2.957   2.146   5.368  0.4026 -1.0868  1.3421
 3037SOL     OW20743   2.418   3.789  14.979 -0.2113  0.3435  0.2173
 3037SOL    HW120744   2.361   3.743  15.041 -2.1843  1.3793 -0.8500
 3037SOL    HW220745   2.379   3.769  14.894  0.3759  4.7036 -1.0589
 3038SOL     OW20746   1.960   1.825  15.531  0.1729 -0.8482 -0.2289
 3038SOL    HW120747   1.910   1.795  15.607  0.1449  2.2879  0.9523
 3038SOL    HW220748   1.909   1.904  15.512  1.1092 -0.7431 -2.3200
 3039SOL     OW20749   1.033   4.045   3.807  0.2365  0.2514 -0.2245
 3039SOL    HW120750   1.098   4.112   3.829  0.4687  0.1973 -0.7530
 3039SOL    HW220751   1.035   3.980   3.877 -0.6446  2.3668  1.7897
 3040SOL     OW20752   1.666   3.333   4.348 -0.1442  0.5417  0.6171
 3040SOL    HW120753   1.610   3.401   4.386 -2.7055 -1.2654  0.0572
 3040SOL    HW220754   1.751   3.350   4.388  0.0957  0.4750  0.1392
 3041SOL     OW20755   2.149   3.531  17.139 -0.2119 -0.0812 -0.4157
 3041SOL    HW120756   2.184   3.464  17.080  0.3392  0.2550 -0.4658
 3041SOL    HW220757   2.085   3.482  17.192  0.1797 -0.9884 -0.7841
 3042SOL     OW20758   3.913   3.436   7.046  0.6188 -0.0368  0.2700
 3042SOL    HW120759   3.860   3.511   7.071 -0.5501  0.0733 -2.5615
 3042SOL    HW220760   3.843   3.374   7.067  1.2732 -0.3066  1.6742
 3043SOL     OW20761   2.044   1.614   0.309  0.3414 -0.4848 -0.3996
 3043SOL    HW120762   2.019   1.529   0.273  1.2904 -0.9565  0.0430
 3043SOL    HW220763   1.975   1.622   0.374 -0.4799 -0.1402 -1.3194
 3044SOL     OW20764   1.273   4.639   3.568 -0.9250  0.0352 -0.1463
 3044SOL    HW120765   1.338   4.578   3.603 -0.7253  0.2790 -0.0922
 3044SOL    HW220766   1.299   4.653   3.478 -2.9297 -0.8807 -0.8704
 3045SOL     OW20767   1.056   4.449   8.721 -0.3999 -0.0204  0.2298
 3045SOL    HW120768   1.134   4.451   8.775 -0.6608  0.7956  0.5690
 3045SOL    HW220769   1.061   4.540   8.691  0.4232 -0.1868 -0.1206
 3046SOL     OW20770   0.243   2.750   2.063 -0.1820  0.0272  0.0918
 3046SOL    HW120771   0.300   2.705   2.126  0.1367 -1.4099 -1.2319
 3046SOL    HW220772   0.169   2.690   2.074  1.2593 -1.7215  0.2453
 3047SOL     OW20773   0.698   1.213   2.860  0.2975  0.2772  0.3436
 3047SOL    HW120774   0.748   1.237   2.938 -2.0765 -0.8984  2.2239
 3047SOL    HW220775   0.764   1.158   2.817 -1.0988 -0.8792 -0.3380
 3048SOL     OW20776   2.604   2.232   4.823  0.1556  0.3016 -0.0221
 3048SOL    HW120777   2.640   2.159   4.772 -0.6667  0.0338 -0.2161
 3048SOL    HW220778   2.547   2.276   4.760  1.3386 -1.2614 -2.1867
 3049SOL     OW20779   2.068   3.604   0.284  0.2889  0.3746 -0.2074
 3049SOL    HW120780   2.006   3.675   0.298 -1.1058 -0.8928  0.0788
 3049SOL    HW220781   2.017   3.536   0.328  0.3568 -1.1601 -2.4779
 3050SOL     OW20782   0.207   2.857   4.715 -0.1366 -0.4071  0.2778
 3050SOL    HW120783   0.140   2.815   4.769 -1.9560 -0.1135 -1.7752
 3050SOL    HW220784   0.161   2.879   4.634  0.5707  1.0291  0.2749
 3051SOL     OW20785   0.236   0.111  11.753 -0.7379  0.3565 -0.2328
 3051SOL    HW120786   0.247   0.201  11.786  1.3745 -0.4706  1.2932
 3051SOL    HW220787   0.283   0.064  11.822 -0.0600  1.2328 -0.0935
 3052SOL     OW20788   0.250   4.364   0.960 -0.8715  0.2409 -0.1198
 3052SOL    HW120789   0.319   4.391   1.020 -1.7530  0.2847  0.8739
 3052SOL    HW220790   0.186   4.347   1.029 -1.1597 -0.4561 -0.5516
 3053SOL     OW20791   3.437   2.664   5.345  0.6980  0.0092 -0.1738
 3053SOL    HW120792   3.377   2.720   5.295  0.4510 -0.0908  0.0072
 3053SOL    HW220793   3.449   2.598   5.277 -1.3493 -1.3090  0.7302
 3054SOL     OW20794   1.355   3.924   8.378 -0.1904  0.6967 -0.2677
 3054SOL    HW120795   1.262   3.933   8.360 -0.0032 -0.3577 -1.7780
 3054SOL    HW220796   1.359   3.993   8.444  0.8067  1.7113 -1.3871
 3055SOL     OW20797   2.887   0.258  12.154  0.2738 -0.3560  0.4511
 3055SOL    HW120798   2.818   0.262  12.220  0.8309  0.2793  0.9892
 3055SOL    HW220799   2.959   0.296  12.203 -1.2592  0.1199  2.3400
 3056SOL     OW20800   1.091   4.455   3.732 -0.0273  0.2418  0.0388
 3056SOL    HW120801   1.128   4.497   3.655  0.3861 -1.2137 -0.5653
 3056SOL    HW220802   0.996   4.469   3.725 -0.5399 -2.9670  0.5682
 3057SOL     OW20803   3.492   1.306  12.120 -0.5671  0.0615 -0.2984
 3057SOL    HW120804   3.514   1.320  12.028  1.7874 -0.4450  0.1931
 3057SOL    HW220805   3.581   1.312  12.155 -0.9130 -0.8494  0.7363
 3058SOL     OW20806   2.691   0.766   8.463 -0.6967 -0.0242  0.4154
 3058SOL    HW120807   2.603   0.734   8.482 -0.8437  0.6482  0.8496
 3058SOL    HW220808   2.664   0.810   8.383  2.7244 -0.4998 -1.0116
 3059SOL     OW20809   4.534   3.989   8.103  0.8863 -0.4550  0.2513
 3059SOL    HW120810   4.553   4.069   8.055  0.2633  0.1495  0.9942
 3059SOL    HW220811   4.569   3.923   8.043  0.5172 -0.1997 -0.2411
 3060SOL     OW20812   3.170   2.499   0.015  0.1375  0.4038  0.8146
 3060SOL    HW120813   3.086   2.546   0.012 -0.5624 -0.9169 -0.2769
 3060SOL    HW220814   3.222   2.540  17.700 -0.1299  1.0141  0.9752
 3061SOL     OW20815   4.669   3.677   1.523 -0.5504  0.5290  0.0915
 3061SOL    HW120816   4.668   3.589   1.485 -2.0563  0.8268 -0.5546
 3061SOL    HW220817   4.574   3.689   1.521 -0.5322  0.6520 -0.0158
 3062SOL     OW20818   0.422   0.255   5.363  0.5584 -0.6308 -0.2264
 3062SOL    HW120819   0.515   0.244   5.341  0.2864 -0.7889 -1.2910
 3062SOL    HW220820   0.390   0.263   5.274 -0.8810  0.4284  0.3966
 3063SOL     OW20821   4.312   4.413   4.311 -0.1982 -0.2432 -0.3497
 3063SOL    HW120822   4.385   4.421   4.250 -0.9855 -0.3583 -1.3043
 3063SOL    HW220823   4.335   4.350   4.379 -2.8639 -0.9678 -0.1240
 3064SOL     OW20824   2.341   0.218   6.162 -0.7427 -0.4097  0.1619
 3064SOL    HW120825   2.322   0.310   6.142  0.2409  0.2818  2.3382
 3064SOL    HW220826   2.431   0.219   6.128  0.1188  0.9953  2.4357
 3065SOL     OW20827   0.838   1.011   5.684  0.3761  0.5120  0.2954
 3065SOL    HW120828   0.787   1.019   5.603 -0.3739  0.1143  0.7245
 3065SOL    HW220829   0.903   1.080   5.671  0.1239  0.5434 -0.8235
 3066SOL     OW20830   3.393   0.846   8.234 -0.4445 -0.3645  0.0260
 3066SOL    HW120831   3.376   0.920   8.292 -0.9123 -2.5869  2.7163
 3066SOL    HW220832   3.305   0.821   8.203 -0.4725 -0.4207  0.1478
 3067SOL     OW20833   2.056   3.584   3.743  0.5854  0.0871  1.0361
 3067SOL    HW120834   2.046   3.496   3.708  1.7605  0.2134  0.3881
 3067SOL    HW220835   2.143   3.569   3.782  1.3839  1.3766 -0.2665
 3068SOL     OW20836   0.460   1.750  14.835  0.0155  0.4907  0.5262
 3068SOL    HW120837   0.464   1.762  14.930 -1.8883  1.7340  0.4563
 3068SOL    HW220838   0.382   1.805  14.827 -0.7095 -0.5171  0.6047
 3069SOL     OW20839   4.685   1.812   6.531  0.5800 -0.1207 -0.2115
 3069SOL    HW120840   0.026   1.764   6.553  0.8524  0.9143  1.0474
 3069SOL    HW220841   4.682   1.788   6.438  0.0287  3.4284 -1.1058
 3070SOL     OW20842   3.664   2.330  14.415  0.1666  0.4464  0.0509
 3070SOL    HW120843   3.758   2.340  14.401  0.5705 -0.4940  2.2153
 3070SOL    HW220844   3.657   2.401  14.478 -3.7747  0.6212 -0.6181
 3071SOL     OW20845   2.355   0.968   4.465 -0.3624 -0.2138 -0.0549
 3071SOL    HW120846   2.297   0.893   4.451  1.2478 -0.8368 -3.5972
 3071SOL    HW220847   2.413   0.935   4.533 -0.5569  0.5088  0.4598
 3072SOL     OW20848   0.874   2.524   5.036  0.2679 -1.0346  0.4729
 3072SOL    HW120849   0.910   2.608   5.009 -0.0458 -1.3461 -0.9591
 3072SOL    HW220850   0.809   2.555   5.099  0.5285 -0.2508  0.3560
 3073SOL     OW20851   3.597   3.704  16.378  0.0834  0.0621  0.4198
 3073SOL    HW120852   3.646   3.782  16.405 -1.0164  0.6387  0.7959
 3073SOL    HW220853   3.520   3.731  16.328  0.0105 -0.5454  0.2000
 3074SOL     OW20854   2.811   4.608   7.884 -0.3465 -0.1104 -0.0564
 3074SOL    HW120855   2.816   4.523   7.927 -1.8743  0.0144  0.3719
 3074SOL    HW220856   2.810   4.663   7.962  0.8827 -1.8302  1.1790
 3075SOL     OW20857   2.552   2.083   6.432 -0.0184 -0.0868  0.0352
 3075SOL    HW120858   2.586   2.025   6.500  2.1171 -3.1200 -3.5721
 3075SOL    HW220859   2.583   2.050   6.347  1.5839  0.7382  0.2916
 3076SOL     OW20860   2.911   0.951   8.151  0.0088  0.5584  0.4202
 3076SOL    HW120861   2.933   1.034   8.107  1.6325  0.6824  1.4708
 3076SOL    HW220862   2.829   0.981   8.190  0.4385  0.5711  1.3092
 3077SOL     OW20863   1.463   3.943   7.809  0.1875 -0.3138 -0.3915
 3077SOL    HW120864   1.436   3.875   7.870  0.1385  0.8764  0.9056
 3077SOL    HW220865   1.385   3.964   7.757 -0.4731  2.1296  1.5549
 3078SOL     OW20866   0.046   2.034  10.863 -0.3677  0.2144  0.3284
 3078SOL    HW120867   0.032   1.943  10.889  1.8018  0.1721  1.3598
 3078SOL    HW220868   0.008   2.024  10.775  1.5033 -1.4550 -0.2959
 3079SOL     OW20869   2.678   3.701  15.058  0.4029 -0.1625  0.0595
 3079SOL    HW120870   2.693   3.749  15.139 -1.8977 -1.4239  1.2495
 3079SOL    HW220871   2.594   3.740  15.033  1.2940 -0.9715 -4.2815
 3080SOL     OW20872   4.679   3.830   6.678 -0.7773  0.0175  0.0161
 3080SOL    HW120873   4.681   3.857   6.770  2.0786 -1.1201  0.2792
 3080SOL    HW220874   0.026   3.865   6.652  0.1133 -1.8171  0.5216
 3081SOL     OW20875   3.601   1.749  16.992 -0.2809  0.4617  0.3155
 3081SOL    HW120876   3.530   1.708  16.943 -0.7436  0.7499  0.7509
 3081SOL    HW220877   3.594   1.695  17.071  1.8710 -0.8448 -0.3811
 3082SOL     OW20878   1.826   0.400   3.067  0.3165  0.1687 -0.4039
 3082SOL    HW120879   1.852   0.377   2.978  0.5344 -0.4994 -0.1637
 3082SOL    HW220880   1.900   0.363   3.115 -0.8865  1.0072  2.0845
 3083SOL     OW20881   2.340   1.659   6.784  0.3717 -0.0119 -0.1763
 3083SOL    HW120882   2.280   1.637   6.713 -0.5601  0.0212  0.5936
 3083SOL    HW220883   2.366   1.568   6.797 -0.9675 -0.0450  2.3225
 3084SOL     OW20884   2.790   1.441   1.447 -0.4586 -0.0768  0.0971
 3084SOL    HW120885   2.714   1.385   1.465  0.6732 -0.7234  2.9782
 3084SOL    HW220886   2.803   1.425   1.354 -1.3133 -1.0935  0.1501
 3085SOL     OW20887   4.167   4.438   8.548  0.1765 -0.1552 -0.8179
 3085SOL    HW120888   4.136   4.522   8.583 -3.2585 -1.5280 -0.6036
 3085SOL    HW220889   4.259   4.452   8.525 -0.1686 -0.1108 -2.1564
 3086SOL     OW20890   1.092   3.502   9.351  0.0375 -0.6050 -0.1367
 3086SOL    HW120891   1.182   3.517   9.378 -0.1074 -0.5016  0.2834
 3086SOL    HW220892   1.060   3.417   9.383 -1.1027  0.2505  0.9692
 3087SOL     OW20893   4.079   0.111   8.178 -0.2950 -0.1820  0.5214
 3087SOL    HW120894   4.069   0.180   8.112  0.2676 -2.4469 -1.9427
 3087SOL    HW220895   4.169   0.128   8.207  0.2290 -1.6722 -0.1986
 3088SOL     OW20896   4.396   2.755   9.512  0.1664  0.1122 -0.6484
 3088SOL    HW120897   4.445   2.837   9.515 -2.0412  1.3813  1.4066
 3088SOL    HW220898   4.364   2.759   9.603  0.7846 -0.4700 -0.4069
 3089SOL     OW20899   1.976   3.592  16.696 -0.2691 -0.1046  0.2480
 3089SOL    HW120900   2.004   3.506  16.727  0.8020  1.0972  2.5784
 3089SOL    HW220901   2.057   3.634  16.668 -0.3015  0.1671  0.5688
 3090SOL     OW20902   3.977   3.128   8.564 -0.0190 -0.2941 -0.3334
 3090SOL    HW120903   4.009   3.209   8.524  0.8625  0.4640  1.8912
 3090SOL    HW220904   3.903   3.112   8.505 -0.2150  0.7015 -0.3620
 3091SOL     OW20905   0.184   1.108  14.263  0.8555  0.1483  0.0100
 3091SOL    HW120906   0.213   1.094  14.173  1.2031 -1.2912  0.3390
 3091SOL    HW220907   0.112   1.048  14.284 -0.6223  2.0736  0.4595
 3092SOL     OW20908   3.225   4.015   5.406  0.2652 -0.1223  0.2605
 3092SOL    HW120909   3.163   4.035   5.336  0.7531 -1.8598 -0.6529
 3092SOL    HW220910   3.304   3.987   5.359  0.2281  0.6489 -0.2607
 3093SOL     OW20911   1.060   0.548   8.288 -0.1855 -0.3577  0.7235
 3093SOL    HW120912   1.101   0.623   8.247  2.1886 -2.4003 -0.6396
 3093SOL    HW220913   1.128   0.505   8.340 -0.3783 -2.4941 -0.7618
 3094SOL     OW20914   0.140   1.304   9.288  0.1890 -0.2798 -0.1008
 3094SOL    HW120915   0.123   1.211   9.295 -1.1645 -0.0204 -0.0211
 3094SOL    HW220916   0.143   1.326   9.381 -0.4536  0.1778 -0.1908
 3095SOL     OW20917   0.510   0.507   2.830  0.0900  0.0782 -0.2565
 3095SOL    HW120918   0.454   0.571   2.788  1.1633  0.7701 -0.6281
 3095SOL    HW220919   0.457   0.429   2.849 -0.3101  0.6516  0.9864
 3096SOL     OW20920   1.510   3.908   3.216 -0.5112  0.2690 -0.2823
 3096SOL    HW120921   1.428   3.956   3.217 -0.6970 -0.0659  0.8816
 3096SOL    HW220922   1.570   3.960   3.162 -0.2463  0.1622 -0.0902
 3097SOL     OW20923   0.437   2.800   3.265  0.9256  0.2360  0.6660
 3097SOL    HW120924   0.522   2.837   3.286  1.6253 -0.5814 -0.7493
 3097SOL    HW220925   0.368   2.862   3.287  0.9335  0.4042  0.2276
 3098SOL     OW20926   4.430   1.547   7.805 -0.3313 -0.1241 -0.2278
 3098SOL    HW120927   4.408   1.618   7.866 -1.5930 -0.6833 -0.0222
 3098SOL    HW220928   4.480   1.492   7.866 -3.7494 -1.2512  1.5803
 3099SOL     OW20929   3.881   2.423   6.775 -0.6221 -0.2429 -0.3323
 3099SOL    HW120930   3.812   2.399   6.712  0.2677 -0.6746 -1.1346
 3099SOL    HW220931   3.832   2.450   6.853  0.5209 -1.1553  0.6987
 3100SOL     OW20932   0.791   4.566  17.586 -0.3889 -0.0499  0.2871
 3100SOL    HW120933   0.788   4.491  17.527 -1.4262 -0.5766  1.0072
 3100SOL    HW220934   0.697   4.573  17.600 -0.2291  1.7658  0.4655
 3101SOL     OW20935   1.474   2.761  11.650 -0.2219 -0.0176  0.0250
 3101SOL    HW120936   1.500   2.770  11.559  0.7053  1.8839  0.4837
 3101SOL    HW220937   1.471   2.666  11.664  1.1903 -0.2158 -1.0514
 3102SOL     OW20938   1.463   0.940   9.583  0.3053  0.0720  0.3130
 3102SOL    HW120939   1.413   1.001   9.528 -1.7361 -1.6078  0.2811
 3102SOL    HW220940   1.418   0.950   9.667  2.4503 -2.5826  1.7630
 3103SOL     OW20941   3.259   2.350   1.076 -0.3638  0.1114  0.4497
 3103SOL    HW120942   3.219   2.311   1.154  3.4425 -4.1013  0.2797
 3103SOL    HW220943   3.328   2.285   1.062  0.9516  1.6103  0.0118
 3104SOL     OW20944   1.021   4.620   8.415  0.5339  0.3206  0.8950
 3104SOL    HW120945   0.963   4.544   8.419  1.7065 -0.4753  2.6715
 3104SOL    HW220946   1.107   4.582   8.428  1.0686  1.3465  0.3508
 3105SOL     OW20947   4.689   1.101   4.891 -0.4265 -0.5501  0.9575
 3105SOL    HW120948   4.621   1.168   4.882 -0.0006 -0.2876 -0.1927
 3105SOL    HW220949   0.031   1.147   4.869  0.3098 -3.1017 -1.5765
 3106SOL     OW20950   1.746   3.905   6.080 -0.1573 -0.3251 -0.0908
 3106SOL    HW120951   1.654   3.926   6.070 -0.3332 -1.2964 -0.4819
 3106SOL    HW220952   1.741   3.876   6.171  0.9380 -0.3324 -0.0248
 3107SOL     OW20953   1.054   3.259   8.419 -0.2976 -0.2591 -1.0371
 3107SOL    HW120954   0.966   3.294   8.431 -0.5986 -0.6379 -2.1366
 3107SOL    HW220955   1.086   3.334   8.369 -1.0886 -0.2124 -1.4719
 3108SOL     OW20956   0.674   2.323   9.746  0.1196 -0.6035 -0.0381
 3108SOL    HW120957   0.660   2.255   9.681  0.3296 -0.5957 -0.0894
 3108SOL    HW220958   0.592   2.374   9.748 -0.1301 -0.9446 -1.5947
 3109SOL     OW20959   1.731   0.710   1.923  0.6733 -0.2487  0.0757
 3109SOL    HW120960   1.776   0.714   2.007 -0.5917 -1.8894  0.8470
 3109SOL    HW220961   1.710   0.801   1.904  0.2642 -0.3662 -0.0459
 3110SOL     OW20962   4.718   0.100   9.540  0.2754  0.1543  0.2305
 3110SOL    HW120963   4.683   0.183   9.571  1.0388  0.3343  0.6240
 3110SOL    HW220964   0.014   0.138   9.459 -1.8659  1.0054 -0.2818
 3111SOL     OW20965   2.436   4.578   9.914 -0.0445 -0.6373 -0.0326
 3111SOL    HW120966   2.505   4.533   9.865  2.4483  1.1126  1.8323
 3111SOL    HW220967   2.407   4.502   9.965 -0.1175  0.4161  1.5189
 3112SOL     OW20968   2.110   2.782  13.240  0.6383  0.7272  0.8536
 3112SOL    HW120969   2.017   2.776  13.261  0.8844  1.5820  2.2360
 3112SOL    HW220970   2.127   2.690  13.221 -0.3051  1.0325 -1.4737
 3113SOL     OW20971   4.408   0.525   3.130 -0.2149  0.3625  0.0963
 3113SOL    HW120972   4.467   0.574   3.073 -1.2688 -0.8165 -2.0265
 3113SOL    HW220973   4.455   0.536   3.213  1.1758  0.9755 -0.7716
 3114SOL     OW20974   2.769   1.740   8.262 -0.1084 -0.1023  0.3657
 3114SOL    HW120975   2.733   1.654   8.242 -1.1074  0.0678  1.4387
 3114SOL    HW220976   2.860   1.720   8.284  0.2355  0.2953 -0.7016
 3115SOL     OW20977   1.414   0.788   4.162 -0.1978  0.2386 -0.1773
 3115SOL    HW120978   1.400   0.694   4.147  1.7061 -0.0284 -0.2316
 3115SOL    HW220979   1.394   0.807   4.070  1.1211 -2.0108 -0.9427
 3116SOL     OW20980   2.770   0.899   6.367  0.3852  0.3591  0.3660
 3116SOL    HW120981   2.696   0.936   6.318  0.9839 -1.0468 -1.6026
 3116SOL    HW220982   2.834   0.971   6.368  0.7684  0.0320 -0.2254
 3117SOL     OW20983   3.058   0.453   8.098  0.4317  0.9108  0.2892
 3117SOL    HW120984   3.001   0.456   8.174 -1.1458 -1.2790 -0.8233
 3117SOL    HW220985   3.023   0.533   8.058  0.2669  1.9444  2.4623
 3118SOL     OW20986   2.899   1.459   7.713  0.1596  0.7241 -0.1039
 3118SOL    HW120987   2.965   1.422   7.655 -0.5572  0.6665 -0.8886
 3118SOL    HW220988   2.871   1.379   7.758  0.1973  1.1657  0.6975
 3119SOL     OW20989   1.449   1.306   5.350 -0.2547  0.1340 -0.4683
 3119SOL    HW120990   1.520   1.370   5.347 -1.0769  1.1770  2.5868
 3119SOL    HW220991   1.496   1.233   5.309  1.2003 -0.1468  1.6671
 3120SOL     OW20992   2.442   2.264   4.196 -0.5378  0.3345  0.3371
 3120SOL    HW120993   2.525   2.306   4.218 -0.6392  0.1142  1.1448
 3120SOL    HW220994   2.382   2.333   4.224 -3.3379 -2.3746  1.0632
 3121SOL     OW20995   1.863   3.887   7.814 -0.2412  0.1629  0.6228
 3121SOL    HW120996   1.939   3.838   7.783 -1.2443 -1.3509  0.5480
 3121SOL    HW220997   1.805   3.810   7.806  0.8965 -0.1958 -3.9096
 3122SOL     OW20998   0.875   3.781   5.215 -0.7508 -0.3744 -0.3413
 3122SOL    HW120999   0.869   3.686   5.208 -0.6586 -0.5959  2.4328
 3122SOL    HW221000   0.786   3.809   5.237  0.3633  2.1656  0.8958
 3123SOL     OW21001   2.773   0.715   3.361 -0.4930 -0.0487 -0.6267
 3123SOL    HW121002   2.723   0.728   3.281  0.6663 -1.3957 -1.5809
 3123SOL    HW221003   2.848   0.772   3.343  1.9045 -2.9815 -0.0084
 3124SOL     OW21004   2.035   1.492   5.256 -0.8333 -0.1546  0.2223
 3124SOL    HW121005   2.096   1.444   5.200  0.7482 -1.1403  2.8090
 3124SOL    HW221006   2.054   1.465   5.345 -0.7198  1.2930  0.6367
 3125SOL     OW21007   0.297   0.960   5.425 -0.2768 -0.1991  0.1450
 3125SOL    HW121008   0.318   0.867   5.433  0.0901 -0.2925 -2.0790
 3125SOL    HW221009   0.384   1.000   5.431 -1.2295  1.9437 -0.1261
 3126SOL     OW21010   0.034   4.216   5.616 -0.0909  0.2215 -0.6738
 3126SOL    HW121011   4.726   4.299   5.625 -3.9021 -2.1481  1.4055
 3126SOL    HW221012   0.069   4.210   5.705 -0.9009  0.7851 -0.3157
 3127SOL     OW21013   0.277   4.282   5.216  0.1964 -0.1051 -0.6780
 3127SOL    HW121014   0.314   4.286   5.304 -1.8587 -0.7606  0.2184
 3127SOL    HW221015   0.183   4.295   5.230  0.9133  0.8305  3.0592
 3128SOL     OW21016   2.831   1.589   3.682 -0.1297 -0.3583  0.0964
 3128SOL    HW121017   2.827   1.550   3.595  0.5244 -0.6696  0.2024
 3128SOL    HW221018   2.817   1.509   3.733 -1.0362 -0.1652  0.1489
 3129SOL     OW21019   3.808   0.768  16.773 -0.3226 -0.1336 -0.1265
 3129SOL    HW121020   3.792   0.819  16.694 -0.5848  2.1124  1.3840
 3129SOL    HW221021   3.886   0.810  16.809 -1.2988  1.2594  0.3703
 3130SOL     OW21022   1.499   2.440   9.712 -0.1783  0.2011  0.2428
 3130SOL    HW121023   1.478   2.438   9.806 -0.5124 -2.0710  0.1224
 3130SOL    HW221024   1.573   2.380   9.717 -1.9944 -2.0757 -0.2200
 3131SOL     OW21025   0.272   2.234   5.274  0.2132 -0.3805  0.0820
 3131SOL    HW121026   0.189   2.186   5.280  0.6244 -1.1557 -0.4224
 3131SOL    HW221027   0.297   2.207   5.186 -0.5410 -0.2978 -0.1607
 3132SOL     OW21028   2.360   3.590  10.506 -0.2068 -0.0219 -0.0782
 3132SOL    HW121029   2.352   3.677  10.544  0.7900  0.8614 -1.8854
 3132SOL    HW221030   2.430   3.544  10.553  0.8191  0.4195 -1.1761
 3133SOL     OW21031   2.885   0.042   8.398  0.2327 -0.8039 -0.0042
 3133SOL    HW121032   2.826   0.095   8.452 -0.6437 -1.2229 -0.5581
 3133SOL    HW221033   2.967   0.063   8.443 -0.8638 -0.2610  1.7361
 3134SOL     OW21034   1.677   3.153   2.945 -0.0125  0.2429  0.1710
 3134SOL    HW121035   1.743   3.164   2.877  0.7423 -0.5420  0.7788
 3134SOL    HW221036   1.662   3.246   2.962  2.4577  0.9623 -1.6818
 3135SOL     OW21037   2.981   3.681   5.337 -0.4923 -0.2128  0.4009
 3135SOL    HW121038   3.067   3.644   5.322  1.1094  3.1292  1.3013
 3135SOL    HW221039   2.927   3.605   5.359  0.0245 -1.0852 -1.3487
 3136SOL     OW21040   1.389   2.539  13.246 -0.2708  0.6754  0.3979
 3136SOL    HW121041   1.369   2.455  13.204  4.1296  0.1117 -0.5920
 3136SOL    HW221042   1.380   2.596  13.170 -1.6890 -0.8813 -0.5837
 3137SOL     OW21043   1.257   4.297   3.398  0.1631 -0.3001 -0.3911
 3137SOL    HW121044   1.303   4.380   3.381  1.8969 -0.8294  1.7389
 3137SOL    HW221045   1.202   4.327   3.470  1.9083  2.9426 -0.4011
 3138SOL     OW21046   0.192   1.819   2.725 -0.3815 -0.3072 -0.2144
 3138SOL    HW121047   0.185   1.767   2.805 -2.4892  2.7057  1.5699
 3138SOL    HW221048   0.213   1.902   2.768 -0.5065  0.1212 -0.9753
 3139SOL     OW21049   2.526   1.439   3.651  0.1043 -0.1370  0.3293
 3139SOL    HW121050   2.577   1.471   3.577  0.7650 -1.7844  0.0928
 3139SOL    HW221051   2.443   1.483   3.631 -0.2775 -1.3485 -0.7589
 3140SOL     OW21052   4.071   0.973   8.443 -0.6333  0.2105 -0.5687
 3140SOL    HW121053   4.021   0.892   8.452  0.7879 -0.5188  0.7562
 3140SOL    HW221054   4.158   0.941   8.419  0.8428  1.6916  2.7980
 3141SOL     OW21055   4.455   3.327   1.721  0.1352 -0.0760  0.3399
 3141SOL    HW121056   4.402   3.257   1.683 -0.8567  0.9976 -0.2401
 3141SOL    HW221057   4.493   3.290   1.801 -0.1964  0.9283  0.9664
 3142SOL     OW21058   2.205   4.731   1.864 -0.0101  0.3772  0.3234
 3142SOL    HW121059   2.189   4.737   1.769 -0.7255  0.9955  0.4830
 3142SOL    HW221060   2.261   4.655   1.875  0.6019  0.9113  0.8633
 3143SOL     OW21061   0.950   3.870  12.906  0.1208  0.0467  0.2707
 3143SOL    HW121062   0.968   3.779  12.930  1.1998 -0.0300 -0.8342
 3143SOL    HW221063   0.991   3.912  12.982  2.2544 -0.5889 -0.5421
 3144SOL     OW21064   1.375   3.844   5.041  0.1313 -0.4457 -0.2945
 3144SOL    HW121065   1.297   3.859   5.094  1.1816  1.4682  0.7249
 3144SOL    HW221066   1.403   3.759   5.074  0.4707 -0.2390 -0.0482
 3145SOL     OW21067   2.773   3.515   4.138  0.2939 -0.2309 -0.1664
 3145SOL    HW121068   2.845   3.494   4.078  0.3113 -0.6537 -0.0028
 3145SOL    HW221069   2.787   3.609   4.146  1.5434 -0.4039 -0.2421
 3146SOL     OW21070   2.754   0.845   3.095 -0.0063  0.1037 -0.3872
 3146SOL    HW121071   2.692   0.917   3.084 -3.0460 -2.2515  1.6748
 3146SOL    HW221072   2.817   0.876   3.160  2.1107 -1.0563 -1.8968
 3147SOL     OW21073   4.732   3.683  14.151 -0.1749 -0.4828  0.0007
 3147SOL    HW121074   4.708   3.637  14.231 -1.7163  1.1826  0.4838
 3147SOL    HW221075   0.063   3.637  14.104  1.4558 -0.5417  2.4713
 3148SOL     OW21076   3.469   4.099   6.813 -0.7205 -0.2800  0.0461
 3148SOL    HW121077   3.561   4.082   6.791 -1.0672  0.9207 -2.3046
 3148SOL    HW221078   3.447   4.008   6.830  0.7821 -0.6444  0.0972
 3149SOL     OW21079   0.870   1.355   4.326  0.1417  0.1754 -1.0199
 3149SOL    HW121080   0.921   1.280   4.356  0.8659  0.3015 -1.9529
 3149SOL    HW221081   0.819   1.378   4.403  1.4576 -1.9251  0.5027
 3150SOL     OW21082   0.941   1.862   8.044  0.6594  0.1634 -0.1312
 3150SOL    HW121083   0.956   1.957   8.048 -0.5996  0.2886  1.7551
 3150SOL    HW221084   0.950   1.841   8.137 -0.5044  0.0862 -0.0365
 3151SOL     OW21085   4.381   4.355  16.329  0.2903  0.1024  0.0619
 3151SOL    HW121086   4.376   4.409  16.408  1.3416  2.1387 -1.2884
 3151SOL    HW221087   4.316   4.294  16.365 -0.8029  1.6780  0.7391
 3152SOL     OW21088   2.627   0.084   4.625 -0.0373  0.6348  0.0566
 3152SOL    HW121089   2.590   0.172   4.617 -0.4477  0.6976  2.4758
 3152SOL    HW221090   2.582   0.046   4.550 -0.4179 -0.4785  0.8458
 3153SOL     OW21091   3.950   0.636  15.739 -0.0662 -0.3027 -0.6084
 3153SOL    HW121092   3.916   0.620  15.827 -3.0547 -1.7512 -2.0193
 3153SOL    HW221093   4.036   0.661  15.771 -0.4543 -1.7507  1.5444
 3154SOL     OW21094   2.010   4.616   2.053 -0.4967  0.2877 -0.3686
 3154SOL    HW121095   2.065   4.648   2.124 -0.7085  0.0936 -0.1133
 3154SOL    HW221096   2.061   4.642   1.977  3.2743  0.4952  2.2074
 3155SOL     OW21097   3.639   4.510   2.652 -0.2336  0.1020  0.1875
 3155SOL    HW121098   3.650   4.422   2.690 -0.7016  0.3579  0.9142
 3155SOL    HW221099   3.711   4.525   2.591 -0.2407 -0.6103 -0.0006
 3156SOL     OW21100   0.077   2.733   0.956  0.6834  0.2179  0.0450
 3156SOL    HW121101   0.072   2.745   0.861 -2.8236 -1.4834  0.0064
 3156SOL    HW221102   0.128   2.808   0.986  3.4229 -1.4306 -0.4966
 3157SOL     OW21103   3.846   4.216   3.542  0.6233 -0.1245 -0.0173
 3157SOL    HW121104   3.888   4.197   3.626  1.3105 -0.4938 -0.4382
 3157SOL    HW221105   3.754   4.195   3.558  0.0267  2.3009 -0.3625
 3158SOL     OW21106   2.955   3.303   2.328  0.7849  0.3614 -0.3596
 3158SOL    HW121107   3.015   3.356   2.379  1.4824  0.2662 -1.0859
 3158SOL    HW221108   3.010   3.284   2.252 -0.5656  0.0348 -1.2439
 3159SOL     OW21109   3.208   1.079   3.570  0.4841  0.3085  0.2335
 3159SOL    HW121110   3.272   1.024   3.615 -0.2772 -0.5597  0.2499
 3159SOL    HW221111   3.249   1.166   3.577  0.6642  0.3849 -1.7910
 3160SOL     OW21112   2.709   1.839   3.768  0.2167 -0.7164  0.0358
 3160SOL    HW121113   2.790   1.888   3.754 -0.9727  1.2596  0.1727
 3160SOL    HW221114   2.732   1.753   3.733 -0.2168 -1.3712  1.3817
 3161SOL     OW21115   0.791   0.038   5.687  0.3612  0.0227  0.0175
 3161SOL    HW121116   0.878   0.005   5.708 -0.3321 -1.7160  0.1850
 3161SOL    HW221117   0.811   0.123   5.647  1.0788  0.8405  2.0832
 3162SOL     OW21118   1.799   1.769   3.249 -0.4601 -0.6689 -0.5571
 3162SOL    HW121119   1.770   1.850   3.292  0.5732 -0.4895 -0.2221
 3162SOL    HW221120   1.861   1.806   3.186 -1.1762 -1.0874 -1.5222
 3163SOL     OW21121   0.674   3.701  12.333 -0.2443 -0.0171  1.1191
 3163SOL    HW121122   0.642   3.791  12.328 -1.0983 -0.6019 -3.6383
 3163SOL    HW221123   0.611   3.642  12.374 -1.7786  0.2598 -0.8743
 3164SOL     OW21124   4.691   2.068  10.621  0.2821  0.2003 -0.3630
 3164SOL    HW121125   0.045   2.078  10.596  0.2965  0.3608 -0.2451
 3164SOL    HW221126   4.654   2.155  10.610  0.1726  0.3426  1.1149
 3165SOL     OW21127   0.035   3.954   5.000 -0.1421  0.2245 -0.8484
 3165SOL    HW121128   0.099   4.014   4.960  2.0818  0.9550  3.7108
 3165SOL    HW221129   0.105   3.901   5.038  2.1736  3.4710 -0.5211
 3166SOL     OW21130   0.611   1.525   8.670  0.2339 -0.0825 -0.2694
 3166SOL    HW121131   0.550   1.554   8.602  2.3893  0.8804 -1.7958
 3166SOL    HW221132   0.569   1.452   8.715 -2.5297  2.2359  0.9162
 3167SOL     OW21133   2.279   0.597   2.466  0.0467 -0.3155 -0.2766
 3167SOL    HW121134   2.242   0.581   2.553  1.4718  5.4978  1.4275
 3167SOL    HW221135   2.263   0.691   2.469  0.7203 -0.1523 -1.8532
 3168SOL     OW21136   1.106   1.807  12.663  0.2368 -0.2078 -0.4901
 3168SOL    HW121137   1.136   1.724  12.698  1.6663  0.3197 -0.4591
 3168SOL    HW221138   1.180   1.821  12.604  0.2328  0.9043 -0.2340
 3169SOL     OW21139   2.224   2.039   8.685 -0.3574 -0.7377 -0.2689
 3169SOL    HW121140   2.130   2.046   8.664 -0.7124  0.3042  1.6830
 3169SOL    HW221141   2.241   1.985   8.762  0.4130 -0.5284 -0.2936
 3170SOL     OW21142   3.784   2.832  11.918  0.6721  0.2162 -0.4647
 3170SOL    HW121143   3.769   2.748  11.961  0.7327  0.5842  0.2701
 3170SOL    HW221144   3.818   2.803  11.833  0.0011  2.0715 -1.3516
 3171SOL     OW21145   3.114   3.007  15.628  0.3299 -0.4342  0.3088
 3171SOL    HW121146   3.087   3.094  15.599  2.8103  0.7295  1.5240
 3171SOL    HW221147   3.193   3.033  15.675  0.0570  0.5244  0.2409
 3172SOL     OW21148   4.103   2.882   8.945  0.2143 -0.3646 -0.2995
 3172SOL    HW121149   4.017   2.879   8.988 -0.2447 -1.1629 -1.2725
 3172SOL    HW221150   4.096   2.797   8.902 -1.2758  0.7515 -2.2698
 3173SOL     OW21151   3.259   0.924   4.964 -0.2680 -0.0781 -0.5265
 3173SOL    HW121152   3.255   1.009   4.921  1.9360 -0.3866 -1.3666
 3173SOL    HW221153   3.327   0.881   4.911  1.3736  1.4069  0.3596
 3174SOL     OW21154   3.441   0.518   2.525 -0.0381 -0.4324 -0.3111
 3174SOL    HW121155   3.418   0.503   2.617 -2.1981  4.4502 -0.0846
 3174SOL    HW221156   3.511   0.452   2.523  0.0217 -0.4102  0.8662
 3175SOL     OW21157   0.389   4.471   0.770  0.2093 -0.2721  0.4927
 3175SOL    HW121158   0.320   4.511   0.718 -0.2196 -1.6547  0.0038
 3175SOL    HW221159   0.353   4.417   0.840 -0.6339 -0.8282 -0.3807
 3176SOL     OW21160   1.173   2.340   3.546 -0.5267  0.1508 -0.7916
 3176SOL    HW121161   1.199   2.428   3.517  0.5362 -0.5221 -1.8655
 3176SOL    HW221162   1.104   2.350   3.610 -2.0246  0.4548 -2.4566
 3177SOL     OW21163   0.907   3.474   8.136  0.1983 -0.1588  0.6194
 3177SOL    HW121164   0.878   3.434   8.217  0.5373  0.9970  1.3105
 3177SOL    HW221165   0.997   3.491   8.161  0.8541 -1.0191 -1.1427
 3178SOL     OW21166   2.830   3.887   3.083 -0.3411 -0.0911  0.3734
 3178SOL    HW121167   2.842   3.952   3.152 -1.4220 -0.1638  0.6138
 3178SOL    HW221168   2.751   3.915   3.036 -1.5307 -2.2929  1.0928
 3179SOL     OW21169   3.385   1.465  15.035  0.9334  1.0687  0.1089
 3179SOL    HW121170   3.419   1.456  15.124  2.7616  2.2473 -0.4538
 3179SOL    HW221171   3.460   1.480  14.977 -0.1014  0.9305 -1.2614
 3180SOL     OW21172   1.861   3.085   2.287  0.1210  0.3042  0.3792
 3180SOL    HW121173   1.915   3.008   2.273 -1.6089 -0.3873 -2.4819
 3180SOL    HW221174   1.927   3.151   2.307 -0.2685  0.7201  0.2811
 3181SOL     OW21175   1.845   4.217   7.135 -0.1271  0.6050 -0.0181
 3181SOL    HW121176   1.757   4.182   7.141  0.2589 -0.9131 -3.2162
 3181SOL    HW221177   1.894   4.136   7.150  2.9896  2.0311 -2.4457
 3182SOL     OW21178   3.017   2.399  10.563 -0.4506  0.3325  0.0205
 3182SOL    HW121179   3.098   2.358  10.595  0.3120  1.0914 -0.9321
 3182SOL    HW221180   2.955   2.370  10.630  1.4918  0.9934  2.0824
 3183SOL     OW21181   0.309   2.407  16.064  0.2345  0.0144 -0.1076
 3183SOL    HW121182   0.239   2.468  16.087 -0.9869 -1.2481 -0.4785
 3183SOL    HW221183   0.261   2.326  16.079 -0.2278  0.2446 -0.3690
 3184SOL     OW21184   2.485   3.990   3.556 -0.7997  0.2463 -0.0649
 3184SOL    HW121185   2.400   3.949   3.540  0.3529 -0.9767 -3.0716
 3184SOL    HW221186   2.512   4.013   3.467  0.7684 -1.6676 -0.0718
 3185SOL     OW21187   0.378   1.387   0.165  0.1100  0.0224 -0.5842
 3185SOL    HW121188   0.454   1.394   0.223  0.4113  0.3111 -1.0149
 3185SOL    HW221189   0.419   1.419   0.084  0.8790 -0.4817 -0.3988
 3186SOL     OW21190   1.553   1.402   1.574  0.8430  1.2156 -0.0696
 3186SOL    HW121191   1.570   1.495   1.584  0.0068  1.3754 -0.1279
 3186SOL    HW221192   1.573   1.367   1.661 -1.2250 -0.5915 -0.3051
 3187SOL     OW21193   2.676   1.467   3.167  0.1676 -0.5035 -0.2779
 3187SOL    HW121194   2.600   1.506   3.123  0.6357  0.0360 -0.6115
 3187SOL    HW221195   2.698   1.411   3.092 -0.4328  0.0034 -0.8266
 3188SOL     OW21196   4.570   1.454   8.267 -0.3307 -0.2799 -0.4019
 3188SOL    HW121197   4.476   1.432   8.266 -0.6483  1.0671 -1.5233
 3188SOL    HW221198   4.594   1.404   8.345  0.4504 -0.5709 -0.8332
 3189SOL     OW21199   4.092   2.683   6.747  0.0570 -0.0625  0.0257
 3189SOL    HW121200   4.055   2.766   6.717  0.4990  0.3295  0.5412
 3189SOL    HW221201   4.088   2.699   6.841 -0.5292  1.6327 -0.2969
 3190SOL     OW21202   1.287   3.960   6.827 -0.1831 -0.3169  0.3447
 3190SOL    HW121203   1.264   3.985   6.738  3.7930  2.5675  0.1297
 3190SOL    HW221204   1.345   3.885   6.816  0.6689  0.4941 -0.5938
 3191SOL     OW21205   4.223   2.377   7.448 -0.4662 -0.1227  0.4609
 3191SOL    HW121206   4.258   2.460   7.480  1.8115 -0.6949 -0.5294
 3191SOL    HW221207   4.129   2.390   7.462 -0.8203 -1.3175 -0.8001
 3192SOL     OW21208   3.604   4.006  13.099  0.1471 -0.0451 -0.1383
 3192SOL    HW121209   3.570   3.976  13.182 -1.4905  0.3080 -0.6872
 3192SOL    HW221210   3.673   3.940  13.089 -0.2500 -0.7443  1.8558
 3193SOL     OW21211   0.332   3.648  17.353 -0.0340  0.0563 -0.1965
 3193SOL    HW121212   0.380   3.574  17.317  0.2170  0.2205 -0.1988
 3193SOL    HW221213   0.401   3.680  17.412  1.3469 -1.1324 -1.1680
 3194SOL     OW21214   1.797   2.756   0.750 -0.1725 -0.1934 -0.2282
 3194SOL    HW121215   1.718   2.766   0.696  0.9940  0.4061 -1.8432
 3194SOL    HW221216   1.857   2.743   0.676  0.8348  2.9439  0.0263
 3195SOL     OW21217   4.229   1.079   6.681  0.2931  0.4471  0.0242
 3195SOL    HW121218   4.232   1.167   6.718 -0.7610  0.4623  0.0666
 3195SOL    HW221219   4.228   1.105   6.589 -0.6072 -0.1816 -0.1423
 3196SOL     OW21220   3.838   2.745   3.653 -0.0761  0.9104  0.2359
 3196SOL    HW121221   3.835   2.653   3.624 -1.6200  0.8344  0.6648
 3196SOL    HW221222   3.745   2.767   3.660 -0.3735 -0.9547  2.2125
 3197SOL     OW21223   2.017   4.662   5.553  0.4157 -0.0700  0.2581
 3197SOL    HW121224   1.997   0.003   5.504  2.6734  1.3324  1.6289
 3197SOL    HW221225   1.999   4.680   5.645 -0.1553 -1.8649  0.4961
 3198SOL     OW21226   4.137   3.735   4.440 -0.4647  0.0029  0.2077
 3198SOL    HW121227   4.216   3.737   4.386 -2.7108 -0.9600 -3.1105
 3198SOL    HW221228   4.165   3.676   4.510 -2.4090 -0.7413  0.3687
 3199SOL     OW21229   3.642   3.340   9.829 -0.0339  0.6331 -0.0217
 3199SOL    HW121230   3.602   3.306   9.909  1.1476  0.4516  0.4946
 3199SOL    HW221231   3.582   3.412   9.809 -3.0344 -1.5705  1.0863
 3200SOL     OW21232   4.582   3.726  10.453  0.1066  0.2395  0.6653
 3200SOL    HW121233   4.586   3.631  10.449 -1.9837  0.1561  0.2019
 3200SOL    HW221234   4.491   3.724  10.422 -0.3211 -0.7751  1.9869
 3201SOL     OW21235   1.649   2.164   7.062 -1.0698 -0.5731  0.0151
 3201SOL    HW121236   1.620   2.093   7.120  0.6395  0.9696  2.7815
 3201SOL    HW221237   1.625   2.224   7.132  2.1383 -1.1410  1.6519
 3202SOL     OW21238   0.895   3.074   0.286 -0.4807  0.4732 -0.3223
 3202SOL    HW121239   0.898   3.137   0.359 -1.1383 -0.4046  0.4565
 3202SOL    HW221240   0.843   3.119   0.219 -1.2936 -0.5667 -0.3713
 3203SOL     OW21241   4.165   4.106   5.081  0.1851 -0.1795 -0.0222
 3203SOL    HW121242   4.078   4.117   5.120 -0.0376 -2.1870  0.0819
 3203SOL    HW221243   4.145   4.056   5.002  3.0036  0.0028 -0.8503
 3204SOL     OW21244   4.041   2.986   6.397 -0.1666 -0.2596  0.0924
 3204SOL    HW121245   4.029   2.900   6.357  1.7633 -0.4081 -0.1989
 3204SOL    HW221246   3.991   3.049   6.346 -2.8412 -0.5544  2.3372
 3205SOL     OW21247   2.911   4.547   3.320 -0.1546 -0.5940  0.5247
 3205SOL    HW121248   3.002   4.519   3.331  0.9083  2.4704 -0.5181
 3205SOL    HW221249   2.899   4.527   3.227  1.6371 -0.7083  0.3277
 3206SOL     OW21250   4.151   1.955   8.149  0.2055  0.2074  0.2510
 3206SOL    HW121251   4.115   2.044   8.155 -0.4195 -0.0961  1.1033
 3206SOL    HW221252   4.208   1.948   8.226 -0.6658 -0.6369  0.8188
 3207SOL     OW21253   1.613   1.226   6.339 -0.2435 -0.3063 -0.0216
 3207SOL    HW121254   1.634   1.315   6.310 -0.4626 -0.8119 -1.7823
 3207SOL    HW221255   1.547   1.204   6.273 -1.8152  1.5825  0.9098
 3208SOL     OW21256   0.215   3.733   3.586 -0.0097  0.1787  0.0492
 3208SOL    HW121257   0.268   3.767   3.658 -0.2255  0.4434  0.0849
 3208SOL    HW221258   0.150   3.683   3.635 -1.0841 -0.5635 -2.1155
 3209SOL     OW21259   3.197   1.204   7.006  0.0597  0.3438 -0.2687
 3209SOL    HW121260   3.160   1.276   7.058  1.8013  0.2671  1.0756
 3209SOL    HW221261   3.254   1.161   7.070  0.1244 -0.9967 -1.2345
 3210SOL     OW21262   1.094   2.800   6.702  0.5234  0.2182 -0.1927
 3210SOL    HW121263   1.128   2.789   6.791 -0.9827  1.3070  0.5124
 3210SOL    HW221264   1.041   2.720   6.701  0.2595  0.4186 -1.3282
 3211SOL     OW21265   2.452   0.066   5.752 -0.4541  0.4168  0.6605
 3211SOL    HW121266   2.371   0.073   5.803 -0.0421 -3.7979  1.9435
 3211SOL    HW221267   2.407   0.038   5.672 -0.4346 -0.4369  0.9491
 3212SOL     OW21268   0.290   0.270   9.982 -0.6394  0.9412 -0.2081
 3212SOL    HW121269   0.277   0.240  10.072 -1.7419  2.0351  0.0052
 3212SOL    HW221270   0.297   0.188   9.934 -0.0127  2.6406 -3.0156
 3213SOL     OW21271   2.424   4.148   4.492 -0.0530  0.3768  0.3480
 3213SOL    HW121272   2.393   4.063   4.461  2.2025 -0.1989 -0.3038
 3213SOL    HW221273   2.466   4.113   4.570  0.7835  1.1462  0.2412
 3214SOL     OW21274   3.909   1.497   1.923 -0.0350  0.1356  0.2869
 3214SOL    HW121275   3.917   1.519   2.016 -0.3095  0.8416  0.1387
 3214SOL    HW221276   3.986   1.541   1.888  1.1245 -0.3324  2.2022
 3215SOL     OW21277   1.479   4.290   2.443 -0.3261 -0.1845 -0.3663
 3215SOL    HW121278   1.463   4.211   2.494 -0.7187 -0.7095 -1.3105
 3215SOL    HW221279   1.511   4.254   2.361 -2.6898  0.4527 -1.5749
 3216SOL     OW21280   0.598   0.129   2.848  0.6418  0.1002  0.2038
 3216SOL    HW121281   0.606   0.190   2.920 -0.8590 -1.2310  1.4799
 3216SOL    HW221282   0.690   0.103   2.850 -0.0540 -2.4066  0.0754
 3217SOL     OW21283   1.073   3.254   9.494 -0.4834 -0.2518 -0.3118
 3217SOL    HW121284   1.066   3.162   9.518 -1.6539 -0.4180 -1.2921
 3217SOL    HW221285   1.093   3.299   9.576 -0.6226 -3.2640  1.3699
 3218SOL     OW21286   3.086   2.306  15.522  0.0141  0.2651 -0.6753
 3218SOL    HW121287   3.010   2.277  15.573  0.0245  1.1247 -0.1823
 3218SOL    HW221288   3.057   2.390  15.487 -1.9660 -0.6084 -1.1343
 3219SOL     OW21289   4.358   2.674  15.801  0.0392  0.3934  0.0320
 3219SOL    HW121290   4.298   2.737  15.841 -1.8396 -2.1147  1.1682
 3219SOL    HW221291   4.433   2.720  15.763 -0.0188  2.0041  1.8459
 3220SOL     OW21292   0.702   1.582   2.287 -0.5081  0.0759  0.2600
 3220SOL    HW121293   0.673   1.593   2.377 -0.0512 -0.5418  0.4870
 3220SOL    HW221294   0.619   1.620   2.260 -0.5483 -1.4362 -1.8197
 3221SOL     OW21295   3.240   1.375   7.366 -0.6913  0.0433 -0.1681
 3221SOL    HW121296   3.213   1.287   7.391  0.7707 -0.4302 -0.2532
 3221SOL    HW221297   3.175   1.390   7.296 -0.1861 -1.5171 -0.9725
 3222SOL     OW21298   3.560   0.376   7.562  0.1842  0.4383  0.3067
 3222SOL    HW121299   3.646   0.337   7.548  0.3593  0.8882  0.1234
 3222SOL    HW221300   3.533   0.344   7.648  2.2309 -1.8072  0.1020
 3223SOL     OW21301   1.695   0.849   0.754 -0.5911 -0.3193  0.1887
 3223SOL    HW121302   1.723   0.816   0.839  1.1863  1.0021  0.0940
 3223SOL    HW221303   1.761   0.917   0.743 -1.0369 -0.2733 -2.1985
 3224SOL     OW21304   3.074   2.631  14.936 -0.2201  0.1885  0.1243
 3224SOL    HW121305   3.108   2.564  14.996 -2.3301 -1.0949 -0.0884
 3224SOL    HW221306   3.015   2.663  15.004 -1.7573 -1.4380 -0.4404
 3225SOL     OW21307   1.796   0.014  15.556  0.0090  0.0489 -0.0216
 3225SOL    HW121308   1.834   0.082  15.612  0.3016  0.5612 -0.8456
 3225SOL    HW221309   1.852   4.675  15.559  0.1744  0.3037  3.9992
 3226SOL     OW21310   0.244   3.925   9.267  0.0442 -0.3573 -0.0279
 3226SOL    HW121311   0.211   3.920   9.178  0.6434 -0.2399 -0.2514
 3226SOL    HW221312   0.260   4.020   9.272 -0.7676 -0.1750 -1.1162
 3227SOL     OW21313   3.706   2.656   5.692 -1.3128  0.3329  0.7175
 3227SOL    HW121314   3.667   2.740   5.669  0.5250  0.4876 -1.8402
 3227SOL    HW221315   3.646   2.614   5.754 -1.5291  0.0029  0.2922
 3228SOL     OW21316   2.529   4.523   8.815 -0.3650 -0.2196  0.3505
 3228SOL    HW121317   2.511   4.494   8.725 -0.8947 -1.7461  0.9523
 3228SOL    HW221318   2.569   4.609   8.805 -1.4708  0.4659  1.8883
 3229SOL     OW21319   1.973   1.853   9.046  0.8162 -0.3480  0.2430
 3229SOL    HW121320   1.962   1.799   8.968  1.7840  0.0549 -0.1709
 3229SOL    HW221321   1.889   1.849   9.093  0.9429  2.4490  0.7273
 3230SOL     OW21322   4.418   0.255   0.341  0.2901 -0.3991  0.4194
 3230SOL    HW121323   4.471   0.186   0.301 -0.0470  0.3965 -1.4084
 3230SOL    HW221324   4.337   0.254   0.289  1.3480 -1.0823 -1.2149
 3231SOL     OW21325   3.057   3.006   4.569 -0.1970  0.0072  0.0042
 3231SOL    HW121326   3.000   2.946   4.617 -1.6845 -1.1019 -3.1465
 3231SOL    HW221327   3.144   2.971   4.591  0.6115  2.4003  0.6057
 3232SOL     OW21328   4.470   2.165   6.852  0.3449 -0.1779 -0.1361
 3232SOL    HW121329   4.419   2.245   6.855 -0.1126 -0.4088 -1.8963
 3232SOL    HW221330   4.528   2.188   6.779 -0.2203  0.5030 -0.3684
 3233SOL     OW21331   3.220   3.897  11.266  0.4425  0.1747  0.7330
 3233SOL    HW121332   3.244   3.853  11.184 -0.8276  1.1949 -0.1932
 3233SOL    HW221333   3.143   3.944  11.234 -0.5172 -0.2045  2.4948
 3234SOL     OW21334   0.674   0.505   8.276 -0.2526  0.1294 -0.5215
 3234SOL    HW121335   0.707   0.525   8.364 -1.0935 -0.4934 -0.0502
 3234SOL    HW221336   0.740   0.448   8.238  0.1319 -0.2970  0.7665
 3235SOL     OW21337   2.327   3.896   4.174 -0.6742 -0.0338 -1.2342
 3235SOL    HW121338   2.264   3.826   4.189 -2.8047  2.0285 -0.6258
 3235SOL    HW221339   2.266   3.952   4.126 -2.0033 -0.6341 -0.2328
 3236SOL     OW21340   1.160   4.377   2.922 -0.2320  0.1186  0.3393
 3236SOL    HW121341   1.185   4.465   2.951  1.3679  0.3633 -1.7296
 3236SOL    HW221342   1.220   4.331   2.981 -0.2790  0.6281  0.7815
 3237SOL     OW21343   1.989   2.064   6.287 -0.3749  0.0073 -0.1290
 3237SOL    HW121344   1.998   2.156   6.309 -1.3430 -0.1314  0.8898
 3237SOL    HW221345   2.071   2.030   6.321 -0.3828 -1.0350 -1.1604
 3238SOL     OW21346   3.812   0.365   2.645  0.1640  0.3200  0.0625
 3238SOL    HW121347   3.783   0.318   2.723 -3.1111 -0.3741 -1.5836
 3238SOL    HW221348   3.746   0.334   2.582  1.2708 -0.1941 -0.8346
 3239SOL     OW21349   0.696   3.185   4.810  0.4308 -0.5762 -0.5295
 3239SOL    HW121350   0.679   3.269   4.852 -1.3710 -0.8152 -0.7860
 3239SOL    HW221351   0.744   3.146   4.883  0.9095  1.4995  0.2784
 3240SOL     OW21352   0.450   0.862  12.546 -0.5309  0.0753 -0.1975
 3240SOL    HW121353   0.393   0.803  12.595 -0.7547  0.4371 -0.0182
 3240SOL    HW221354   0.401   0.861  12.464 -1.1233  0.5313  0.1504
 3241SOL     OW21355   4.005   2.610  11.935  0.2941 -0.7470  0.3302
 3241SOL    HW121356   3.921   2.592  11.977 -0.4733 -0.8167 -1.2536
 3241SOL    HW221357   4.051   2.658  12.004  0.2485  1.5728 -1.2647
 3242SOL     OW21358   2.890   3.187   2.807 -0.6304 -0.4052  0.1337
 3242SOL    HW121359   2.838   3.217   2.733 -1.3867 -0.6542  0.5640
 3242SOL    HW221360   2.845   3.247   2.867  1.5962 -0.0028  1.4137
 3243SOL     OW21361   2.324   0.341   6.707  0.1233 -0.0366 -0.1694
 3243SOL    HW121362   2.263   0.391   6.654  1.0323  1.2437 -0.0161
 3243SOL    HW221363   2.331   0.258   6.660  0.5707  0.5401 -1.1163
 3244SOL     OW21364   3.378   4.260   4.840  0.3425  0.2888  0.0952
 3244SOL    HW121365   3.459   4.209   4.835  0.4348  0.2444  2.3895
 3244SOL    HW221366   3.326   4.218   4.909  0.8840 -1.7046 -0.7048
 3245SOL     OW21367   4.290   4.505   7.945  0.3722  0.4297 -0.3692
 3245SOL    HW121368   4.261   4.468   7.862  0.7512 -3.4723  1.2475
 3245SOL    HW221369   4.257   4.439   8.005  0.0753  1.6104  0.7833
 3246SOL     OW21370   3.477   1.066   2.362 -0.0618 -0.2152  0.7215
 3246SOL    HW121371   3.554   1.123   2.353 -1.3114  1.3478 -0.0811
 3246SOL    HW221372   3.499   1.001   2.295 -1.3264  1.0116 -0.8831
 3247SOL     OW21373   1.874   3.279   2.780  0.7425 -0.5170 -0.2937
 3247SOL    HW121374   1.923   3.360   2.771 -0.3794 -0.1000 -2.8309
 3247SOL    HW221375   1.904   3.236   2.699  2.6343 -0.3776  0.3436
 3248SOL     OW21376   2.755   1.386   2.479  0.1397 -0.0360 -0.0304
 3248SOL    HW121377   2.841   1.412   2.513  0.4250 -0.4028 -0.4705
 3248SOL    HW221378   2.775   1.377   2.386 -0.7604 -0.4807 -0.1732
 3249SOL     OW21379   3.221   1.463   5.829 -0.3143  0.5347  0.1942
 3249SOL    HW121380   3.212   1.534   5.892 -0.8541  0.4745  0.1918
 3249SOL    HW221381   3.175   1.506   5.757  0.4931  0.9534 -0.0611
 3250SOL     OW21382   0.945   1.601   5.706 -0.2995 -0.3404 -0.1839
 3250SOL    HW121383   0.933   1.623   5.798 -0.3266 -0.8303 -0.0677
 3250SOL    HW221384   1.025   1.650   5.687 -1.1504 -0.0475 -3.0149
 3251SOL     OW21385   2.923   0.262   8.847  0.4109 -0.1126 -0.0567
 3251SOL    HW121386   2.943   0.245   8.939 -1.0545 -0.6951  0.1517
 3251SOL    HW221387   2.926   0.172   8.815  1.0170  0.6968 -2.2744
 3252SOL     OW21388   4.537   3.019   1.749  0.0393 -0.1531 -0.0195
 3252SOL    HW121389   4.509   3.023   1.658 -0.6608  1.3404  0.2689
 3252SOL    HW221390   4.602   3.089   1.751 -0.0812 -0.0521  0.4930
 3253SOL     OW21391   2.480   3.067  15.547 -1.0814  0.4926 -0.3070
 3253SOL    HW121392   2.406   3.094  15.601  0.4641  1.8734  1.1459
 3253SOL    HW221393   2.537   3.143  15.558 -1.8780  1.0059  0.2340
 3254SOL     OW21394   1.267   1.385  16.891 -0.1271  0.5455  0.2583
 3254SOL    HW121395   1.226   1.469  16.871  0.4095  1.1263  1.5330
 3254SOL    HW221396   1.195   1.334  16.928 -0.2546  0.4599 -0.1178
 3255SOL     OW21397   2.453   0.421   7.467 -0.6674 -0.7976 -0.1089
 3255SOL    HW121398   2.536   0.411   7.515 -1.0204  0.0604  0.6947
 3255SOL    HW221399   2.410   0.499   7.502 -0.7475 -0.9441  0.1149
 3256SOL     OW21400   4.004   2.957   4.190 -0.0620  0.3850 -0.3766
 3256SOL    HW121401   4.037   2.867   4.189  1.2139  0.8705 -3.3757
 3256SOL    HW221402   4.068   2.993   4.128  1.2149  0.6294  1.0858
 3257SOL     OW21403   1.149   3.276  16.703 -0.8113 -0.6617  0.2835
 3257SOL    HW121404   1.090   3.261  16.776 -0.6836 -2.8748 -0.0664
 3257SOL    HW221405   1.228   3.237  16.741 -0.4869  0.0913  0.3826
 3258SOL     OW21406   1.511   3.566   2.565  0.3055 -0.1885 -0.0695
 3258SOL    HW121407   1.443   3.500   2.582  0.1389  0.3051  1.2053
 3258SOL    HW221408   1.493   3.588   2.474 -1.9573  0.6110  0.5678
 3259SOL     OW21409   4.190   1.982   2.556 -0.2636  0.0454 -0.2254
 3259SOL    HW121410   4.230   2.049   2.501  1.2620  0.7713  1.7814
 3259SOL    HW221411   4.217   1.905   2.506  0.9483  0.8299 -0.7744
 3260SOL     OW21412   0.093   0.722   9.506 -0.4232  0.3534  0.1726
 3260SOL    HW121413   0.035   0.661   9.462  0.8465 -1.7258  1.4054
 3260SOL    HW221414   0.166   0.668   9.535 -0.7998 -0.1130  0.2475
 3261SOL     OW21415   1.125   0.541   3.022  0.3865  0.1307 -0.7610
 3261SOL    HW121416   1.106   0.455   3.059 -0.3075  0.0669 -1.2765
 3261SOL    HW221417   1.142   0.519   2.931  1.7189 -2.2091  0.0593
 3262SOL     OW21418   2.885   2.575   1.776  0.4356  0.4682 -0.2337
 3262SOL    HW121419   2.853   2.487   1.752  0.4354  0.4784 -0.2704
 3262SOL    HW221420   2.876   2.565   1.871 -2.1554  2.5206 -0.2580
 3263SOL     OW21421   3.007   4.504  17.040  0.4056  0.4325  0.4449
 3263SOL    HW121422   3.061   4.443  17.091  0.6006 -1.8000 -2.4487
 3263SOL    HW221423   3.063   4.581  17.050 -0.0484  0.8233 -0.0816
 3264SOL     OW21424   0.175   0.345   0.959  0.0974  0.0076 -0.6327
 3264SOL    HW121425   0.204   0.255   0.971 -1.6457 -0.3832  0.7117
 3264SOL    HW221426   0.080   0.332   0.966 -0.2553  2.5858 -0.2905
 3265SOL     OW21427   4.013   0.954   7.350  0.2426  0.3022 -0.3777
 3265SOL    HW121428   3.941   0.999   7.307 -1.6988 -2.3057  0.2087
 3265SOL    HW221429   4.076   1.027   7.350 -0.6426  1.0635 -1.3683
 3266SOL     OW21430   1.508   1.032   2.894 -0.0913 -0.3942 -0.2189
 3266SOL    HW121431   1.555   0.987   2.965 -0.2476 -1.0599 -0.5380
 3266SOL    HW221432   1.482   1.114   2.936  0.9014  0.9201 -2.1751
 3267SOL     OW21433   3.319   3.161  11.615 -0.2691  0.3222 -0.0527
 3267SOL    HW121434   3.309   3.153  11.520  2.4152 -1.1626 -0.2050
 3267SOL    HW221435   3.326   3.073  11.652 -0.5416 -0.5959 -2.1698
 3268SOL     OW21436   0.497   3.613   5.953 -0.1169 -0.2959 -0.4953
 3268SOL    HW121437   0.414   3.655   5.928 -1.1344  0.5694  4.3439
 3268SOL    HW221438   0.550   3.693   5.958  1.4137 -1.4407  1.4660
 3269SOL     OW21439   1.617   3.258   7.393 -0.4344  0.6679 -0.1950
 3269SOL    HW121440   1.549   3.191   7.401  0.4887 -0.3802 -0.9235
 3269SOL    HW221441   1.610   3.316   7.468 -0.7833 -0.0515  0.3322
 3270SOL     OW21442   3.446   1.500   4.597 -0.1515 -0.0874  0.5015
 3270SOL    HW121443   3.470   1.458   4.679 -0.1213  0.6223  0.8616
 3270SOL    HW221444   3.511   1.570   4.593  0.7982 -1.1305 -2.4430
 3271SOL     OW21445   2.596   4.005  14.871 -0.5474 -0.1283 -0.0940
 3271SOL    HW121446   2.566   4.008  14.780 -0.8489  1.2143  0.0510
 3271SOL    HW221447   2.541   3.935  14.904 -1.8214 -0.1570 -2.2780
 3272SOL     OW21448   3.372   3.329  15.539 -0.5484  0.0545  0.1370
 3272SOL    HW121449   3.416   3.245  15.555  0.2282  0.4523  0.1010
 3272SOL    HW221450   3.368   3.359  15.630 -2.1949  0.2450 -0.0081
 3273SOL     OW21451   1.959   2.173   5.636  0.3590  0.3582  0.3145
 3273SOL    HW121452   1.951   2.233   5.710  0.2934 -0.3080  0.8534
 3273SOL    HW221453   1.917   2.231   5.573 -1.2341  0.6735  1.6747
 3274SOL     OW21454   4.098   2.160   7.817  0.7822 -0.7317 -0.1453
 3274SOL    HW121455   4.005   2.157   7.792 -0.1931 -2.1773  3.6431
 3274SOL    HW221456   4.106   2.076   7.863  1.5386 -0.3124  0.5009
 3275SOL     OW21457   4.645   4.318   9.374  0.5936 -0.5646 -0.6425
 3275SOL    HW121458   4.596   4.400   9.386  1.4184  0.5025 -4.6299
 3275SOL    HW221459   4.730   4.352   9.345  1.2444 -0.9109  0.8541
 3276SOL     OW21460   3.754   1.283   6.989 -0.2141  0.4446 -0.2952
 3276SOL    HW121461   3.790   1.197   7.010  1.0007  1.4990  1.9132
 3276SOL    HW221462   3.660   1.279   7.007 -0.0326 -0.7592  0.4130
 3277SOL     OW21463   0.125   1.610   5.822 -0.2791  0.0795 -0.4186
 3277SOL    HW121464   0.159   1.525   5.797 -0.2133 -0.1832  0.5630
 3277SOL    HW221465   0.170   1.619   5.906  1.7830  0.0260 -1.5352
 3278SOL     OW21466   4.664   4.044  14.362  0.0712  0.0900  0.2744
 3278SOL    HW121467   4.629   4.130  14.337  2.3902  1.0518  0.2713
 3278SOL    HW221468   4.637   4.036  14.453  0.7846 -1.3937  0.3562
 3279SOL     OW21469   4.452   4.075   1.308 -0.3473 -0.0573  0.3009
 3279SOL    HW121470   4.469   4.156   1.356 -0.5477  0.8484 -1.1725
 3279SOL    HW221471   4.385   4.040   1.367  1.1137  0.9448  2.5722
 3280SOL     OW21472   3.863   3.925  17.049 -0.6209  0.3212 -0.5736
 3280SOL    HW121473   3.948   3.899  17.014 -1.0559  0.4369 -1.7213
 3280SOL    HW221474   3.892   4.009  17.082  1.0577 -1.1610  1.6843
 3281SOL     OW21475   3.247   4.498  14.329  0.0306 -0.2336  0.0649
 3281SOL    HW121476   3.267   4.424  14.386  2.3646 -0.4482 -1.0258
 3281SOL    HW221477   3.158   4.515  14.358 -0.4576 -4.6420  1.1828
 3282SOL     OW21478   1.191   0.632   3.748 -0.0106 -0.0763  0.1288
 3282SOL    HW121479   1.173   0.703   3.809  1.6415  2.0358 -1.8400
 3282SOL    HW221480   1.159   0.562   3.806 -2.2614  0.6510 -0.2329
 3283SOL     OW21481   2.349   2.097   4.390 -0.3091 -0.1659 -0.3370
 3283SOL    HW121482   2.394   2.139   4.317 -0.3579  2.1380  0.9840
 3283SOL    HW221483   2.277   2.055   4.343 -0.8268 -1.0430  1.2105
 3284SOL     OW21484   4.046   3.074   1.058 -0.1385  0.8167 -0.0303
 3284SOL    HW121485   4.103   3.071   1.135 -0.1280  1.0982 -0.0286
 3284SOL    HW221486   3.987   3.148   1.069 -0.5946  0.1134  2.1632
 3285SOL     OW21487   1.204   1.476  13.721  0.4525  0.7035  0.3054
 3285SOL    HW121488   1.156   1.455  13.641  0.7910 -0.2605  0.3536
 3285SOL    HW221489   1.175   1.409  13.783 -0.4154 -1.1856 -2.1393
 3286SOL     OW21490   2.321   2.988  11.095 -0.1421  0.2830 -0.2935
 3286SOL    HW121491   2.248   2.963  11.152  0.7280  0.9728  1.1409
 3286SOL    HW221492   2.391   2.981  11.160  1.2387  0.2713 -1.8008
 3287SOL     OW21493   4.596   3.665   2.901 -0.2145 -1.0551 -0.0395
 3287SOL    HW121494   4.637   3.745   2.869  0.1768 -1.5759 -0.8320
 3287SOL    HW221495   4.670   3.607   2.883  0.1192 -0.6011 -0.1354
 3288SOL     OW21496   3.901   1.576   8.740  0.4310 -0.4616  0.2134
 3288SOL    HW121497   3.901   1.602   8.832 -2.0016  0.1638  0.0280
 3288SOL    HW221498   3.823   1.520   8.739 -2.3008  3.3424  2.6134
 3289SOL     OW21499   0.021   3.316   4.500 -0.0559 -0.1140  0.1929
 3289SOL    HW121500   0.054   3.343   4.586  1.9250  0.5001 -0.7498
 3289SOL    HW221501   4.685   3.375   4.492 -1.9873 -2.3800  1.5194
 3290SOL     OW21502   3.908   4.225   4.491 -0.1155 -0.6553 -0.4526
 3290SOL    HW121503   3.945   4.137   4.481 -1.9364 -1.2969 -1.4861
 3290SOL    HW221504   3.956   4.258   4.566  1.4351 -2.1151 -0.7990
 3291SOL     OW21505   2.014   2.026  10.864 -0.1215  0.1764 -0.4757
 3291SOL    HW121506   2.088   2.077  10.897 -0.1932  0.1906 -0.3363
 3291SOL    HW221507   1.942   2.064  10.915 -0.2824  1.0462 -1.3624
 3292SOL     OW21508   2.862   1.637   5.010 -0.0500  0.1517 -0.5118
 3292SOL    HW121509   2.926   1.570   4.982  0.1426 -1.1174  2.8828
 3292SOL    HW221510   2.926   1.676   5.070 -1.8963  1.6747  0.4526
 3293SOL     OW21511   2.665   1.351  13.478 -0.0430 -0.0856 -0.5736
 3293SOL    HW121512   2.721   1.411  13.427  1.3381 -0.7184  0.1807
 3293SOL    HW221513   2.601   1.341  13.408 -0.4060  1.6937 -0.4870
 3294SOL     OW21514   3.838   2.146   7.773  0.3883 -0.0938 -0.3465
 3294SOL    HW121515   3.811   2.060   7.803 -0.9462 -0.3428 -2.2972
 3294SOL    HW221516   3.781   2.141   7.696  0.1399 -1.7323 -0.0619
 3295SOL     OW21517   0.193   2.074  13.264 -0.3967 -0.0925  0.3371
 3295SOL    HW121518   0.273   2.123  13.281 -0.1508 -0.1192 -0.7642
 3295SOL    HW221519   0.186   2.088  13.170 -1.5681 -0.5758  0.3512
 3296SOL     OW21520   1.869   2.263   6.931  0.3360  0.2887 -0.3020
 3296SOL    HW121521   1.816   2.211   6.991 -0.1968 -1.3020 -2.1460
 3296SOL    HW221522   1.930   2.199   6.895  1.4227  2.0209 -1.5075
 3297SOL     OW21523   0.741   1.739   6.959 -1.1715 -0.1914  1.1475
 3297SOL    HW121524   0.821   1.687   6.972  1.6728  3.3742 -1.9440
 3297SOL    HW221525   0.750   1.809   7.024  0.0542  0.1988  0.5670
 3298SOL     OW21526   0.276   1.744   7.292 -0.0404 -0.9208  0.4332
 3298SOL    HW121527   0.364   1.709   7.309 -0.1436 -0.6494  1.5030
 3298SOL    HW221528   0.239   1.719   7.376 -2.8147  1.4300 -0.0685
 3299SOL     OW21529   1.736   1.732   9.662  0.2347  0.5901 -0.0509
 3299SOL    HW121530   1.713   1.734   9.569 -1.2019 -0.7565  0.2702
 3299SOL    HW221531   1.649   1.721   9.699  0.6917 -0.7246  0.6311
 3300SOL     OW21532   2.195   3.865   3.227  0.2014  0.1054 -0.3603
 3300SOL    HW121533   2.257   3.815   3.280 -0.0924  0.0574 -0.0621
 3300SOL    HW221534   2.161   3.798   3.168  0.0334 -0.3815  0.2955
 3301SOL     OW21535   1.359   2.226   1.513 -0.5898  0.1701 -0.0009
 3301SOL    HW121536   1.340   2.316   1.486 -0.1813  1.0262  2.5368
 3301SOL    HW221537   1.290   2.180   1.464  0.4489 -1.0333 -0.3268
 3302SOL     OW21538   4.363   1.472   2.105 -0.1929 -0.6030 -0.0576
 3302SOL    HW121539   4.395   1.539   2.044 -0.7702  0.8252  1.2114
 3302SOL    HW221540   4.301   1.524   2.156  2.8572  1.5695  1.4706
 3303SOL     OW21541   4.248   0.948   5.721 -0.8612  1.2232 -0.4409
 3303SOL    HW121542   4.253   0.939   5.817 -3.6925 -0.8811 -0.4864
 3303SOL    HW221543   4.257   0.855   5.701 -1.0492  1.3984 -1.3331
 3304SOL     OW21544   0.242   4.420   4.980 -0.9562 -0.3535 -0.5301
 3304SOL    HW121545   0.240   4.511   5.008 -1.0321 -0.9286  1.3562
 3304SOL    HW221546   0.263   4.369   5.058  0.4218 -1.4457 -1.6067
 3305SOL     OW21547   1.048   0.342   5.055  0.1367  0.0345  0.6330
 3305SOL    HW121548   1.019   0.405   4.989 -0.3982 -0.6854  0.1847
 3305SOL    HW221549   1.081   0.274   4.997 -2.1403  0.7388 -1.4853
 3306SOL     OW21550   2.513   0.444  13.215  0.9765 -0.2083 -0.3477
 3306SOL    HW121551   2.559   0.445  13.131 -0.3147  1.1104 -1.0399
 3306SOL    HW221552   2.547   0.520  13.260 -0.4828  0.4634 -0.3693
 3307SOL     OW21553   2.559   1.063  13.169  0.1659  0.5112  0.8661
 3307SOL    HW121554   2.597   1.094  13.087  0.0361 -0.8596  0.2892
 3307SOL    HW221555   2.593   0.975  13.156 -2.7410 -0.3799 -0.5634
 3308SOL     OW21556   1.026   2.394   8.137  0.3955  0.2452  0.2006
 3308SOL    HW121557   0.965   2.447   8.086  0.8455  0.7564  0.1974
 3308SOL    HW221558   0.995   2.314   8.094  0.8663  0.5888 -0.7799
 3309SOL     OW21559   3.542   2.571  17.604  0.5563  0.0791 -0.0575
 3309SOL    HW121560   3.587   2.655  17.614  0.0592  0.1536  1.4554
 3309SOL    HW221561   3.490   2.557  17.683 -1.7680  0.8152 -1.4642
 3310SOL     OW21562   4.253   0.535   4.969  0.2732  0.2615 -0.0752
 3310SOL    HW121563   4.304   0.599   4.919 -1.4175  0.8921 -0.9916
 3310SOL    HW221564   4.198   0.590   5.025 -0.8652 -1.4202  0.4237
 3311SOL     OW21565   4.038   1.780   6.491  0.1186 -0.3165 -0.0769
 3311SOL    HW121566   4.129   1.797   6.465  0.8215 -1.3939  1.6915
 3311SOL    HW221567   3.986   1.854   6.461 -0.2221 -0.4804  0.1079
 3312SOL     OW21568   2.477   1.361   2.534  0.1358 -0.0823  0.4930
 3312SOL    HW121569   2.563   1.353   2.495 -0.0579  0.8896 -0.1533
 3312SOL    HW221570   2.451   1.454   2.538 -1.8930 -0.6178 -0.3496
 3313SOL     OW21571   3.206   2.889   9.037  0.0782  0.1172  0.3798
 3313SOL    HW121572   3.115   2.917   9.022 -0.4670 -1.0454  1.5264
 3313SOL    HW221573   3.224   2.918   9.126  1.8176  0.5703 -0.1257
 3314SOL     OW21574   0.234   0.002   1.009 -0.2784 -0.3532 -0.2920
 3314SOL    HW121575   0.287   4.724   1.087 -3.6928 -0.7249  1.9430
 3314SOL    HW221576   0.152   4.718   1.052  0.2490 -3.1105 -0.7785
 3315SOL     OW21577   2.005   3.940   6.407 -0.1642 -0.2292 -0.3927
 3315SOL    HW121578   2.094   3.906   6.415 -0.3687 -0.7981 -0.5227
 3315SOL    HW221579   1.948   3.879   6.453 -1.2161  0.2874 -0.9923
 3316SOL     OW21580   4.637   1.510   6.226 -0.5562 -0.3073  0.0491
 3316SOL    HW121581   4.575   1.437   6.222 -0.2312 -0.6706  1.6332
 3316SOL    HW221582   4.584   1.578   6.266  0.9045  2.1102 -2.1194
 3317SOL     OW21583   3.941   3.947   4.445 -0.0353 -0.2743  0.3325
 3317SOL    HW121584   3.934   3.969   4.352  0.3789  2.8415  1.0418
 3317SOL    HW221585   4.018   3.889   4.449  0.8274  1.0829  3.2059
 3318SOL     OW21586   2.201   2.495   0.177 -0.1286  0.3486 -0.1080
 3318SOL    HW121587   2.245   2.443   0.245 -4.6814  0.3548  2.8647
 3318SOL    HW221588   2.241   2.467   0.095 -0.0837 -2.0898  0.7392
 3319SOL     OW21589   1.586   0.410   8.359  0.3148  0.3286  0.0678
 3319SOL    HW121590   1.616   0.330   8.402  1.7238  0.7709 -0.1018
 3319SOL    HW221591   1.650   0.417   8.289  0.4152 -1.6192 -0.0076
 3320SOL     OW21592   3.836   0.694   6.220 -0.3617  0.3315 -0.0163
 3320SOL    HW121593   3.770   0.638   6.262 -0.0310 -1.0430 -1.3531
 3320SOL    HW221594   3.916   0.649   6.244  0.5632  0.6967 -2.4689
 3321SOL     OW21595   3.507   2.275   5.813 -0.2800 -0.7806 -0.4756
 3321SOL    HW121596   3.440   2.301   5.876  2.6255  2.0269  1.4014
 3321SOL    HW221597   3.590   2.283   5.860 -0.1523  0.4006 -0.9252
 3322SOL     OW21598   3.077   1.138   6.759  0.0047  0.4790 -0.1280
 3322SOL    HW121599   3.127   1.135   6.841  1.9585  0.7166 -1.3155
 3322SOL    HW221600   3.030   1.057   6.778  1.2593 -0.2740 -0.2360
 3323SOL     OW21601   2.225   2.656  12.408 -0.4839 -0.8527  0.5795
 3323SOL    HW121602   2.300   2.612  12.368 -1.9805  0.4797 -3.6029
 3323SOL    HW221603   2.254   2.683  12.496  0.3758 -0.7223  0.2550
 3324SOL     OW21604   1.076   3.173   3.572 -0.6888 -0.3627 -1.0504
 3324SOL    HW121605   1.048   3.248   3.520 -1.1778  0.9937  1.1816
 3324SOL    HW221606   1.164   3.203   3.593  0.1575 -3.1560 -0.5064
 3325SOL     OW21607   4.171   3.301   2.518 -0.2424 -0.3685 -0.3057
 3325SOL    HW121608   4.177   3.359   2.442 -0.0149 -0.0348 -0.0337
 3325SOL    HW221609   4.159   3.218   2.472 -1.7445 -1.2768  1.7510
 3326SOL     OW21610   2.307   2.148   7.772 -0.3894  0.0237  0.4262
 3326SOL    HW121611   2.275   2.192   7.693  0.3598 -0.7930 -0.3325
 3326SOL    HW221612   2.392   2.107   7.752 -1.3175 -1.1015 -1.2217
 3327SOL     OW21613   2.697   1.055   7.341 -0.3691 -0.1072 -0.0403
 3327SOL    HW121614   2.628   0.989   7.333 -0.2310 -0.4989  1.9451
 3327SOL    HW221615   2.777   1.007   7.319 -1.6948 -2.2219 -0.2629
 3328SOL     OW21616   4.480   2.619  14.326  0.1721 -0.4749  0.4557
 3328SOL    HW121617   4.548   2.551  14.329 -0.5374 -1.2601 -1.1104
 3328SOL    HW221618   4.453   2.628  14.417  0.0046 -0.3100  0.3892
 3329SOL     OW21619   0.640   2.074   9.623  0.3608 -0.0505  0.1633
 3329SOL    HW121620   0.615   1.983   9.641 -2.2626  0.6104 -0.1401
 3329SOL    HW221621   0.621   2.073   9.529 -0.7588 -0.8380  0.3948
 3330SOL     OW21622   0.120   0.698  12.229  0.4120  0.2100  0.4989
 3330SOL    HW121623   0.081   0.615  12.203  0.5069 -0.0475  1.1875
 3330SOL    HW221624   0.182   0.699  12.156  0.5654 -0.0666  0.6243
 3331SOL     OW21625   3.966   2.552   6.532  0.2613  0.7430  0.2436
 3331SOL    HW121626   3.895   2.502   6.574  0.7312  0.3986  0.6287
 3331SOL    HW221627   3.991   2.612   6.602 -0.8962  0.7210  0.6846
 3332SOL     OW21628   0.217   3.028   3.770 -0.3785 -0.1230  0.0778
 3332SOL    HW121629   0.122   3.037   3.772 -0.3199  0.1875  1.5361
 3332SOL    HW221630   0.245   2.962   3.833  0.9236 -0.3201 -0.7175
 3333SOL     OW21631   2.451   2.122  11.592 -0.0987 -0.3115  0.2235
 3333SOL    HW121632   2.475   2.043  11.543 -2.3347 -1.8562  1.6280
 3333SOL    HW221633   2.370   2.147  11.548  1.1787  1.6109 -1.0259
 3334SOL     OW21634   2.077   2.430  16.875  0.4011  0.3286 -0.1497
 3334SOL    HW121635   2.052   2.493  16.808 -0.7615  0.8733  0.7925
 3334SOL    HW221636   2.129   2.487  16.931  0.2390  0.1553  0.1788
 3335SOL     OW21637   1.279   3.686  14.849  0.0745 -0.0667  0.0899
 3335SOL    HW121638   1.334   3.647  14.781  0.8594  1.0933  0.0598
 3335SOL    HW221639   1.342   3.743  14.893  0.1747  1.5256 -2.1130
 3336SOL     OW21640   0.560   3.930  16.289 -0.4122 -0.3935 -0.2715
 3336SOL    HW121641   0.585   3.999  16.228 -0.2665 -0.0422  0.1826
 3336SOL    HW221642   0.466   3.917  16.277 -1.0124  1.5322  2.4705
 3337SOL     OW21643   0.409   1.934   3.102 -0.4324 -0.3162 -0.2973
 3337SOL    HW121644   0.325   1.975   3.119 -0.3210 -1.6805  3.4043
 3337SOL    HW221645   0.432   1.910   3.192 -1.1857  2.3232  0.5832
 3338SOL     OW21646   1.500   0.095   4.457 -0.1508  0.4283 -0.3596
 3338SOL    HW121647   1.540   0.129   4.377 -1.2138 -0.3980 -1.2460
 3338SOL    HW221648   1.412   0.131   4.454  0.2164  1.2254 -1.2923
 3339SOL     OW21649   1.475   3.609   5.177  0.4347 -0.0626 -0.0319
 3339SOL    HW121650   1.401   3.556   5.207  1.1965 -0.5516  1.0033
 3339SOL    HW221651   1.550   3.554   5.200  0.3662 -0.8464 -1.7138
 3340SOL     OW21652   3.719   0.522   7.149  0.5985  0.5480  0.4516
 3340SOL    HW121653   3.787   0.464   7.185 -0.3786 -1.0147 -0.2192
 3340SOL    HW221654   3.700   0.474   7.068 -2.4312  1.4880  0.6269
 3341SOL     OW21655   2.154   0.988   6.120  0.3045  0.8322  0.7056
 3341SOL    HW121656   2.123   0.973   6.031  2.0588  0.9991  0.0719
 3341SOL    HW221657   2.226   1.051   6.117  0.8515  0.1858  0.1303
 3342SOL     OW21658   0.069   1.062   3.939  0.3202 -0.1624  0.3072
 3342SOL    HW121659   0.082   1.095   3.850 -0.5875  0.2827  0.3448
 3342SOL    HW221660   0.128   1.118   3.990  3.2078 -2.5172 -0.4170
 3343SOL     OW21661   3.116   0.401   5.656  0.3097  0.0939  0.0210
 3343SOL    HW121662   3.172   0.378   5.730  2.3021  0.3396 -1.4105
 3343SOL    HW221663   3.101   0.494   5.671 -0.7592 -0.1138  0.2433
 3344SOL     OW21664   3.160   3.702   8.860  0.2722  0.2812  0.1715
 3344SOL    HW121665   3.177   3.656   8.778 -0.8509  0.1373  0.0179
 3344SOL    HW221666   3.100   3.639   8.899  0.6029  2.1787  3.8181
 3345SOL     OW21667   3.080   1.260  11.454  0.0881  0.1207 -0.4573
 3345SOL    HW121668   3.002   1.239  11.402  0.2376 -1.5124 -0.0234
 3345SOL    HW221669   3.141   1.204  11.406 -0.1044 -0.6434  0.1746
 3346SOL     OW21670   3.626   2.860   7.689  0.1566  0.8442  0.3163
 3346SOL    HW121671   3.578   2.928   7.736  0.5815  1.6684 -0.4347
 3346SOL    HW221672   3.673   2.826   7.765 -0.5590 -0.5836  0.1317
 3347SOL     OW21673   2.729   3.676   5.939 -0.4910 -0.0030  0.3948
 3347SOL    HW121674   2.782   3.750   5.968 -0.6690  0.0814  0.5073
 3347SOL    HW221675   2.676   3.722   5.874  0.4317 -0.0085 -0.3620
 3348SOL     OW21676   4.295   4.081  15.263  0.1096 -0.3625 -0.1134
 3348SOL    HW121677   4.213   4.130  15.261  2.1696  3.2174  1.6786
 3348SOL    HW221678   4.306   4.065  15.356  1.3573  2.5190  0.2364
 3349SOL     OW21679   2.694   4.614  10.070 -0.5837 -0.0834 -0.0917
 3349SOL    HW121680   2.637   4.578  10.138 -0.1205 -1.3426 -0.3661
 3349SOL    HW221681   2.641   4.648   9.998 -0.6935  0.2131  0.1277
 3350SOL     OW21682   2.077   3.401   7.251  0.1349 -0.2284 -0.1410
 3350SOL    HW121683   1.983   3.403   7.268  0.5431  0.9012  1.8990
 3350SOL    HW221684   2.072   3.403   7.155  1.4852 -0.0182 -0.2056
 3351SOL     OW21685   1.466   0.996   1.983  0.4946 -0.4282  0.1845
 3351SOL    HW121686   1.471   0.915   1.932  1.7713  0.5424 -1.2446
 3351SOL    HW221687   1.384   0.983   2.031  0.8566  1.1532  1.2075
 3352SOL     OW21688   3.911   1.626   2.227  0.5856  0.1110  0.4546
 3352SOL    HW121689   3.948   1.559   2.285  1.5645  0.5168  0.2908
 3352SOL    HW221690   3.983   1.688   2.218  0.9842 -0.4422 -0.2194
 3353SOL     OW21691   0.913   3.904  10.245  0.1540 -0.0828  0.0948
 3353SOL    HW121692   0.939   3.844  10.315  0.2498  2.1504  1.9680
 3353SOL    HW221693   1.003   3.911  10.213  1.2912  2.0132  3.7463
 3354SOL     OW21694   2.743   1.434  10.250 -0.2244  0.0257  0.0534
 3354SOL    HW121695   2.762   1.346  10.218 -0.3607 -1.1204  3.1084
 3354SOL    HW221696   2.671   1.404  10.306 -1.1850 -1.8222 -2.1474
 3355SOL     OW21697   1.302   3.515  13.764  0.1850  0.0757 -0.1656
 3355SOL    HW121698   1.271   3.462  13.837 -0.4967 -1.0104 -1.2392
 3355SOL    HW221699   1.245   3.589  13.786 -1.2114 -0.9751 -0.2355
 3356SOL     OW21700   3.855   4.459   0.970  0.1676  0.0262  0.1121
 3356SOL    HW121701   3.836   4.552   0.958  0.0075  0.0388  0.4602
 3356SOL    HW221702   3.951   4.462   0.967  0.1340  1.4751  1.0600
 3357SOL     OW21703   0.869   1.763  12.425  0.9542  0.5238 -0.3761
 3357SOL    HW121704   0.834   1.837  12.375 -1.2004  0.7711  1.4880
 3357SOL    HW221705   0.961   1.786  12.433  1.2389 -1.1324  1.2131
 3358SOL     OW21706   1.834   1.254   7.158  0.2508 -0.4813  0.3499
 3358SOL    HW121707   1.852   1.347   7.146  0.9434 -0.3499  2.3583
 3358SOL    HW221708   1.778   1.246   7.236  0.8388 -0.8528  0.7361
 3359SOL     OW21709   0.697   2.826   9.053 -0.0216  0.2793 -0.6777
 3359SOL    HW121710   0.687   2.917   9.027 -0.0317  0.3783 -0.3337
 3359SOL    HW221711   0.773   2.808   8.997 -0.1254  1.9156 -1.3519
 3360SOL     OW21712   1.204   1.149   7.854 -0.4223  0.4434  0.1933
 3360SOL    HW121713   1.225   1.067   7.809 -0.6035  1.8363 -2.4320
 3360SOL    HW221714   1.251   1.213   7.801 -1.2782  0.2220 -0.8362
 3361SOL     OW21715   4.550   3.479   4.418 -0.1715 -0.0185  0.0039
 3361SOL    HW121716   4.554   3.571   4.443 -0.3348  0.1181 -0.4578
 3361SOL    HW221717   4.455   3.471   4.413  0.0420 -1.8794 -1.2632
 3362SOL     OW21718   3.022   0.439   3.557  0.1722  0.1826 -0.4432
 3362SOL    HW121719   2.992   0.419   3.646 -0.1064 -1.9938 -1.0371
 3362SOL    HW221720   2.936   0.463   3.521 -0.8375 -0.8265  1.3150
 3363SOL     OW21721   0.181   4.472   9.722 -0.5469  0.2514 -0.6466
 3363SOL    HW121722   0.112   4.475   9.789  0.7887  0.7217  0.7229
 3363SOL    HW221723   0.241   4.409   9.761  0.1773  0.6599 -1.1130
 3364SOL     OW21724   4.468   2.540  15.477  0.1806  0.4424  0.7240
 3364SOL    HW121725   4.484   2.626  15.516  0.7348  0.9987 -0.7237
 3364SOL    HW221726   4.553   2.501  15.497  0.1099 -0.6289 -1.1258
 3365SOL     OW21727   2.327   1.180   6.523  0.7681 -0.1989 -0.0988
 3365SOL    HW121728   2.231   1.175   6.518  0.9012 -0.4826 -2.3217
 3365SOL    HW221729   2.357   1.122   6.594 -0.3216  0.4249  0.8765
 3366SOL     OW21730   1.466   4.328   9.731  0.0907 -0.2546  0.2579
 3366SOL    HW121731   1.437   4.237   9.730 -0.5694 -0.0165 -2.6821
 3366SOL    HW221732   1.538   4.317   9.793  0.8128 -2.9004 -1.0766
 3367SOL     OW21733   3.922   3.188   4.276  0.3898 -0.2906 -0.6011
 3367SOL    HW121734   3.836   3.163   4.243 -0.8998  0.5515  2.1234
 3367SOL    HW221735   3.969   3.110   4.245 -3.0749 -0.8701 -4.3280
 3368SOL     OW21736   3.236   0.964   7.770  0.5315  0.2303 -0.2919
 3368SOL    HW121737   3.176   1.030   7.737 -2.4781 -2.5465 -0.3395
 3368SOL    HW221738   3.299   1.023   7.814  1.2870 -0.4934 -0.4046
 3369SOL     OW21739   4.349   1.718   6.679 -0.1720  0.3265 -0.6578
 3369SOL    HW121740   4.397   1.722   6.597  1.2048 -1.3739  0.0402
 3369SOL    HW221741   4.353   1.805   6.719 -1.4705  0.1144 -0.0644
 3370SOL     OW21742   3.434   0.529   4.803 -0.3606 -0.4160  0.1784
 3370SOL    HW121743   3.364   0.547   4.740 -1.1263  1.2030  1.4776
 3370SOL    HW221744   3.402   0.446   4.839  1.1082 -1.7264 -1.5925
 3371SOL     OW21745   1.935   4.537  16.933 -0.0179  0.5047  0.0632
 3371SOL    HW121746   1.954   4.447  16.962  1.5020  0.8652  0.1693
 3371SOL    HW221747   1.845   4.555  16.960  0.6942  0.6147  2.3022
 3372SOL     OW21748   3.857   0.326   8.853 -0.1841  0.2996  0.1702
 3372SOL    HW121749   3.792   0.376   8.804 -0.8501  0.2776  1.0279
 3372SOL    HW221750   3.826   0.333   8.944  0.4604  0.2320  0.3995
 3373SOL     OW21751   4.014   1.004   6.321 -0.0925 -0.3478  0.3295
 3373SOL    HW121752   3.972   1.015   6.406 -0.9697  0.0763 -0.1557
 3373SOL    HW221753   3.951   1.047   6.262  0.7992 -1.1284 -1.1991
 3374SOL     OW21754   4.235   4.416   1.750  0.6510  0.8581 -0.0385
 3374SOL    HW121755   4.161   4.443   1.806 -0.7119 -1.9136 -0.5085
 3374SOL    HW221756   4.211   4.455   1.666  1.6615  0.6888 -0.3987
 3375SOL     OW21757   0.021   2.726   4.859 -0.0934  0.3245  0.0672
 3375SOL    HW121758   0.060   2.668   4.794 -0.3447 -1.0741  1.1401
 3375SOL    HW221759   0.007   2.663   4.930 -0.8714  0.0231 -0.3582
 3376SOL     OW21760   4.160   3.909   1.681  0.2184  0.3179  0.0135
 3376SOL    HW121761   4.103   3.983   1.700 -3.4999 -1.5178 -4.0135
 3376SOL    HW221762   4.236   3.943   1.728 -1.3299  1.1422  1.8974
 3377SOL     OW21763   1.179   0.978  13.024  0.0591  0.2409 -0.3567
 3377SOL    HW121764   1.259   1.005  12.979 -0.5487  0.8467 -1.0776
 3377SOL    HW221765   1.220   0.948  13.105 -0.0820 -0.7989 -0.6694
 3378SOL     OW21766   2.436   3.659   7.129  0.0993 -0.0483  0.0120
 3378SOL    HW121767   2.386   3.739   7.145 -1.3157 -0.7703 -0.8102
 3378SOL    HW221768   2.514   3.690   7.175 -0.0270 -1.1806  0.9997
 3379SOL     OW21769   3.914   1.627   5.925 -0.5518 -0.0632  0.2367
 3379SOL    HW121770   3.905   1.592   6.014  0.8183 -3.1736 -0.8319
 3379SOL    HW221771   3.859   1.567   5.874 -1.4053  1.6440 -0.8239
 3380SOL     OW21772   1.261   0.488   6.023 -0.0069 -0.0140 -0.3927
 3380SOL    HW121773   1.321   0.414   6.012 -1.9799 -1.8267  1.1353
 3380SOL    HW221774   1.213   0.467   5.943  0.1879 -0.8452 -0.2874
 3381SOL     OW21775   0.470   2.751  12.763 -0.0888  0.1673 -0.1915
 3381SOL    HW121776   0.506   2.672  12.724  0.5119  1.3086 -1.9661
 3381SOL    HW221777   0.461   2.806  12.685  0.6446 -0.4355 -0.6895
 3382SOL     OW21778   1.315   0.526   9.428  0.1778  0.2886  0.9077
 3382SOL    HW121779   1.269   0.600   9.388  0.0532 -0.2996 -0.0210
 3382SOL    HW221780   1.273   0.528   9.514 -1.1793  0.5232  0.2419
 3383SOL     OW21781   4.689   2.961   8.817 -0.1774 -0.3109 -0.2330
 3383SOL    HW121782   0.005   2.934   8.743 -1.1259  0.1903 -1.1168
 3383SOL    HW221783   4.733   2.924   8.894  1.6626 -2.1898 -2.1698
 3384SOL     OW21784   1.978   1.894   5.931  0.8000 -0.4435  0.1586
 3384SOL    HW121785   2.035   1.822   5.903 -0.6749 -0.6122 -2.3704
 3384SOL    HW221786   2.039   1.967   5.940 -0.1486  0.4969 -1.0309
 3385SOL     OW21787   2.868   1.554  13.390 -0.1573 -0.1892  0.1625
 3385SOL    HW121788   2.872   1.614  13.315 -0.1672 -1.7474 -1.0877
 3385SOL    HW221789   2.959   1.546  13.418 -0.5274 -0.6022  1.2501
 3386SOL     OW21790   0.542   0.960   3.494  0.4191 -0.0766 -0.2904
 3386SOL    HW121791   0.615   0.981   3.552  1.6463 -1.3095 -1.3858
 3386SOL    HW221792   0.566   0.880   3.448  0.6310 -0.8385  1.1302
 3387SOL     OW21793   4.229   3.751   3.275 -0.0157 -0.4493  0.0299
 3387SOL    HW121794   4.225   3.746   3.371 -2.2581 -0.5953 -0.0746
 3387SOL    HW221795   4.159   3.693   3.246  0.0020 -0.1207 -0.6660
 3388SOL     OW21796   0.632   2.198   2.991 -0.0195 -0.0724 -0.7046
 3388SOL    HW121797   0.690   2.273   3.003  0.2385 -0.3922  0.0575
 3388SOL    HW221798   0.554   2.240   2.956 -0.5706 -1.9730 -1.7129
 3389SOL     OW21799   4.048   3.010  14.326 -0.3905 -0.1499 -1.1139
 3389SOL    HW121800   4.079   3.091  14.287  1.8274 -0.5624 -0.1874
 3389SOL    HW221801   4.112   3.002  14.397  0.5130  1.0248 -1.7946
 3390SOL     OW21802   3.629   2.092   0.841 -0.1828  0.5444 -0.0798
 3390SOL    HW121803   3.704   2.071   0.785  0.8310  0.1850  1.3850
 3390SOL    HW221804   3.663   2.169   0.886 -0.2149  0.1183  0.6909
 3391SOL     OW21805   0.953   1.550   2.206 -0.3238 -0.4369 -0.1352
 3391SOL    HW121806   0.989   1.504   2.281  1.0727  0.8242 -0.0364
 3391SOL    HW221807   0.871   1.582   2.244  1.4895  3.4280  0.5658
 3392SOL     OW21808   3.978   2.919  16.589  0.1217 -0.0661  0.2949
 3392SOL    HW121809   4.051   2.859  16.608 -1.5943 -1.9091  1.1902
 3392SOL    HW221810   3.913   2.884  16.651 -0.7582 -0.4607 -0.8399
 3393SOL     OW21811   3.510   3.982  14.530  0.3984  0.4056 -0.6142
 3393SOL    HW121812   3.444   4.050  14.541  0.1461 -0.6755  4.5852
 3393SOL    HW221813   3.476   3.923  14.462 -1.3272 -0.2947  0.8416
 3394SOL     OW21814   4.498   0.790   8.537 -0.2923  0.3335  0.0729
 3394SOL    HW121815   4.504   0.741   8.619 -0.1934  1.6190  0.8395
 3394SOL    HW221816   4.529   0.867   8.586 -2.2813 -0.3255  2.3632
 3395SOL     OW21817   3.069   3.723   2.890  0.3036 -1.2970 -0.2859
 3395SOL    HW121818   3.013   3.673   2.831  1.7933 -3.1860 -0.1259
 3395SOL    HW221819   3.047   3.692   2.978  0.1513  0.7887  0.4038
 3396SOL     OW21820   1.025   1.036  12.533  0.1506 -0.7608 -0.8235
 3396SOL    HW121821   0.981   1.118  12.510  1.5106  1.0389  3.0205
 3396SOL    HW221822   0.961   0.992  12.589 -2.3879  2.9585 -0.7670
 3397SOL     OW21823   4.134   0.989  14.777 -0.0874 -0.4570  0.3172
 3397SOL    HW121824   4.179   0.971  14.860 -1.4376 -0.8139  0.9755
 3397SOL    HW221825   4.206   1.003  14.715  0.7241 -1.7323  0.9755
 3398SOL     OW21826   2.057   1.463  15.679 -0.1516 -0.1189 -0.3185
 3398SOL    HW121827   2.090   1.545  15.643 -0.9025 -0.1097 -0.9715
 3398SOL    HW221828   1.978   1.486  15.727  0.7556  0.4591  0.9302
 3399SOL     OW21829   1.071   3.135  11.011  0.2997 -0.1205  0.2440
 3399SOL    HW121830   1.036   3.152  11.099  0.0324  1.4831 -0.1616
 3399SOL    HW221831   1.123   3.216  11.010 -0.6925  0.5469  1.3252
 3400SOL     OW21832   1.574   1.964   7.274  0.1694  0.0682  0.1908
 3400SOL    HW121833   1.553   1.880   7.314 -0.5340  0.2196  0.1471
 3400SOL    HW221834   1.609   2.014   7.348  1.6029  0.8101 -0.9735
 3401SOL     OW21835   2.600   0.678   6.613  0.0177  0.3535  0.2940
 3401SOL    HW121836   2.596   0.771   6.637  2.5998  0.4475  0.3168
 3401SOL    HW221837   2.509   0.659   6.636  0.5103 -1.4232  0.7430
 3402SOL     OW21838   4.705   1.926   1.520  0.1089  0.2446  0.4480
 3402SOL    HW121839   4.673   1.938   1.609 -1.1129 -0.0892  0.0469
 3402SOL    HW221840   0.036   1.860   1.525  1.1398  1.0373 -3.1222
 3403SOL     OW21841   2.344   0.643   1.433 -0.5598 -0.5094  0.6534
 3403SOL    HW121842   2.388   0.667   1.515 -2.3999 -0.3510  1.5986
 3403SOL    HW221843   2.385   0.561   1.405  0.3845  0.3284 -0.4247
 3404SOL     OW21844   0.220   0.988  17.674 -0.2766  0.2898  0.4230
 3404SOL    HW121845   0.202   0.894  17.674 -1.1310  0.4450  1.1767
 3404SOL    HW221846   0.127   1.013  17.671 -0.3453  0.1578  1.5806
 3405SOL     OW21847   1.570   2.194   8.639  0.4689  0.9113 -0.3860
 3405SOL    HW121848   1.635   2.244   8.589 -0.5029  0.8178 -1.7481
 3405SOL    HW221849   1.548   2.259   8.705 -0.3186 -1.1742  1.3893
 3406SOL     OW21850   3.773   3.914   2.152  0.4480  0.6872 -0.3963
 3406SOL    HW121851   3.679   3.895   2.147  0.2301  1.3209  1.1945
 3406SOL    HW221852   3.807   3.836   2.108  0.2975  0.3097  0.1518
 3407SOL     OW21853   3.935   3.207   6.293  0.8992 -0.8292 -0.1320
 3407SOL    HW121854   3.977   3.202   6.207  0.8590 -2.6940 -0.0455
 3407SOL    HW221855   3.975   3.290   6.318 -3.2934  0.6055  1.8559
 3408SOL     OW21856   4.342   4.736   7.801  0.3855  0.9579  0.0066
 3408SOL    HW121857   4.322   4.655   7.848  1.6176 -0.1513 -1.3815
 3408SOL    HW221858   4.259   0.044   7.799 -1.2784 -2.0151 -0.2748
 3409SOL     OW21859   0.601   0.017   0.066  0.0804 -0.4395 -0.5023
 3409SOL    HW121860   0.666   0.003  17.750  0.1036 -0.0305 -0.5582
 3409SOL    HW221861   0.642   0.082   0.122  1.8102 -1.4168 -0.6333
 3410SOL     OW21862   0.724   2.318   7.169 -0.1043 -0.4074 -0.4831
 3410SOL    HW121863   0.630   2.303   7.158 -0.0458  0.3098 -1.9636
 3410SOL    HW221864   0.726   2.410   7.143  0.0938  0.1720  1.5306
 3411SOL     OW21865   3.960   2.477   2.019  0.0536  0.3398 -0.3478
 3411SOL    HW121866   3.882   2.429   1.993 -0.8786  0.9934  1.2521
 3411SOL    HW221867   4.029   2.411   2.023  0.8378  1.2505  1.0899
 3412SOL     OW21868   0.919   0.551   3.997  0.7040 -0.3250  0.5606
 3412SOL    HW121869   0.892   0.494   4.069 -0.5828  0.0846  0.4113
 3412SOL    HW221870   0.918   0.639   4.037 -1.1868  0.2871 -0.8541
 3413SOL     OW21871   3.283   0.620   9.160 -0.1402 -0.0106  0.4230
 3413SOL    HW121872   3.291   0.714   9.142 -1.3347  0.7326  3.8384
 3413SOL    HW221873   3.228   0.595   9.085  1.6069 -0.1287 -0.8337
 3414SOL     OW21874   3.856   2.654  16.468 -0.3312 -0.3310 -0.0242
 3414SOL    HW121875   3.920   2.724  16.481  1.2310 -1.9649  1.1820
 3414SOL    HW221876   3.896   2.615  16.390 -0.2982  2.7956 -1.5666
 3415SOL     OW21877   2.042   2.878   8.637  0.2857  0.5254 -0.0966
 3415SOL    HW121878   1.979   2.950   8.641 -0.9803 -0.5683 -0.0937
 3415SOL    HW221879   2.088   2.878   8.721 -0.8954  1.2589  0.5507
 3416SOL     OW21880   3.253   0.932   0.902  0.1283 -0.2052  0.1815
 3416SOL    HW121881   3.181   0.873   0.878 -1.3292  0.7266  2.2800
 3416SOL    HW221882   3.209   1.011   0.871 -0.9554 -1.5054 -1.5730
 3417SOL     OW21883   3.080   3.051   8.467 -0.7877 -0.6863 -0.4240
 3417SOL    HW121884   3.169   3.043   8.500 -1.4707 -0.3979  1.5063
 3417SOL    HW221885   3.071   2.961   8.437 -0.2521 -0.8038 -0.2233
 3418SOL     OW21886   0.056   0.259   1.371  0.1384 -0.0189 -0.2618
 3418SOL    HW121887   0.101   0.235   1.453  1.6098 -2.0551 -1.6735
 3418SOL    HW221888   0.018   0.181   1.331  0.2842 -0.1703 -0.1095
 3419SOL     OW21889   1.707   2.522   4.485 -0.6784 -0.3024 -0.2169
 3419SOL    HW121890   1.772   2.590   4.503 -0.5909 -0.7210  1.0519
 3419SOL    HW221891   1.666   2.530   4.572  1.5638  0.5251  0.7573
 3420SOL     OW21892   2.009   1.373   2.978 -0.3512  0.4727  0.8285
 3420SOL    HW121893   1.965   1.424   3.046  1.2699  1.9438  0.7715
 3420SOL    HW221894   1.949   1.380   2.904 -0.7445  0.7438  1.1734
 3421SOL     OW21895   2.729   0.326   5.015  0.1473 -0.3061 -0.1194
 3421SOL    HW121896   2.718   0.375   4.933 -1.2069 -0.6957 -0.1711
 3421SOL    HW221897   2.824   0.320   5.005  0.1287 -0.2386 -0.3275
 3422SOL     OW21898   3.538   1.583   8.558 -0.5137 -0.1604 -0.1507
 3422SOL    HW121899   3.578   1.589   8.471  2.2354  0.7740  1.1900
 3422SOL    HW221900   3.583   1.506   8.594 -2.6410 -1.4769 -0.2742
 3423SOL     OW21901   3.553   4.736   5.813  0.3769  0.0236  0.2339
 3423SOL    HW121902   3.528   0.042   5.733  0.6190 -0.5753 -0.1784
 3423SOL    HW221903   3.643   4.708   5.793  1.5655  1.8423  3.0472
 3424SOL     OW21904   0.088   1.930   4.475 -0.4737  0.0332 -0.2475
 3424SOL    HW121905   4.734   1.909   4.481 -0.6299  1.1115  1.0356
 3424SOL    HW221906   0.072   2.024   4.464  2.0235  0.7603  2.4462
 3425SOL     OW21907   3.494   2.883   2.407 -0.3810 -0.6865 -0.4551
 3425SOL    HW121908   3.411   2.922   2.432  1.1785  1.1041  1.9682
 3425SOL    HW221909   3.538   2.858   2.489  1.8716 -0.0093 -1.4663
 3426SOL     OW21910   0.615   4.241   6.875  0.2854 -0.3039  0.4151
 3426SOL    HW121911   0.565   4.192   6.810  1.4547  0.0837 -0.7974
 3426SOL    HW221912   0.622   4.171   6.940  0.4549  0.8581  1.6341
 3427SOL     OW21913   3.894   1.428   2.426 -0.1939 -0.1159 -0.0344
 3427SOL    HW121914   3.805   1.463   2.419 -0.2692 -0.5524 -1.3228
 3427SOL    HW221915   3.879   1.341   2.387  0.7076 -0.2327 -0.1108
 3428SOL     OW21916   0.903   0.608  14.416  0.6061  0.2722  0.4223
 3428SOL    HW121917   0.835   0.674  14.401 -1.6929 -1.1067  4.6360
 3428SOL    HW221918   0.870   0.538  14.472 -0.8411 -0.3701 -1.2753
 3429SOL     OW21919   0.771   4.209   3.978 -0.1868 -0.3268  0.4302
 3429SOL    HW121920   0.821   4.182   3.901  1.7309 -2.7811  2.5310
 3429SOL    HW221921   0.681   4.221   3.947 -0.0972 -0.1924  0.2273
 3430SOL     OW21922   2.262   4.283   3.928  0.6280 -0.5330 -0.2175
 3430SOL    HW121923   2.208   4.353   3.965  2.5559  1.7137 -1.6768
 3430SOL    HW221924   2.342   4.288   3.981 -0.1796  0.1820  0.9335
 3431SOL     OW21925   0.055   0.052   7.310  0.1113 -0.3539 -0.1126
 3431SOL    HW121926   0.050   0.138   7.268  0.0912  0.5345  1.7391
 3431SOL    HW221927   4.737   0.000   7.252  0.5730 -1.3060  0.2958
 3432SOL     OW21928   1.188   3.631   3.801 -0.4300  0.0161 -0.4899
 3432SOL    HW121929   1.271   3.609   3.757  1.7243  1.4890  2.8268
 3432SOL    HW221930   1.136   3.656   3.725 -1.2311 -2.1020 -0.6142
 3433SOL     OW21931   3.876   4.150   9.747  0.2617 -0.0197  0.8462
 3433SOL    HW121932   3.939   4.144   9.675 -1.1088  1.8158 -0.4905
 3433SOL    HW221933   3.793   4.153   9.700 -0.6365 -1.4091  2.3454
 3434SOL     OW21934   1.270   2.656   7.038  0.3534 -0.3759 -1.0875
 3434SOL    HW121935   1.255   2.561   7.030 -1.6174  0.0335 -2.1798
 3434SOL    HW221936   1.185   2.678   7.074 -0.1942 -0.6230 -2.2214
 3435SOL     OW21937   4.730   2.787   7.455  0.5758 -0.2837  0.0306
 3435SOL    HW121938   4.727   2.880   7.432  2.3106 -0.0866  0.6694
 3435SOL    HW221939   4.716   2.795   7.549  0.8715 -0.5230  0.0933
 3436SOL     OW21940   1.384   2.959   3.353  0.5119 -0.0318 -0.1531
 3436SOL    HW121941   1.435   2.995   3.280 -0.6911  2.2687  0.1758
 3436SOL    HW221942   1.404   3.026   3.418  0.1474  0.3158 -0.3983
 3437SOL     OW21943   0.541   1.468   6.497  0.0641 -0.5711 -0.1291
 3437SOL    HW121944   0.493   1.400   6.544 -2.9393  0.0940 -2.2677
 3437SOL    HW221945   0.622   1.478   6.548 -2.0866  3.2797  2.5557
 3438SOL     OW21946   0.345   0.671   8.355  0.1115 -0.1201  0.7502
 3438SOL    HW121947   0.401   0.620   8.297  0.7827  1.2384  0.1922
 3438SOL    HW221948   0.402   0.710   8.422  1.2859  1.7144 -1.3131
 3439SOL     OW21949   2.438   4.272   3.546 -0.1974 -0.3750  0.0191
 3439SOL    HW121950   2.345   4.283   3.563  0.2790 -0.2685  2.4718
 3439SOL    HW221951   2.474   4.352   3.585 -0.5244 -0.3466  0.2588
 3440SOL     OW21952   1.191   4.285   7.215  0.0907  1.2865 -0.1650
 3440SOL    HW121953   1.114   4.302   7.161 -0.0193  1.4439  0.0406
 3440SOL    HW221954   1.238   4.217   7.167  0.4065  1.3698  0.0272
 3441SOL     OW21955   2.180   4.522   3.131 -0.5313 -0.2618 -0.2251
 3441SOL    HW121956   2.146   4.480   3.210 -0.5638  0.2714  0.0392
 3441SOL    HW221957   2.104   4.507   3.074 -2.0965  0.6737  1.6226
 3442SOL     OW21958   1.554   1.072  16.789  0.0304  0.3447 -0.0512
 3442SOL    HW121959   1.597   0.990  16.762 -1.9106 -0.6596 -0.0453
 3442SOL    HW221960   1.463   1.052  16.772  0.2900 -0.1450 -0.8561
 3443SOL     OW21961   1.998   1.068   7.377  0.1901  0.2146 -0.1043
 3443SOL    HW121962   2.036   1.154   7.399  2.4965 -0.2154 -2.4852
 3443SOL    HW221963   1.908   1.100   7.375  0.5076  0.9769 -1.9616
 3444SOL     OW21964   2.881   2.560   5.424 -0.6582 -0.2811 -0.2286
 3444SOL    HW121965   2.858   2.625   5.357 -1.7902 -0.6785 -0.2165
 3444SOL    HW221966   2.949   2.514   5.376 -1.9018  0.3769 -2.6126
 3445SOL     OW21967   3.127   2.716   4.865 -0.3608  0.4867 -0.4758
 3445SOL    HW121968   3.096   2.669   4.787  1.6878 -1.6201 -0.0117
 3445SOL    HW221969   3.079   2.794   4.837  0.1479  1.2461  0.7810
 3446SOL     OW21970   0.590   2.538   0.487  0.1599 -0.1466 -0.2505
 3446SOL    HW121971   0.643   2.492   0.552 -0.5887 -1.4083 -0.5354
 3446SOL    HW221972   0.569   2.466   0.428  0.1928 -0.8915  0.6468
 3447SOL     OW21973   1.650   1.485   9.815  0.1692  0.5238 -0.4158
 3447SOL    HW121974   1.692   1.534   9.744  0.8425  1.4404  0.5959
 3447SOL    HW221975   1.611   1.559   9.862  1.6207  1.1544 -0.1909
 3448SOL     OW21976   0.681   0.344   9.257  0.3892  0.5574  0.4367
 3448SOL    HW121977   0.635   0.390   9.186  1.1132  1.0511  0.2848
 3448SOL    HW221978   0.762   0.316   9.216  0.4881 -2.5977  2.8353
 3449SOL     OW21979   2.886   3.587   3.233 -0.4476  0.2606  0.1206
 3449SOL    HW121980   2.804   3.627   3.204  0.2952  2.3113  0.8778
 3449SOL    HW221981   2.890   3.594   3.328  0.8151 -1.6333  0.2229
 3450SOL     OW21982   0.132   0.471  15.420  0.3240 -0.1053 -0.5422
 3450SOL    HW121983   0.192   0.400  15.396 -0.3568 -0.9390  0.2267
 3450SOL    HW221984   0.122   0.467  15.515 -1.2517 -0.4787 -0.7238
 3451SOL     OW21985   1.790   2.712   0.480 -0.5493  0.5602 -0.3477
 3451SOL    HW121986   1.737   2.633   0.470  0.3307 -0.0364 -0.2644
 3451SOL    HW221987   1.856   2.693   0.414 -0.9823 -0.0505 -0.6008
 3452SOL     OW21988   3.562   4.089   3.898 -0.2108  0.1729 -0.7515
 3452SOL    HW121989   3.514   4.051   3.824  0.5056  0.6154 -1.4516
 3452SOL    HW221990   3.493   4.066   3.960  1.5015  0.1725  1.1443
 3453SOL     OW21991   3.365   1.097   8.419  0.4312  0.2875 -0.1576
 3453SOL    HW121992   3.390   1.184   8.389  0.7027  1.1406  2.4736
 3453SOL    HW221993   3.416   1.087   8.500 -1.5557 -1.9466  0.8058
 3454SOL     OW21994   4.373   3.273   6.351 -0.4947  0.4345 -0.0537
 3454SOL    HW121995   4.332   3.289   6.437 -2.1475  0.2242 -0.8049
 3454SOL    HW221996   4.458   3.316   6.352 -0.6960  0.8358  0.4548
 3455SOL     OW21997   3.573   3.113   2.289 -0.4952  0.2734  0.4463
 3455SOL    HW121998   3.554   3.093   2.198 -0.9319 -0.4092  0.6794
 3455SOL    HW221999   3.531   3.037   2.331  0.4854 -0.9391 -0.7594
 3456SOL     OW22000   0.107   2.786  12.563 -0.7511  0.8241  0.2462
 3456SOL    HW122001   0.071   2.745  12.484  1.2689 -0.9684  0.2576
 3456SOL    HW222002   0.083   2.876  12.540  0.2651  0.7253 -1.1888
 3457SOL     OW22003   2.131   1.609   6.626 -0.5400 -0.2016 -0.3813
 3457SOL    HW122004   2.083   1.544   6.574 -0.6858  0.5122 -1.1435
 3457SOL    HW222005   2.173   1.656   6.555 -1.3601 -2.8668 -2.6452
 3458SOL     OW22006   3.191   4.698   2.734 -0.7849 -0.7088 -0.3916
 3458SOL    HW122007   3.251   4.623   2.727 -1.1727 -1.0201 -0.3323
 3458SOL    HW222008   3.248   0.030   2.703  0.5216 -0.7174  1.9242
 3459SOL     OW22009   4.092   4.702   4.798 -0.3449  0.0851  0.5417
 3459SOL    HW122010   4.023   4.707   4.731  0.7736  0.7145 -0.5644
 3459SOL    HW222011   4.111   4.608   4.798  2.2336  0.6243  1.5451
 3460SOL     OW22012   2.863   2.254  11.533 -0.0143  0.5402 -0.4792
 3460SOL    HW122013   2.820   2.178  11.494 -0.0811  1.0426 -1.3817
 3460SOL    HW222014   2.786   2.309  11.551 -1.3881 -1.6811  0.5180
 3461SOL     OW22015   3.203   2.767   9.344 -0.5520 -0.0900  0.2996
 3461SOL    HW122016   3.277   2.706   9.341 -1.0629 -0.6804 -0.3207
 3461SOL    HW222017   3.248   2.837   9.391 -0.4425  0.1665 -0.1926
 3462SOL     OW22018   2.027   4.466   3.793  0.3726  0.7664  0.1029
 3462SOL    HW122019   2.078   4.403   3.741  0.5493  0.3936  0.7339
 3462SOL    HW222020   1.948   4.482   3.741 -0.3181 -1.3885  0.5093
 3463SOL     OW22021   4.724   4.108   9.795 -0.8654  0.2992  0.1926
 3463SOL    HW122022   4.680   4.065   9.721  0.6801 -1.2241  0.1762
 3463SOL    HW222023   4.710   4.198   9.766 -1.1918 -0.0259 -0.6537
 3464SOL     OW22024   0.019   4.570  11.646 -0.2003 -0.9069 -0.0013
 3464SOL    HW122025   0.023   4.477  11.623  0.9151 -0.7402 -0.4915
 3464SOL    HW222026   4.692   4.570  11.716 -1.4222  0.1964 -1.1602
 3465SOL     OW22027   0.558   2.446   6.893 -0.4530  0.3320 -0.4853
 3465SOL    HW122028   0.647   2.442   6.858 -0.2703 -1.4332  0.1937
 3465SOL    HW222029   0.512   2.373   6.854 -2.4316  2.1970 -1.6278
 3466SOL     OW22030   4.044   0.264  15.843 -0.3421  0.5080 -0.1788
 3466SOL    HW122031   4.108   0.251  15.773 -2.7083 -1.7971 -1.8826
 3466SOL    HW222032   4.089   0.213  15.910 -0.7619 -0.8192 -0.9113
 3467SOL     OW22033   1.393   2.582   1.763 -0.1690 -0.2125 -0.3428
 3467SOL    HW122034   1.457   2.572   1.693  0.7005  0.7251  0.3234
 3467SOL    HW222035   1.393   2.677   1.776  0.0153 -0.3829  0.9999
 3468SOL     OW22036   3.928   1.856   5.289  0.2114  0.2880 -0.2934
 3468SOL    HW122037   3.971   1.939   5.306 -1.8286  0.6396  3.0666
 3468SOL    HW222038   4.010   1.807   5.292 -0.7391 -1.2000  1.5110
 3469SOL     OW22039   1.116   3.023   2.122 -0.4990 -0.0980 -0.4432
 3469SOL    HW122040   1.168   3.102   2.104 -0.5217 -0.1813 -0.8933
 3469SOL    HW222041   1.180   2.954   2.142 -1.1740 -0.1715  1.3960
 3470SOL     OW22042   4.088   0.104   9.522 -0.1148  0.0124  0.4245
 3470SOL    HW122043   4.091   0.057   9.605 -3.9387 -0.4996  0.2810
 3470SOL    HW222044   4.147   0.050   9.471 -1.8935 -0.5347 -1.0412
 3471SOL     OW22045   2.131   3.800   1.243 -0.5169 -0.3548 -0.0909
 3471SOL    HW122046   2.082   3.730   1.201 -0.0942 -1.6506  1.5698
 3471SOL    HW222047   2.193   3.821   1.173  0.8302 -0.8251  0.9575
 3472SOL     OW22048   4.569   0.071   0.223 -0.4519 -0.2794 -0.0770
 3472SOL    HW122049   4.544   0.088   0.133 -2.3909 -0.8227  0.3506
 3472SOL    HW222050   4.659   0.105   0.222 -0.6976  0.1716 -5.5315
 3473SOL     OW22051   1.329   2.621   2.372  0.5631  0.0637 -0.1610
 3473SOL    HW122052   1.311   2.666   2.455  0.2998  1.7656 -1.1468
 3473SOL    HW222053   1.252   2.646   2.321  0.1013 -1.3541 -0.1639
 3474SOL     OW22054   2.145   0.092   5.937 -0.1369 -0.4934 -0.0624
 3474SOL    HW122055   2.190   0.045   6.007 -0.9832 -2.4045 -0.7958
 3474SOL    HW222056   2.109   0.168   5.983  3.5842  1.5315 -0.5494
 3475SOL     OW22057   3.256   2.681  15.283 -0.0772  0.0390  0.4532
 3475SOL    HW122058   3.257   2.759  15.339 -0.9085 -0.3925  1.0668
 3475SOL    HW222059   3.287   2.722  15.202 -0.5895  0.7350  0.6109
 3476SOL     OW22060   4.392   3.066   6.142 -0.0958 -0.8990  0.1423
 3476SOL    HW122061   4.376   3.141   6.199 -1.1433 -0.9373 -0.0956
 3476SOL    HW222062   4.352   2.998   6.196 -0.7809  0.6671  1.6005
 3477SOL     OW22063   4.583   0.623   0.113 -0.5579 -0.1049  0.4062
 3477SOL    HW122064   4.632   0.649   0.035 -1.4295  1.0152  0.2276
 3477SOL    HW222065   4.507   0.670   0.077 -0.9037 -0.8950  0.0837
 3478SOL     OW22066   3.586   1.236   3.115  0.0860 -0.5610  0.5194
 3478SOL    HW122067   3.550   1.197   3.035 -0.0349 -1.5084  1.0374
 3478SOL    HW222068   3.604   1.159   3.168  0.9907  0.9730  2.4279
 3479SOL     OW22069   0.314   1.052   8.649 -0.7593 -0.6370 -0.5671
 3479SOL    HW122070   0.307   0.958   8.630 -1.4297 -1.0078  1.6156
 3479SOL    HW222071   0.278   1.057   8.737  1.6630  0.2601  0.4021
 3480SOL     OW22072   4.214   3.640   6.262 -0.6619  0.4083 -0.0288
 3480SOL    HW122073   4.209   3.590   6.343  0.0635 -0.7132 -0.6857
 3480SOL    HW222074   4.142   3.613   6.205 -0.7951 -1.7733  1.1878
 3481SOL     OW22075   0.133   2.806  15.808  0.1324 -0.3678  0.1876
 3481SOL    HW122076   0.164   2.726  15.764 -1.7012 -1.0316  0.0690
 3481SOL    HW222077   0.039   2.798  15.790 -0.1587  1.5143  0.9275
 3482SOL     OW22078   1.472   1.637  10.598 -0.5892 -0.4589 -0.8113
 3482SOL    HW122079   1.470   1.727  10.566 -0.5827 -0.4230 -0.7122
 3482SOL    HW222080   1.389   1.645  10.646 -0.4183  0.1080 -0.6215
 3483SOL     OW22081   4.525   1.979   2.632  0.3182  0.0725  0.1989
 3483SOL    HW122082   4.569   1.969   2.548  1.6290  0.4890  0.8401
 3483SOL    HW222083   4.459   2.041   2.602  2.6248  1.5189 -1.8413
 3484SOL     OW22084   0.943   2.438   0.279 -0.0762  0.5431  0.3788
 3484SOL    HW122085   1.006   2.462   0.212  1.5615  0.9533  2.0512
 3484SOL    HW222086   0.980   2.483   0.355 -0.5497  1.9629 -0.2326
 3485SOL     OW22087   1.445   3.823   4.496  0.1242 -0.0341  0.3551
 3485SOL    HW122088   1.517   3.804   4.557  0.2102 -0.5018  0.1037
 3485SOL    HW222089   1.491   3.874   4.429 -1.0390 -0.2810 -0.6256
 3486SOL     OW22090   4.028   4.201   3.824 -0.1983 -0.0968 -0.1180
 3486SOL    HW122091   3.963   4.249   3.875  0.9678  0.5212  0.7904
 3486SOL    HW222092   4.086   4.273   3.798 -2.6825  1.6582 -0.8165
 3487SOL     OW22093   1.432   0.304   8.673 -0.0015  0.2724  0.4682
 3487SOL    HW122094   1.374   0.353   8.731  0.2771 -0.5670  1.4596
 3487SOL    HW222095   1.416   0.214   8.702 -0.4082 -0.2816 -1.4289
 3488SOL     OW22096   2.893   2.359   6.909  0.0316  1.0034 -0.5238
 3488SOL    HW122097   2.979   2.397   6.925  0.8906 -0.3219 -1.9860
 3488SOL    HW222098   2.922   2.267   6.912  0.4021  1.2120  2.0816
 3489SOL     OW22099   2.124   3.723   1.519  0.2546 -0.4002  0.0193
 3489SOL    HW122100   2.162   3.787   1.459 -0.7367 -0.3144 -0.5164
 3489SOL    HW222101   2.045   3.692   1.473 -0.4003  0.6322  0.4511
 3490SOL     OW22102   3.221   4.440   5.917  0.4850 -0.5088  0.0922
 3490SOL    HW122103   3.205   4.464   6.008  1.0729 -0.1037  0.0859
 3490SOL    HW222104   3.161   4.366   5.916  0.1964 -0.2729  0.1448
 3491SOL     OW22105   4.300   0.912   3.637  0.2410  0.5484  0.1199
 3491SOL    HW122106   4.386   0.875   3.616  0.6466  0.8006  1.3383
 3491SOL    HW222107   4.260   0.920   3.550 -1.0504 -0.6141  0.6153
 3492SOL     OW22108   2.259   0.419   3.683 -0.5946 -0.3069 -0.1852
 3492SOL    HW122109   2.280   0.358   3.612  0.0602 -0.4132  0.1008
 3492SOL    HW222110   2.236   0.500   3.638  0.3362  0.0720  0.0342
 3493SOL     OW22111   3.597   0.680   5.149  0.0605  0.6866 -0.4775
 3493SOL    HW122112   3.541   0.678   5.226  0.2385  2.1897 -0.3213
 3493SOL    HW222113   3.599   0.586   5.131 -2.5374  0.7169 -0.9891
 3494SOL     OW22114   3.679   4.134  10.469 -0.3073  0.1413  0.4849
 3494SOL    HW122115   3.667   4.208  10.529  2.4340  1.6043 -0.7990
 3494SOL    HW222116   3.752   4.176  10.423  0.5728  0.6240  2.3129
 3495SOL     OW22117   2.096   0.025   6.581 -0.3887  0.1205 -0.1204
 3495SOL    HW122118   2.088   4.670   6.596  0.9881  0.0881  0.4358
 3495SOL    HW222119   2.079   0.058   6.669  0.7058  1.4289 -0.4012
 3496SOL     OW22120   3.444   1.730  16.461 -0.0572 -0.5479 -0.0483
 3496SOL    HW122121   3.498   1.665  16.506  2.7939  1.3159 -0.7739
 3496SOL    HW222122   3.450   1.803  16.523  2.1094  0.0926 -1.0184
 3497SOL     OW22123   2.536   0.215   8.244  0.0200 -0.0150  0.5777
 3497SOL    HW122124   2.625   0.240   8.219 -0.5114  2.2714  0.9682
 3497SOL    HW222125   2.505   0.298   8.279 -2.8513 -1.3995  1.2738
 3498SOL     OW22126   3.806   2.886   2.121  0.3555 -0.0171  0.0697
 3498SOL    HW122127   3.798   2.911   2.029  1.9917  0.3067  0.0093
 3498SOL    HW222128   3.894   2.848   2.119 -0.0435 -0.9734  1.2473
 3499SOL     OW22129   3.454   2.229   9.435  0.0796 -0.0102 -0.4970
 3499SOL    HW122130   3.425   2.138   9.442 -1.2878  0.4733  0.0473
 3499SOL    HW222131   3.403   2.270   9.365 -1.4015 -0.8071  0.1198
 3500SOL     OW22132   4.563   4.065   3.065 -0.0222  0.1390  0.7720
 3500SOL    HW122133   4.544   4.138   3.007 -0.8276 -0.1086  0.7299
 3500SOL    HW222134   4.487   4.073   3.122 -0.6261  1.4134 -0.2435
 3501SOL     OW22135   0.240   2.693  17.052  0.1414  0.4185 -0.3913
 3501SOL    HW122136   0.326   2.652  17.067  0.0355 -0.0515 -1.1130
 3501SOL    HW222137   0.241   2.773  17.104 -1.4011  0.2174 -0.0651
 3502SOL     OW22138   1.440   2.593   6.053  0.4468 -0.3010 -0.3999
 3502SOL    HW122139   1.421   2.551   6.137  4.2916 -0.3646  0.4167
 3502SOL    HW222140   1.512   2.645   6.088 -0.7861  1.5233 -0.5788
 3503SOL     OW22141   1.095   2.477   1.737 -0.6663 -0.4362  0.0308
 3503SOL    HW122142   1.190   2.486   1.732 -0.6088 -2.0373 -2.1106
 3503SOL    HW222143   1.072   2.524   1.817  1.6507 -1.4158  1.2754
 3504SOL     OW22144   2.844   1.423   8.877  0.0226  0.4054 -0.1177
 3504SOL    HW122145   2.769   1.472   8.843  1.0101  1.5858 -0.6149
 3504SOL    HW222146   2.905   1.496   8.891  0.2939  0.4725 -1.6446
 3505SOL     OW22147   3.867   3.203   7.301 -0.1291  0.5924  1.0428
 3505SOL    HW122148   3.886   3.111   7.316  0.0040  0.5072  0.3495
 3505SOL    HW222149   3.838   3.204   7.210  3.1425  0.1293  0.0219
 3506SOL     OW22150   0.683   2.809   9.541 -0.4279 -0.0504  0.5859
 3506SOL    HW122151   0.634   2.810   9.459 -1.2896  0.7723  1.1057
 3506SOL    HW222152   0.770   2.819   9.503 -1.9485 -0.6792 -3.0431
 3507SOL     OW22153   0.733   1.677  14.418  0.2495  0.3944  0.1167
 3507SOL    HW122154   0.728   1.665  14.323  2.8678  1.0827 -0.1081
 3507SOL    HW222155   0.827   1.668  14.434  0.6728  2.7983 -0.9265
 3508SOL     OW22156   0.121   3.973   6.902 -0.4361  0.4684 -0.1618
 3508SOL    HW122157   0.152   3.906   6.841 -0.1690  0.4309  0.0164
 3508SOL    HW222158   0.193   4.035   6.892 -1.1646  1.3691  0.2644
 3509SOL     OW22159   2.158   2.831   8.366 -0.0940 -0.1776  0.3322
 3509SOL    HW122160   2.181   2.741   8.344  1.5504  0.3519 -0.1022
 3509SOL    HW222161   2.116   2.826   8.452 -0.8081  1.2776  0.0623
 3510SOL     OW22162   1.721   0.259   5.148  0.2193 -0.1112  0.0600
 3510SOL    HW122163   1.756   0.217   5.069 -0.8157  1.5165 -1.2516
 3510SOL    HW222164   1.785   0.325   5.174  0.1924  0.5957 -1.7163
 3511SOL     OW22165   1.903   1.244  15.383 -0.1007  0.3574 -0.1609
 3511SOL    HW122166   1.924   1.338  15.389  0.3356  0.3442 -1.4324
 3511SOL    HW222167   1.980   1.209  15.338  0.6866  0.3839  1.1644
 3512SOL     OW22168   1.684   1.518   2.220 -0.3786  0.0038 -0.3407
 3512SOL    HW122169   1.705   1.515   2.127  2.2350 -0.4773  0.2621
 3512SOL    HW222170   1.773   1.526   2.254 -0.9039 -1.1122  1.3158
 3513SOL     OW22171   4.453   4.436  10.778 -0.0248 -0.1275  0.3360
 3513SOL    HW122172   4.457   4.344  10.751  2.8217 -0.1648  0.8684
 3513SOL    HW222173   4.456   4.480  10.692  0.3880  0.6749  0.7600
 3514SOL     OW22174   2.557   1.935   0.577 -0.1285 -0.2083  0.0551
 3514SOL    HW122175   2.612   1.981   0.514  0.2543 -0.7925 -0.0347
 3514SOL    HW222176   2.623   1.915   0.643  1.9249  1.5500 -1.4924
 3515SOL     OW22177   1.119   2.623   5.300  0.3977  0.1348  0.1670
 3515SOL    HW122178   1.182   2.694   5.301 -0.0003  0.5063 -0.6136
 3515SOL    HW222179   1.173   2.566   5.355  1.9555  0.2715 -1.2421
 3516SOL     OW22180   1.840   2.798   0.118 -0.1722 -0.1663  0.4383
 3516SOL    HW122181   1.763   2.742   0.118  0.3722 -0.9269 -0.9290
 3516SOL    HW222182   1.904   2.741   0.161 -1.0485 -1.2698  0.2805
 3517SOL     OW22183   1.300   4.151   4.333  0.1888 -0.2457 -0.4287
 3517SOL    HW122184   1.302   4.220   4.400  0.6183 -0.1075 -0.5905
 3517SOL    HW222185   1.298   4.211   4.259 -0.0277 -0.3236 -0.4854
 3518SOL     OW22186   3.033   0.588   4.765 -0.1263 -0.5602  0.4263
 3518SOL    HW122187   3.024   0.519   4.699 -1.2506  0.8465 -0.8837
 3518SOL    HW222188   3.127   0.604   4.755 -0.3447 -0.4892 -1.4572
 3519SOL     OW22189   4.217   2.031  16.670 -0.1133 -0.2767  0.1378
 3519SOL    HW122190   4.281   2.038  16.599  0.0067 -0.6408  0.2061
 3519SOL    HW222191   4.180   2.119  16.661 -0.8270 -0.5639  0.2571
 3520SOL     OW22192   4.086   2.045  16.197  0.5127 -0.3539 -0.5745
 3520SOL    HW122193   4.181   2.039  16.210  0.0740 -0.2020  2.6535
 3520SOL    HW222194   4.068   2.139  16.195  0.3521 -0.4405 -3.0134
 3521SOL     OW22195   4.170   1.810   8.997  0.0107  0.0570 -0.2975
 3521SOL    HW122196   4.214   1.749   9.056  0.5999  0.7149 -0.0577
 3521SOL    HW222197   4.235   1.808   8.926  0.6412  0.8595  0.2592
 3522SOL     OW22198   3.106   3.281   3.298  0.3539  0.2595  0.7986
 3522SOL    HW122199   3.047   3.327   3.358 -0.1526 -0.8138  1.1208
 3522SOL    HW222200   3.040   3.233   3.249 -0.4441  1.8493  0.3186
 3523SOL     OW22201   4.462   4.670  10.312  0.8192 -0.7111 -0.2079
 3523SOL    HW122202   4.387   4.631  10.267 -0.1643 -0.5477  1.2870
 3523SOL    HW222203   4.515   4.726  10.255 -1.6966  2.3290  0.4714
 3524SOL     OW22204   1.178   0.716  17.077 -0.1635  0.0650 -0.5051
 3524SOL    HW122205   1.090   0.685  17.102 -0.3443  1.2160  0.2882
 3524SOL    HW222206   1.175   0.723  16.982  0.1340 -0.7773 -0.5753
 3525SOL     OW22207   2.083   0.014   2.629 -0.7326 -0.6452 -0.0337
 3525SOL    HW122208   2.047   4.694   2.563 -0.1155  0.4645 -1.3418
 3525SOL    HW222209   2.117   4.693   2.697  0.6401 -1.0165 -1.0478
 3526SOL     OW22210   2.836   3.962   6.959  0.6434 -0.0193 -0.2777
 3526SOL    HW122211   2.743   3.969   6.936  0.3307  0.0291  1.0030
 3526SOL    HW222212   2.871   4.015   6.888 -1.3247 -1.2473 -2.1636
 3527SOL     OW22213   1.048   4.230   4.944  0.1316 -0.3165  0.4294
 3527SOL    HW122214   1.067   4.216   5.037  2.6065 -0.1508 -0.0735
 3527SOL    HW222215   1.055   4.325   4.939 -0.1673 -0.3191 -0.0800
 3528SOL     OW22216   0.337   2.167   7.691 -0.0644  0.1271 -0.2186
 3528SOL    HW122217   0.338   2.161   7.596 -0.6910  0.2139 -0.2281
 3528SOL    HW222218   0.367   2.079   7.714  0.7295  0.3628 -0.3459
 3529SOL     OW22219   1.183   1.570   2.407 -0.2256  0.2585  0.8762
 3529SOL    HW122220   1.247   1.570   2.479 -2.0428  2.8986  2.4871
 3529SOL    HW222221   1.109   1.529   2.452  0.3378 -1.4263  0.2650
 3530SOL     OW22222   1.993   4.352   4.263 -0.6292 -0.1344  0.3886
 3530SOL    HW122223   2.079   4.352   4.305 -0.6399 -1.0037  0.4185
 3530SOL    HW222224   2.024   4.375   4.176 -1.6771 -1.4817 -0.3472
 3531SOL     OW22225   0.468   3.987   8.895  0.0922 -0.1119 -0.2450
 3531SOL    HW122226   0.453   3.977   8.989 -0.5758  0.7283 -0.2675
 3531SOL    HW222227   0.507   4.075   8.895 -1.9669  0.7847 -2.7374
 3532SOL     OW22228   4.224   0.433   7.703  0.1558  0.2249  0.4475
 3532SOL    HW122229   4.164   0.477   7.763  1.1033  0.8802  0.9020
 3532SOL    HW222230   4.214   0.345   7.739 -0.7006  0.6805  1.3138
 3533SOL     OW22231   2.307   1.270   8.871  0.2873 -0.1218  0.9889
 3533SOL    HW122232   2.279   1.350   8.916  1.3903 -0.2856  1.9607
 3533SOL    HW222233   2.223   1.223   8.861 -0.9282  2.3362 -0.1910
 3534SOL     OW22234   0.488   0.365   6.353  0.2068  0.2609  0.4164
 3534SOL    HW122235   0.472   0.336   6.442  0.8647 -0.1131  0.4027
 3534SOL    HW222236   0.438   0.446   6.365  2.6620  2.1929 -2.3449
 3535SOL     OW22237   0.034   0.010  12.515  0.0679  0.5053 -0.6115
 3535SOL    HW122238   0.045   0.042  12.604 -0.4506  1.0182 -0.7359
 3535SOL    HW222239   0.108   0.052  12.471  0.4602  1.2150  0.7475
 3536SOL     OW22240   1.764   0.184   9.223 -0.1518 -0.5621  0.5110
 3536SOL    HW122241   1.756   0.166   9.317 -2.4038 -0.2114  0.3851
 3536SOL    HW222242   1.672   0.203   9.207  0.3392  1.1407 -0.2064
 3537SOL     OW22243   3.158   1.315   8.274 -0.2996 -0.2733 -0.4902
 3537SOL    HW122244   3.131   1.384   8.335  0.0109 -0.0743 -0.5788
 3537SOL    HW222245   3.245   1.347   8.249  0.1938 -0.7599  0.6016
 3538SOL     OW22246   3.485   0.762   1.373  0.5584  0.3961  0.0400
 3538SOL    HW122247   3.438   0.682   1.348  2.7379 -0.6543 -0.6665
 3538SOL    HW222248   3.537   0.771   1.294 -0.7675  0.7201 -0.8004
 3539SOL     OW22249   0.118   3.524   3.334  0.1289 -0.0660  0.2644
 3539SOL    HW122250   0.210   3.520   3.306 -0.3841  1.0202 -1.5753
 3539SOL    HW222251   0.125   3.571   3.417 -1.2859 -0.7478  0.7546
 3540SOL     OW22252   2.059   1.465   6.160 -0.3052  0.3783 -0.2050
 3540SOL    HW122253   2.017   1.417   6.090  2.0990  0.0995 -1.4761
 3540SOL    HW222254   2.017   1.551   6.160  0.5687  0.8185  0.2385
 3541SOL     OW22255   3.306   4.156  10.589 -0.1621  0.3040  0.3560
 3541SOL    HW122256   3.362   4.210  10.645 -1.1476 -0.3647  1.9660
 3541SOL    HW222257   3.247   4.105  10.644 -1.1489 -0.2538 -1.2004
 3542SOL     OW22258   0.482   4.362   3.448 -0.2098  0.3142  0.4322
 3542SOL    HW122259   0.475   4.444   3.497 -1.2359 -0.0733  0.9187
 3542SOL    HW222260   0.493   4.406   3.364  2.1865 -0.1318  0.4985
 3543SOL     OW22261   3.822   0.275  14.804  0.2335 -0.0119 -0.4092
 3543SOL    HW122262   3.904   0.279  14.756 -0.2969  1.3490 -1.2103
 3543SOL    HW222263   3.834   0.343  14.870 -0.1835 -0.6785  0.3547
 3544SOL     OW22264   2.258   4.544   4.850  0.2677  0.0553  1.0069
 3544SOL    HW122265   2.323   4.539   4.921 -2.0616 -1.3283  3.0696
 3544SOL    HW222266   2.172   4.532   4.890 -0.6526  0.0518 -0.9691
 3545SOL     OW22267   1.938   1.272   8.634 -0.2592  0.8558  0.1265
 3545SOL    HW122268   1.921   1.306   8.722 -3.8002 -2.4478  0.7288
 3545SOL    HW222269   2.009   1.208   8.645 -2.5747 -1.7773 -0.3525
 3546SOL     OW22270   0.682   2.300   6.643  0.0364 -0.1337  0.1678
 3546SOL    HW122271   0.767   2.285   6.603  0.1318  0.6584  0.0766
 3546SOL    HW222272   0.647   2.211   6.638 -0.9705  0.4059 -2.4256
 3547SOL     OW22273   3.986   0.690   5.337 -0.0184  0.1622 -0.1904
 3547SOL    HW122274   3.912   0.687   5.398 -1.0787 -0.0123 -1.4595
 3547SOL    HW222275   3.976   0.784   5.317  0.1405  0.0611 -0.7523
 3548SOL     OW22276   4.550   0.019   1.394 -0.2779 -0.3090  0.0777
 3548SOL    HW122277   4.513   0.099   1.432 -1.2337 -0.8333  0.2617
 3548SOL    HW222278   4.574   4.709   1.473  0.2654  0.1854  0.2168
 3549SOL     OW22279   2.230   4.260   2.762 -0.1189  0.0901 -0.9894
 3549SOL    HW122280   2.221   4.206   2.841 -0.1162  0.8101 -0.4937
 3549SOL    HW222281   2.137   4.258   2.737 -0.0446  0.1977 -1.2638
 3550SOL     OW22282   4.338   3.022  14.479  0.1897 -0.0540  0.4861
 3550SOL    HW122283   4.318   2.949  14.538  0.2085 -0.8678 -0.5048
 3550SOL    HW222284   4.392   2.989  14.407  1.2798 -0.9940  1.7329
 3551SOL     OW22285   1.367   2.586  13.516  0.4546 -0.3788  0.1168
 3551SOL    HW122286   1.408   2.670  13.493  0.1043 -0.3496 -0.4129
 3551SOL    HW222287   1.383   2.540  13.433  2.2465 -1.1125  0.8764
 3552SOL     OW22288   0.590   0.836   8.849  0.2864  0.4825 -0.3530
 3552SOL    HW122289   0.510   0.833   8.903  1.2088  0.6585  1.0362
 3552SOL    HW222290   0.622   0.745   8.845  0.1631  0.3484  1.7037
 3553SOL     OW22291   2.218   4.105  14.927  0.1434  0.3067  0.0913
 3553SOL    HW122292   2.160   4.033  14.949  2.1294 -0.3198  3.3172
 3553SOL    HW222293   2.206   4.106  14.832 -0.1252 -1.9308  0.1026
 3554SOL     OW22294   1.261   1.340   3.249 -0.6601 -0.4293 -0.2089
 3554SOL    HW122295   1.198   1.398   3.206  0.0417 -0.7019 -1.5879
 3554SOL    HW222296   1.206   1.309   3.321 -1.5230 -0.1423 -0.7416
 3555SOL     OW22297   1.405   3.528   5.617  0.1144 -0.3380 -0.2205
 3555SOL    HW122298   1.369   3.458   5.672  0.1570  0.8989  1.3808
 3555SOL    HW222299   1.472   3.476   5.572  0.8634 -0.9106  1.5492
 3556SOL     OW22300   3.007   2.032   2.929  0.0917 -0.1146  0.5675
 3556SOL    HW122301   3.051   2.009   3.011 -0.1126 -1.6671  0.2313
 3556SOL    HW222302   3.071   1.992   2.870  2.0640  1.2110  1.7970
 3557SOL     OW22303   3.410   2.589   6.896  0.2890 -0.4497 -0.6724
 3557SOL    HW122304   3.476   2.620   6.834 -0.5898 -1.4059 -2.0932
 3557SOL    HW222305   3.339   2.651   6.879 -1.6033 -1.7072  2.6070
 3558SOL     OW22306   3.297   0.669   4.067 -0.2411  1.1050 -0.0874
 3558SOL    HW122307   3.217   0.690   4.018 -0.3457 -1.0925 -0.8729
 3558SOL    HW222308   3.344   0.749   4.044 -0.3077  0.8660 -1.0630
 3559SOL     OW22309   0.637   4.440   1.341  0.3825 -0.4000  0.3138
 3559SOL    HW122310   0.681   4.401   1.416  2.3592 -0.5294 -0.9345
 3559SOL    HW222311   0.675   4.528   1.339  0.4034 -0.4258 -0.6982
 3560SOL     OW22312   4.679   3.244   1.841  0.0783 -0.2836  0.4650
 3560SOL    HW122313   4.654   3.283   1.924 -0.7155 -1.0889  0.6179
 3560SOL    HW222314   0.028   3.277   1.827 -0.0888 -0.5890 -1.4282
 3561SOL     OW22315   0.165   1.099   6.384  0.3090  0.3345  0.2156
 3561SOL    HW122316   0.219   1.131   6.311  1.1116 -1.2300  0.1263
 3561SOL    HW222317   0.083   1.136   6.353  0.9222  0.5953 -1.1030
 3562SOL     OW22318   2.609   0.332   3.307 -0.4971 -0.1613 -0.6254
 3562SOL    HW122319   2.626   0.238   3.316 -0.3643  0.1320  2.1611
 3562SOL    HW222320   2.587   0.325   3.214 -1.5403  0.3043 -0.4090
 3563SOL     OW22321   0.906   3.592   6.314 -0.3361 -0.1519  0.1255
 3563SOL    HW122322   0.901   3.593   6.219 -0.8454  1.7077  0.1737
 3563SOL    HW222323   0.921   3.498   6.326  0.9361  0.0437  0.0356
 3564SOL     OW22324   4.135   4.215  16.728  0.3687 -0.2208  0.0964
 3564SOL    HW122325   4.058   4.227  16.785 -1.0592  0.0465 -1.9086
 3564SOL    HW222326   4.185   4.282  16.773  0.0883 -0.0488  0.1538
 3565SOL     OW22327   4.589   0.469   4.351  0.1119  0.3942  0.7923
 3565SOL    HW122328   4.514   0.485   4.408 -2.3263 -2.0521 -1.8007
 3565SOL    HW222329   4.662   0.482   4.412  1.0977 -1.7608  0.0833
 3566SOL     OW22330   4.127   3.247  14.199  0.3641 -0.1793  0.0909
 3566SOL    HW122331   4.186   3.322  14.199  1.2416 -0.8379  2.0358
 3566SOL    HW222332   4.046   3.278  14.239  0.5808 -0.4305  0.7383
 3567SOL     OW22333   1.854   3.575  16.971 -0.5648  0.0782  0.2357
 3567SOL    HW122334   1.871   3.599  16.880 -1.4276  1.3279  0.4099
 3567SOL    HW222335   1.849   3.659  17.016 -1.8379 -0.2285  0.6667
 3568SOL     OW22336   2.722   1.403   2.840  0.0996 -0.0451  0.2126
 3568SOL    HW122337   2.798   1.362   2.798  1.2859  2.5058 -0.1353
 3568SOL    HW222338   2.749   1.495   2.835 -1.3705  0.3856  0.4232
 3569SOL     OW22339   0.961   2.843   4.420  0.4985 -0.7105 -0.2663
 3569SOL    HW122340   0.878   2.866   4.461  1.6947 -0.2020  1.8450
 3569SOL    HW222341   1.025   2.899   4.464  0.1366 -2.0572  1.9659
 3570SOL     OW22342   2.284   2.870   2.038  0.3273  0.0592 -0.2743
 3570SOL    HW122343   2.283   2.786   2.086 -1.4572  0.4229  0.3190
 3570SOL    HW222344   2.260   2.828   1.955 -2.9610 -2.4203  1.8985
 3571SOL     OW22345   3.684   3.260   7.096 -0.5207 -0.2520  0.2475
 3571SOL    HW122346   3.612   3.271   7.033 -0.8301 -4.7117 -0.1377
 3571SOL    HW222347   3.643   3.189   7.145  0.7167 -0.3207  1.1753
 3572SOL     OW22348   1.119   4.139   2.127 -0.6123  0.0297 -0.1817
 3572SOL    HW122349   1.128   4.195   2.204  0.4991 -0.6525  0.1843
 3572SOL    HW222350   1.111   4.054   2.168  4.4511  0.0719  0.8816
 3573SOL     OW22351   1.723   1.061   2.718 -0.0340 -0.2372  0.4954
 3573SOL    HW122352   1.750   1.111   2.795 -0.0968 -0.8950  0.9474
 3573SOL    HW222353   1.637   1.039   2.754 -0.1555 -0.1905  0.2298
 3574SOL     OW22354   2.148   0.459  14.671  0.2067  0.1002 -0.6757
 3574SOL    HW122355   2.095   0.481  14.748  0.3071  0.3259 -0.6695
 3574SOL    HW222356   2.235   0.444  14.710  0.3027 -0.0714 -0.9608
 3575SOL     OW22357   0.357   0.667   5.468  0.0659  0.1336 -0.4970
 3575SOL    HW122358   0.372   0.697   5.378 -1.1635  0.3025 -0.6366
 3575SOL    HW222359   0.355   0.573   5.451  0.2447  0.0707 -0.1538
 3576SOL     OW22360   0.334   2.911   9.151  0.4217  0.0442  0.1746
 3576SOL    HW122361   0.342   3.000   9.119  3.6574 -0.5022 -0.5500
 3576SOL    HW222362   0.297   2.872   9.072 -1.4232  3.3849 -0.6042
 3577SOL     OW22363   1.819   0.537  17.230  0.6808  0.0831 -0.9832
 3577SOL    HW122364   1.797   0.479  17.303  2.5897  1.3868  0.6433
 3577SOL    HW222365   1.766   0.616  17.236 -0.3178 -0.7166  0.4921
 3578SOL     OW22366   2.412   4.364   6.229  0.8913  0.2635 -0.1377
 3578SOL    HW122367   2.368   4.408   6.301 -0.3249 -0.5349 -0.3731
 3578SOL    HW222368   2.481   4.333   6.287  1.7440 -0.2116 -1.3851
 3579SOL     OW22369   1.943   3.753   9.609  0.2195  0.1720 -0.0466
 3579SOL    HW122370   2.028   3.791   9.590  1.1604 -1.7204  0.4035
 3579SOL    HW222371   1.954   3.668   9.566 -0.6383  1.1423 -2.2089
 3580SOL     OW22372   2.415   4.089   4.923 -0.0968 -0.0709 -0.3531
 3580SOL    HW122373   2.433   4.181   4.944 -1.1707  0.4707 -1.7954
 3580SOL    HW222374   2.327   4.104   4.889 -1.1478 -0.6285  2.1337
 3581SOL     OW22375   3.843   3.276   9.015 -0.0531  0.6733  0.5597
 3581SOL    HW122376   3.910   3.246   8.952  0.6640  0.0703  1.6110
 3581SOL    HW222377   3.867   3.368   9.006 -1.1211  0.8554 -0.4160
 3582SOL     OW22378   3.714   4.437  13.942 -0.0411  0.5561  0.0802
 3582SOL    HW122379   3.736   4.520  13.900 -1.8017  0.6792 -0.5876
 3582SOL    HW222380   3.676   4.386  13.870 -1.9848  2.9169 -0.5638
 3583SOL     OW22381   4.675   1.051   8.264 -0.0177 -0.5498  0.0954
 3583SOL    HW122382   4.732   1.009   8.329  1.8687  1.6743 -0.1091
 3583SOL    HW222383   4.598   0.996   8.270  0.4408 -1.1916  0.0609
 3584SOL     OW22384   2.180   1.667   1.314  0.7448 -0.0947 -0.7141
 3584SOL    HW122385   2.150   1.750   1.350  2.8929 -0.9804  3.1383
 3584SOL    HW222386   2.208   1.696   1.227  0.6594 -2.3067 -1.4780
 3585SOL     OW22387   2.483   2.125  10.797  0.2858  1.1131  0.2004
 3585SOL    HW122388   2.531   2.205  10.814  0.4455  1.1193 -0.2729
 3585SOL    HW222389   2.514   2.118  10.707 -4.6082  0.8909 -1.4814
 3586SOL     OW22390   2.754   0.474   3.490 -0.0471 -0.0518  0.3067
 3586SOL    HW122391   2.739   0.562   3.456 -0.8521 -0.3439 -0.0805
 3586SOL    HW222392   2.711   0.420   3.424  0.3554 -1.5419  1.2615
 3587SOL     OW22393   4.738   1.523   0.462  0.4725  0.4816 -0.2150
 3587SOL    HW122394   0.081   1.546   0.506 -0.8906  1.4698  1.7668
 3587SOL    HW222395   0.028   1.450   0.406  3.2805  0.1412  1.6472
 3588SOL     OW22396   1.792   0.770   6.317 -0.5398  0.2253 -0.1082
 3588SOL    HW122397   1.825   0.718   6.390 -1.0827  1.0663  0.7211
 3588SOL    HW222398   1.870   0.820   6.293 -1.0126  1.1817  0.3424
 3589SOL     OW22399   1.301   4.245  12.176  0.1498 -0.3634  0.2857
 3589SOL    HW122400   1.354   4.232  12.097 -0.3151 -2.2471  0.2905
 3589SOL    HW222401   1.370   4.245  12.242 -1.3102 -1.9496  1.7965
 3590SOL     OW22402   4.528   3.870  14.113  0.3715 -0.7484 -0.2272
 3590SOL    HW122403   4.604   3.813  14.126  1.9237  1.6163  1.0891
 3590SOL    HW222404   4.553   3.943  14.170 -1.7035 -0.7006  0.6162
 3591SOL     OW22405   3.862   1.644   4.008  0.3972 -0.3228  0.2245
 3591SOL    HW122406   3.812   1.722   4.031 -1.0287 -1.4973  1.0751
 3591SOL    HW222407   3.861   1.608   4.096 -1.0354 -0.6204  0.0894
 3592SOL     OW22408   1.796   2.795   6.917  0.1587  0.5695  0.8980
 3592SOL    HW122409   1.722   2.818   6.861 -1.6917 -0.8617  2.7887
 3592SOL    HW222410   1.773   2.848   6.993  0.3520 -1.0601  2.0808
 3593SOL     OW22411   1.791   1.023  15.983 -0.3967  0.3672  0.6041
 3593SOL    HW122412   1.751   1.029  15.896 -1.8666 -0.9276  1.1974
 3593SOL    HW222413   1.764   1.099  16.035  2.1921 -0.0874  2.6398
 3594SOL     OW22414   2.547   3.615   2.145  0.1397  0.3859 -0.2680
 3594SOL    HW122415   2.607   3.643   2.076 -2.2217  0.2949 -2.3606
 3594SOL    HW222416   2.581   3.633   2.233  2.1740 -0.9636 -0.7998
 3595SOL     OW22417   2.989   3.699  12.516  0.4168 -0.3187  0.1263
 3595SOL    HW122418   3.085   3.696  12.518  0.4106 -0.2158  0.5669
 3595SOL    HW222419   2.966   3.621  12.567  2.8149 -0.0096  1.6638
 3596SOL     OW22420   0.883   0.027   6.404 -0.5796  0.0880 -0.5970
 3596SOL    HW122421   0.820   4.704   6.442 -0.2914 -0.0891 -0.4023
 3596SOL    HW222422   0.838   0.110   6.421 -1.1477  0.0429 -1.8638
 3597SOL     OW22423   1.068   0.376  11.536 -0.1981  0.5438 -0.4878
 3597SOL    HW122424   1.028   0.460  11.555  0.3026  1.0975 -1.8701
 3597SOL    HW222425   1.163   0.386  11.530 -0.0634  0.0037  0.7492
 3598SOL     OW22426   1.981   3.527   2.715  0.1715 -0.6192  0.6139
 3598SOL    HW122427   1.902   3.560   2.673  1.1941  2.7043  1.3207
 3598SOL    HW222428   2.050   3.589   2.694 -0.2069 -0.8246 -1.1901
 3599SOL     OW22429   1.264   4.551   8.922  0.0170 -0.2238  0.5496
 3599SOL    HW122430   1.338   4.605   8.950 -1.1403  1.1627  0.9315
 3599SOL    HW222431   1.248   4.501   9.002  2.0420 -1.6387  0.1035
 3600SOL     OW22432   3.355   4.173   3.238 -0.3266  0.2480 -0.4750
 3600SOL    HW122433   3.322   4.114   3.306  0.7344  1.4162  1.0439
 3600SOL    HW222434   3.446   4.145   3.248 -0.9586 -1.7972 -0.5255
 3601SOL     OW22435   2.441   2.438   2.746  0.3766 -0.5214  0.0943
 3601SOL    HW122436   2.440   2.461   2.653  0.2595 -2.7482 -0.4451
 3601SOL    HW222437   2.518   2.488   2.771 -0.8252  0.1546  2.4020
 3602SOL     OW22438   3.274   0.886   4.571  0.1522  0.1089 -0.1946
 3602SOL    HW122439   3.202   0.878   4.509  0.4639  0.6725 -0.6194
 3602SOL    HW222440   3.300   0.978   4.566 -2.5033  0.8642  0.2010
 3603SOL     OW22441   0.196   2.533   4.679 -0.3282  0.0013 -0.1295
 3603SOL    HW122442   0.193   2.438   4.681 -2.7209  0.0956  0.4625
 3603SOL    HW222443   0.290   2.541   4.661  0.0447 -0.8037  1.5410
 3604SOL     OW22444   2.078   0.313   3.152 -0.4475  0.0586 -0.1512
 3604SOL    HW122445   2.153   0.369   3.173 -0.8881  0.6830 -0.2638
 3604SOL    HW222446   2.087   0.240   3.214 -2.3569 -2.0074 -2.3063
 3605SOL     OW22447   2.907   1.832   8.541 -0.2074 -0.7537  0.4549
 3605SOL    HW122448   2.817   1.837   8.509  0.5285  1.3238 -1.3101
 3605SOL    HW222449   2.929   1.921   8.513 -0.3312 -1.0549 -0.5989
 3606SOL     OW22450   1.558   1.939  12.373 -0.4827 -0.2216  0.0365
 3606SOL    HW122451   1.576   1.846  12.359 -1.0091 -0.0435 -1.7443
 3606SOL    HW222452   1.514   1.963  12.291 -1.5511  0.9849  0.9582
 3607SOL     OW22453   1.875   2.495   7.664 -0.4531  0.3823  0.1436
 3607SOL    HW122454   1.853   2.439   7.738 -2.3985 -2.0743 -2.3112
 3607SOL    HW222455   1.941   2.550   7.706 -1.2286  1.1114  0.4280
 3608SOL     OW22456   1.338   2.678  17.594 -0.0796 -0.4261 -0.6606
 3608SOL    HW122457   1.386   2.740  17.538 -0.7376 -0.5654 -1.3704
 3608SOL    HW222458   1.380   2.700  17.677 -2.5233 -2.5050  1.1108
 3609SOL     OW22459   0.165   2.249   4.707  0.4475  0.5080  0.1326
 3609SOL    HW122460   0.188   2.167   4.751 -0.3912 -0.8954 -2.0559
 3609SOL    HW222461   0.093   2.273   4.764  0.9304 -0.4833  1.1587
 3610SOL     OW22462   1.184   0.634   7.387 -0.0385  0.0956  0.1340
 3610SOL    HW122463   1.118   0.619   7.319  1.1211 -0.6016 -0.8547
 3610SOL    HW222464   1.252   0.567   7.374  0.1126  0.3300 -0.3094
 3611SOL     OW22465   2.911   2.966  12.418 -0.2278 -0.0607 -0.4026
 3611SOL    HW122466   2.915   2.872  12.406 -2.0099 -0.2317  0.4128
 3611SOL    HW222467   2.857   2.955  12.496 -0.1580 -0.4139 -0.4043
 3612SOL     OW22468   0.461   1.655  14.388  0.0104  0.6776 -0.2005
 3612SOL    HW122469   0.480   1.603  14.309  3.1126  0.9507  0.3573
 3612SOL    HW222470   0.547   1.674  14.425 -0.6735  1.2831  1.0427
 3613SOL     OW22471   0.686   2.299   8.226 -0.3631  0.1115 -0.1793
 3613SOL    HW122472   0.690   2.320   8.132 -3.1131  2.6856  0.2649
 3613SOL    HW222473   0.688   2.204   8.222 -0.5584  0.0860  0.3521
 3614SOL     OW22474   3.700   4.224   8.353 -0.8560 -0.1220  0.3591
 3614SOL    HW122475   3.747   4.192   8.276 -1.6345 -0.9496  0.2300
 3614SOL    HW222476   3.652   4.147   8.384 -0.7100 -1.1487 -1.9092
 3615SOL     OW22477   4.215   4.660  17.078  0.1686  0.9267 -0.7499
 3615SOL    HW122478   4.302   4.656  17.118 -0.5664  0.4172  0.8002
 3615SOL    HW222479   4.204   0.016  17.076 -1.9427  0.6181 -3.3642
 3616SOL     OW22480   1.809   4.687   7.289 -0.2415  0.1573 -0.0654
 3616SOL    HW122481   1.870   4.674   7.361  0.7509 -3.4676 -1.5893
 3616SOL    HW222482   1.797   4.596   7.262  0.1879  0.3657 -0.9878
 3617SOL     OW22483   1.753   0.220  11.773 -0.2087 -0.3107 -0.5072
 3617SOL    HW122484   1.830   0.277  11.777  0.6848 -1.4488 -1.1804
 3617SOL    HW222485   1.788   0.157  11.709  0.1975  0.1039 -0.6983
 3618SOL     OW22486   3.233   1.398   9.941 -0.1987 -0.4372 -0.3536
 3618SOL    HW122487   3.304   1.398   9.876 -1.2624 -2.3216 -1.5064
 3618SOL    HW222488   3.209   1.490   9.934  2.0303  0.2015  0.1314
 3619SOL     OW22489   3.538   4.713   6.685  0.8345  0.3436  0.2031
 3619SOL    HW122490   3.601   4.738   6.752  0.8921  0.9335 -0.0617
 3619SOL    HW222491   3.587   4.730   6.604  0.7985  1.8445  0.4894
 3620SOL     OW22492   3.137   4.165  15.413  0.2074  0.1281 -0.5395
 3620SOL    HW122493   3.104   4.253  15.428 -2.2525 -1.2070  1.9215
 3620SOL    HW222494   3.203   4.158  15.482 -0.1487  1.2364 -0.0932
 3621SOL     OW22495   4.061   2.122   6.069  0.3727  0.2309 -0.0868
 3621SOL    HW122496   4.002   2.187   6.031  1.2230  1.3383  0.4790
 3621SOL    HW222497   4.087   2.079   5.987 -1.9424  1.5773 -1.5364
 3622SOL     OW22498   3.598   3.492   5.447 -0.7267  0.3292 -0.1893
 3622SOL    HW122499   3.581   3.422   5.510  1.4611  0.6765  0.7840
 3622SOL    HW222500   3.646   3.441   5.383 -0.1357  1.2144 -0.4421
 3623SOL     OW22501   0.640   1.940   5.222 -0.0492 -0.3336  0.2390
 3623SOL    HW122502   0.685   1.902   5.146 -0.5540  0.0316 -0.2487
 3623SOL    HW222503   0.664   1.880   5.292  1.2403  0.0534  0.1221
 3624SOL     OW22504   3.183   3.782   6.407 -0.3284  0.2032 -0.0395
 3624SOL    HW122505   3.180   3.738   6.492 -1.5524  2.2317  0.9500
 3624SOL    HW222506   3.095   3.760   6.377 -0.1189 -0.6353 -0.0598
 3625SOL     OW22507   1.731   4.609   3.137 -0.2470 -0.2506  0.4289
 3625SOL    HW122508   1.668   4.623   3.067  1.9291  3.3651 -0.7797
 3625SOL    HW222509   1.804   4.669   3.124 -0.1466 -0.2664  0.9012
 3626SOL     OW22510   1.768   0.819  10.600 -0.2653 -0.6475 -0.3711
 3626SOL    HW122511   1.833   0.877  10.639 -0.3137 -0.8471  0.0104
 3626SOL    HW222512   1.726   0.888  10.548  0.3498 -0.5080 -0.6831
 3627SOL     OW22513   1.157   4.251   5.906  0.1269 -0.7363 -0.0407
 3627SOL    HW122514   1.243   4.211   5.909  0.5444  0.0883 -1.4670
 3627SOL    HW222515   1.122   4.236   5.994  0.3333 -0.8886  0.0134
 3628SOL     OW22516   2.402   0.493   1.725 -0.1157  0.1520 -0.3784
 3628SOL    HW122517   2.473   0.542   1.683 -1.0964  0.7147 -1.3681
 3628SOL    HW222518   2.407   0.414   1.672 -0.1502  0.5299 -0.9512
 3629SOL     OW22519   4.138   1.695   8.440 -0.7213  0.2049 -0.0757
 3629SOL    HW122520   4.211   1.755   8.431 -1.1641  0.6941 -0.4487
 3629SOL    HW222521   4.157   1.652   8.357  2.4749  1.1387  0.2041
 3630SOL     OW22522   2.142   0.249   1.948  0.7965 -0.1920 -0.0035
 3630SOL    HW122523   2.194   0.173   1.925  0.8065  0.7844 -3.1972
 3630SOL    HW222524   2.202   0.319   1.974 -1.7037  2.4723 -1.3872
 3631SOL     OW22525   0.381   1.168  14.997  0.2677 -0.0038 -0.2183
 3631SOL    HW122526   0.356   1.259  14.978 -1.3024  0.0684  2.3101
 3631SOL    HW222527   0.474   1.184  14.982 -0.0130 -0.7420 -2.7308
 3632SOL     OW22528   2.563   4.539   4.042 -0.0403 -0.1823  0.0952
 3632SOL    HW122529   2.517   4.574   3.965  2.0733  2.1801 -0.0865
 3632SOL    HW222530   2.494   4.477   4.066 -0.4226  0.6930  1.2561
 3633SOL     OW22531   2.064   3.285  16.688 -0.1129 -0.3382 -0.1083
 3633SOL    HW122532   2.001   3.215  16.675  1.1505 -1.9194  2.3218
 3633SOL    HW222533   2.085   3.310  16.598 -0.7945  1.9126  0.3634
 3634SOL     OW22534   3.207   4.510   7.750  0.1171  0.1916  0.1872
 3634SOL    HW122535   3.219   4.458   7.670  3.1438  1.7719 -0.3885
 3634SOL    HW222536   3.128   4.557   7.722  1.4575  1.6102 -1.2020
 3635SOL     OW22537   1.996   1.460   1.086 -0.2201 -0.5996  0.6715
 3635SOL    HW122538   1.992   1.547   1.046  2.6357  0.2177  2.0740
 3635SOL    HW222539   1.952   1.403   1.023  0.1550 -0.7392  0.5364
 3636SOL     OW22540   1.821   0.428   7.474  0.0859  0.2635  1.0088
 3636SOL    HW122541   1.735   0.409   7.510 -0.3983 -2.5968 -1.6131
 3636SOL    HW222542   1.876   0.386   7.540  0.6946  0.9744  0.9565
 3637SOL     OW22543   0.918   0.834   8.190  0.1907  0.1333  0.1842
 3637SOL    HW122544   0.859   0.864   8.121  0.3642  0.6156  0.2484
 3637SOL    HW222545   0.988   0.786   8.145  0.5163  0.2128  0.6037
 3638SOL     OW22546   4.375   0.372   5.185  0.2648 -0.1072 -0.2961
 3638SOL    HW122547   4.331   0.429   5.248 -1.0722  0.7269 -1.9880
 3638SOL    HW222548   4.333   0.409   5.107 -0.0629 -2.1942 -1.1118
 3639SOL     OW22549   2.624   2.081   9.362  0.1092  0.4126 -0.2084
 3639SOL    HW122550   2.703   2.072   9.415  0.3973 -0.6965 -0.8384
 3639SOL    HW222551   2.572   2.134   9.423 -0.4320 -1.5161  0.9854
 3640SOL     OW22552   0.831   3.067  10.890  0.0409 -0.0584  0.4988
 3640SOL    HW122553   0.910   3.098  10.932 -0.3753 -0.2719  1.4314
 3640SOL    HW222554   0.769   3.100  10.955  0.4684 -0.9979  1.3857
 3641SOL     OW22555   1.897   3.840   0.327  0.6819 -0.7391 -0.5160
 3641SOL    HW122556   1.915   3.913   0.386  0.4996 -0.5007 -0.7599
 3641SOL    HW222557   1.939   3.878   0.250  0.2284  0.6907 -0.0462
 3642SOL     OW22558   0.658   0.182  14.734  0.1801 -0.5067  0.1967
 3642SOL    HW122559   0.696   0.145  14.655  0.6423  0.4161 -0.0213
 3642SOL    HW222560   0.660   0.273  14.703  1.0185 -0.1742  1.2042
 3643SOL     OW22561   0.769   3.396   7.142  0.4244  0.1474  0.4344
 3643SOL    HW122562   0.709   3.396   7.216  0.0890  0.9446  0.1608
 3643SOL    HW222563   0.775   3.303   7.118 -2.6544  0.2468 -0.6914
 3644SOL     OW22564   2.895   3.463   5.931 -0.2548  0.3268 -0.2407
 3644SOL    HW122565   2.831   3.440   5.998 -1.5889 -0.6474 -1.8679
 3644SOL    HW222566   2.877   3.555   5.913  1.0622  0.5410 -0.4984
 3645SOL     OW22567   3.561   3.278   5.051 -0.5368  0.2494  0.6363
 3645SOL    HW122568   3.478   3.325   5.048 -0.1674  0.8124 -0.5873
 3645SOL    HW222569   3.530   3.198   5.093 -1.1962 -0.3221 -0.9255
 3646SOL     OW22570   3.320   3.961   5.096 -0.2526  0.1472 -0.0703
 3646SOL    HW122571   3.379   3.932   5.166  2.1303 -0.0489 -2.1235
 3646SOL    HW222572   3.327   3.894   5.028  1.8742  0.0513  0.2254
 3647SOL     OW22573   4.139   0.521  12.872  0.2171 -0.1058 -0.1782
 3647SOL    HW122574   4.072   0.527  12.804 -3.1070  1.5596  3.2526
 3647SOL    HW222575   4.176   0.433  12.866 -0.2858 -0.4051  1.2017
 3648SOL     OW22576   2.073   0.435  13.979  0.2540 -0.1067 -0.3097
 3648SOL    HW122577   2.139   0.452  13.911 -0.7438 -0.1031 -1.2651
 3648SOL    HW222578   2.032   0.356  13.947  1.0462  0.4949 -2.7781
 3649SOL     OW22579   2.808   3.775   2.059 -0.0114 -0.1631 -0.4385
 3649SOL    HW122580   2.873   3.834   2.095 -0.7104  0.3413  0.0053
 3649SOL    HW222581   2.811   3.807   1.969 -0.8097 -0.7158 -0.6661
 3650SOL     OW22582   1.850   0.767  15.623 -0.2924  0.1456 -0.6651
 3650SOL    HW122583   1.881   0.784  15.712 -0.7918 -3.2057  0.1668
 3650SOL    HW222584   1.915   0.815  15.573  0.7197  0.2509  0.7420
 3651SOL     OW22585   0.619   2.484   4.079 -0.0235 -0.2792 -0.7897
 3651SOL    HW122586   0.611   2.416   4.012 -0.1284 -0.2391 -0.8182
 3651SOL    HW222587   0.659   2.430   4.146  2.3097  1.7085 -0.5953
 3652SOL     OW22588   0.546   0.050   6.711  0.1347 -0.3645  0.6864
 3652SOL    HW122589   0.599   4.710   6.699 -0.3825 -0.6889  0.5722
 3652SOL    HW222590   0.569   0.096   6.630 -0.0725 -0.6583  0.4635
 3653SOL     OW22591   1.067   1.480   3.085  0.0316 -0.1621 -0.6025
 3653SOL    HW122592   0.972   1.472   3.084 -0.0669  0.8903  0.8749
 3653SOL    HW222593   1.065   1.572   3.108 -1.5449 -0.5088  0.7043
 3654SOL     OW22594   0.261   0.678   2.181  0.0189  0.4169 -0.0483
 3654SOL    HW122595   0.323   0.652   2.249 -0.6201 -1.3071 -0.1223
 3654SOL    HW222596   0.197   0.607   2.174  1.2160 -0.9106  2.5030
 3655SOL     OW22597   0.769   3.997   2.027 -0.0158 -0.0261  0.3821
 3655SOL    HW122598   0.795   3.916   1.983  0.3384 -0.4124  1.3087
 3655SOL    HW222599   0.820   3.996   2.108 -1.4281  0.4898  1.2711
 3656SOL     OW22600   3.557   0.988  15.181 -0.4256  0.5912  0.1806
 3656SOL    HW122601   3.535   0.992  15.274 -0.4608  1.7463  0.1285
 3656SOL    HW222602   3.563   0.895  15.160 -1.3903  0.4495  0.5512
 3657SOL     OW22603   2.569   0.334   2.683 -0.1678 -0.4112 -0.3107
 3657SOL    HW122604   2.499   0.303   2.626  0.8793 -1.3471 -1.0777
 3657SOL    HW222605   2.603   0.395   2.617 -0.3304  0.6280  0.5492
 3658SOL     OW22606   1.025   0.906   7.220  0.4822  0.3273  0.3173
 3658SOL    HW122607   1.020   0.947   7.134 -1.3025 -2.7679 -1.0249
 3658SOL    HW222608   0.965   0.834   7.201  0.0878  0.0425  2.6457
 3659SOL     OW22609   2.416   1.947  15.243 -0.1704  0.0978 -0.8020
 3659SOL    HW122610   2.345   1.902  15.289 -1.5566  0.1711 -2.8939
 3659SOL    HW222611   2.400   2.040  15.262 -0.5125 -0.1449  0.1383
 3660SOL     OW22612   3.913   0.621   9.080 -0.1904  0.5215 -0.0195
 3660SOL    HW122613   3.986   0.590   9.133 -2.0843 -2.4080  0.8636
 3660SOL    HW222614   3.845   0.610   9.147 -0.2846  1.1746 -0.0072
 3661SOL     OW22615   3.139   4.282   3.883 -0.2955  0.0235  0.8414
 3661SOL    HW122616   3.173   4.353   3.828 -2.4340  0.3851  0.0032
 3661SOL    HW222617   3.081   4.321   3.949 -3.8753 -0.9022 -1.7759
 3662SOL     OW22618   0.231   2.594   4.152  0.1517  0.0628 -0.1780
 3662SOL    HW122619   0.143   2.557   4.153 -0.1134  0.7240  1.1544
 3662SOL    HW222620   0.253   2.589   4.059  1.3203 -1.8552  0.2166
 3663SOL     OW22621   1.750   3.348   8.308  0.1545 -0.2932  0.3618
 3663SOL    HW122622   1.778   3.420   8.364  2.2437 -0.4250 -0.5080
 3663SOL    HW222623   1.833   3.300   8.304 -0.1216 -0.6967 -0.7043
 3664SOL     OW22624   3.739   1.435   7.829 -0.2028  0.4129 -0.3749
 3664SOL    HW122625   3.749   1.488   7.908  1.8539  2.2522 -1.8680
 3664SOL    HW222626   3.795   1.361   7.854 -1.7880  0.9064  4.6462
 3665SOL     OW22627   0.354   0.632   3.736  0.0458  0.0099 -0.6518
 3665SOL    HW122628   0.287   0.596   3.795  0.5444 -0.4458 -0.3604
 3665SOL    HW222629   0.322   0.721   3.749  1.3222  0.4287 -0.4028
 3666SOL     OW22630   1.468   1.189  12.701  0.3396  0.0471  0.4312
 3666SOL    HW122631   1.375   1.174  12.688  0.5706  0.7711 -2.1137
 3666SOL    HW222632   1.502   1.137  12.629 -0.9617 -0.4954  0.2164
 3667SOL     OW22633   1.861   1.651   6.606 -0.2713  0.4357  0.0550
 3667SOL    HW122634   1.949   1.669   6.640 -0.3944  0.9770  0.0846
 3667SOL    HW222635   1.805   1.662   6.682 -1.2255  2.2462 -0.9137
 3668SOL     OW22636   0.568   1.353   5.204  0.5829 -0.3781 -0.2179
 3668SOL    HW122637   0.656   1.346   5.168  0.5325  0.4291 -0.4883
 3668SOL    HW222638   0.519   1.351   5.121 -0.6672  2.1111  0.4612
 3669SOL     OW22639   0.695   1.980   9.366  0.1851  0.2827 -0.4998
 3669SOL    HW122640   0.759   1.949   9.302  0.6109 -4.1382  2.0658
 3669SOL    HW222641   0.651   1.896   9.381  0.8128  0.1763  0.7641
 3670SOL     OW22642   0.389   2.767   5.181  0.7899  0.0510  0.1005
 3670SOL    HW122643   0.354   2.846   5.140 -0.3898 -0.8190 -0.5321
 3670SOL    HW222644   0.468   2.801   5.225  1.4372 -1.3918  0.0408
 3671SOL     OW22645   2.850   2.035   9.562  0.5435  0.5937 -0.0702
 3671SOL    HW122646   2.882   1.945   9.551  1.1101  0.8181 -0.2577
 3671SOL    HW222647   2.810   2.031   9.649 -0.6990  1.4555 -0.6021
 3672SOL     OW22648   3.783   3.512   4.294 -0.7612  0.2189  0.1068
 3672SOL    HW122649   3.693   3.485   4.310 -1.3498  1.1164 -1.6257
 3672SOL    HW222650   3.815   3.455   4.224 -0.5064  1.3760 -0.7305
 3673SOL     OW22651   2.878   1.382   5.611 -0.3914 -0.1137  0.2194
 3673SOL    HW122652   2.799   1.437   5.619  0.5559  1.0194  1.7327
 3673SOL    HW222653   2.844   1.299   5.643  1.9162  0.2035  3.4382
 3674SOL     OW22654   0.951   2.236   9.091  0.0165  0.4703 -0.4811
 3674SOL    HW122655   0.946   2.330   9.073 -1.4429  0.6229  0.7921
 3674SOL    HW222656   0.866   2.210   9.056  1.0682 -2.1769 -1.0785
 3675SOL     OW22657   3.441   0.305  13.265 -0.0341 -0.0037  0.6623
 3675SOL    HW122658   3.476   0.284  13.352 -0.7037 -1.3270  0.5956
 3675SOL    HW222659   3.509   0.370  13.247  0.6903 -0.0097  3.3475
 3676SOL     OW22660   2.851   1.331   2.150  0.0768 -0.3982 -0.1027
 3676SOL    HW122661   2.937   1.304   2.118  1.3770  1.0443  2.2440
 3676SOL    HW222662   2.803   1.262   2.103 -0.2679 -0.0212 -0.3054
 3677SOL     OW22663   2.753   3.259   8.669 -0.0983 -0.6355  0.7231
 3677SOL    HW122664   2.699   3.186   8.641 -0.1618 -0.2278 -0.2377
 3677SOL    HW222665   2.746   3.326   8.601  0.7777  0.2901  1.5302
 3678SOL     OW22666   0.901   3.896   6.916  0.8561 -0.0808  0.8820
 3678SOL    HW122667   0.883   3.819   6.970  2.3876 -0.6461  0.5791
 3678SOL    HW222668   0.920   3.970   6.974 -3.2767  2.1339 -0.5741
 3679SOL     OW22669   1.444   2.446   9.980 -0.2582 -0.5508  0.1678
 3679SOL    HW122670   1.352   2.420   9.992 -0.5190  0.7000  0.9009
 3679SOL    HW222671   1.429   2.539   9.999 -1.7703 -0.6371 -0.5377
 3680SOL     OW22672   2.097   4.001  17.166  0.2276 -0.5000 -0.1604
 3680SOL    HW122673   2.143   3.955  17.095  0.1367  1.9923 -1.8372
 3680SOL    HW222674   2.167   4.046  17.213  2.1514 -1.8720 -1.7192
 3681SOL     OW22675   4.167   3.944   3.977 -0.2624 -0.1140  0.7566
 3681SOL    HW122676   4.106   4.017   3.967  0.4122  0.1002 -1.7924
 3681SOL    HW222677   4.105   3.891   4.026 -2.0746  0.4268 -0.9473
 3682SOL     OW22678   4.564   0.972   6.776 -0.0658  0.1990 -0.9771
 3682SOL    HW122679   4.612   1.049   6.808 -0.8298  0.0447  0.5817
 3682SOL    HW222680   4.534   1.004   6.691 -2.5600 -0.2010 -0.2450
 3683SOL     OW22681   0.785   2.692   2.225 -0.2158 -0.1069  0.1767
 3683SOL    HW122682   0.800   2.667   2.134  1.9889 -0.6637  0.6967
 3683SOL    HW222683   0.797   2.786   2.216 -1.7431 -0.1617 -2.3919
 3684SOL     OW22684   0.336   1.709   2.553 -0.6128 -0.6047 -0.0725
 3684SOL    HW122685   0.274   1.673   2.490 -1.0965 -2.8364  1.6787
 3684SOL    HW222686   0.275   1.747   2.617  0.4237  0.0285  0.5396
 3685SOL     OW22687   2.206   0.457  12.899 -0.3581  0.0387 -0.9469
 3685SOL    HW122688   2.177   0.540  12.937  0.3381 -0.2589  0.2651
 3685SOL    HW222689   2.261   0.483  12.825 -0.2854 -1.8058 -1.5368
 3686SOL     OW22690   3.818   1.190   4.151 -0.1140  0.3962  0.2398
 3686SOL    HW122691   3.878   1.239   4.095 -0.9073  2.4234  1.1364
 3686SOL    HW222692   3.864   1.191   4.235  1.4951  0.1735 -0.6398
 3687SOL     OW22693   1.687   2.869   3.322 -0.3217  0.2214 -0.3319
 3687SOL    HW122694   1.761   2.824   3.363  2.5567  0.8445 -4.8598
 3687SOL    HW222695   1.624   2.798   3.322 -1.5696  1.3453 -1.2259
 3688SOL     OW22696   2.397   1.827   1.656  0.9731  0.2956 -0.6203
 3688SOL    HW122697   2.391   1.772   1.734 -0.2941 -0.7339 -1.4491
 3688SOL    HW222698   2.419   1.750   1.604  0.5637 -0.3214  0.1193
 3689SOL     OW22699   2.512   0.532   8.866  0.3963  0.1179  0.0440
 3689SOL    HW122700   2.450   0.536   8.939  1.7620  1.0939  1.1531
 3689SOL    HW222701   2.589   0.524   8.923 -1.8298 -0.5449  2.9724
 3690SOL     OW22702   4.559   0.344   6.669 -0.1956  0.5754  0.1112
 3690SOL    HW122703   4.515   0.362   6.585  0.4587 -2.1180 -0.8225
 3690SOL    HW222704   4.628   0.409   6.680  0.6522 -0.2954 -0.0928
 3691SOL     OW22705   4.016   3.336  13.535  0.1922 -0.1086  0.2477
 3691SOL    HW122706   4.058   3.421  13.549  1.7300 -0.5578 -1.6885
 3691SOL    HW222707   3.968   3.336  13.453  1.1016  2.9465 -0.2685
 3692SOL     OW22708   0.585   2.240   4.295  0.1541 -0.2308 -0.3225
 3692SOL    HW122709   0.576   2.219   4.388  2.8655  0.0991  0.0294
 3692SOL    HW222710   0.522   2.311   4.298  0.8397  0.3541  0.3138
 3693SOL     OW22711   1.482   3.516   4.431  0.0389 -0.0636 -0.2059
 3693SOL    HW122712   1.400   3.557   4.403 -0.2044  0.6130  1.4935
 3693SOL    HW222713   1.485   3.534   4.525  0.4078 -2.8268  0.3315
 3694SOL     OW22714   0.574   0.070   1.204  0.7466  0.4833 -0.1906
 3694SOL    HW122715   0.547   0.050   1.114 -0.5709 -2.0867  0.7630
 3694SOL    HW222716   0.535   0.156   1.210 -1.0893 -0.2998 -0.9397
 3695SOL     OW22717   1.828   3.395   7.845 -0.2817 -0.6673 -0.6937
 3695SOL    HW122718   1.804   3.457   7.914  1.6568 -0.5727 -0.0900
 3695SOL    HW222719   1.923   3.394   7.858 -0.0495 -0.3198 -2.3754
 3696SOL     OW22720   1.878   1.667   6.070 -0.5097  0.1247 -0.4513
 3696SOL    HW122721   1.861   1.759   6.049 -0.3965 -0.3757 -2.7074
 3696SOL    HW222722   1.821   1.648   6.144 -0.9718  0.9598 -0.5938
 3697SOL     OW22723   2.610   1.404   6.230 -0.2403 -0.3986 -0.0550
 3697SOL    HW122724   2.684   1.447   6.273 -0.8245  0.5070  0.0346
 3697SOL    HW222725   2.533   1.443   6.271 -1.1974 -0.5881 -1.6451
 3698SOL     OW22726   4.189   1.390   3.553 -0.0149 -0.1577  0.3281
 3698SOL    HW122727   4.155   1.471   3.592 -0.0165  0.1758 -0.3729
 3698SOL    HW222728   4.257   1.366   3.617  0.5733 -0.4999 -0.4244
 3699SOL     OW22729   4.251   1.435   5.139 -0.1139  0.6241 -0.5915
 3699SOL    HW122730   4.213   1.385   5.067  2.9096 -0.5193 -1.3934
 3699SOL    HW222731   4.343   1.438   5.115  0.3810  2.9401  1.6097
 3700SOL     OW22732   0.913   0.084   8.872 -0.2207  0.6246 -0.1244
 3700SOL    HW122733   0.960   0.066   8.791 -0.8224  1.6862 -0.7055
 3700SOL    HW222734   0.902   4.735   8.909  0.4598  0.8532  0.6150
 3701SOL     OW22735   3.588   2.052   7.171 -0.0814  0.3056 -0.1990
 3701SOL    HW122736   3.627   1.984   7.226 -0.3728  0.4400  0.1728
 3701SOL    HW222737   3.662   2.065   7.112  0.3102 -2.0480 -0.2284
 3702SOL     OW22738   0.831   0.292   4.361  0.2817  0.3073 -0.6014
 3702SOL    HW122739   0.775   0.220   4.331 -1.9617  1.4743  0.8066
 3702SOL    HW222740   0.783   0.367   4.327 -0.1441  1.1034  1.8202
 3703SOL     OW22741   0.437   3.906  11.271  0.1105  0.2183 -0.0276
 3703SOL    HW122742   0.376   3.842  11.235  0.5648 -0.2407  0.0155
 3703SOL    HW222743   0.521   3.860  11.262  0.8705  1.4295  0.8638
 3704SOL     OW22744   1.057   4.171  14.757  0.5517 -0.0269  0.0606
 3704SOL    HW122745   1.058   4.099  14.820  1.1089 -0.0508  0.0267
 3704SOL    HW222746   1.096   4.119  14.688  2.3315  1.1807  0.1429
 3705SOL     OW22747   3.836   1.782   8.244  0.1613  0.0609  0.2431
 3705SOL    HW122748   3.845   1.870   8.282  0.0280  0.5284 -0.8152
 3705SOL    HW222749   3.920   1.744   8.267 -0.2102 -0.6495  0.4451
 3706SOL     OW22750   0.669   2.214  17.536  0.1495 -0.3948 -0.1640
 3706SOL    HW122751   0.752   2.245  17.502  1.0268  1.6988  3.9110
 3706SOL    HW222752   0.699   2.138  17.584  1.8897  0.0633 -0.5327
 3707SOL     OW22753   2.562   4.701  16.395 -0.3769 -0.7312 -0.1860
 3707SOL    HW122754   2.575   4.730  16.304  1.6980 -1.6699 -0.1912
 3707SOL    HW222755   2.637   0.004  16.437  0.1616 -2.1967  0.2829
 3708SOL     OW22756   1.551   2.863   6.768  0.2707  0.3306  0.1318
 3708SOL    HW122757   1.507   2.813   6.837 -1.8500  0.9877 -0.7719
 3708SOL    HW222758   1.561   2.944   6.818  1.0033 -0.0397  0.5870
 3709SOL     OW22759   0.757   3.460   4.913 -0.0042  0.7655 -0.3863
 3709SOL    HW122760   0.830   3.517   4.890  0.6245 -0.3747 -1.1885
 3709SOL    HW222761   0.787   3.421   4.995  0.9428 -1.6528 -1.9030
 3710SOL     OW22762   2.722   1.122  13.882 -0.3334  0.2968 -0.1347
 3710SOL    HW122763   2.795   1.183  13.877  0.3551 -0.6403 -1.2814
 3710SOL    HW222764   2.654   1.171  13.836  0.9497  1.0103 -1.2494
 3711SOL     OW22765   1.073   4.352  12.286  0.0170 -0.7856  0.0284
 3711SOL    HW122766   1.143   4.293  12.260  0.1629 -1.2975  1.5473
 3711SOL    HW222767   1.005   4.295  12.323 -1.1108 -0.1297 -1.0230
 3712SOL     OW22768   2.388   0.705   6.307 -0.3936  0.2814  0.0746
 3712SOL    HW122769   2.471   0.663   6.324 -0.2110  0.3725 -0.5749
 3712SOL    HW222770   2.411   0.798   6.315  1.2707 -0.0776 -0.6530
 3713SOL     OW22771   3.680   1.911   4.739  0.2324  0.0653  0.0601
 3713SOL    HW122772   3.679   1.952   4.825  1.3577  2.6850 -1.1669
 3713SOL    HW222773   3.645   1.983   4.686  0.4501 -0.3585 -0.6637
 3714SOL     OW22774   0.690   0.162   8.407  0.1439 -0.3934  0.1749
 3714SOL    HW122775   0.687   0.256   8.422 -0.7302 -0.2331 -1.0789
 3714SOL    HW222776   0.784   0.144   8.398  0.5274  0.7357  1.8090
 3715SOL     OW22777   3.816   0.968   2.006  0.3752 -0.3365  0.2666
 3715SOL    HW122778   3.774   0.921   1.934  3.4883  0.6766 -2.2128
 3715SOL    HW222779   3.819   1.057   1.970  1.9637 -0.9333 -1.0419
 3716SOL     OW22780   2.059   2.536  11.494 -0.1943  0.2056 -0.3319
 3716SOL    HW122781   2.037   2.603  11.559  0.4071 -1.5586  1.6983
 3716SOL    HW222782   2.148   2.566  11.473 -0.4004  1.9974  1.4255
 3717SOL     OW22783   1.458   3.978  10.180 -0.5101 -0.0591  0.0868
 3717SOL    HW122784   1.458   4.014  10.269  1.8082 -1.3662  0.6173
 3717SOL    HW222785   1.531   3.916  10.185  0.5267  0.9912 -2.0812
 3718SOL     OW22786   2.726   2.816   5.994  0.4428  0.1150  0.5801
 3718SOL    HW122787   2.750   2.771   6.075  1.5410 -1.6824 -0.7541
 3718SOL    HW222788   2.641   2.854   6.017  0.1200 -0.1380 -0.2000
 3719SOL     OW22789   0.835   2.378   6.863  0.0303  0.1587 -0.1086
 3719SOL    HW122790   0.869   2.317   6.928  2.4516  1.6294  0.0183
 3719SOL    HW222791   0.833   2.324   6.784 -1.6643  1.2493 -0.8155
 3720SOL     OW22792   2.634   1.848   8.468  0.1394 -0.5094 -0.4315
 3720SOL    HW122793   2.555   1.801   8.495  0.4468 -0.1995  1.0045
 3720SOL    HW222794   2.660   1.804   8.387  0.2941  1.3531 -1.3715
 3721SOL     OW22795   2.284   3.518   2.056  0.1463 -1.0840 -0.0229
 3721SOL    HW122796   2.371   3.554   2.069 -0.1933 -0.2326 -0.1333
 3721SOL    HW222797   2.301   3.442   2.000  0.0979 -0.5810 -0.7209
 3722SOL     OW22798   1.312   1.372  10.750 -0.2644 -0.3366 -0.3246
 3722SOL    HW122799   1.368   1.433  10.799  0.7714 -1.2109 -0.4281
 3722SOL    HW222800   1.303   1.299  10.811 -0.5353 -0.9742 -1.1314
 3723SOL     OW22801   1.819   2.279   0.055 -0.0724 -0.4023  0.2570
 3723SOL    HW122802   1.907   2.242   0.059  0.7769  1.5632 -0.2351
 3723SOL    HW222803   1.817   2.331  17.728 -0.0719  0.3147  0.7157
 3724SOL     OW22804   3.429   2.570   4.615 -0.1945  0.0193 -0.2341
 3724SOL    HW122805   3.516   2.576   4.574  0.2143  1.3392  0.8199
 3724SOL    HW222806   3.397   2.658   4.598  1.0047  0.5796  0.3633
 3725SOL     OW22807   4.232   1.108   7.072 -0.0066 -0.3980 -0.2418
 3725SOL    HW122808   4.322   1.130   7.050 -0.3505 -1.2102 -2.4603
 3725SOL    HW222809   4.251   1.019   7.100 -0.4563  0.2920  2.1910
 3726SOL     OW22810   3.623   2.562   8.543 -0.7677  0.3264 -0.3058
 3726SOL    HW122811   3.682   2.565   8.618 -0.8563 -0.8906 -0.1865
 3726SOL    HW222812   3.536   2.557   8.584  0.4448  0.7739  2.3118
 3727SOL     OW22813   1.056   2.899  15.863 -0.0592  0.4762  0.0812
 3727SOL    HW122814   0.966   2.910  15.892  0.8741 -1.7887  3.8710
 3727SOL    HW222815   1.054   2.956  15.787 -2.6151 -2.5940 -2.1677
 3728SOL     OW22816   3.019   2.204   2.533  0.1915  0.5828  0.1148
 3728SOL    HW122817   3.090   2.214   2.596 -1.1880  1.1358  1.5849
 3728SOL    HW222818   2.956   2.269   2.563  1.6157  0.6359  2.9688
 3729SOL     OW22819   3.106   2.372   5.323 -0.0763 -0.3357 -0.5983
 3729SOL    HW122820   3.194   2.401   5.300  1.2635 -0.9315  3.7691
 3729SOL    HW222821   3.111   2.344   5.414  0.3148  1.6749 -0.0102
 3730SOL     OW22822   0.257   1.984  17.236  0.1954 -0.1499  0.1978
 3730SOL    HW122823   0.266   2.017  17.146  0.5169 -1.9859 -0.4379
 3730SOL    HW222824   0.179   2.034  17.262 -2.1532 -2.7640 -1.7763
 3731SOL     OW22825   1.026   1.997  17.428  0.0300 -0.2029  0.1695
 3731SOL    HW122826   0.958   1.978  17.364  1.1939  0.4177 -1.2455
 3731SOL    HW222827   0.974   1.989  17.508 -2.0094  1.3528 -1.0088
 3732SOL     OW22828   2.944   0.162   9.141  0.0604 -0.2442  0.1985
 3732SOL    HW122829   3.015   0.107   9.108 -1.3100 -2.5625  1.0549
 3732SOL    HW222830   2.984   0.182   9.226  1.0308  0.9959 -0.5524
 3733SOL     OW22831   0.832   2.442   8.426  0.3180  0.1093  0.6077
 3733SOL    HW122832   0.805   2.383   8.356  0.1008 -0.2685  1.0070
 3733SOL    HW222833   0.821   2.526   8.382  1.3571 -0.0695  0.0237
 3734SOL     OW22834   0.025   4.715   0.496  0.3308  0.2252 -0.1420
 3734SOL    HW122835   0.036   4.707   0.591  3.6921  1.3887 -0.4162
 3734SOL    HW222836   4.670   4.734   0.493  0.0559 -0.9673  0.7551
 3735SOL     OW22837   2.585   1.421  17.042  0.6095  0.8032 -0.1569
 3735SOL    HW122838   2.490   1.422  17.037  0.7471 -0.2459 -2.9013
 3735SOL    HW222839   2.605   1.371  17.121 -2.2223 -1.0408 -0.6379
 3736SOL     OW22840   1.993   1.581   7.744  0.5534 -0.6118 -0.2384
 3736SOL    HW122841   2.051   1.578   7.820 -1.9997  0.9537  1.8031
 3736SOL    HW222842   2.002   1.487   7.730 -2.9432 -1.0799  0.5749
 3737SOL     OW22843   3.239   4.031  13.413 -0.2596  0.2719 -0.8405
 3737SOL    HW122844   3.217   4.017  13.321 -0.7965  1.0078 -0.8252
 3737SOL    HW222845   3.168   3.987  13.459  0.0084  2.5964  1.8191
 3738SOL     OW22846   4.388   0.885  11.361 -0.3619 -0.2741  0.1195
 3738SOL    HW122847   4.336   0.845  11.292 -0.1278 -0.6592  0.1660
 3738SOL    HW222848   4.454   0.937  11.314 -1.6896  0.8207 -0.5349
 3739SOL     OW22849   4.446   4.256   2.859  0.5793  0.2077 -0.6749
 3739SOL    HW122850   4.481   4.212   2.781  0.6106  0.2394 -0.6786
 3739SOL    HW222851   4.359   4.216   2.856 -0.2113  1.9216 -0.1360
 3740SOL     OW22852   4.213   1.136   8.872  0.7439 -0.7874  0.0124
 3740SOL    HW122853   4.169   1.201   8.927  0.2649 -1.1136  0.0201
 3740SOL    HW222854   4.200   1.055   8.923 -0.9812  0.0727  0.9365
 3741SOL     OW22855   2.425   3.738   8.905 -0.5273  0.1902 -0.2566
 3741SOL    HW122856   2.517   3.750   8.926 -0.2536  0.6017 -1.6693
 3741SOL    HW222857   2.418   3.643   8.909 -0.8008  0.2813  1.2543
 3742SOL     OW22858   4.610   2.180  17.518  0.1853 -0.0724 -0.4932
 3742SOL    HW122859   4.581   2.106  17.572 -0.3621 -0.7669 -1.7498
 3742SOL    HW222860   4.533   2.235  17.507 -1.9958 -3.5146 -2.1751
 3743SOL     OW22861   3.631   2.201  12.004  0.1781  0.4656 -0.5723
 3743SOL    HW122862   3.697   2.179  12.069 -0.0448  1.0662 -0.1325
 3743SOL    HW222863   3.615   2.293  12.028 -2.6159 -0.4210  0.9695
 3744SOL     OW22864   2.732   1.388   4.319 -0.1870 -0.0297  0.3646
 3744SOL    HW122865   2.654   1.344   4.286  0.9805 -1.8421  0.0006
 3744SOL    HW222866   2.693   1.433   4.394  2.8057  0.5050  1.6052
 3745SOL     OW22867   1.277   3.213   2.076 -0.0420  0.2565  0.2457
 3745SOL    HW122868   1.342   3.255   2.132  0.2581 -0.0212  0.1051
 3745SOL    HW222869   1.303   3.243   1.988 -0.5235 -0.0279  0.0051
 3746SOL     OW22870   4.537   4.083  10.013 -0.1168  0.5394  0.2281
 3746SOL    HW122871   4.573   4.018  10.074  0.4332  1.5582  0.9805
 3746SOL    HW222872   4.612   4.086   9.953  0.0281 -0.1382  0.3678
 3747SOL     OW22873   0.919   0.753   3.634  0.0691  0.4496 -0.6640
 3747SOL    HW122874   0.856   0.711   3.574  0.0044 -0.7252  0.2247
 3747SOL    HW222875   1.003   0.714   3.608 -0.2155  0.8040 -2.1543
 3748SOL     OW22876   0.923   0.745   2.032 -0.3195 -0.1866 -0.5916
 3748SOL    HW122877   1.015   0.734   2.055 -1.2739 -1.1450  2.6709
 3748SOL    HW222878   0.923   0.809   1.960 -0.5832  2.0407  1.4097
 3749SOL     OW22879   3.235   0.725   2.477 -0.0018  0.0685  0.2623
 3749SOL    HW122880   3.317   0.691   2.513  0.3680  1.0499  0.3561
 3749SOL    HW222881   3.237   0.819   2.492  2.1985  0.4590 -2.5281
 3750SOL     OW22882   2.513   2.261  17.557 -0.0185 -0.2806  0.4438
 3750SOL    HW122883   2.501   2.285  17.465  0.4038 -0.1994  0.4061
 3750SOL    HW222884   2.594   2.209  17.559  0.6602  0.8047  1.3914
 3751SOL     OW22885   0.867   1.874   1.305 -0.4109 -0.5663 -0.3107
 3751SOL    HW122886   0.827   1.953   1.340  0.9992  0.3115 -0.6463
 3751SOL    HW222887   0.840   1.805   1.365  1.9736 -2.0658 -0.9714
 3752SOL     OW22888   3.986   2.957   2.870  0.0420  0.2109  0.2164
 3752SOL    HW122889   4.015   3.023   2.807  2.3315 -1.7821 -0.8127
 3752SOL    HW222890   3.909   2.999   2.909  1.5972  2.8600  0.4025
 3753SOL     OW22891   1.784   0.424  15.793  0.2826 -0.2109  0.4596
 3753SOL    HW122892   1.771   0.487  15.864 -2.0382  0.2867 -0.4137
 3753SOL    HW222893   1.724   0.354  15.821  0.4213 -1.1117 -1.5328
 3754SOL     OW22894   0.123   4.475  10.677  0.1048  0.1730 -0.3251
 3754SOL    HW122895   0.095   4.472  10.768 -1.5096 -1.6005 -0.8737
 3754SOL    HW222896   0.145   4.384  10.656 -1.3386 -0.5973  1.5242
 3755SOL     OW22897   1.492   0.097   7.936 -0.4031  0.6615  0.1062
 3755SOL    HW122898   1.507   0.025   7.998  1.1518 -0.0017 -1.0264
 3755SOL    HW222899   1.568   0.155   7.947  1.1371 -1.0431 -1.6535
 3756SOL     OW22900   4.318   1.775  14.961 -0.3466  0.3740 -0.3521
 3756SOL    HW122901   4.260   1.769  15.037 -1.8721 -0.3629 -1.5992
 3756SOL    HW222902   4.260   1.790  14.887  0.7214  2.0130 -0.8467
 3757SOL     OW22903   2.348   1.200   7.260  0.0815  0.0400 -0.1454
 3757SOL    HW122904   2.335   1.120   7.209 -1.4065 -0.3939  0.9255
 3757SOL    HW222905   2.263   1.213   7.301  1.1651  0.4685  1.9610
 3758SOL     OW22906   2.327   2.122   8.448  1.3336 -0.1577 -0.3801
 3758SOL    HW122907   2.277   2.056   8.399  2.1441  0.5394 -2.1594
 3758SOL    HW222908   2.296   2.091   8.533 -0.7458  2.9437 -0.0119
 3759SOL     OW22909   3.022   0.047   6.067  0.0050 -0.3579  0.0397
 3759SOL    HW122910   3.008   4.715   6.003  0.2259  0.1522 -0.5629
 3759SOL    HW222911   3.117   0.051   6.064 -0.0941  0.7907 -1.5067
 3760SOL     OW22912   0.563   2.824   9.289 -0.1687 -0.7454  0.5013
 3760SOL    HW122913   0.478   2.864   9.272  1.0020  2.6185  2.5073
 3760SOL    HW222914   0.616   2.812   9.210 -0.3079 -1.5399  0.5297
 3761SOL     OW22915   2.199   1.637   3.098 -0.5145 -0.3013  0.1325
 3761SOL    HW122916   2.206   1.629   3.003 -0.0511  1.2536  0.0362
 3761SOL    HW222917   2.126   1.579   3.121  1.2586 -1.7156  2.2195
 3762SOL     OW22918   0.645   2.337  13.455  0.2084 -0.0889 -0.4546
 3762SOL    HW122919   0.659   2.341  13.360  1.4613 -2.2601 -0.3633
 3762SOL    HW222920   0.558   2.298  13.447  0.4661 -1.0107  1.4648
 3763SOL     OW22921   1.267   4.039   2.951 -0.0764 -0.2943  1.1796
 3763SOL    HW122922   1.285   4.128   2.978  0.8874 -0.4657  1.0810
 3763SOL    HW222923   1.249   4.058   2.859  1.1890 -0.8413  0.8191
 3764SOL     OW22924   0.031   0.179   4.517 -0.4356  0.0029  0.4175
 3764SOL    HW122925   4.718   0.221   4.585  2.5500  1.0049  2.1100
 3764SOL    HW222926   0.068   0.101   4.559 -0.1638 -0.1894 -0.1683
 3765SOL     OW22927   0.118   3.580   4.802 -0.3692 -0.0823 -0.2051
 3765SOL    HW122928   0.042   3.524   4.814  0.2502 -0.8695  0.0366
 3765SOL    HW222929   0.188   3.518   4.819 -0.1767 -0.0561 -0.9026
 3766SOL     OW22930   4.460   2.032  14.982  0.2495  0.2091  0.2515
 3766SOL    HW122931   4.447   1.937  14.973  1.0190  0.1344 -0.0789
 3766SOL    HW222932   4.370   2.064  14.980  0.6532  1.2629 -1.6413
 3767SOL     OW22933   4.447   2.423  15.001  0.1191  0.7031 -0.3003
 3767SOL    HW122934   4.381   2.417  14.932 -0.2485  1.1385  0.0175
 3767SOL    HW222935   4.393   2.448  15.075  2.1665  0.2628  1.3387
 3768SOL     OW22936   3.228   4.684   5.312 -0.5747 -0.4458 -0.3662
 3768SOL    HW122937   3.225   4.611   5.374 -0.5194  0.5799  0.8433
 3768SOL    HW222938   3.246   4.640   5.229 -1.8340  0.7831 -1.2836
 3769SOL     OW22939   0.812   2.927   8.189  0.4595 -0.1493 -0.0229
 3769SOL    HW122940   0.794   2.943   8.096  1.4735 -0.4824 -0.2835
 3769SOL    HW222941   0.748   2.990   8.222 -0.6788 -0.4262 -1.7100
 3770SOL     OW22942   4.311   2.370   2.288 -0.0159  0.2584  0.5638
 3770SOL    HW122943   4.298   2.450   2.340 -1.9453 -0.8391  1.7877
 3770SOL    HW222944   4.222   2.333   2.287 -0.9715  2.5976 -2.4261
 3771SOL     OW22945   2.615   1.394   9.159  0.1088 -0.3662 -0.0354
 3771SOL    HW122946   2.620   1.332   9.086 -0.7331 -2.1925  1.4584
 3771SOL    HW222947   2.520   1.408   9.162  0.0354 -0.5679 -1.2745
 3772SOL     OW22948   0.835   1.759   2.963 -0.3589  0.1194  0.3172
 3772SOL    HW122949   0.875   1.824   2.905  1.5390  0.2478  1.7350
 3772SOL    HW222950   0.741   1.763   2.952 -0.4209 -0.9007  0.4040
 3773SOL     OW22951   0.219   0.528  10.014 -0.1421  0.0786  0.4585
 3773SOL    HW122952   0.306   0.568  10.023 -0.1128  0.1714 -0.2499
 3773SOL    HW222953   0.248   0.439   9.992 -1.5168  0.1258 -1.5665
 3774SOL     OW22954   3.585   1.183   5.818  0.0676 -0.2813 -0.2153
 3774SOL    HW122955   3.512   1.197   5.758  1.8113  1.6768 -1.8905
 3774SOL    HW222956   3.566   1.097   5.856 -1.2886 -0.6730 -1.7767
 3775SOL     OW22957   2.738   0.102   0.487  0.4050  0.4223 -0.3674
 3775SOL    HW122958   2.700   0.098   0.399 -2.1754 -1.4034  0.8512
 3775SOL    HW222959   2.828   0.113   0.456  0.5779  0.2722  0.0839
 3776SOL     OW22960   3.424   3.103   1.149  0.8828 -0.3045 -0.9821
 3776SOL    HW122961   3.445   3.127   1.059 -0.4493 -1.5360 -1.6409
 3776SOL    HW222962   3.404   3.192   1.176 -3.2081 -1.6396  0.5124
 3777SOL     OW22963   3.163   2.495   4.436 -0.1343 -0.0583 -0.0754
 3777SOL    HW122964   3.129   2.524   4.520  2.6244 -0.4416  1.1458
 3777SOL    HW222965   3.165   2.580   4.393 -0.4838  0.7877  1.6076
 3778SOL     OW22966   2.025   2.731   4.164 -0.1891  0.2369 -0.3489
 3778SOL    HW122967   1.940   2.689   4.172  0.2614 -0.9945 -1.9692
 3778SOL    HW222968   2.053   2.740   4.255 -1.7250 -0.9590  0.2379
 3779SOL     OW22969   2.082   0.772   6.256 -0.4124  0.2708 -0.3546
 3779SOL    HW122970   2.107   0.822   6.178 -0.7039  0.3853 -0.3718
 3779SOL    HW222971   2.141   0.817   6.317 -1.4840  0.5562  0.4662
 3780SOL     OW22972   2.767   4.087   8.523  0.5305 -0.1005  0.2259
 3780SOL    HW122973   2.719   4.146   8.465  0.3448 -2.2971 -1.8257
 3780SOL    HW222974   2.798   4.158   8.580 -0.8520  1.3686 -0.8773
 3781SOL     OW22975   3.441   3.636  13.317  0.3751  0.0581 -0.6506
 3781SOL    HW122976   3.505   3.685  13.369 -0.8579  2.0978 -1.0489
 3781SOL    HW222977   3.474   3.548  13.337 -0.4884  0.0200  0.5658
 3782SOL     OW22978   4.094   0.124   1.565  0.6997  0.3301  0.2839
 3782SOL    HW122979   4.006   0.161   1.567  0.7058  0.4472 -1.8739
 3782SOL    HW222980   4.143   0.206   1.567  0.1628  0.6819 -0.9701
 3783SOL     OW22981   0.013   3.381   7.174 -0.2109  0.0192  0.3928
 3783SOL    HW122982   0.096   3.349   7.209  0.7104 -0.3780 -2.1235
 3783SOL    HW222983   4.687   3.335   7.227  0.3074  1.6076  2.3772
 3784SOL     OW22984   4.720   4.138   6.677  0.3879 -0.0479 -0.1198
 3784SOL    HW122985   0.037   4.093   6.614  2.7352  0.8161  1.3367
 3784SOL    HW222986   0.026   4.222   6.688 -0.9249  0.9810 -2.6445
 3785SOL     OW22987   2.278   2.889   8.844 -0.3649 -0.6116  0.2616
 3785SOL    HW122988   2.323   2.931   8.917  1.3135 -1.6601 -0.1668
 3785SOL    HW222989   2.209   2.843   8.892  0.3879 -0.3874  1.5712
 3786SOL     OW22990   1.869   3.265   6.775  0.3847  0.4172 -0.6919
 3786SOL    HW122991   1.819   3.346   6.766  0.0482  0.0484 -2.2718
 3786SOL    HW222992   1.919   3.285   6.854 -0.7052  1.8017 -0.3600
 3787SOL     OW22993   2.931   2.648   4.271  0.2325 -0.6609  0.5261
 3787SOL    HW122994   3.020   2.675   4.248 -0.6788  1.5613 -0.3692
 3787SOL    HW222995   2.910   2.618   4.182  2.0349  1.6773 -0.6868
 3788SOL     OW22996   2.573   1.949   6.692  0.5738 -0.4015  0.3165
 3788SOL    HW122997   2.591   1.918   6.781  0.6759 -2.2252 -0.3473
 3788SOL    HW222998   2.478   1.945   6.681  0.6631 -1.9293  0.0212
 3789SOL     OW22999   3.736   1.736  17.662  0.3661 -0.8785  0.1535
 3789SOL    HW123000   3.803   1.736  17.594  1.7921  2.0232  1.5546
 3789SOL    HW223001   3.735   1.829  17.685 -2.3336 -0.6630 -0.8918
 3790SOL     OW23002   1.065   4.378   7.667 -0.1590 -0.1914  0.4895
 3790SOL    HW123003   0.998   4.403   7.603 -2.0652 -1.9605  1.7941
 3790SOL    HW223004   1.055   4.439   7.740 -1.8455 -0.1915  0.2613
 3791SOL     OW23005   3.466   3.038   5.969  0.0578  0.2016 -0.3282
 3791SOL    HW123006   3.529   2.998   6.028 -1.1779 -0.3244  0.6382
 3791SOL    HW223007   3.515   3.008   5.892 -0.2045  3.8622 -1.8846
 3792SOL     OW23008   2.098   1.307   9.187  0.0303  0.0260 -0.9611
 3792SOL    HW123009   2.032   1.346   9.244 -0.1461 -0.3165 -0.9324
 3792SOL    HW223010   2.051   1.226   9.168  0.4292 -0.5991  0.7041
 3793SOL     OW23011   4.468   1.124  16.814  0.1929 -0.1223 -0.8587
 3793SOL    HW123012   4.542   1.182  16.801  0.2616 -0.3108 -1.3065
 3793SOL    HW223013   4.387   1.175  16.810  1.5814  2.0443 -0.8200
 3794SOL     OW23014   3.690   2.223  14.105 -0.0691  0.3220 -0.3809
 3794SOL    HW123015   3.757   2.276  14.150 -2.2187  0.8412  2.1967
 3794SOL    HW223016   3.622   2.290  14.095  1.2119  1.6530 -0.2592
 3795SOL     OW23017   0.119   0.340   2.753  0.2325  0.2050 -0.1780
 3795SOL    HW123018   0.060   0.405   2.791 -0.5749 -1.4261  1.3123
 3795SOL    HW223019   0.062   0.312   2.682 -0.5471 -0.1433  0.5799
 3796SOL     OW23020   3.438   0.313   3.166 -0.2620  0.1348  0.0826
 3796SOL    HW123021   3.358   0.261   3.175 -0.5088  0.5688  0.4376
 3796SOL    HW223022   3.481   0.270   3.092  0.8904  1.9343 -0.2978
 3797SOL     OW23023   2.341   3.687   0.283 -0.1891 -0.2361 -0.1835
 3797SOL    HW123024   2.255   3.645   0.279 -1.6602  2.8187 -0.3528
 3797SOL    HW223025   2.367   3.712   0.194  1.4884 -1.1868  0.0477
 3798SOL     OW23026   2.834   2.678  11.353  0.2325  0.0675 -0.1896
 3798SOL    HW123027   2.886   2.601  11.375 -1.4273 -0.7518  0.8722
 3798SOL    HW223028   2.752   2.648  11.393 -0.3892  2.4904  0.3543
 3799SOL     OW23029   4.456   4.007  11.112 -0.5295 -0.1454 -0.0608
 3799SOL    HW123030   4.492   3.924  11.145 -0.8435  0.3149  1.4645
 3799SOL    HW223031   4.380   3.972  11.066 -1.2938  1.6325 -0.1360
 3800SOL     OW23032   4.483   0.225   1.548  0.2020  0.0936  0.0222
 3800SOL    HW123033   4.399   0.244   1.588 -0.2095  3.0519 -2.3113
 3800SOL    HW223034   4.518   0.308   1.516 -1.3479  1.2318  1.3071
 3801SOL     OW23035   0.170   2.904   1.848  0.2737  0.7077 -0.1945
 3801SOL    HW123036   0.081   2.891   1.881  0.7388 -1.4866  0.1468
 3801SOL    HW223037   0.217   2.845   1.906  0.2033  0.5428 -0.3058
 3802SOL     OW23038   4.442   2.120   3.819  0.3398 -0.5393  0.3137
 3802SOL    HW123039   4.427   2.033   3.782 -1.6023 -0.2569  0.4305
 3802SOL    HW223040   4.414   2.174   3.746  1.5181  0.3184  0.4903
 3803SOL     OW23041   0.013   2.511   5.049  0.0517 -0.5922 -0.1337
 3803SOL    HW123042   0.108   2.502   5.058  0.3889  1.0902 -2.0511
 3803SOL    HW223043   4.727   2.565   5.123  3.3887 -0.9582  1.2738
 3804SOL     OW23044   4.469   2.344   5.892  0.6607 -0.1302 -0.3623
 3804SOL    HW123045   4.417   2.369   5.816  0.2612 -1.4849 -0.5284
 3804SOL    HW223046   4.556   2.346   5.851  1.5832  0.1966  1.5723
 3805SOL     OW23047   1.198   4.549  12.131 -0.1626 -0.7220  0.4082
 3805SOL    HW123048   1.291   4.552  12.156  0.8274  0.3449 -3.3855
 3805SOL    HW223049   1.154   4.515  12.209  0.1867 -0.5984  0.6638
 3806SOL     OW23050   4.517   2.863   3.191  0.5716 -0.3947 -0.4452
 3806SOL    HW123051   4.429   2.867   3.230  1.0344 -0.1963  0.5643
 3806SOL    HW223052   4.498   2.907   3.108  2.2146 -0.1926 -0.7100
 3807SOL     OW23053   0.934   1.340  13.099  0.4251 -0.5854  0.3166
 3807SOL    HW123054   0.968   1.430  13.108 -0.4313 -0.1353 -0.9237
 3807SOL    HW223055   0.872   1.346  13.172 -0.2521  0.1458 -0.3314
 3808SOL     OW23056   3.543   3.221   4.603  0.7261  0.3896 -0.6308
 3808SOL    HW123057   3.615   3.157   4.602  1.4696  1.1972  0.3423
 3808SOL    HW223058   3.578   3.267   4.680 -0.4374 -0.3013  0.3196
 3809SOL     OW23059   3.630   4.297   1.053 -0.1272  0.3279  0.0659
 3809SOL    HW123060   3.562   4.361   1.028  0.9261  0.9566 -1.1859
 3809SOL    HW223061   3.707   4.353   1.046 -0.1607  0.3495 -0.1357
 3810SOL     OW23062   4.322   0.736   2.783 -0.0758  0.0189  0.0617
 3810SOL    HW123063   4.370   0.658   2.756  0.6856  0.2336  0.8028
 3810SOL    HW223064   4.313   0.790   2.704  0.8656 -1.4330 -1.0495
 3811SOL     OW23065   1.128   3.311   5.146  0.5489  0.1695  0.1568
 3811SOL    HW123066   1.185   3.354   5.082  0.3949  1.1399  0.6739
 3811SOL    HW223067   1.159   3.342   5.231  0.4897  1.3262 -0.2366
 3812SOL     OW23068   2.076   1.546   4.866 -0.6374 -0.5504  0.1645
 3812SOL    HW123069   2.079   1.533   4.961  0.3599 -1.6761 -0.0330
 3812SOL    HW223070   2.144   1.486   4.837  0.0998  0.0745  0.6050
 3813SOL     OW23071   3.757   4.526   4.031 -0.1090 -0.7860  0.0010
 3813SOL    HW123072   3.852   4.531   4.043 -0.4139 -0.3900  2.2334
 3813SOL    HW223073   3.740   4.448   4.084  0.5519 -1.9901 -1.5286
 3814SOL     OW23074   3.358   2.667  11.460  0.5329 -0.1912 -0.1874
 3814SOL    HW123075   3.339   2.642  11.551 -0.1499  1.3349  0.0861
 3814SOL    HW223076   3.333   2.759  11.451 -1.6779 -0.7289  0.3590
 3815SOL     OW23077   2.907   0.917  14.132 -0.0525  0.2719  0.7303
 3815SOL    HW123078   2.979   0.962  14.176  0.5514 -2.0812  2.1031
 3815SOL    HW223079   2.842   0.987  14.143  0.7302  1.0321  0.4862
 3816SOL     OW23080   1.120   3.074   2.734  0.1151  0.6108 -0.0438
 3816SOL    HW123081   1.083   3.150   2.689  0.4366  1.7842  1.6958
 3816SOL    HW223082   1.055   3.038   2.793 -0.3822  1.3556 -0.1364
 3817SOL     OW23083   4.391   2.209   2.523 -0.1676  0.3336  0.7466
 3817SOL    HW123084   4.379   2.267   2.448  0.2139 -0.3505  0.1458
 3817SOL    HW223085   4.397   2.270   2.596 -2.0838  1.8494 -0.3743
 3818SOL     OW23086   2.382   2.433  10.893  0.1544 -0.0370  0.3464
 3818SOL    HW123087   2.301   2.473  10.860  1.0325  2.5940  1.4291
 3818SOL    HW223088   2.353   2.396  10.976 -1.8274  1.6374  0.3985
 3819SOL     OW23089   4.102   2.065  13.339  0.2094 -0.3572  0.2915
 3819SOL    HW123090   4.169   2.120  13.379  0.0638  0.0417 -0.0080
 3819SOL    HW223091   4.121   2.083  13.247 -1.8784 -1.2022 -0.3092
 3820SOL     OW23092   3.404   4.364   8.877  0.1174  0.2093  0.0363
 3820SOL    HW123093   3.461   4.358   8.801 -1.0862 -0.9805 -0.7641
 3820SOL    HW223094   3.462   4.422   8.927 -1.5045  1.7824  0.0852
 3821SOL     OW23095   0.525   4.617   4.835  0.3855  0.4113 -0.0024
 3821SOL    HW123096   0.460   4.656   4.893 -2.4072  0.4703 -3.1353
 3821SOL    HW223097   0.472   4.543   4.804  1.0412 -0.2533  0.4785
 3822SOL     OW23098   2.672   3.323   1.757  0.2966 -0.3006  0.0861
 3822SOL    HW123099   2.601   3.283   1.706 -0.3159 -0.5909  1.1632
 3822SOL    HW223100   2.674   3.414   1.728 -0.9907 -0.3261 -0.1073
 3823SOL     OW23101   4.071   1.446   9.859  0.2189  1.1814 -0.5792
 3823SOL    HW123102   4.143   1.404   9.906  0.0768  2.4568  0.7555
 3823SOL    HW223103   4.072   1.535   9.892  2.3403  0.9874 -0.0640
 3824SOL     OW23104   3.024   2.948   9.263 -0.2062  0.7039 -0.2205
 3824SOL    HW123105   3.083   2.890   9.311 -0.9907 -0.8476 -1.1523
 3824SOL    HW223106   2.949   2.936   9.322 -0.3053  0.6480 -0.3601
 3825SOL     OW23107   4.389   0.142  14.579 -0.6463 -0.4406  0.0871
 3825SOL    HW123108   4.432   0.183  14.654 -0.2579 -0.5848 -0.0614
 3825SOL    HW223109   4.297   0.161  14.599 -1.3316 -2.3155 -1.2457
 3826SOL     OW23110   2.749   1.642   1.628  0.0571  1.2370 -0.0029
 3826SOL    HW123111   2.660   1.610   1.610 -0.7972  2.7592  1.5543
 3826SOL    HW223112   2.802   1.569   1.596 -0.5867  0.0718  1.5312
 3827SOL     OW23113   1.914   4.105   5.439  0.5095  0.8750 -0.0475
 3827SOL    HW123114   2.004   4.138   5.441  0.8712 -0.0526 -1.2731
 3827SOL    HW223115   1.887   4.141   5.524  2.7831 -3.6649  2.6064
 3828SOL     OW23116   4.154   3.155  12.179 -0.1556 -0.0449 -0.2421
 3828SOL    HW123117   4.174   3.241  12.215  0.2134 -1.1709  2.2263
 3828SOL    HW223118   4.082   3.162  12.116 -0.2215 -1.9577 -0.3697
 3829SOL     OW23119   2.401   4.650   3.864  0.4823 -0.1069 -0.1240
 3829SOL    HW123120   2.308   4.640   3.843 -0.2139  2.2893  1.7102
 3829SOL    HW223121   2.434   4.693   3.785  1.0875  0.5220  0.4710
 3830SOL     OW23122   2.344   1.255  15.480 -0.0554  0.2559  0.8595
 3830SOL    HW123123   2.360   1.255  15.386 -0.6651  2.4895  0.7607
 3830SOL    HW223124   2.312   1.345  15.492  0.8410  0.4521  1.7307
 3831SOL     OW23125   0.347   0.304   1.316  0.3155 -0.4127  0.7651
 3831SOL    HW123126   0.256   0.334   1.317  1.2160  2.4156 -1.6384
 3831SOL    HW223127   0.364   0.295   1.410 -1.5724 -1.0341  1.0467
 3832SOL     OW23128   3.039   2.599   9.200  0.6113  0.2872  0.1648
 3832SOL    HW123129   3.090   2.644   9.267 -1.0708  1.3785  0.7225
 3832SOL    HW223130   3.006   2.672   9.148  0.2471 -0.5793 -0.8137
 3833SOL     OW23131   4.368   3.943   9.066 -0.5533 -0.1414  0.1446
 3833SOL    HW123132   4.338   3.855   9.044 -0.7226 -0.2184  0.6662
 3833SOL    HW223133   4.415   3.919   9.146 -4.4600 -2.0429  1.8898
 3834SOL     OW23134   2.208   2.202   5.057  0.0419  0.4623 -0.4294
 3834SOL    HW123135   2.133   2.261   5.064 -1.5719 -1.3245 -2.6515
 3834SOL    HW223136   2.268   2.232   5.125 -3.7539 -1.1248  3.6201
 3835SOL     OW23137   3.364   3.736   5.897  0.0708 -0.0660 -0.0376
 3835SOL    HW123138   3.448   3.780   5.890 -2.3111  4.6034  0.7998
 3835SOL    HW223139   3.366   3.686   5.815  1.3925 -2.3676  1.4089
 3836SOL     OW23140   3.194   0.284   5.137 -0.3209  0.5222  0.1971
 3836SOL    HW123141   3.126   0.311   5.075 -0.8447  0.2652  0.6560
 3836SOL    HW223142   3.194   0.360   5.195  2.6367  0.8889 -0.2849
 3837SOL     OW23143   1.848   2.140  11.241  0.2174  0.3334  0.5474
 3837SOL    HW123144   1.920   2.080  11.261 -0.3997  0.4467  3.1422
 3837SOL    HW223145   1.883   2.228  11.254  1.4877 -0.1695  0.5023
 3838SOL     OW23146   3.944   4.387   2.141  0.6310  0.3057  0.0554
 3838SOL    HW123147   3.995   4.429   2.210 -2.3447  3.0578  0.5536
 3838SOL    HW223148   3.852   4.405   2.159 -0.0341 -1.4063 -1.5083
 3839SOL     OW23149   4.649   0.344   5.867 -0.0353  0.4576  0.5092
 3839SOL    HW123150   4.672   0.424   5.914  0.3722  0.2137  0.7169
 3839SOL    HW223151   4.733   0.319   5.828 -0.3992  1.5605 -0.9898
 3840SOL     OW23152   0.441   1.586   3.761  0.3366  0.1564 -0.4967
 3840SOL    HW123153   0.465   1.676   3.738  0.2576  0.4912  0.6945
 3840SOL    HW223154   0.445   1.549   3.673 -0.3769  0.5212 -0.6795
 3841SOL     OW23155   3.493   2.656   9.108 -0.7286 -0.2576 -0.3566
 3841SOL    HW123156   3.425   2.596   9.077  1.1504 -2.5903  0.0061
 3841SOL    HW223157   3.485   2.644   9.203  0.3686  0.7574 -0.1295
 3842SOL     OW23158   2.336   2.592   8.824 -0.6267 -0.1357  0.1513
 3842SOL    HW123159   2.416   2.604   8.876 -0.8588  1.9347  0.0186
 3842SOL    HW223160   2.325   2.685   8.803  1.2100 -0.2640 -1.4222
 3843SOL     OW23161   3.600   1.566  10.134 -0.3155 -0.1979  0.0480
 3843SOL    HW123162   3.634   1.596  10.050  0.2849  1.0834  0.7420
 3843SOL    HW223163   3.545   1.640  10.161  2.5011  1.5974  0.8046
 3844SOL     OW23164   1.451   2.144   6.576  0.1359  0.7660  0.3318
 3844SOL    HW123165   1.464   2.049   6.582 -0.0789  0.7133 -0.0910
 3844SOL    HW223166   1.503   2.165   6.654  0.6623  0.8421 -0.0420
 3845SOL     OW23167   1.664   3.738   2.040  0.0955 -0.1034 -0.4074
 3845SOL    HW123168   1.670   3.823   1.997  1.4640 -0.0745 -0.1796
 3845SOL    HW223169   1.610   3.685   1.981  0.4645  1.0845 -1.8189
 3846SOL     OW23170   2.424   1.185   3.493  0.3526  0.2375 -0.3572
 3846SOL    HW123171   2.482   1.219   3.561 -1.1193  0.0193  1.0053
 3846SOL    HW223172   2.338   1.220   3.518  0.5312  0.3350  0.1163
 3847SOL     OW23173   3.329   0.537   8.550 -0.4099 -0.1341 -0.0323
 3847SOL    HW123174   3.289   0.595   8.485 -0.8944 -0.9266 -0.4313
 3847SOL    HW223175   3.415   0.579   8.557 -1.1633  1.2136  1.1090
 3848SOL     OW23176   2.642   3.997   4.798 -0.7974 -0.2078 -0.0520
 3848SOL    HW123177   2.560   4.039   4.822 -0.5388 -0.3888  1.1183
 3848SOL    HW223178   2.711   4.051   4.836  0.0972 -1.7071  0.4392
 3849SOL     OW23179   3.649   3.362   3.611 -0.6649  0.4506 -0.5525
 3849SOL    HW123180   3.736   3.328   3.633 -0.7355  0.0893 -0.8278
 3849SOL    HW223181   3.651   3.398   3.522 -0.0358  0.4398 -0.5451
 3850SOL     OW23182   1.520   3.607   1.819 -0.0432 -0.1209  0.7525
 3850SOL    HW123183   1.548   3.690   1.780 -1.1405  0.9797  2.2968
 3850SOL    HW223184   1.580   3.545   1.777 -3.9171 -2.9303 -0.6042
 3851SOL     OW23185   4.068   1.933  14.078 -0.1801 -0.0803  0.2000
 3851SOL    HW123186   4.157   1.910  14.105 -0.4833 -0.0444  1.2141
 3851SOL    HW223187   4.041   1.982  14.156 -2.4648 -0.6033 -0.2666
 3852SOL     OW23188   1.664   2.580   7.178 -0.1004 -0.3718  0.9053
 3852SOL    HW123189   1.711   2.574   7.095  0.5852  0.0345  1.2575
 3852SOL    HW223190   1.731   2.580   7.247  0.7023 -1.0279  0.1168
 3853SOL     OW23191   1.358   3.076   6.640 -0.4628  0.3657  0.1051
 3853SOL    HW123192   1.416   3.041   6.707 -1.6252  2.9268  2.4383
 3853SOL    HW223193   1.311   3.133   6.700 -1.4137 -2.1208  1.6758
 3854SOL     OW23194   4.362   0.151   3.255  0.1485  0.1886 -0.6562
 3854SOL    HW123195   4.318   0.234   3.275  1.4897  1.1119 -1.5363
 3854SOL    HW223196   4.446   0.185   3.224  0.9499 -0.0890  1.2579
 3855SOL     OW23197   1.341   1.267   8.458  0.5655 -0.3779  0.3061
 3855SOL    HW123198   1.286   1.305   8.390 -1.4880 -3.0859  0.4507
 3855SOL    HW223199   1.392   1.198   8.417  2.7024  1.4456 -0.1152
 3856SOL     OW23200   3.680   4.493   7.852 -0.2245  0.3994 -0.1475
 3856SOL    HW123201   3.624   4.446   7.914 -0.9397 -0.2958 -1.3087
 3856SOL    HW223202   3.619   4.534   7.790 -0.9267  0.7112  0.7390
 3857SOL     OW23203   0.271   3.654   0.042  0.0223 -0.0336  0.1651
 3857SOL    HW123204   0.185   3.689   0.018  0.6897  1.6883  0.2492
 3857SOL    HW223205   0.284   3.699   0.126  1.0016 -1.2945  0.7011
 3858SOL     OW23206   4.145   1.808  14.761  0.1232 -0.3741  0.0472
 3858SOL    HW123207   4.144   1.800  14.666  1.1164 -0.3894  0.0364
 3858SOL    HW223208   4.053   1.826  14.779 -0.1902 -1.2877 -0.6351
 3859SOL     OW23209   3.406   1.345   2.570  0.2083  0.5621  0.0514
 3859SOL    HW123210   3.386   1.261   2.612 -0.2064  1.1426  1.0120
 3859SOL    HW223211   3.376   1.409   2.634 -0.5064 -1.1363  1.4334
 3860SOL     OW23212   3.533   2.354  15.069 -0.2262 -0.2772  0.3589
 3860SOL    HW123213   3.499   2.364  15.158 -1.8642 -1.0957 -0.1682
 3860SOL    HW223214   3.527   2.258  15.060 -0.1292 -0.3163  0.6870
 3861SOL     OW23215   3.882   3.986   2.818 -0.4822 -0.0191  0.4322
 3861SOL    HW123216   3.976   3.968   2.810 -0.3444  0.5979  0.6539
 3861SOL    HW223217   3.871   3.959   2.909  1.1319  0.5400  0.7907
 3862SOL     OW23218   4.441   0.181   6.282 -0.1304 -0.2123  0.1809
 3862SOL    HW123219   4.476   0.165   6.194  1.5534  0.9965  0.6297
 3862SOL    HW223220   4.362   0.127   6.283 -0.9498  1.0147  1.0715
 3863SOL     OW23221   4.113   2.755   6.287 -0.4284 -0.2367  0.4444
 3863SOL    HW123222   4.120   2.806   6.206  0.4508 -1.1603 -0.0619
 3863SOL    HW223223   4.182   2.689   6.276 -1.6762 -1.5747  0.5309
 3864SOL     OW23224   0.310   4.696   2.428 -0.0069 -0.5379  0.6925
 3864SOL    HW123225   0.266   4.635   2.368 -0.1452  0.0115  0.2407
 3864SOL    HW223226   0.228   4.733   2.460  0.4496 -0.7160  2.0747
 3865SOL     OW23227   0.532   1.145   7.968 -0.1172 -0.5778 -0.4571
 3865SOL    HW123228   0.530   1.141   8.064 -0.7411  0.4030 -0.4214
 3865SOL    HW223229   0.439   1.160   7.951 -0.6528 -1.6982  1.4378
 3866SOL     OW23230   4.712   4.517   0.272 -0.7081 -0.3390 -0.1082
 3866SOL    HW123231   4.736   4.591   0.215  0.2729 -0.9143 -0.4503
 3866SOL    HW223232   4.621   4.538   0.292 -0.0245  0.2030  2.3500
 3867SOL     OW23233   2.381   2.180  17.101  0.4883  0.1805 -0.3338
 3867SOL    HW123234   2.351   2.176  17.010 -0.0364  0.3845 -0.1725
 3867SOL    HW223235   2.297   2.188  17.147 -0.2472 -0.3275 -1.5916
 3868SOL     OW23236   0.902   1.266   5.889  0.0094  0.0090  0.7776
 3868SOL    HW123237   0.974   1.325   5.910 -1.5090  2.7311 -1.6402
 3868SOL    HW223238   0.919   1.235   5.800  1.0461  0.0501  0.9667
 3869SOL     OW23239   2.417   3.841  17.520  0.0496 -1.0820  0.3444
 3869SOL    HW123240   2.370   3.919  17.493 -3.1254 -2.8415  0.8617
 3869SOL    HW223241   2.383   3.775  17.461  1.2663 -1.0302 -0.4223
 3870SOL     OW23242   2.732   0.857   4.097 -0.0455  0.6472  0.2626
 3870SOL    HW123243   2.744   0.803   4.019  2.0473  0.2618  0.8439
 3870SOL    HW223244   2.640   0.882   4.086  0.1351  1.0238 -0.4241
 3871SOL     OW23245   2.174   1.984  17.496 -0.5249 -0.0212 -0.1898
 3871SOL    HW123246   2.224   2.034  17.432 -0.1722 -1.0464 -0.7224
 3871SOL    HW223247   2.178   1.896  17.457  2.2934  1.1381 -2.5237
 3872SOL     OW23248   2.609   4.484   4.520 -0.2024 -0.8175  0.2140
 3872SOL    HW123249   2.590   4.518   4.607  1.5879  0.0330  0.2669
 3872SOL    HW223250   2.560   4.543   4.462 -0.6785 -0.8468  0.5913
 3873SOL     OW23251   3.263   0.641   9.828 -0.6758  0.0193 -0.3608
 3873SOL    HW123252   3.191   0.616   9.885 -0.2571 -1.1113 -0.3433
 3873SOL    HW223253   3.293   0.556   9.796  1.3696 -0.0910  1.7998
 3874SOL     OW23254   4.726   4.639  10.408 -0.4831 -0.0134 -0.1585
 3874SOL    HW123255   4.634   4.659  10.388 -0.5130 -1.1112 -1.1199
 3874SOL    HW223256   4.705   4.559  10.455 -1.0001  0.2151  0.0026
 3875SOL     OW23257   3.395   0.147   5.336 -0.4701 -0.0786  1.0047
 3875SOL    HW123258   3.358   0.189   5.259  0.1083  1.1917  1.4153
 3875SOL    HW223259   3.344   0.067   5.343  0.5318 -0.6741  1.6038
 3876SOL     OW23260   1.831   3.987   2.729  0.0608  0.0867 -0.1612
 3876SOL    HW123261   1.793   3.903   2.703  1.5595 -0.5852 -0.1688
 3876SOL    HW223262   1.767   4.029   2.786  0.7842  1.3951 -0.3256
 3877SOL     OW23263   2.623   0.296   8.763 -0.1295  0.3528  0.2046
 3877SOL    HW123264   2.677   0.298   8.842 -0.2238 -2.1837  0.3271
 3877SOL    HW223265   2.551   0.354   8.787 -2.0398 -0.8730 -2.5087
 3878SOL     OW23266   0.192   3.378   1.581 -0.3644  0.5181 -0.6361
 3878SOL    HW123267   0.238   3.435   1.520  1.8986  0.0330  0.6559
 3878SOL    HW223268   0.261   3.319   1.609 -0.0559  1.1127 -0.1683
 3879SOL     OW23269   3.230   0.072   3.856 -0.1342  0.0714 -0.0662
 3879SOL    HW123270   3.199   0.163   3.855  0.2142  0.2167  4.0482
 3879SOL    HW223271   3.156   0.027   3.816 -0.9008  0.3035  1.0834
 3880SOL     OW23272   1.781   4.183   0.274  0.2363  0.2939 -0.1054
 3880SOL    HW123273   1.688   4.162   0.266  0.2120  0.4650 -0.2756
 3880SOL    HW223274   1.810   4.133   0.350 -1.5584 -0.6075  0.0039
 3881SOL     OW23275   1.688   3.467   3.614 -0.0116  0.1156  0.0249
 3881SOL    HW123276   1.729   3.418   3.685 -0.6027 -0.2312  0.1324
 3881SOL    HW223277   1.708   3.423   3.531  2.3826 -1.8787  1.6864
 3882SOL     OW23278   1.450   2.340  11.311 -0.4041 -0.3326  0.2237
 3882SOL    HW123279   1.444   2.428  11.348  2.3327  0.9792 -2.5007
 3882SOL    HW223280   1.429   2.291  11.391 -0.6186 -1.5549 -0.5742
 3883SOL     OW23281   1.983   0.710   1.796  0.3802  0.1270 -0.2230
 3883SOL    HW123282   1.906   0.661   1.824  0.1590  0.3247 -0.5022
 3883SOL    HW223283   2.059   0.653   1.814 -1.1027 -1.0073  2.3880
 3884SOL     OW23284   2.932   0.912   6.872  0.1915  0.1493 -0.3146
 3884SOL    HW123285   2.906   0.853   6.942 -1.3535  1.9414  0.6266
 3884SOL    HW223286   2.856   0.965   6.846  0.0450 -0.7195 -1.6470
 3885SOL     OW23287   4.093   1.053   5.165  0.2394 -0.3657  0.1289
 3885SOL    HW123288   4.079   0.969   5.121 -0.2233 -0.0883 -0.2535
 3885SOL    HW223289   4.051   1.037   5.249  2.2457 -0.0225  1.2112
 3886SOL     OW23290   2.593   3.822   6.187 -0.4560  0.1249  0.2314
 3886SOL    HW123291   2.686   3.815   6.169 -0.7087  0.3648 -1.1967
 3886SOL    HW223292   2.570   3.913   6.166 -0.0640  0.0947 -0.3337
 3887SOL     OW23293   1.153   1.682   4.979 -0.0063  0.2440  0.2374
 3887SOL    HW123294   1.154   1.622   5.053  2.4479 -1.0347 -0.8638
 3887SOL    HW223295   1.082   1.649   4.924  0.6035  1.6085 -1.3815
 3888SOL     OW23296   3.549   1.702   7.189 -0.0421  0.0131  0.4905
 3888SOL    HW123297   3.614   1.763   7.223  2.1246 -1.6759 -0.5856
 3888SOL    HW223298   3.573   1.626   7.243 -1.7518  0.5301  1.9593
 3889SOL     OW23299   3.457   4.326   7.354 -0.2488 -0.6588  0.0304
 3889SOL    HW123300   3.421   4.380   7.284  0.2567  2.0119  1.8057
 3889SOL    HW223301   3.412   4.246   7.329 -0.4011 -0.4202 -0.4502
 3890SOL     OW23302   1.449   2.152   7.833 -0.1532  0.2018  0.5905
 3890SOL    HW123303   1.396   2.230   7.824  0.0977  0.0865 -1.7883
 3890SOL    HW223304   1.398   2.108   7.901  2.2269 -1.2114  1.5043
 3891SOL     OW23305   4.458   3.603   2.577 -0.1444 -0.3920  0.3358
 3891SOL    HW123306   4.526   3.627   2.640 -0.3126  1.8837 -0.3486
 3891SOL    HW223307   4.505   3.617   2.494 -2.0258  1.7836 -0.3698
 3892SOL     OW23308   3.341   2.887   7.304 -0.1425 -0.0788  0.0614
 3892SOL    HW123309   3.326   2.961   7.363  0.5926 -0.9903  1.4024
 3892SOL    HW223310   3.253   2.849   7.300  0.8088 -2.2611  0.0911
 3893SOL     OW23311   0.190   2.264   9.010  0.2586  0.1079  0.1445
 3893SOL    HW123312   0.248   2.196   8.976 -1.0903 -1.2912  0.6178
 3893SOL    HW223313   0.214   2.274   9.102  0.7364 -0.4540  0.0780
 3894SOL     OW23314   0.563   1.921   7.468  0.2810 -0.8720  0.0537
 3894SOL    HW123315   0.653   1.950   7.480 -1.1173  2.8894  1.5480
 3894SOL    HW223316   0.572   1.853   7.402 -1.3162 -1.1860  0.1629
 3895SOL     OW23317   1.725   2.596  13.918 -0.6499 -0.1119  0.0032
 3895SOL    HW123318   1.661   2.666  13.934 -0.0657  0.6376 -0.9239
 3895SOL    HW223319   1.689   2.523  13.967  0.5359 -1.2856 -0.8718
 3896SOL     OW23320   0.507   0.525   7.894  0.5004 -0.2588 -0.7196
 3896SOL    HW123321   0.458   0.557   7.819 -2.4966  0.9750  1.7338
 3896SOL    HW223322   0.595   0.519   7.859  0.7703 -0.2746 -0.0505
 3897SOL     OW23323   2.747   3.274   4.319 -0.1711  0.1307  0.1803
 3897SOL    HW123324   2.755   3.289   4.225  1.0747  0.4916  0.3387
 3897SOL    HW223325   2.671   3.217   4.333 -0.0858 -0.6546 -2.6435
 3898SOL     OW23326   3.589   1.767   7.894  0.2916  0.2433  0.0838
 3898SOL    HW123327   3.564   1.856   7.869  0.4056 -0.2918 -1.9062
 3898SOL    HW223328   3.644   1.745   7.819 -1.5342  0.7598 -1.4134
 3899SOL     OW23329   1.182   0.399   9.640 -0.2986  0.8823 -0.2495
 3899SOL    HW123330   1.205   0.342   9.567  3.2156 -0.3788  1.8151
 3899SOL    HW223331   1.090   0.405   9.616 -1.0178  2.3328  2.8016
 3900SOL     OW23332   3.518   1.932  12.252 -0.2914  0.2930 -1.2578
 3900SOL    HW123333   3.487   1.850  12.291  3.9728 -1.1883 -0.9155
 3900SOL    HW223334   3.460   1.937  12.176 -0.6451  0.5320 -0.9647
 3901SOL     OW23335   4.134   2.121   2.784  0.3999 -0.4872 -0.6353
 3901SOL    HW123336   4.147   2.053   2.719  2.4708 -0.1027 -0.6266
 3901SOL    HW223337   4.154   2.197   2.729  0.2558  1.5003  2.0267
 3902SOL     OW23338   0.441   1.529   8.130  0.4529  0.2903  0.7498
 3902SOL    HW123339   0.384   1.467   8.175 -0.7490  2.0597  1.7002
 3902SOL    HW223340   0.512   1.546   8.192  1.3185 -1.1310  0.1428
 3903SOL     OW23341   0.517   1.110  12.569 -0.3074 -0.1097 -0.0059
 3903SOL    HW123342   0.575   1.099  12.645  0.2873  1.7006 -0.1881
 3903SOL    HW223343   0.499   1.017  12.552 -1.2625  0.3039 -1.2416
 3904SOL     OW23344   2.457   1.348   1.864  0.2543 -0.2522 -0.5040
 3904SOL    HW123345   2.410   1.264   1.863 -0.8422  0.3639 -0.4536
 3904SOL    HW223346   2.542   1.318   1.829  0.0844 -0.9508 -0.3196
 3905SOL     OW23347   4.286   3.097  15.519  0.3134  0.3893  0.0316
 3905SOL    HW123348   4.211   3.150  15.547 -1.0430 -1.2407 -0.4819
 3905SOL    HW223349   4.267   3.003  15.519 -2.9317  1.0501  0.6813
 3906SOL     OW23350   2.862   2.592  10.164 -0.4615 -0.4810  0.0530
 3906SOL    HW123351   2.896   2.503  10.152  0.8975  0.0177  0.1614
 3906SOL    HW223352   2.860   2.602  10.259 -1.5296  0.6460 -0.0896
 3907SOL     OW23353   0.156   3.991   7.472 -0.0844 -0.7147  0.2318
 3907SOL    HW123354   0.075   3.945   7.448  0.5967 -1.7443 -0.1166
 3907SOL    HW223355   0.158   4.074   7.424  0.8399  0.6295  2.6310
 3908SOL     OW23356   1.090   3.604   5.589 -0.2950  0.8117 -0.8077
 3908SOL    HW123357   1.131   3.583   5.673 -0.3290 -2.4130 -1.5592
 3908SOL    HW223358   1.083   3.698   5.601  3.0896  0.6514  2.4108
 3909SOL     OW23359   2.269   3.234   8.305  0.0128  0.2288  0.4636
 3909SOL    HW123360   2.293   3.323   8.329 -1.9011  0.7075  0.6444
 3909SOL    HW223361   2.320   3.178   8.363  0.0496 -0.0012  0.2108
 3910SOL     OW23362   1.726   1.449   8.465  0.4487  0.1636 -0.3525
 3910SOL    HW123363   1.716   1.379   8.400 -1.7828 -0.2778  0.4760
 3910SOL    HW223364   1.793   1.418   8.525 -0.1818 -0.6264 -0.0570
 3911SOL     OW23365   1.743   1.438   2.881 -0.1294  0.1308 -0.0276
 3911SOL    HW123366   1.707   1.492   2.952 -2.0452 -1.6444  0.3562
 3911SOL    HW223367   1.662   1.411   2.838 -1.3589  2.3424  0.8817
 3912SOL     OW23368   2.964   3.950   0.215 -0.1212  0.0238 -0.1063
 3912SOL    HW123369   3.041   3.978   0.265 -0.1114  1.8956 -1.1884
 3912SOL    HW223370   2.927   3.900   0.288 -2.4813  1.7399 -0.1527
 3913SOL     OW23371   1.780   0.817   0.995  0.4936 -0.5426  0.4262
 3913SOL    HW123372   1.781   0.904   1.035  2.8279 -0.0389 -0.7420
 3913SOL    HW223373   1.825   0.767   1.063 -0.8295 -0.6785  1.2102
 3914SOL     OW23374   2.058   3.389   6.077 -0.3047  0.1401  0.1481
 3914SOL    HW123375   2.086   3.310   6.124 -1.1632  0.2428  0.8220
 3914SOL    HW223376   1.964   3.398   6.090 -0.1775  2.0439 -0.2684
 3915SOL     OW23377   4.676   4.556  17.146 -0.4631  0.6833 -0.3709
 3915SOL    HW123378   4.704   4.528  17.233  1.1101 -1.4901 -1.5897
 3915SOL    HW223379   4.674   4.474  17.097  0.0578  0.5522 -0.1635
 3916SOL     OW23380   2.602   1.911   1.054  0.0755  0.0779  0.1208
 3916SOL    HW123381   2.584   1.958   0.973 -0.1445 -2.6288 -1.4205
 3916SOL    HW223382   2.653   1.974   1.104  1.3212  0.7816 -2.0484
 3917SOL     OW23383   2.012   1.443   2.477 -0.5601  0.0296 -0.4255
 3917SOL    HW123384   2.107   1.443   2.469 -0.5393  1.6043 -0.2247
 3917SOL    HW223385   1.993   1.486   2.393  0.1062 -1.1645 -1.1862
 3918SOL     OW23386   0.253   2.680   6.242  0.4549 -0.2982  0.0820
 3918SOL    HW123387   0.184   2.625   6.205  0.2849  0.6930 -1.0589
 3918SOL    HW223388   0.278   2.629   6.319 -2.5899 -1.2299  0.4500
 3919SOL     OW23389   0.580   2.311  10.021 -0.4841  0.1481 -0.3722
 3919SOL    HW123390   0.554   2.340   9.933 -0.1775 -1.5917 -1.0265
 3919SOL    HW223391   0.635   2.387  10.041 -0.4582  0.2830 -0.9517
 3920SOL     OW23392   2.089   2.027   1.885 -0.0013  0.4713 -0.1181
 3920SOL    HW123393   2.057   2.105   1.929  1.6409  0.8218  0.4304
 3920SOL    HW223394   2.135   2.058   1.807  0.6688  1.5705  0.7253
 3921SOL     OW23395   1.841   4.081   4.018 -0.3498 -0.5809  0.4340
 3921SOL    HW123396   1.757   4.038   4.000 -0.4454 -1.3734  2.7365
 3921SOL    HW223397   1.810   4.171   4.029  1.3218  0.0913 -0.3865
 3922SOL     OW23398   4.447   4.663  11.584  0.6348 -0.0862  0.5640
 3922SOL    HW123399   4.479   4.652  11.674 -0.3083  1.0925  1.0511
 3922SOL    HW223400   4.393   4.585  11.574  0.9935 -0.2569 -0.0292
 3923SOL     OW23401   1.627   2.103  11.444  0.0220  0.6034 -0.0441
 3923SOL    HW123402   1.698   2.090  11.381 -0.1476 -1.1872  0.1438
 3923SOL    HW223403   1.577   2.166  11.392 -0.1479 -0.8483 -1.6132
 3924SOL     OW23404   3.478   2.404   5.254 -0.4894 -0.3995 -0.0152
 3924SOL    HW123405   3.503   2.326   5.303  0.7548  0.6073  0.9292
 3924SOL    HW223406   3.564   2.443   5.238  0.4267 -1.2472  2.8972
 3925SOL     OW23407   3.364   0.814  11.072  0.3576 -0.3349  0.1080
 3925SOL    HW123408   3.443   0.855  11.106  0.7420 -1.5336  0.6875
 3925SOL    HW223409   3.297   0.882  11.070  0.5245 -0.0706  3.3099
 3926SOL     OW23410   2.449   1.399  16.471 -0.0137 -0.4788  1.1335
 3926SOL    HW123411   2.409   1.313  16.472 -0.6348 -0.2150 -0.8794
 3926SOL    HW223412   2.481   1.403  16.561  1.5951 -2.8751  0.6778
 3927SOL     OW23413   1.564   0.917   3.135 -0.0324 -0.4857 -0.2689
 3927SOL    HW123414   1.636   0.949   3.188 -0.8638 -0.0462  0.6000
 3927SOL    HW223415   1.598   0.828   3.127  0.6254 -0.5144  3.1751
 3928SOL     OW23416   0.159   1.782   5.149  0.6818 -0.9225 -0.4244
 3928SOL    HW123417   0.236   1.831   5.178  0.1615 -0.6297  0.4400
 3928SOL    HW223418   0.094   1.808   5.215  0.5969 -1.1203 -0.4307
 3929SOL     OW23419   4.026   3.738   4.099 -0.6848 -0.1194 -0.0260
 3929SOL    HW123420   3.974   3.817   4.114 -0.8236 -0.3116  0.5187
 3929SOL    HW223421   3.968   3.686   4.044 -0.1262  0.1206 -0.8430
 3930SOL     OW23422   1.501   1.953   2.917 -0.4655 -0.5167  0.2814
 3930SOL    HW123423   1.516   1.982   3.007 -0.4273 -0.2587  0.1912
 3930SOL    HW223424   1.448   2.026   2.885 -0.5024 -0.7056 -0.0997
 3931SOL     OW23425   2.714   4.107   2.352 -0.1283  0.9081  0.0941
 3931SOL    HW123426   2.739   4.117   2.444  0.0182 -1.3399  0.3194
 3931SOL    HW223427   2.644   4.171   2.343 -0.5197  0.3350 -0.9436
 3932SOL     OW23428   0.316   0.664   2.717 -0.0158  0.0006  0.0317
 3932SOL    HW123429   0.258   0.700   2.785 -1.0680 -1.2488 -0.1923
 3932SOL    HW223430   0.277   0.707   2.641 -1.7402  0.7636  1.3438
 3933SOL     OW23431   1.251   2.028   5.566  0.0889 -0.4823  0.6899
 3933SOL    HW123432   1.174   2.077   5.536  1.2023  0.6476 -0.2816
 3933SOL    HW223433   1.318   2.094   5.580 -0.3792  0.3024 -0.7849
 3934SOL     OW23434   3.612   0.947   8.700  0.2986 -0.0916 -0.2274
 3934SOL    HW123435   3.574   0.858   8.701  1.5807 -0.6213  1.1443
 3934SOL    HW223436   3.548   0.991   8.757  1.2037  1.1011 -0.1596
 3935SOL     OW23437   3.498   2.092  15.104 -0.2348 -0.4864  0.2391
 3935SOL    HW123438   3.530   2.051  15.184  0.6984  0.6038  0.4228
 3935SOL    HW223439   3.475   2.012  15.057 -0.5758 -0.3359  0.1448
 3936SOL     OW23440   0.269   0.895  12.350  0.2613  0.1124 -0.0916
 3936SOL    HW123441   0.213   0.833  12.304  0.5538 -0.7256  0.6871
 3936SOL    HW223442   0.311   0.942  12.277 -0.4653 -1.5399 -1.5832
 3937SOL     OW23443   1.282   0.466   7.748  0.4399  0.2361  0.1977
 3937SOL    HW123444   1.292   0.383   7.794 -0.2697  0.8922  1.5432
 3937SOL    HW223445   1.245   0.424   7.670  0.1035  0.6345  0.1464
 3938SOL     OW23446   0.475   1.256   6.622 -0.1807  0.3959  0.1946
 3938SOL    HW123447   0.535   1.239   6.695  1.5713  3.9260 -0.4389
 3938SOL    HW223448   0.436   1.171   6.599 -1.8724  1.0746  0.5807
 3939SOL     OW23449   1.267   3.481   7.645 -0.6573 -0.0559  0.3095
 3939SOL    HW123450   1.223   3.562   7.620 -0.3859  0.5108  1.7060
 3939SOL    HW223451   1.225   3.473   7.731  2.3435  3.2597  2.0916
 3940SOL     OW23452   1.233   0.241   2.581 -0.1683 -0.3371  0.1887
 3940SOL    HW123453   1.183   0.181   2.525 -0.9343  1.1425 -0.6973
 3940SOL    HW223454   1.321   0.251   2.543 -0.8461  0.3336 -1.2191
 3941SOL     OW23455   0.921   0.095   9.666  0.4105  0.1278 -0.6948
 3941SOL    HW123456   0.996   0.057   9.712 -1.1677 -0.5114  1.3391
 3941SOL    HW223457   0.941   0.065   9.578 -0.6025  1.7451 -1.4784
 3942SOL     OW23458   3.578   0.483  16.942  0.0403 -0.0779 -0.4321
 3942SOL    HW123459   3.617   0.432  16.872 -1.1263  0.9256 -1.8176
 3942SOL    HW223460   3.497   0.435  16.953 -0.2889  0.9648  1.6863
 3943SOL     OW23461   0.424   4.632   6.152  0.1665 -0.4392 -0.3384
 3943SOL    HW123462   0.380   4.712   6.182  0.3174 -0.7991  0.8304
 3943SOL    HW223463   0.512   4.667   6.138 -0.2439  0.9580  0.5501
 3944SOL     OW23464   0.163   1.186   4.721  0.9005  0.0142 -0.4960
 3944SOL    HW123465   0.115   1.130   4.660  0.9010 -0.5875  0.0513
 3944SOL    HW223466   0.249   1.146   4.711  0.0971 -2.0939  1.0075
 3945SOL     OW23467   1.072   0.085   5.327  0.0751 -0.5884  0.2822
 3945SOL    HW123468   1.037   0.079   5.415 -1.1995  0.5652 -0.1441
 3945SOL    HW223469   1.167   0.079   5.338  0.1607  0.3790  0.1643
 3946SOL     OW23470   4.512   1.371   3.477  0.2148  0.0536 -0.1640
 3946SOL    HW123471   4.535   1.382   3.385 -3.1029 -0.0660 -1.0023
 3946SOL    HW223472   4.549   1.284   3.496  0.2554  0.1747  0.3082
 3947SOL     OW23473   3.368   0.261   4.902  0.1047  0.3166  0.4097
 3947SOL    HW123474   3.456   0.256   4.940  0.8150  1.9226 -1.0369
 3947SOL    HW223475   3.315   0.248   4.981 -2.3100 -1.0877 -1.4508
 3948SOL     OW23476   1.367   2.873   0.895 -0.1608  0.2020  0.3759
 3948SOL    HW123477   1.312   2.951   0.881 -2.4367 -1.0480  2.4995
 3948SOL    HW223478   1.374   2.850   0.802  1.3836  0.6152  0.3941
 3949SOL     OW23479   3.074   3.599   6.189  0.7997  0.2203  0.1993
 3949SOL    HW123480   3.059   3.548   6.108 -2.4191  1.5393 -0.0469
 3949SOL    HW223481   3.169   3.587   6.187  0.6799 -0.2865 -2.4788
 3950SOL     OW23482   1.501   0.988   3.488 -0.6069  0.2420 -0.3071
 3950SOL    HW123483   1.565   0.971   3.418 -2.1478 -0.2800 -1.5934
 3950SOL    HW223484   1.426   0.933   3.469 -0.1705 -0.9798  1.5720
 3951SOL     OW23485   2.596   4.032   6.864  0.8499 -0.5788  0.1351
 3951SOL    HW123486   2.533   3.978   6.817  0.7854 -0.0683 -0.3743
 3951SOL    HW223487   2.560   4.120   6.852 -1.3836 -1.4035  0.8236
 3952SOL     OW23488   4.049   4.360  13.143  0.1422 -0.1600 -0.2616
 3952SOL    HW123489   4.007   4.411  13.213 -0.2105 -1.5830  0.5701
 3952SOL    HW223490   3.996   4.376  13.066  0.2364 -0.4008 -0.3752
 3953SOL     OW23491   3.101   1.053  17.207  0.6620 -0.7500 -0.1706
 3953SOL    HW123492   3.168   0.987  17.192  0.0375 -1.3920 -0.1325
 3953SOL    HW223493   3.140   1.131  17.168  1.0480 -0.0999  1.5444
 3954SOL     OW23494   2.982   2.009   7.516 -0.1304 -1.0853  0.4054
 3954SOL    HW123495   3.028   1.929   7.489  0.6913 -1.9257  4.3434
 3954SOL    HW223496   3.051   2.069   7.543  0.5142 -2.4818  1.8405
 3955SOL     OW23497   1.288   2.422   0.294 -0.5211  0.2421 -0.1906
 3955SOL    HW123498   1.219   2.441   0.357  1.1597  0.6135  1.5364
 3955SOL    HW223499   1.252   2.483   0.229 -1.4104 -0.2931 -0.1987
 3956SOL     OW23500   2.941   2.587  13.900 -0.6658  0.2891 -0.4142
 3956SOL    HW123501   2.951   2.492  13.898  0.2924  0.3699  0.6830
 3956SOL    HW223502   2.903   2.610  13.985  0.7229  1.6432 -0.1589
 3957SOL     OW23503   3.865   1.516   3.411  0.7487  0.3940  0.1772
 3957SOL    HW123504   3.914   1.482   3.335  1.6321 -1.1017  1.4317
 3957SOL    HW223505   3.796   1.452   3.424 -0.4263  1.9511  1.5368
 3958SOL     OW23506   4.640   1.993   9.195  0.7511  0.1992 -0.3611
 3958SOL    HW123507   4.729   1.972   9.225  0.2694 -0.3782  0.6654
 3958SOL    HW223508   4.639   2.089   9.194 -3.1084  0.1787  0.6287
 3959SOL     OW23509   1.830   2.995  17.672  0.0734 -0.4928 -0.4467
 3959SOL    HW123510   1.736   2.982  17.685 -0.2572  2.3656 -0.0399
 3959SOL    HW223511   1.854   2.926  17.734  1.9268  0.2648 -0.3329
 3960SOL     OW23512   4.701   2.259   9.190 -0.4407 -0.4550 -0.2077
 3960SOL    HW123513   0.019   2.315   9.243 -0.3517 -1.2841  0.5836
 3960SOL    HW223514   4.707   2.319   9.116 -0.2616 -0.4430 -0.1836
 3961SOL     OW23515   1.550   3.593   0.880 -0.0595 -0.1834  0.0831
 3961SOL    HW123516   1.527   3.502   0.865 -1.5185 -0.1732  2.2655
 3961SOL    HW223517   1.527   3.634   0.796  1.5885  1.1219  0.2616
 3962SOL     OW23518   4.384   1.936  13.088  0.2752 -0.5036 -0.2434
 3962SOL    HW123519   4.401   1.917  12.996 -0.3688  1.6503 -0.8077
 3962SOL    HW223520   4.422   1.859  13.130  1.1347 -0.0851 -0.2618
 3963SOL     OW23521   4.453   1.546   4.174 -0.7074 -0.2346 -0.5273
 3963SOL    HW123522   4.402   1.465   4.169 -0.7085 -0.2600 -0.1258
 3963SOL    HW223523   4.502   1.531   4.255  0.3454  0.3082 -1.0702
 3964SOL     OW23524   2.816   1.966   6.580  0.2707 -0.1188 -0.1547
 3964SOL    HW123525   2.788   1.900   6.516  0.0402 -0.1231 -0.0511
 3964SOL    HW223526   2.754   1.947   6.650  1.2732 -0.8032  0.5390
 3965SOL     OW23527   4.064   3.313   4.913 -0.2052  0.8247 -0.3989
 3965SOL    HW123528   4.033   3.383   4.970 -1.8597 -1.1894  1.2181
 3965SOL    HW223529   4.005   3.331   4.839  1.5440 -0.1571 -2.0235
 3966SOL     OW23530   3.583   3.178   3.982  0.0975 -0.2090 -0.1341
 3966SOL    HW123531   3.557   3.123   3.908 -0.5510  0.7544 -0.6138
 3966SOL    HW223532   3.569   3.268   3.953 -2.1959 -0.2858  0.7997
 3967SOL     OW23533   3.796   0.290   7.484 -0.1826  0.1216  0.0248
 3967SOL    HW123534   3.791   0.210   7.432  1.5596  0.5715 -0.8237
 3967SOL    HW223535   3.860   0.339   7.432  2.2751 -2.3298  0.7938
 3968SOL     OW23536   1.913   1.204  11.030 -0.1691 -0.8403  0.1720
 3968SOL    HW123537   1.874   1.166  11.108  0.1730 -0.6499  0.4374
 3968SOL    HW223538   1.984   1.256  11.069 -1.5655  2.1295 -1.2221
 3969SOL     OW23539   4.249   0.356   3.408 -0.2782  0.0754 -0.3214
 3969SOL    HW123540   4.160   0.371   3.438  1.0406  3.1206  2.0378
 3969SOL    HW223541   4.293   0.438   3.429 -0.9356 -0.2206  2.1671
 3970SOL     OW23542   2.856   4.603   8.666 -0.3911 -0.2472  0.6797
 3970SOL    HW123543   2.935   4.618   8.718  0.1827  2.0461 -0.8226
 3970SOL    HW223544   2.795   4.667   8.702  0.1700  0.4224  0.4476
 3971SOL     OW23545   1.944   4.478  14.436  0.2206 -0.5000 -0.0965
 3971SOL    HW123546   1.960   4.465  14.529 -2.1115  0.1936  0.4053
 3971SOL    HW223547   1.849   4.476  14.425 -0.0264  0.7668  1.7317
 3972SOL     OW23548   2.189   3.676  16.562  0.2110 -0.4069  0.8581
 3972SOL    HW123549   2.120   3.672  16.496 -0.3548  2.5750  1.2814
 3972SOL    HW223550   2.260   3.724  16.519 -0.4953  0.1965  0.3639
 3973SOL     OW23551   4.662   1.178  14.485 -0.0401  0.3423  0.1126
 3973SOL    HW123552   4.581   1.215  14.450 -0.0308 -1.1843 -1.5124
 3973SOL    HW223553   4.717   1.252  14.512  0.3468  0.7560 -1.8302
 3974SOL     OW23554   2.698   4.427   9.833 -0.0417  0.2292  0.1526
 3974SOL    HW123555   2.790   4.402   9.832 -0.1404 -0.0678 -1.1867
 3974SOL    HW223556   2.684   4.462   9.921  0.4767  3.7469 -1.1605
 3975SOL     OW23557   1.319   2.989   9.216  0.3433  0.3899  0.2983
 3975SOL    HW123558   1.321   3.074   9.173  1.3063  0.6810  0.8900
 3975SOL    HW223559   1.371   2.937   9.155 -0.2272 -1.0372  1.0473
 3976SOL     OW23560   3.857   0.578   4.373  0.0917 -0.3218 -0.4729
 3976SOL    HW123561   3.919   0.651   4.380 -0.7209  0.3750 -0.5589
 3976SOL    HW223562   3.860   0.539   4.286 -0.1164  2.3462 -1.6783
 3977SOL     OW23563   3.010   4.263   5.611 -0.0385  0.2627 -0.2226
 3977SOL    HW123564   3.101   4.262   5.583  0.0453  1.5790  0.0033
 3977SOL    HW223565   2.977   4.308   5.533  0.0685  0.2200 -0.2926
 3978SOL     OW23566   2.792   4.482   6.292  0.1252 -0.0524  0.2160
 3978SOL    HW123567   2.786   4.574   6.264 -1.1816 -0.6067 -1.3854
 3978SOL    HW223568   2.878   4.477   6.333 -0.2146  0.2325  0.9654
 3979SOL     OW23569   2.625   2.476   7.303 -0.2623  0.5149 -0.2749
 3979SOL    HW123570   2.652   2.451   7.215 -0.6807 -0.8053 -0.0206
 3979SOL    HW223571   2.645   2.397   7.352 -1.0656  0.2834 -0.3074
 3980SOL     OW23572   3.195   3.207   3.894  0.2746  0.1036 -0.0708
 3980SOL    HW123573   3.205   3.129   3.839  0.7861 -1.5294  2.2978
 3980SOL    HW223574   3.218   3.179   3.983 -1.2595 -1.0167 -0.0185
 3981SOL     OW23575   2.254   1.225   2.973 -0.4089  0.4757  0.1898
 3981SOL    HW123576   2.307   1.275   2.912  0.7468 -1.3025 -0.2761
 3981SOL    HW223577   2.184   1.287   2.991 -1.4107 -0.3465 -0.8931
 3982SOL     OW23578   3.319   2.851  17.224 -0.2265  0.1994  0.0023
 3982SOL    HW123579   3.269   2.851  17.305 -0.4796 -1.6011 -0.1592
 3982SOL    HW223580   3.271   2.924  17.183 -1.4039 -0.7624 -0.3320
 3983SOL     OW23581   2.279   2.224   4.789 -0.4231  0.7902 -0.5299
 3983SOL    HW123582   2.311   2.314   4.797  3.0311 -0.2127 -2.8675
 3983SOL    HW223583   2.242   2.213   4.876 -1.2142 -1.7775 -1.1736
 3984SOL     OW23584   4.299   0.647   3.479 -0.3390  0.0798 -0.2712
 3984SOL    HW123585   4.389   0.673   3.498 -0.4422  0.4734 -0.3220
 3984SOL    HW223586   4.260   0.691   3.554  1.5584 -1.6477  1.7584
 3985SOL     OW23587   2.822   0.840   7.906 -0.3181  0.0537  0.1898
 3985SOL    HW123588   2.854   0.897   7.976  1.3365 -0.8627  0.1805
 3985SOL    HW223589   2.845   0.750   7.931  1.1108  1.1600  2.8618
 3986SOL     OW23590   2.931   0.995   7.648  0.3914  0.3183 -0.4515
 3986SOL    HW123591   2.898   0.946   7.723 -0.8091  2.6553  0.5464
 3986SOL    HW223592   2.867   0.972   7.581  1.4772  0.2468 -1.4712
 3987SOL     OW23593   0.232   0.543  13.447 -0.5626  0.0180 -0.4050
 3987SOL    HW123594   0.196   0.620  13.491  0.7062  1.5664 -2.0561
 3987SOL    HW223595   0.188   0.548  13.363 -1.7005  1.2203  0.2708
 3988SOL     OW23596   2.389   3.317  15.356  0.0949 -0.1648 -0.1312
 3988SOL    HW123597   2.298   3.305  15.382 -0.7300 -0.7630 -3.2937
 3988SOL    HW223598   2.394   3.234  15.307 -0.3610 -0.0042 -0.4486
 3989SOL     OW23599   3.374   2.030   5.394 -0.1876 -0.5393  0.4024
 3989SOL    HW123600   3.444   2.088   5.365  1.5476 -2.7613  0.0861
 3989SOL    HW223601   3.359   2.071   5.479  2.1445  1.8800 -0.3568
 3990SOL     OW23602   0.045   4.533   4.007 -0.6657  0.4323  0.3219
 3990SOL    HW123603   4.697   4.574   4.000 -1.3268 -1.2616 -1.2908
 3990SOL    HW223604   0.073   4.562   4.094 -0.3273  0.1816  0.2934
 3991SOL     OW23605   0.140   2.192  15.970  0.3880  0.9944 -0.1761
 3991SOL    HW123606   0.065   2.249  15.954  0.1108  0.5427 -0.4839
 3991SOL    HW223607   0.182   2.179  15.885 -0.5343 -2.0031 -0.1814
 3992SOL     OW23608   4.121   2.123   1.636 -0.0029  0.5037  0.0458
 3992SOL    HW123609   4.066   2.183   1.586  0.3381 -0.5685 -1.5959
 3992SOL    HW223610   4.054   2.073   1.683 -0.5756 -1.5496 -2.9597
 3993SOL     OW23611   0.477   1.594   7.635 -0.4339 -0.4108 -0.7560
 3993SOL    HW123612   0.563   1.551   7.644 -1.0795 -1.2543  1.5097
 3993SOL    HW223613   0.431   1.533   7.693 -1.3806  0.8558 -0.1874
 3994SOL     OW23614   3.648   2.925   2.909 -0.3707  0.3389  0.6641
 3994SOL    HW123615   3.715   2.981   2.948 -1.1025  1.0801  0.8442
 3994SOL    HW223616   3.573   2.952   2.962 -0.9547 -0.8744  0.4605
 3995SOL     OW23617   1.113   2.830   8.067 -0.1480 -0.0386 -0.5711
 3995SOL    HW123618   1.127   2.906   8.124 -0.9136 -0.5160  0.2572
 3995SOL    HW223619   1.089   2.762   8.130 -1.4182  0.4387 -0.5433
 3996SOL     OW23620   2.298   3.179  10.492  0.1033 -0.0654 -0.5723
 3996SOL    HW123621   2.314   3.092  10.528  3.7619  0.5760 -0.6020
 3996SOL    HW223622   2.278   3.227  10.572  0.8206 -0.8605  0.0858
 3997SOL     OW23623   0.257   4.610  10.482 -0.2753 -0.2074  0.1667
 3997SOL    HW123624   0.170   4.641  10.455 -0.6182 -0.4904  0.9564
 3997SOL    HW223625   0.237   4.561  10.562 -0.1440  1.1912  1.0628
 3998SOL     OW23626   3.110   4.176   5.914  0.0281  0.0878 -0.0728
 3998SOL    HW123627   3.127   4.114   5.844 -0.5731 -1.4555  1.1406
 3998SOL    HW223628   3.015   4.168   5.921  0.3963 -1.9270  2.7558
 3999SOL     OW23629   3.621   0.313   3.854  0.5305  0.4591 -0.6744
 3999SOL    HW123630   3.662   0.384   3.903 -0.6305  0.2529  0.5726
 3999SOL    HW223631   3.530   0.340   3.840  0.3598 -0.6479 -1.7059
 4000SOL     OW23632   2.189   0.671   8.714  0.1093 -0.1847  0.5175
 4000SOL    HW123633   2.196   0.596   8.774 -0.8489 -0.9790 -0.3515
 4000SOL    HW223634   2.122   0.640   8.652 -1.3091  1.4762  1.2203
 4001SOL     OW23635   0.432   4.462   7.841 -0.3384 -0.2077 -0.4191
 4001SOL    HW123636   0.338   4.468   7.823 -0.8335 -3.3791  0.9949
 4001SOL    HW223637   0.444   4.393   7.907 -1.3035  0.9702  0.9813
 4002SOL     OW23638   1.165   1.799   6.380  0.1225 -0.1894  0.3181
 4002SOL    HW123639   1.183   1.815   6.287 -0.5403 -1.1617  0.0230
 4002SOL    HW223640   1.078   1.760   6.383 -0.0386  0.1613  0.2452
 4003SOL     OW23641   3.697   2.360   9.609 -0.4447  0.6379  0.1287
 4003SOL    HW123642   3.722   2.271   9.632 -1.7154  1.0034  3.0297
 4003SOL    HW223643   3.604   2.360   9.630 -0.5853 -4.0724 -0.6237
 4004SOL     OW23644   1.673   1.854  14.700  0.1447  0.8615 -0.3081
 4004SOL    HW123645   1.633   1.939  14.685 -0.0746  0.9944  1.1015
 4004SOL    HW223646   1.618   1.791  14.652  1.5139 -0.4323 -0.1936
 4005SOL     OW23647   0.424   3.406   9.202 -0.0944 -0.2846 -0.2611
 4005SOL    HW123648   0.503   3.411   9.149  1.5641 -1.8962  2.1035
 4005SOL    HW223649   0.447   3.416   9.294 -1.1859  1.1175 -0.1294
 4006SOL     OW23650   1.778   0.293   3.836 -0.0058  0.4031 -0.3155
 4006SOL    HW123651   1.768   0.388   3.842 -1.7898  0.2141 -0.1679
 4006SOL    HW223652   1.872   0.283   3.821  0.2012 -1.4760  2.2508
 4007SOL     OW23653   0.549   3.452   4.488  0.6333  0.1495  0.6817
 4007SOL    HW123654   0.492   3.420   4.558 -2.1087  1.7435 -0.8479
 4007SOL    HW223655   0.528   3.385   4.423 -0.0432 -2.0984  3.2309
 4008SOL     OW23656   1.361   3.074  14.167  0.0797 -0.0356 -0.1417
 4008SOL    HW123657   1.291   3.036  14.112  2.4557 -0.4127 -2.9157
 4008SOL    HW223658   1.442   3.032  14.137 -1.1609 -1.1230 -2.0244
 4009SOL     OW23659   4.032   3.184  16.475  0.2323  0.2705  0.3284
 4009SOL    HW123660   4.007   3.105  16.523 -0.7773  0.2432 -0.2446
 4009SOL    HW223661   3.956   3.240  16.490  1.5445  2.7998 -2.6045
 4010SOL     OW23662   3.873   3.840   5.500  0.2038 -0.0235 -0.3131
 4010SOL    HW123663   3.940   3.859   5.565 -0.9216  3.3281 -0.1517
 4010SOL    HW223664   3.853   3.756   5.541 -1.3206  0.2651 -0.4606
 4011SOL     OW23665   1.632   3.175   1.925  0.8077 -0.3214 -0.4657
 4011SOL    HW123666   1.550   3.212   1.893  0.7665  1.4071  1.5942
 4011SOL    HW223667   1.645   3.234   2.000  2.8560 -1.4870  0.0861
 4012SOL     OW23668   2.227   3.376   4.873 -0.3703  0.4395  0.2495
 4012SOL    HW123669   2.242   3.439   4.943  1.0877  1.2386 -0.7715
 4012SOL    HW223670   2.223   3.435   4.797 -0.8869 -0.4462 -0.4030
 4013SOL     OW23671   2.162   4.002   5.233 -0.4560  0.8867  0.3424
 4013SOL    HW123672   2.134   4.091   5.213 -0.0321  1.3324  1.6698
 4013SOL    HW223673   2.195   4.006   5.323  2.0406 -0.0423 -0.5257
 4014SOL     OW23674   4.051   3.412   6.410 -0.1022 -0.5566 -0.2254
 4014SOL    HW123675   4.110   3.443   6.479  1.0596 -1.0133 -1.0222
 4014SOL    HW223676   4.000   3.493   6.402  0.1796 -0.3632 -0.0711
 4015SOL     OW23677   2.096   0.315   7.191  0.6422 -0.2779 -0.0209
 4015SOL    HW123678   2.098   0.405   7.223  1.5854 -0.5180  0.5825
 4015SOL    HW223679   2.119   0.328   7.099 -3.3993 -0.9170 -1.1219
 4016SOL     OW23680   0.599   1.970   3.379 -0.5383  0.4040  0.7040
 4016SOL    HW123681   0.518   2.010   3.411  0.0962  1.1494  1.3632
 4016SOL    HW223682   0.642   2.047   3.343 -1.8884 -0.4582 -2.7221
 4017SOL     OW23683   1.879   4.642   7.966 -0.2265  0.2542  0.5698
 4017SOL    HW123684   1.881   4.569   7.905  0.3195 -1.1215  2.2297
 4017SOL    HW223685   1.972   4.662   7.978 -0.6027  1.2236  1.9358
 4018SOL     OW23686   1.776   1.906   4.370  0.0539 -0.2370  0.1804
 4018SOL    HW123687   1.750   1.920   4.461 -0.8628 -2.4955  0.2535
 4018SOL    HW223688   1.871   1.910   4.382  0.1266  0.7647 -0.7308
 4019SOL     OW23689   1.556   2.302  14.211 -0.2397 -0.5690 -0.6450
 4019SOL    HW123690   1.516   2.334  14.130  0.7844  1.0056 -0.5274
 4019SOL    HW223691   1.639   2.349  14.215 -2.2760  3.0364 -1.0537
 4020SOL     OW23692   2.472   4.019  14.651 -0.3649 -0.1848 -0.1305
 4020SOL    HW123693   2.398   4.069  14.616 -0.7931 -0.1032  0.9032
 4020SOL    HW223694   2.473   3.947  14.588 -0.9759 -1.9546  1.8985
 4021SOL     OW23695   2.075   0.451   5.589 -0.1918 -0.1402  0.3132
 4021SOL    HW123696   2.044   0.374   5.637  1.3434 -0.9457  0.0147
 4021SOL    HW223697   2.130   0.480   5.662  1.7342  1.5777 -1.8452
 4022SOL     OW23698   0.391   3.742   8.656 -0.3004  0.2837  0.1187
 4022SOL    HW123699   0.319   3.803   8.640 -0.6914 -0.1996  0.0383
 4022SOL    HW223700   0.337   3.687   8.713 -0.9985 -0.0361 -0.8506
 4023SOL     OW23701   1.842   2.729   4.956  0.4416  0.4466 -0.7213
 4023SOL    HW123702   1.815   2.698   4.870  0.0734  0.8537 -0.7538
 4023SOL    HW223703   1.883   2.812   4.932  0.7497  0.4245 -0.2714
 4024SOL     OW23704   2.011   1.103  10.303 -0.3820 -0.0847 -0.0112
 4024SOL    HW123705   2.020   1.008  10.299  1.1396  0.0376  0.4700
 4024SOL    HW223706   1.969   1.097  10.389 -0.9572  1.3434 -0.1953
 4025SOL     OW23707   0.113   0.674  14.662 -0.2035 -0.5065 -0.1727
 4025SOL    HW123708   0.181   0.680  14.596  0.2230  0.6707  0.3632
 4025SOL    HW223709   0.066   0.753  14.636  1.8851  1.0063  0.7056
 4026SOL     OW23710   3.146   2.399   0.829  0.0089 -0.3635  0.3763
 4026SOL    HW123711   3.207   2.406   0.902  0.9560  1.1834 -0.5702
 4026SOL    HW223712   3.102   2.317   0.854 -0.0593  0.2252  2.1903
 4027SOL     OW23713   1.768   3.904   5.294  0.2596  0.2090  0.5232
 4027SOL    HW123714   1.854   3.933   5.325 -0.0410 -0.0322  1.5649
 4027SOL    HW223715   1.803   3.831   5.242  1.1666  2.2457 -1.7679
 4028SOL     OW23716   4.007   0.773   7.976  0.0755 -0.1691 -0.0819
 4028SOL    HW123717   4.061   0.811   7.906 -0.8221 -0.3425 -0.8716
 4028SOL    HW223718   3.935   0.835   7.988 -1.1955 -1.5519 -0.5578
 4029SOL     OW23719   0.260   1.320   8.623  0.1616  0.1182 -0.5021
 4029SOL    HW123720   0.176   1.335   8.665 -0.4892  1.7059 -2.3529
 4029SOL    HW223721   0.263   1.225   8.617 -2.5840 -0.0213  0.6231
 4030SOL     OW23722   2.641   2.679  14.901 -0.4051  0.8545 -0.4465
 4030SOL    HW123723   2.654   2.631  14.819 -0.6492 -1.2703  0.7667
 4030SOL    HW223724   2.568   2.633  14.941  0.4449  0.9365  1.2150
 4031SOL     OW23725   1.637   1.263   4.560 -0.0231  0.1769 -0.2430
 4031SOL    HW123726   1.558   1.306   4.591 -0.3050 -0.2687 -0.3449
 4031SOL    HW223727   1.650   1.322   4.485 -2.6386 -0.0792 -0.9125
 4032SOL     OW23728   0.539   0.753   4.986 -0.7649  0.2959  0.1944
 4032SOL    HW123729   0.549   0.824   4.923  1.3906 -0.1618  0.0069
 4032SOL    HW223730   0.598   0.689   4.947  1.0183  1.2711  1.2966
 4033SOL     OW23731   0.765   4.253   7.692 -0.4337  0.2338 -0.2757
 4033SOL    HW123732   0.802   4.331   7.653  0.7425 -0.9550 -1.5243
 4033SOL    HW223733   0.806   4.190   7.633 -3.9697 -0.5896 -1.8746
 4034SOL     OW23734   3.951   2.005   3.458 -0.0492  0.4502  0.8536
 4034SOL    HW123735   4.031   1.954   3.465  0.6795  1.2982 -1.1295
 4034SOL    HW223736   3.898   1.928   3.436  1.0494 -0.2366  0.6471
 4035SOL     OW23737   4.683   1.574  16.522  0.7930  0.1751 -0.0505
 4035SOL    HW123738   4.721   1.504  16.469  0.8093 -0.4634  0.7887
 4035SOL    HW223739   0.011   1.640  16.504  0.1455  0.9637  0.4472
 4036SOL     OW23740   2.438   1.964  17.285 -0.6769 -0.1103 -0.5037
 4036SOL    HW123741   2.458   1.901  17.216  0.2076  0.6674 -0.9510
 4036SOL    HW223742   2.425   2.047  17.239  0.9717 -0.0970 -0.9337
 4037SOL     OW23743   3.041   1.000   2.167  0.3008 -0.5236  0.4887
 4037SOL    HW123744   3.082   1.086   2.176  0.0169 -0.3066 -0.2868
 4037SOL    HW223745   2.958   1.021   2.210  2.0843  1.8469  2.6993
 4038SOL     OW23746   0.321   2.543   6.478  0.2717 -0.4326 -0.1437
 4038SOL    HW123747   0.339   2.586   6.561 -1.0936 -0.7856  0.3371
 4038SOL    HW223748   0.369   2.460   6.484 -0.8455 -0.9473  1.9498
 4039SOL     OW23749   1.482   3.242  11.566 -0.5892  0.0223 -0.2532
 4039SOL    HW123750   1.407   3.225  11.623 -1.1607  1.9322 -0.4288
 4039SOL    HW223751   1.487   3.159  11.519  0.2194  0.1523 -0.3925
 4040SOL     OW23752   1.069   3.199  17.354  0.2752  0.2620  0.2779
 4040SOL    HW123753   1.134   3.233  17.293  0.8683 -0.4919  0.4826
 4040SOL    HW223754   1.115   3.120  17.382  2.5198  1.0855 -1.0917
 4041SOL     OW23755   1.142   4.507   1.033  0.0184 -0.1812  0.4335
 4041SOL    HW123756   1.086   4.571   0.989 -0.6514 -0.4091  0.9666
 4041SOL    HW223757   1.205   4.479   0.967  0.9270  1.5635  0.5532
 4042SOL     OW23758   4.459   3.832   9.745 -0.0848 -0.4555 -0.2170
 4042SOL    HW123759   4.513   3.892   9.796 -0.2657 -1.2736  0.9442
 4042SOL    HW223760   4.497   3.749   9.775 -0.1743 -1.3010 -2.4537
 4043SOL     OW23761   3.622   1.646   4.920  0.6547 -0.0148  0.1118
 4043SOL    HW123762   3.686   1.591   4.875 -0.1707 -2.8189  2.3508
 4043SOL    HW223763   3.664   1.731   4.908  2.3728 -1.0852 -1.4456
 4044SOL     OW23764   3.827   2.872  17.456 -0.1493 -0.6363 -0.5573
 4044SOL    HW123765   3.751   2.818  17.438 -0.7768 -0.3136  1.1255
 4044SOL    HW223766   3.848   2.926  17.379  0.7559  0.3407  0.3802
 4045SOL     OW23767   0.564   1.717   2.992  0.5034 -0.3095  0.0254
 4045SOL    HW123768   0.516   1.800   2.986  0.6050 -0.3853 -1.7941
 4045SOL    HW223769   0.514   1.665   3.056  0.7407 -0.5947 -0.0203
 4046SOL     OW23770   0.212   3.288   2.155 -0.5384  0.1862  0.0352
 4046SOL    HW123771   0.289   3.232   2.167  1.6240  3.1530 -0.0036
 4046SOL    HW223772   0.138   3.228   2.165 -0.1740 -0.6175 -1.9280
 4047SOL     OW23773   4.697   4.541   1.939 -0.4814 -0.0304 -0.0030
 4047SOL    HW123774   4.735   4.599   1.872 -2.0586  2.0347  0.9068
 4047SOL    HW223775   4.626   4.499   1.891 -2.7772  2.6040  1.0773
 4048SOL     OW23776   1.023   0.883  12.286 -0.1079  1.3940 -0.3017
 4048SOL    HW123777   1.021   0.918  12.376  0.8570 -1.0619  0.6635
 4048SOL    HW223778   1.099   0.824  12.286 -1.0750  0.1670 -0.7327
 4049SOL     OW23779   4.597   3.260  13.265 -0.1019  0.1019  0.7700
 4049SOL    HW123780   4.580   3.194  13.332  0.2795  0.8873  1.6416
 4049SOL    HW223781   4.596   3.345  13.310 -1.0277  0.2620  0.4539
 4050SOL     OW23782   4.147   3.196   6.520 -0.3922 -0.2123  0.3017
 4050SOL    HW123783   4.102   3.269   6.478  1.0747  1.9143  2.4510
 4050SOL    HW223784   4.113   3.119   6.474  0.6425  0.1478 -1.0857
 4051SOL     OW23785   3.263   1.859   2.497 -0.3293 -0.3734  0.1817
 4051SOL    HW123786   3.174   1.891   2.488  0.2921  1.7353  1.5013
 4051SOL    HW223787   3.311   1.919   2.440 -0.8320 -1.9509 -1.8990
 4052SOL     OW23788   0.636   2.277  16.088 -0.1271  0.3949 -0.2949
 4052SOL    HW123789   0.557   2.296  16.038 -0.4193 -4.0303 -1.4961
 4052SOL    HW223790   0.704   2.265  16.021  0.5994  2.1544  0.1242
 4053SOL     OW23791   3.338   4.295   4.151  0.6447  0.1448  0.6449
 4053SOL    HW123792   3.276   4.232   4.115  0.2415  1.4226 -0.9372
 4053SOL    HW223793   3.346   4.361   4.081  1.1238 -0.8719 -0.2630
 4054SOL     OW23794   2.400   1.974   7.301  0.1401 -0.5900 -0.0889
 4054SOL    HW123795   2.410   2.010   7.213 -0.5657 -1.1568 -0.3982
 4054SOL    HW223796   2.444   1.890   7.289 -2.1158 -1.7366 -0.3019
 4055SOL     OW23797   1.109   2.670   3.324  0.0408 -0.0032 -0.2552
 4055SOL    HW123798   1.075   2.643   3.410  1.5857  1.0237  0.6784
 4055SOL    HW223799   1.134   2.759   3.350 -2.6671  0.5686  0.3025
 4056SOL     OW23800   4.006   3.748   7.256 -0.4133  0.0111 -0.0685
 4056SOL    HW123801   4.014   3.744   7.160  1.2054  2.2183 -0.0269
 4056SOL    HW223802   4.073   3.810   7.284 -1.0158  1.2227 -1.2783
 4057SOL     OW23803   2.877   4.084   5.764 -0.6330 -0.3149 -0.0340
 4057SOL    HW123804   2.919   4.151   5.710 -0.9004  1.1453  1.5884
 4057SOL    HW223805   2.866   4.022   5.692  1.4124  0.1655 -0.7601
 4058SOL     OW23806   2.035   3.657   5.451  0.7782 -0.2574 -0.1394
 4058SOL    HW123807   2.018   3.678   5.542  3.1142 -1.2191  0.5332
 4058SOL    HW223808   1.953   3.616   5.424 -0.2693  1.6056  0.2535
 4059SOL     OW23809   3.345   3.537   7.852 -0.1550 -0.3913 -0.3850
 4059SOL    HW123810   3.402   3.461   7.865  0.3567 -0.1475 -1.2058
 4059SOL    HW223811   3.355   3.534   7.757 -0.9422  1.7184 -0.5192
 4060SOL     OW23812   0.481   3.275   7.809 -0.4650  0.1256  0.4702
 4060SOL    HW123813   0.530   3.356   7.827 -1.8395  0.6131  2.1121
 4060SOL    HW223814   0.481   3.232   7.895 -1.1266 -1.6174 -0.3999
 4061SOL     OW23815   3.733   2.543   9.392  0.0950 -0.3982  0.6734
 4061SOL    HW123816   3.744   2.478   9.322  0.9626 -1.0995  1.4572
 4061SOL    HW223817   3.724   2.480   9.463  3.8271 -0.9581  0.6682
 4062SOL     OW23818   1.313   2.126   3.617 -0.8010  0.0736 -0.3691
 4062SOL    HW123819   1.287   2.145   3.707 -0.3500 -0.9335 -0.0230
 4062SOL    HW223820   1.266   2.201   3.580 -2.3454 -1.2508 -1.1092
 4063SOL     OW23821   1.245   1.739   8.490 -0.2397  0.1789  0.2802
 4063SOL    HW123822   1.330   1.713   8.455  0.7410  2.2985  1.1082
 4063SOL    HW223823   1.263   1.827   8.522 -2.5815  1.4626 -1.9048
 4064SOL     OW23824   0.752   0.657   3.456 -0.2699 -0.4691 -1.1606
 4064SOL    HW123825   0.795   0.612   3.383 -0.0542 -0.7572 -0.8515
 4064SOL    HW223826   0.667   0.615   3.467 -1.4920  2.1907 -0.4953
 4065SOL     OW23827   3.656   0.463   8.743  0.1398 -0.0878 -0.6417
 4065SOL    HW123828   3.587   0.423   8.796 -0.3281  1.1732 -0.3092
 4065SOL    HW223829   3.622   0.551   8.727 -1.8065 -0.8595 -0.7300
 4066SOL     OW23830   1.950   2.577   6.967  0.8819 -0.2981 -0.0161
 4066SOL    HW123831   1.902   2.505   6.925  0.8356  0.0447 -0.5588
 4066SOL    HW223832   1.887   2.649   6.955 -0.8269 -1.5953  1.1508
 4067SOL     OW23833   2.400   0.135   2.319  0.5875  0.4385 -0.3673
 4067SOL    HW123834   2.410   0.230   2.313 -1.6517  0.6334 -0.9632
 4067SOL    HW223835   2.408   0.116   2.412 -1.2017 -0.3890 -0.3907
 4068SOL     OW23836   3.338   4.549   7.976 -0.3320  0.0132 -0.0479
 4068SOL    HW123837   3.291   4.523   7.897  0.8472  1.2217 -1.1442
 4068SOL    HW223838   3.386   4.628   7.950 -3.2285  2.2062  1.2784
 4069SOL     OW23839   0.249   0.247   7.809  0.1001 -0.3172  0.5137
 4069SOL    HW123840   0.240   0.155   7.835  1.4042 -0.9680 -1.3110
 4069SOL    HW223841   0.344   0.245   7.817  0.0933  0.4717  0.7784
 4070SOL     OW23842   1.023   3.187  13.318  0.6984 -0.2474 -0.4942
 4070SOL    HW123843   1.056   3.106  13.356  2.0599  1.3719  1.8299
 4070SOL    HW223844   0.938   3.201  13.361  0.7664  2.0160 -1.0873
 4071SOL     OW23845   2.674   1.955   5.532 -0.6165  0.5106 -0.0694
 4071SOL    HW123846   2.716   2.036   5.561  0.6922  0.0233 -0.6319
 4071SOL    HW223847   2.618   1.989   5.461  0.4390  1.8075 -0.2886
 4072SOL     OW23848   4.464   1.930  13.500  0.8833 -0.2704 -1.4344
 4072SOL    HW123849   4.530   1.973  13.445  1.7092  0.0551 -0.1964
 4072SOL    HW223850   4.508   1.942  13.584 -0.7199  2.9941 -1.0582
 4073SOL     OW23851   0.888   3.724   4.036 -0.0891 -0.1950  0.0945
 4073SOL    HW123852   0.807   3.776   4.035  0.1636  0.1926 -0.0573
 4073SOL    HW223853   0.891   3.713   4.131 -0.6140 -2.7271 -0.1809
 4074SOL     OW23854   3.351   0.065   6.001  0.4018 -0.4741  0.4533
 4074SOL    HW123855   3.421   0.023   5.950  2.6115  0.5873  2.6281
 4074SOL    HW223856   3.391   0.074   6.087  0.1201 -0.4912  0.5837
 4075SOL     OW23857   3.555   1.400  13.317  0.3058 -0.4330  0.1428
 4075SOL    HW123858   3.554   1.340  13.391 -2.2251 -0.2000  0.2973
 4075SOL    HW223859   3.589   1.481  13.355  1.6313 -0.6456 -0.5917
 4076SOL     OW23860   2.574   3.509  15.283  0.4612  0.1257  0.1885
 4076SOL    HW123861   2.517   3.447  15.330  2.0379 -0.0248  1.8971
 4076SOL    HW223862   2.509   3.555  15.230 -0.2231 -0.2792  0.6666
 4077SOL     OW23863   3.355   4.730   0.148  0.3387  0.1537 -0.1851
 4077SOL    HW123864   3.355   0.036   0.232  1.1227  3.4202 -1.9088
 4077SOL    HW223865   3.264   0.003   0.121  1.1853 -1.7495 -3.9178
 4078SOL     OW23866   0.210   1.994  11.880 -0.2286  0.4038 -0.4727
 4078SOL    HW123867   0.204   2.003  11.975  1.5648  2.2867 -0.5279
 4078SOL    HW223868   0.291   2.044  11.866  0.2920 -0.3230 -0.0444
 4079SOL     OW23869   1.359   1.474  11.491 -0.5241 -0.3108 -0.4153
 4079SOL    HW123870   1.323   1.436  11.571 -0.0526 -0.2052 -0.1540
 4079SOL    HW223871   1.391   1.557  11.527 -0.2658 -0.3050 -0.6544
 4080SOL     OW23872   4.410   1.673   6.316 -0.3380  0.1996  0.7438
 4080SOL    HW123873   4.358   1.679   6.236 -2.0534  1.8580  1.9831
 4080SOL    HW223874   4.365   1.728   6.380 -0.1418  0.0085  1.0479
 4081SOL     OW23875   0.946   0.391   2.467  0.3995 -0.1848  0.6722
 4081SOL    HW123876   0.890   0.313   2.465  0.2817 -0.1528  2.6881
 4081SOL    HW223877   0.881   0.461   2.461 -0.7963 -1.2536  0.9870
 4082SOL     OW23878   4.593   4.663   3.159  0.2982 -0.0547  0.0211
 4082SOL    HW123879   4.587   4.623   3.072 -1.7171 -0.6978  0.4708
 4082SOL    HW223880   4.682   4.699   3.162 -0.1368  1.0431 -0.4384
 4083SOL     OW23881   3.794   2.392  14.964 -0.3540 -0.9831 -0.3887
 4083SOL    HW123882   3.727   2.371  14.899 -1.3471 -0.7100  0.5379
 4083SOL    HW223883   3.738   2.421  15.036  0.7109  2.0177 -0.7635
 4084SOL     OW23884   3.243   2.125   3.795 -0.0345  0.1706  0.2967
 4084SOL    HW123885   3.231   2.032   3.775 -3.3080  0.2284  2.0371
 4084SOL    HW223886   3.315   2.145   3.735 -1.0719 -0.0762 -1.0315
 4085SOL     OW23887   0.172   4.737  17.151  0.2799 -0.5940 -0.5435
 4085SOL    HW123888   0.223   4.682  17.210  0.6966 -0.4523 -0.7690
 4085SOL    HW223889   0.088   4.703  17.181  0.4825 -1.3293 -0.7951
 4086SOL     OW23890   0.615   1.562   4.710 -0.3538 -0.3000 -0.6470
 4086SOL    HW123891   0.575   1.648   4.699 -0.1552  0.1209  1.9126
 4086SOL    HW223892   0.536   1.508   4.707 -0.9080  0.4110  1.2547
 4087SOL     OW23893   0.287   2.944   6.781 -0.3281 -0.2250 -0.6781
 4087SOL    HW123894   0.277   3.028   6.827 -2.5374 -0.7469 -0.2125
 4087SOL    HW223895   0.210   2.925   6.728 -0.8012 -2.1546  0.7279
 4088SOL     OW23896   0.977   0.189   7.979 -0.1341 -0.2139  0.7100
 4088SOL    HW123897   1.010   0.170   7.891 -0.8216  2.6741 -0.1477
 4088SOL    HW223898   1.049   0.151   8.028  1.3558  1.8868  0.1390
 4089SOL     OW23899   2.161   2.807   3.896 -0.2224 -0.0551  0.8543
 4089SOL    HW123900   2.214   2.775   3.823  1.7756  1.6121  1.5586
 4089SOL    HW223901   2.077   2.762   3.890  0.9954 -1.6268 -4.2693
 4090SOL     OW23902   0.454   3.469   3.559  0.8039 -0.2883 -0.2689
 4090SOL    HW123903   0.374   3.450   3.608  0.3791  1.7100 -0.1899
 4090SOL    HW223904   0.506   3.507   3.630 -0.8383  1.0542  0.2210
 4091SOL     OW23905   3.004   2.908   6.397 -0.1639 -0.4960 -0.4371
 4091SOL    HW123906   3.061   2.932   6.471  0.7463 -1.6925 -0.7521
 4091SOL    HW223907   2.956   2.991   6.396 -0.6348 -0.7770 -0.8930
 4092SOL     OW23908   1.334   2.067   8.569 -0.4513 -0.5263  0.4973
 4092SOL    HW123909   1.414   2.064   8.621  0.2719  0.4186 -0.5431
 4092SOL    HW223910   1.353   2.109   8.485  1.8662 -1.0808  0.7672
 4093SOL     OW23911   0.345   0.000   7.373 -0.0143 -0.5075 -0.5069
 4093SOL    HW123912   0.279   0.064   7.345 -1.8187 -1.4707  1.5181
 4093SOL    HW223913   0.347   4.682   7.296  1.6239 -0.4636 -0.4933
 4094SOL     OW23914   0.338   1.373  16.195 -0.0707  0.0292  0.1526
 4094SOL    HW123915   0.253   1.386  16.154 -0.1354 -2.0243 -0.3182
 4094SOL    HW223916   0.322   1.292  16.243 -1.4331 -0.5078 -1.2304
 4095SOL     OW23917   1.330   0.073   5.363  0.5043 -0.1272 -0.5668
 4095SOL    HW123918   1.353   0.058   5.455 -3.4318  1.3162  0.6961
 4095SOL    HW223919   1.386   0.150   5.350  1.9107 -1.0606  0.0297
 4096SOL     OW23920   2.881   3.094   3.540 -0.7718 -1.0297  0.5205
 4096SOL    HW123921   2.909   3.184   3.529 -0.5890 -0.8057  2.8566
 4096SOL    HW223922   2.790   3.104   3.512 -0.5566  2.0721  0.9931
 4097SOL     OW23923   1.300   2.602  10.274  0.5163  0.2111 -0.0590
 4097SOL    HW123924   1.387   2.596  10.315 -0.3978  0.5843  1.9482
 4097SOL    HW223925   1.328   2.622  10.185  1.5723 -0.8924  0.0186
 4098SOL     OW23926   4.467   0.697   4.821 -0.1601 -0.0110  0.4269
 4098SOL    HW123927   4.521   0.627   4.784  0.1366  0.8875 -0.8388
 4098SOL    HW223928   4.535   0.751   4.861 -1.3330  2.2208 -0.5721
 4099SOL     OW23929   0.053   2.077  16.215  0.2797  0.2184  0.5131
 4099SOL    HW123930   0.127   2.038  16.260  1.1601 -0.4323 -1.5434
 4099SOL    HW223931   0.103   2.119  16.145 -0.2943 -1.4922 -0.9094
 4100SOL     OW23932   3.594   2.290   4.175 -0.4378 -0.0005  0.0417
 4100SOL    HW123933   3.527   2.345   4.214  0.2750 -0.5411  2.0350
 4100SOL    HW223934   3.552   2.205   4.190  0.9192 -0.8805 -1.1576
 4101SOL     OW23935   3.762   3.653   7.030 -0.6356  0.7533  0.0982
 4101SOL    HW123936   3.836   3.711   7.011  0.2019 -0.6296 -0.8284
 4101SOL    HW223937   3.714   3.659   6.948 -0.5191  2.1016  0.1284
 4102SOL     OW23938   2.404   3.075   4.056 -1.0177 -0.1838 -0.8847
 4102SOL    HW123939   2.333   3.110   4.002 -0.6256 -0.1202 -1.3556
 4102SOL    HW223940   2.450   3.021   3.992  1.5338  1.7259 -0.7081
 4103SOL     OW23941   1.907   2.845   3.657  0.3379  0.4383  0.5798
 4103SOL    HW123942   1.935   2.895   3.580 -1.7661 -1.0573 -1.1867
 4103SOL    HW223943   1.850   2.913   3.692 -1.9039 -1.6216  0.8998
 4104SOL     OW23944   2.484   1.548  14.540 -0.4782  0.1718  0.0164
 4104SOL    HW123945   2.458   1.574  14.628  2.4750  2.3423  0.2437
 4104SOL    HW223946   2.551   1.481  14.553 -0.7904 -0.1987 -0.2725
 4105SOL     OW23947   1.943   1.215   5.765 -0.3504 -0.3419 -0.3838
 4105SOL    HW123948   1.887   1.186   5.838 -1.6842 -0.1527 -1.3313
 4105SOL    HW223949   2.007   1.144   5.772 -0.2627 -0.4139 -1.9172
 4106SOL     OW23950   0.604   1.150   6.831  0.1291 -0.1802 -0.3416
 4106SOL    HW123951   0.685   1.112   6.797  1.4215 -0.3055  2.8632
 4106SOL    HW223952   0.573   1.090   6.898 -0.5538 -0.6833 -1.1032
 4107SOL     OW23953   0.419   1.096   9.019  0.5930 -0.2338 -0.0255
 4107SOL    HW123954   0.326   1.093   8.995  0.2010 -1.6189  1.6591
 4107SOL    HW223955   0.409   1.148   9.099  3.3780  0.6443 -0.2614
 4108SOL     OW23956   2.512   3.869   5.394 -0.0114 -0.6114  0.2103
 4108SOL    HW123957   2.440   3.925   5.424  1.2328  0.8638  0.4269
 4108SOL    HW223958   2.490   3.851   5.302 -0.3996 -4.0660  0.9796
 4109SOL     OW23959   3.091   3.920   1.770 -0.8005  0.4609 -0.2844
 4109SOL    HW123960   3.001   3.924   1.801 -1.0545  0.4580 -1.0098
 4109SOL    HW223961   3.090   3.930   1.674  0.8474 -0.5492 -0.4009
 4110SOL     OW23962   0.832   4.188   7.948 -0.3511 -0.4316  0.2727
 4110SOL    HW123963   0.809   4.226   7.863  2.1545 -1.7899 -1.0153
 4110SOL    HW223964   0.812   4.263   8.004 -1.6961 -1.0342  0.5891
 4111SOL     OW23965   4.550   2.523   6.338  0.1650 -0.0474 -0.0428
 4111SOL    HW123966   4.572   2.466   6.264 -2.4393  1.1544 -1.7747
 4111SOL    HW223967   4.455   2.537   6.332 -0.2233 -1.9666  1.7804
 4112SOL     OW23968   1.622   1.075  12.198  0.1580 -0.0559 -0.1070
 4112SOL    HW123969   1.647   0.991  12.236 -3.2528 -0.9322  0.1623
 4112SOL    HW223970   1.577   1.115  12.272 -0.1026  0.1261 -0.3641
 4113SOL     OW23971   1.988   0.854   2.945  0.3398 -0.2186 -0.2976
 4113SOL    HW123972   1.941   0.804   3.012  0.3200 -0.7376 -0.7012
 4113SOL    HW223973   1.994   0.941   2.985 -1.4908  0.0194 -0.5415
 4114SOL     OW23974   1.511   0.282  13.369 -0.3061  0.2795  0.1799
 4114SOL    HW123975   1.417   0.265  13.377 -0.4433  1.3970  0.9403
 4114SOL    HW223976   1.512   0.314  13.279  2.1344 -1.0073 -0.2592
 4115SOL     OW23977   1.865   4.583  10.477 -0.3330  0.0564 -0.2613
 4115SOL    HW123978   1.864   4.492  10.449 -0.7102 -0.7225  2.2475
 4115SOL    HW223979   1.805   4.586  10.552  0.8165 -0.4934  0.6648
 4116SOL     OW23980   1.964   4.302   8.456  0.0342  0.1942 -0.1980
 4116SOL    HW123981   2.056   4.325   8.442 -0.7138  2.2403 -1.7038
 4116SOL    HW223982   1.970   4.215   8.417  0.4069  0.7074 -1.2663
 4117SOL     OW23983   3.725   4.046   7.061  0.0627  0.5364  0.0420
 4117SOL    HW123984   3.709   4.030   6.968 -0.2176 -1.0399  0.3706
 4117SOL    HW223985   3.805   4.099   7.057 -0.0093  0.8328  2.9001
 4118SOL     OW23986   0.991   2.382   3.729  0.5302 -0.4862 -0.4728
 4118SOL    HW123987   0.941   2.302   3.744  0.7676 -0.2442  1.6792
 4118SOL    HW223988   1.009   2.417   3.816 -2.8994 -0.7078  0.3199
 4119SOL     OW23989   0.756   2.851   2.637 -0.1190  0.3948 -0.1165
 4119SOL    HW123990   0.835   2.854   2.583 -0.2535 -2.4774 -0.4867
 4119SOL    HW223991   0.694   2.799   2.586 -1.4726  2.4500 -0.5898
 4120SOL     OW23992   2.629   1.128   7.591 -0.2194 -0.1669 -0.1741
 4120SOL    HW123993   2.592   1.051   7.635 -1.2166 -0.2314 -1.1122
 4120SOL    HW223994   2.656   1.103   7.502  1.3185 -0.8541  0.4917
 4121SOL     OW23995   0.382   0.115   2.155  0.4830  0.0904 -0.6659
 4121SOL    HW123996   0.357   0.206   2.142  0.7682  0.3892  0.7927
 4121SOL    HW223997   0.362   0.100   2.248  0.7590 -1.4607 -0.8443
 4122SOL     OW23998   3.386   0.890   5.481  0.3820 -0.8969  0.6351
 4122SOL    HW123999   3.326   0.895   5.406  0.2295 -0.2609  0.7954
 4122SOL    HW224000   3.336   0.928   5.553  1.8349 -0.3467  1.3527
 4123SOL     OW24001   2.894   3.072   2.017 -0.2085 -0.2088  0.4293
 4123SOL    HW124002   2.900   2.976   2.025 -0.7178 -0.3850 -1.1730
 4123SOL    HW224003   2.983   3.105   2.003 -0.6024  0.3850 -0.6504
 4124SOL     OW24004   3.941   3.095   8.165 -0.1968  0.1366  0.0889
 4124SOL    HW124005   3.872   3.102   8.231  1.4521 -0.2910  1.8672
 4124SOL    HW224006   3.973   3.182   8.142  0.5732  0.8424  3.6812
 4125SOL     OW24007   2.177   1.984   3.339 -0.2249 -0.1521 -0.3053
 4125SOL    HW124008   2.127   2.035   3.402  2.4324  1.4684  0.5064
 4125SOL    HW224009   2.186   2.046   3.266  2.3463 -1.0097 -0.7366
 4126SOL     OW24010   1.467   1.691  13.992  0.0035 -0.6109  0.1718
 4126SOL    HW124011   1.507   1.662  14.073 -0.2961 -1.0023  0.1849
 4126SOL    HW224012   1.519   1.662  13.917  0.8830  3.4282 -0.8094
 4127SOL     OW24013   1.487   0.075  14.157 -0.6352  0.8563 -0.2971
 4127SOL    HW124014   1.538   0.096  14.235 -0.7735 -1.3472  0.3843
 4127SOL    HW224015   1.500   0.147  14.095 -0.4683  1.7070  0.7340
 4128SOL     OW24016   4.131   0.050   5.433  0.1980  0.0641  0.0645
 4128SOL    HW124017   4.118   0.134   5.389  0.3491  0.3114  0.4870
 4128SOL    HW224018   4.039   0.035   5.457  0.7485  0.2416  2.3633
 4129SOL     OW24019   4.633   0.048   6.447  0.2466 -0.8385  0.3336
 4129SOL    HW124020   4.593   0.125   6.407  4.2692  1.1039  0.0059
 4129SOL    HW224021   4.553   0.014   6.485 -1.0496  2.6039  0.7267
 4130SOL     OW24022   0.787   1.413   1.560 -0.6435 -0.2046 -0.2576
 4130SOL    HW124023   0.733   1.337   1.582  1.2846 -0.6800  2.8409
 4130SOL    HW224024   0.849   1.370   1.501 -1.9877  0.2263 -1.9725
 4131SOL     OW24025   1.308   2.812   7.489 -0.2250  0.2578  0.3893
 4131SOL    HW124026   1.243   2.824   7.420  0.0820 -1.9195 -0.2708
 4131SOL    HW224027   1.253   2.787   7.564 -0.3747 -1.1312 -0.1820
 4132SOL     OW24028   4.340   3.744   5.775  0.4591 -0.5537 -0.0864
 4132SOL    HW124029   4.371   3.715   5.689 -3.8296 -2.0355 -1.1347
 4132SOL    HW224030   4.421   3.734   5.825  0.8800  0.5855 -0.5557
 4133SOL     OW24031   4.665   3.395   1.537  0.1054 -0.3850 -0.9920
 4133SOL    HW124032   0.019   3.388   1.560 -0.1532  1.6913  0.6171
 4133SOL    HW224033   4.615   3.359   1.610  1.2845 -0.6070 -0.2891
 4134SOL     OW24034   2.986   4.663   3.774  0.6500  0.1482 -0.1608
 4134SOL    HW124035   2.961   4.713   3.697  1.9987  0.7273 -0.2272
 4134SOL    HW224036   2.902   4.639   3.812 -0.2454  2.7874 -0.5179
 4135SOL     OW24037   0.358   4.203   8.627 -0.3619  0.2428 -0.1247
 4135SOL    HW124038   0.424   4.166   8.568 -0.9956 -1.1720  0.0555
 4135SOL    HW224039   0.407   4.261   8.686 -1.0837  0.3832  0.3295
 4136SOL     OW24040   0.728   1.144  10.679 -0.0775  0.0044 -0.6039
 4136SOL    HW124041   0.670   1.073  10.706 -2.0972  1.4513 -1.1106
 4136SOL    HW224042   0.812   1.124  10.720 -0.2986  1.7370  0.6965
 4137SOL     OW24043   0.584   4.200   9.453 -0.3064 -0.4750 -0.1570
 4137SOL    HW124044   0.660   4.229   9.503 -0.1643  2.7810 -2.2407
 4137SOL    HW224045   0.550   4.134   9.513 -0.3973 -1.1371 -0.9362
 4138SOL     OW24046   2.879   1.448   8.055 -0.3993 -0.2374  0.1624
 4138SOL    HW124047   2.866   1.361   8.016  2.3122 -0.1842 -0.8942
 4138SOL    HW224048   2.968   1.474   8.030 -1.3921  2.9333 -0.0838
 4139SOL     OW24049   1.336   2.233  11.557  0.7171 -0.0038 -0.2597
 4139SOL    HW124050   1.342   2.179  11.636  1.2794  0.7951  0.2614
 4139SOL    HW224051   1.251   2.211  11.520  0.6162 -0.1646  0.0679
 4140SOL     OW24052   3.383   2.885   1.439 -0.8165 -0.3329  0.0437
 4140SOL    HW124053   3.321   2.932   1.494  0.2843  1.2179 -0.0388
 4140SOL    HW224054   3.423   2.839   1.513 -1.5417 -2.3028 -0.8100
 4141SOL     OW24055   0.660   1.127  16.477  0.0088  0.6889  0.2193
 4141SOL    HW124056   0.715   1.205  16.483  1.3342 -0.1792 -0.4592
 4141SOL    HW224057   0.719   1.070  16.526  1.8959  2.1505 -0.3425
 4142SOL     OW24058   2.046   2.325  17.571  0.4114 -0.1988  0.2260
 4142SOL    HW124059   1.961   2.349  17.534  0.4561 -0.5741 -0.1213
 4142SOL    HW224060   2.033   2.231  17.578  0.9487 -0.2773  0.1961
 4143SOL     OW24061   1.327   0.311  12.806  0.5472  0.0166  0.2259
 4143SOL    HW124062   1.304   0.218  12.807 -1.9752  0.6439 -0.0407
 4143SOL    HW224063   1.245   0.347  12.772  0.3321 -0.5592  0.1342
 4144SOL     OW24064   1.096   2.309  11.192 -0.6133  0.7858 -0.4919
 4144SOL    HW124065   1.023   2.270  11.144  1.8171 -1.6716 -2.2099
 4144SOL    HW224066   1.167   2.291  11.131 -0.4395 -1.2213  0.3255
 4145SOL     OW24067   0.783   2.964   7.250 -0.3527 -0.1443 -0.5884
 4145SOL    HW124068   0.715   2.981   7.315 -1.2077  0.0629 -1.5366
 4145SOL    HW224069   0.747   2.901   7.189 -1.6387  0.7293 -0.7311
 4146SOL     OW24070   0.222   0.003   4.654 -0.1707 -0.2866  0.4981
 4146SOL    HW124071   0.258   4.654   4.643  0.7228  0.7344 -4.8272
 4146SOL    HW224072   0.184   0.001   4.742  0.8094  1.1156  0.9435
 4147SOL     OW24073   2.197   3.357   0.701  0.1461 -0.2424 -0.1684
 4147SOL    HW124074   2.166   3.273   0.734  0.8311 -0.0075  1.0536
 4147SOL    HW224075   2.274   3.328   0.653 -0.4010  0.7647 -1.6620
 4148SOL     OW24076   1.383   2.916  11.318 -0.1793  0.3374  0.3718
 4148SOL    HW124077   1.430   2.886  11.240 -1.0802 -0.4445  0.1291
 4148SOL    HW224078   1.452   2.911  11.384  1.3935  4.0469 -0.9738
 4149SOL     OW24079   0.557   2.314   1.781 -0.0862  0.1399 -0.3179
 4149SOL    HW124080   0.549   2.309   1.686  0.2650  0.8772 -0.3933
 4149SOL    HW224081   0.651   2.296   1.785 -0.0330  1.0432  2.5310
 4150SOL     OW24082   4.523   4.726   2.784  0.1248  0.6251 -0.2473
 4150SOL    HW124083   4.486   4.647   2.745 -3.7784  1.6338  1.3460
 4150SOL    HW224084   4.486   0.060   2.735 -1.4189  0.1865  0.2625
 4151SOL     OW24085   3.818   3.115   3.012 -0.5316  0.2595  0.0192
 4151SOL    HW124086   3.756   3.186   3.026 -0.9090  0.4691 -2.7129
 4151SOL    HW224087   3.894   3.157   3.052  0.3803 -0.2934 -1.1198
 4152SOL     OW24088   0.243   4.675   6.514 -0.0689 -0.1464 -0.1597
 4152SOL    HW124089   0.285   0.000   6.457  2.0967 -1.3133  0.1228
 4152SOL    HW224090   0.308   4.605   6.515 -1.2661 -1.2439  0.8112
 4153SOL     OW24091   3.845   1.782   3.370  0.0086 -0.4213  0.2835
 4153SOL    HW124092   3.853   1.692   3.403 -0.4116 -0.3052  0.6876
 4153SOL    HW224093   3.805   1.751   3.289  1.9285 -0.5978 -0.5947
 4154SOL     OW24094   2.468   3.221   5.621 -0.1274  0.4973  0.2192
 4154SOL    HW124095   2.406   3.266   5.563  0.7659 -0.5196 -1.5375
 4154SOL    HW224096   2.487   3.284   5.691 -1.9723 -0.1241  1.2887
 4155SOL     OW24097   2.976   2.642   5.173  0.4425  0.0380 -0.6637
 4155SOL    HW124098   3.004   2.580   5.105 -0.7695 -3.9695  2.4501
 4155SOL    HW224099   2.881   2.645   5.164  0.5459  0.8305 -1.4790
 4156SOL     OW24100   4.231   1.069   1.802 -0.5395  0.5101  0.1049
 4156SOL    HW124101   4.261   1.105   1.885  3.8061  0.7930 -1.5656
 4156SOL    HW224102   4.184   0.994   1.838  0.0583  0.0016 -0.1849
 4157SOL     OW24103   0.002   3.867   3.461  0.1115 -0.3253  0.0379
 4157SOL    HW124104   0.095   3.847   3.475  0.6213  0.3656 -2.2756
 4157SOL    HW224105   0.008   3.918   3.381  0.4034  0.9517  0.8749
 4158SOL     OW24106   1.940   3.273   3.107  0.1720 -0.3804 -0.2634
 4158SOL    HW124107   1.862   3.314   3.070  0.2172  0.8695  1.0167
 4158SOL    HW224108   2.003   3.298   3.040 -0.8878 -0.6440 -1.3599
 4159SOL     OW24109   3.125   1.552  15.093  0.0006 -0.1695  0.4227
 4159SOL    HW124110   3.085   1.498  15.025  0.6934  0.5819 -0.5784
 4159SOL    HW224111   3.219   1.550  15.076 -0.1226  0.1826 -0.3016
 4160SOL     OW24112   0.856   1.558   9.422  0.0270  0.6021 -0.0496
 4160SOL    HW124113   0.849   1.636   9.366  1.0416 -0.8592 -2.2221
 4160SOL    HW224114   0.932   1.589   9.472 -0.7957  1.0035  0.9667
 4161SOL     OW24115   3.397   3.352  11.947  0.4943 -0.5269 -0.1425
 4161SOL    HW124116   3.340   3.293  11.997 -1.9513 -0.0392 -2.3650
 4161SOL    HW224117   3.333   3.402  11.897  0.9873  0.3672  0.1297
 4162SOL     OW24118   2.235   2.805   9.152  0.3471  0.4049  0.5140
 4162SOL    HW124119   2.266   2.883   9.197  1.0996 -0.1928  1.0262
 4162SOL    HW224120   2.304   2.740   9.168 -1.4070 -1.8267 -0.9661
 4163SOL     OW24121   4.078   2.984   1.750  0.2122 -0.0126  0.5233
 4163SOL    HW124122   4.092   2.890   1.739 -3.5761 -0.1764 -2.6121
 4163SOL    HW224123   4.094   3.018   1.662  0.8627  0.5418  0.8550
 4164SOL     OW24124   2.892   0.427  11.937  0.1826 -0.2853 -0.5550
 4164SOL    HW124125   2.882   0.512  11.981 -1.0081  0.3569 -2.0548
 4164SOL    HW224126   2.862   0.366  12.004  1.9161 -1.9488 -1.2949
 4165SOL     OW24127   3.227   3.503   8.178  0.4823  0.7577  0.2063
 4165SOL    HW124128   3.271   3.418   8.185 -0.2665  0.3536 -0.1008
 4165SOL    HW224129   3.198   3.516   8.268 -0.6549  0.9051 -0.1884
 4166SOL     OW24130   4.007   4.237   8.434 -0.0595 -0.3549  0.0533
 4166SOL    HW124131   4.042   4.254   8.346 -1.0482  0.5734 -0.1541
 4166SOL    HW224132   4.069   4.283   8.490  0.2041  0.0042 -0.5264
 4167SOL     OW24133   3.520   1.875   8.698  0.6647  0.2589 -0.3335
 4167SOL    HW124134   3.598   1.921   8.668  0.9434  0.2823  0.4077
 4167SOL    HW224135   3.543   1.783   8.681  1.5464  0.3139  0.5256
 4168SOL     OW24136   1.247   2.535   6.738 -0.6207 -0.1529  0.8191
 4168SOL    HW124137   1.257   2.440   6.742  0.2462 -0.0977  0.1300
 4168SOL    HW224138   1.155   2.542   6.714 -0.5616 -0.3395  0.5345
 4169SOL     OW24139   3.467   2.613   1.998  0.0365  0.1375  0.5400
 4169SOL    HW124140   3.440   2.579   1.913  0.4443 -0.0521  0.4843
 4169SOL    HW224141   3.406   2.687   2.001  0.4150  0.3255  4.3178
 4170SOL     OW24142   1.190   1.514  12.699 -0.3176 -0.0851 -0.5540
 4170SOL    HW124143   1.267   1.521  12.756  0.4902  1.9526 -1.9118
 4170SOL    HW224144   1.194   1.418  12.695 -2.5126 -0.1630 -0.9416
 4171SOL     OW24145   1.124   1.894   5.135 -0.1059  0.5403  0.3866
 4171SOL    HW124146   1.029   1.885   5.138  0.0216 -1.2190 -1.1192
 4171SOL    HW224147   1.132   1.833   5.062 -3.5630 -0.9399  1.2389
 4172SOL     OW24148   3.666   2.773   0.480 -0.7668 -0.1705  0.0483
 4172SOL    HW124149   3.668   2.705   0.413  2.3693  0.9264 -0.9393
 4172SOL    HW224150   3.661   2.722   0.562 -2.0407 -0.7153 -0.3631
 4173SOL     OW24151   2.825   1.996  17.390  0.1968  0.0717 -0.5458
 4173SOL    HW124152   2.756   2.036  17.444 -0.0234  0.2881 -0.9884
 4173SOL    HW224153   2.903   2.023  17.438 -1.6198 -0.5031  2.7575
 4174SOL     OW24154   4.506   4.418   1.784  0.0958 -0.0390  0.5812
 4174SOL    HW124155   4.490   4.342   1.728 -0.0182 -0.3309  1.0070
 4174SOL    HW224156   4.415   4.443   1.804  0.3583 -0.1189  1.8973
 4175SOL     OW24157   1.988   4.554   8.844  0.4581  0.8718 -0.1960
 4175SOL    HW124158   1.923   4.531   8.778  1.5525  0.5944 -1.1706
 4175SOL    HW224159   1.944   4.627   8.888  0.2886  0.5918  0.1001
 4176SOL     OW24160   0.731   0.747   2.388  0.1224  0.2783 -0.6872
 4176SOL    HW124161   0.649   0.778   2.426  0.0501 -0.3027 -0.3626
 4176SOL    HW224162   0.739   0.797   2.307 -2.1768 -2.6628 -2.7425
 4177SOL     OW24163   0.538   0.608   4.043 -0.8806  0.5384  0.4317
 4177SOL    HW124164   0.508   0.681   4.096  2.0546  0.8428  1.6711
 4177SOL    HW224165   0.579   0.653   3.969 -1.8336 -1.2631 -1.1989
 4178SOL     OW24166   1.466   0.732   1.567  0.1269 -0.0573  0.6883
 4178SOL    HW124167   1.461   0.736   1.471 -2.2306  2.3129  0.9110
 4178SOL    HW224168   1.562   0.735   1.570  0.1835 -1.2066  0.0208
 4179SOL     OW24169   3.571   0.658   8.470 -0.2075  0.0312  0.0595
 4179SOL    HW124170   3.559   0.602   8.393 -2.6289  2.1169 -1.0755
 4179SOL    HW224171   3.594   0.744   8.433 -3.7597  0.6772 -0.5776
 4180SOL     OW24172   4.136   0.653  16.093 -0.5923 -0.1110 -0.2706
 4180SOL    HW124173   4.131   0.622  16.002 -2.8279  1.0753 -0.5484
 4180SOL    HW224174   4.083   0.732  16.081 -2.1674 -0.8991  1.4660
 4181SOL     OW24175   3.382   3.108   5.428 -0.0578  0.0845  0.3708
 4181SOL    HW124176   3.320   3.067   5.488  1.5124 -0.9154  1.3123
 4181SOL    HW224177   3.419   3.186   5.469  1.2634  0.8687 -2.2834
 4182SOL     OW24178   2.767   2.415  16.349  0.2126 -0.2550  0.2076
 4182SOL    HW124179   2.691   2.437  16.403 -0.6150 -2.6075  0.0022
 4182SOL    HW224180   2.742   2.327  16.320  1.2535 -0.0521 -1.2945
 4183SOL     OW24181   0.379   3.685   2.722 -0.0776 -0.0777  0.1877
 4183SOL    HW124182   0.400   3.750   2.789  1.7300  0.5883 -1.0198
 4183SOL    HW224183   0.291   3.655   2.744 -0.5712  0.2499 -1.3708
 4184SOL     OW24184   3.412   1.902   6.304 -0.3132  0.8055 -0.2084
 4184SOL    HW124185   3.494   1.921   6.258  0.7770 -2.7816  0.1864
 4184SOL    HW224186   3.353   1.959   6.255 -1.3247  0.4474  0.6027
 4185SOL     OW24187   0.821   3.430   4.459 -0.2152 -0.3970 -0.5697
 4185SOL    HW124188   0.734   3.464   4.479 -0.8924 -1.0147 -2.4725
 4185SOL    HW224189   0.875   3.509   4.466 -0.5014 -0.3978  1.5431
 4186SOL     OW24190   3.710   2.483   0.171  0.0715  0.3613  0.1059
 4186SOL    HW124191   3.706   2.460   0.264 -0.5233 -0.1583 -0.0431
 4186SOL    HW224192   3.697   2.577   0.177  1.9265  0.6442 -0.2502
 4187SOL     OW24193   0.617   3.408   0.356 -0.3278  0.3543 -0.0137
 4187SOL    HW124194   0.663   3.431   0.437  0.4134  0.3208 -0.4280
 4187SOL    HW224195   0.537   3.368   0.390 -0.0482  0.0248  0.2494
 4188SOL     OW24196   0.389   0.724   3.338  0.5852  0.1269  0.0075
 4188SOL    HW124197   0.406   0.733   3.244 -1.4394 -1.7729 -0.5424
 4188SOL    HW224198   0.333   0.801   3.346  0.5772  0.1875 -0.6040
 4189SOL     OW24199   3.843   3.253  17.421 -0.6991 -0.1133  0.4656
 4189SOL    HW124200   3.774   3.304  17.377  0.0917 -0.1791 -0.8341
 4189SOL    HW224201   3.870   3.322  17.482 -0.9838 -0.6492  1.1940
 4190SOL     OW24202   0.062   4.351  14.008 -0.0858  0.1215 -0.2329
 4190SOL    HW124203   0.117   4.277  14.036  0.2617  0.5882  0.3233
 4190SOL    HW224204   0.113   4.400  13.944  0.0838 -1.1979 -1.1139
 4191SOL     OW24205   3.399   4.190   2.915  0.2744  0.2247  0.2215
 4191SOL    HW124206   3.343   4.128   2.961  0.9050 -0.4455  0.0893
 4191SOL    HW224207   3.397   4.266   2.974 -0.9062  0.6634 -0.3713
 4192SOL     OW24208   2.972   4.096   8.339 -0.2556  0.2275  0.1443
 4192SOL    HW124209   2.885   4.125   8.369  0.1034  1.7115 -0.2559
 4192SOL    HW224210   3.010   4.179   8.311  2.4489 -0.9883  0.2110
 4193SOL     OW24211   4.325   0.500   2.035 -0.1768 -0.2355 -0.2517
 4193SOL    HW124212   4.412   0.477   2.000 -0.0071  0.4475 -0.2658
 4193SOL    HW224213   4.320   0.594   2.018  2.5526 -0.5698 -3.0178
 4194SOL     OW24214   3.335   3.840  14.335  0.0812 -0.3017 -0.2406
 4194SOL    HW124215   3.291   3.880  14.259  3.0909  3.5065  0.0160
 4194SOL    HW224216   3.392   3.777  14.291 -0.0856 -0.6670  0.0765
 4195SOL     OW24217   1.714   0.365   2.733  0.0029 -0.3184  0.6870
 4195SOL    HW124218   1.649   0.334   2.795 -0.7149 -0.1426  0.0173
 4195SOL    HW224219   1.739   0.278   2.701  1.4429  0.0519  0.8185
 4196SOL     OW24220   3.125   1.094  14.523 -0.4891 -0.6616 -0.1470
 4196SOL    HW124221   3.033   1.079  14.499 -0.4158 -2.2767  0.5781
 4196SOL    HW224222   3.127   1.098  14.619  1.3384  1.1692 -0.2793
 4197SOL     OW24223   2.735   0.340   4.579  0.3504  0.9397 -0.8529
 4197SOL    HW124224   2.712   0.369   4.667  0.8469 -0.3541 -0.2960
 4197SOL    HW224225   2.782   0.418   4.548  1.6191  1.0909  1.5048
 4198SOL     OW24226   0.502   2.884   5.798  0.5860  0.4924 -0.0891
 4198SOL    HW124227   0.483   2.811   5.739 -1.7730  0.1267  1.1314
 4198SOL    HW224228   0.560   2.840   5.860  1.6219  2.1001  0.0840
 4199SOL     OW24229   1.356   1.369  15.347  0.1286 -0.4098 -0.1636
 4199SOL    HW124230   1.451   1.358  15.358  0.1674 -1.0257 -1.1510
 4199SOL    HW224231   1.337   1.294  15.291  2.1901 -1.1232  0.0702
 4200SOL     OW24232   2.437   3.340   1.611  0.1486  0.2260  0.4230
 4200SOL    HW124233   2.427   3.435   1.602  1.1510  0.0803 -2.2690
 4200SOL    HW224234   2.359   3.303   1.571  0.2068 -0.2614  0.7610
 4201SOL     OW24235   3.291   2.190   6.692  0.0002 -0.0540 -0.7265
 4201SOL    HW124236   3.244   2.110   6.668 -2.0341  1.5249 -1.9242
 4201SOL    HW224237   3.377   2.159   6.664 -1.0999 -2.7185 -1.1461
 4202SOL     OW24238   1.703   1.023   1.478 -0.4348 -0.0034 -0.5355
 4202SOL    HW124239   1.783   1.026   1.530 -2.0869  0.1260  1.9795
 4202SOL    HW224240   1.694   1.107   1.432 -0.8515 -0.0796 -0.5966
 4203SOL     OW24241   0.396   1.815   8.467  0.5791  0.4482  0.2560
 4203SOL    HW124242   0.365   1.724   8.460 -3.5403  1.5851  3.7378
 4203SOL    HW224243   0.338   1.842   8.539 -0.9799  1.4218 -1.3668
 4204SOL     OW24244   4.709   3.394   9.258  0.5918  0.2213  0.3484
 4204SOL    HW124245   4.659   3.403   9.339 -0.0959  0.5305 -0.1069
 4204SOL    HW224246   0.031   3.320   9.251 -0.2715 -0.2743 -1.8210
 4205SOL     OW24247   2.971   0.055   5.263  0.0639 -0.2177  0.2972
 4205SOL    HW124248   3.062   0.026   5.267  0.5672  1.1719 -1.4137
 4205SOL    HW224249   2.980   0.116   5.336 -0.5479 -0.6274  0.7231
 4206SOL     OW24250   0.265   0.475   4.908 -0.0318  0.6814  0.4454
 4206SOL    HW124251   0.290   0.454   4.818 -0.8306  0.5125  0.2559
 4206SOL    HW224252   0.188   0.418   4.915  0.2733  0.1572 -0.5472
 4207SOL     OW24253   2.124   0.575   7.309 -0.4148 -0.5750 -0.4093
 4207SOL    HW124254   2.107   0.543   7.397 -2.0422 -0.0836 -0.5443
 4207SOL    HW224255   2.058   0.644   7.312 -1.8081 -1.9687  1.1124
 4208SOL     OW24256   2.671   3.038   7.615 -0.5550 -0.3341  0.2344
 4208SOL    HW124257   2.605   3.047   7.547 -0.2445 -0.7340 -0.1194
 4208SOL    HW224258   2.751   3.062   7.568  0.4843 -0.1597  2.0798
 4209SOL     OW24259   0.743   0.569  13.510 -0.0247 -0.1807 -0.4388
 4209SOL    HW124260   0.745   0.474  13.500  1.2848 -0.0586 -1.2332
 4209SOL    HW224261   0.795   0.586  13.432 -0.3280 -0.5262 -0.7175
 4210SOL     OW24262   2.380   3.453   8.408  0.5858  0.0389 -0.4238
 4210SOL    HW124263   2.425   3.399   8.472 -0.3172  1.5077  1.4395
 4210SOL    HW224264   2.372   3.529   8.465  0.1119  0.8967 -1.6189
 4211SOL     OW24265   1.981   3.031   6.686  0.1845  0.0212  0.3533
 4211SOL    HW124266   1.937   3.115   6.697  0.7116  0.2160  0.9718
 4211SOL    HW224267   1.905   2.984   6.653 -0.1981  0.6566  0.3342
 4212SOL     OW24268   2.693   1.167  12.942  0.4995 -0.0791  0.6169
 4212SOL    HW124269   2.667   1.257  12.922  2.0258  0.1111 -0.5135
 4212SOL    HW224270   2.712   1.128  12.857 -1.6721  0.6250 -0.2088
 4213SOL     OW24271   4.302   2.436   3.692 -0.2527  0.3440  0.2032
 4213SOL    HW124272   4.207   2.429   3.680  0.2179 -2.9230 -1.5753
 4213SOL    HW224273   4.333   2.361   3.640 -1.0881 -0.8728  1.4467
 4214SOL     OW24274   3.590   3.574  14.784 -0.5473  0.0723 -0.7357
 4214SOL    HW124275   3.601   3.488  14.743  0.1123 -0.8680  1.4510
 4214SOL    HW224276   3.547   3.631  14.721 -0.8487 -0.2723 -0.8415
 4215SOL     OW24277   1.991   0.951  15.478 -0.2558  0.5487 -0.7409
 4215SOL    HW124278   2.013   0.877  15.421  1.1792  0.3853  0.0330
 4215SOL    HW224279   1.997   1.018  15.410 -0.5862  1.7140  0.3767
 4216SOL     OW24280   1.964   4.340   2.084  0.3661 -0.1425  0.1577
 4216SOL    HW124281   1.986   4.431   2.067 -0.5196  0.0444  0.0121
 4216SOL    HW224282   2.045   4.299   2.055 -1.4464 -1.0675 -3.6256
 4217SOL     OW24283   2.400   2.098   8.121 -0.2147  0.8556  0.2721
 4217SOL    HW124284   2.430   2.080   8.032  1.3078 -1.9515  1.3410
 4217SOL    HW224285   2.403   2.010   8.159 -2.3962  0.7783  0.2982
 4218SOL     OW24286   0.656   1.223   7.717  0.4834 -0.0465  0.4354
 4218SOL    HW124287   0.712   1.208   7.793  0.2194 -0.7000  0.5025
 4218SOL    HW224288   0.574   1.238   7.763 -0.0963  1.5632 -1.1311
 4219SOL     OW24289   1.386   3.454   8.035  0.3178 -0.0364 -0.4484
 4219SOL    HW124290   1.414   3.370   7.997 -1.8713  0.9135 -4.1696
 4219SOL    HW224291   1.409   3.449   8.127  0.6050 -1.5025 -0.6005
 4220SOL     OW24292   4.016   0.476  10.817  0.6858  0.4152  0.3862
 4220SOL    HW124293   4.042   0.531  10.744  3.2534 -0.5034  0.6279
 4220SOL    HW224294   3.920   0.471  10.821  0.6727 -1.1174 -1.9536
 4221SOL     OW24295   2.442   2.551   4.388  0.3689  0.2938 -0.0017
 4221SOL    HW124296   2.423   2.627   4.333 -0.7661  0.4931  0.6733
 4221SOL    HW224297   2.359   2.504   4.395  1.3969 -1.6741 -0.9436
 4222SOL     OW24298   3.839   2.958   7.565 -0.0233  0.2748 -0.5605
 4222SOL    HW124299   3.772   2.919   7.621 -0.8149 -0.0896 -1.7477
 4222SOL    HW224300   3.781   3.004   7.505 -0.0755  1.8693  0.6994
 4223SOL     OW24301   0.635   3.176   2.120  0.1092  0.4440 -0.2491
 4223SOL    HW124302   0.624   3.208   2.210 -0.4523 -0.7413  0.0941
 4223SOL    HW224303   0.584   3.097   2.137 -0.4900  1.3837  2.3347
 4224SOL     OW24304   2.251   2.453   8.053  0.3314 -0.5425 -0.3610
 4224SOL    HW124305   2.251   2.436   8.148  0.3947 -0.3100 -0.3197
 4224SOL    HW224306   2.333   2.411   8.027  2.1663  2.3897  0.7450
 4225SOL     OW24307   1.774   1.359   6.539  0.3486 -0.2393 -0.5548
 4225SOL    HW124308   1.704   1.408   6.496  1.2571  2.1953  0.7634
 4225SOL    HW224309   1.830   1.430   6.568  0.5278  0.0736 -1.6757
 4226SOL     OW24310   2.599   0.883   7.754 -0.1442  0.0063  0.0451
 4226SOL    HW124311   2.574   0.792   7.735 -0.1270  0.3132 -1.4602
 4226SOL    HW224312   2.680   0.871   7.803 -0.3874  1.3421  0.7694
 4227SOL     OW24313   0.426   1.900  14.287  0.2380  0.9499  0.7815
 4227SOL    HW124314   0.516   1.921  14.260  0.7020 -1.0104  0.8206
 4227SOL    HW224315   0.436   1.822  14.342 -0.6928  0.1565 -0.1754
 4228SOL     OW24316   0.591   2.688  16.245 -0.0924  0.0154 -0.4842
 4228SOL    HW124317   0.583   2.709  16.152 -1.4986 -0.2007 -0.4168
 4228SOL    HW224318   0.516   2.633  16.266  1.3188 -0.6851  2.7326
 4229SOL     OW24319   2.464   0.082   2.035  0.5631 -0.2369 -0.2441
 4229SOL    HW124320   2.446   0.171   2.006 -0.7647  0.0965  1.6153
 4229SOL    HW224321   2.488   0.102   2.126  0.7674 -0.5937 -0.2184
 4230SOL     OW24322   4.259   2.814  14.641  0.0825  0.1592 -0.0694
 4230SOL    HW124323   4.236   2.783  14.728  0.0465 -0.7872 -0.4174
 4230SOL    HW224324   4.292   2.735  14.597 -1.7770  0.2836 -1.6656
 4231SOL     OW24325   1.130   1.661  15.583  0.3298  0.0177 -0.1747
 4231SOL    HW124326   1.149   1.703  15.667  0.2586 -1.9765  0.8322
 4231SOL    HW224327   1.083   1.583  15.612 -2.3513  0.9741 -1.9150
 4232SOL     OW24328   0.348   1.330   3.293  0.7467 -0.3015 -0.7867
 4232SOL    HW124329   0.258   1.297   3.294  0.6144  0.1108  0.5013
 4232SOL    HW224330   0.386   1.246   3.264 -1.4383 -1.5930  0.1154
 4233SOL     OW24331   0.921   3.934   7.276 -0.1408 -0.1818 -0.9421
 4233SOL    HW124332   0.906   3.845   7.309  2.6998  0.1489  1.2243
 4233SOL    HW224333   0.864   3.988   7.331 -1.7772  0.1528 -2.9969
 4234SOL     OW24334   2.909   0.987   2.814 -0.4156 -0.2308 -0.0422
 4234SOL    HW124335   2.824   1.025   2.795  0.7957  1.3880 -2.1050
 4234SOL    HW224336   2.890   0.893   2.816 -1.5356 -0.0181 -1.2186
 4235SOL     OW24337   3.933   2.527   9.123 -0.5998 -0.0998  0.1666
 4235SOL    HW124338   3.896   2.457   9.069  1.6977 -0.1676 -1.3197
 4235SOL    HW224339   4.023   2.507   9.099 -1.2152 -1.0252 -1.3688
 4236SOL     OW24340   1.508   1.687  12.760  0.5568 -0.5608  0.4050
 4236SOL    HW124341   1.598   1.719  12.762 -0.0582  1.1682  0.1429
 4236SOL    HW224342   1.508   1.618  12.827  0.7885  0.1078  1.1036
 4237SOL     OW24343   3.509   0.799   6.729 -0.5514  0.3092  0.3499
 4237SOL    HW124344   3.414   0.786   6.725 -0.1737 -1.2296 -3.8926
 4237SOL    HW224345   3.528   0.819   6.820 -1.8360  2.0859  0.2154
 4238SOL     OW24346   2.187   1.517   8.209 -0.0603 -0.6690 -0.2264
 4238SOL    HW124347   2.164   1.526   8.302  1.3659  1.1570 -0.0348
 4238SOL    HW224348   2.275   1.482   8.226  0.5526 -0.4399 -2.8889
 4239SOL     OW24349   3.234   4.648   5.666  0.4207 -0.5358  0.0641
 4239SOL    HW124350   3.150   4.691   5.652 -0.6360 -3.1164 -1.6041
 4239SOL    HW224351   3.213   4.601   5.746  0.2248 -1.4976 -0.5576
 4240SOL     OW24352   3.707   1.606   9.207 -0.0772 -0.1001  0.0758
 4240SOL    HW124353   3.628   1.622   9.259 -1.2038 -5.4625  0.0877
 4240SOL    HW224354   3.757   1.684   9.228  0.6987 -0.1627 -1.5791
 4241SOL     OW24355   4.198   3.034   9.524 -0.1439  0.5048 -0.2198
 4241SOL    HW124356   4.173   2.953   9.479 -1.1904  1.0250 -0.5613
 4241SOL    HW224357   4.177   3.094   9.452  1.9692 -0.7379 -1.8823
 4242SOL     OW24358   1.049   2.540   4.679 -1.2424  0.6959  0.4297
 4242SOL    HW124359   1.034   2.508   4.590 -0.0175  1.2471  0.0264
 4242SOL    HW224360   1.082   2.461   4.722  2.0154  1.7241 -0.1521
 4243SOL     OW24361   3.662   3.748  11.589 -0.3305  0.3435 -0.2934
 4243SOL    HW124362   3.633   3.762  11.679  1.7295 -1.4343  0.6700
 4243SOL    HW224363   3.736   3.688  11.605  0.0429  1.3417  1.7350
 4244SOL     OW24364   0.198   4.453   6.107  0.1544 -0.0557  0.1016
 4244SOL    HW124365   0.284   4.458   6.150  0.2305  0.1829 -0.0759
 4244SOL    HW224366   0.143   4.512   6.159  0.6801 -0.9423  1.6598
 4245SOL     OW24367   3.673   1.982  14.178 -0.1790 -0.4139 -0.5100
 4245SOL    HW124368   3.748   1.998  14.235 -0.3337  1.0994 -0.7177
 4245SOL    HW224369   3.673   2.066  14.131  1.4035  0.8269  1.7060
 4246SOL     OW24370   2.266   1.364  11.953  0.5619  0.0045 -0.3341
 4246SOL    HW124371   2.222   1.359  11.868  2.0234 -3.3308 -0.8789
 4246SOL    HW224372   2.332   1.428  11.927  0.4731 -0.1426 -0.9093
 4247SOL     OW24373   1.623   3.773   8.118  0.6138 -0.4078  0.0835
 4247SOL    HW124374   1.559   3.730   8.174 -0.1321  0.5233 -0.0629
 4247SOL    HW224375   1.636   3.857   8.162  1.9457 -1.3140  1.4739
 4248SOL     OW24376   2.876   3.001  15.107  0.1998 -0.0108  0.0272
 4248SOL    HW124377   2.817   3.058  15.155 -0.3615  0.6996 -1.4901
 4248SOL    HW224378   2.831   3.003  15.022 -0.2342 -0.2590  0.2498
 4249SOL     OW24379   2.318   4.570  16.422 -0.1326  0.8022 -0.8877
 4249SOL    HW124380   2.396   4.624  16.410  0.0816  0.7193  0.1559
 4249SOL    HW224381   2.339   4.487  16.379 -3.7110 -1.3852  1.6108
 4250SOL     OW24382   4.308   2.917   3.328 -0.4402 -0.2364 -0.1520
 4250SOL    HW124383   4.226   2.902   3.281 -0.1956 -1.6493 -0.1245
 4250SOL    HW224384   4.287   2.987   3.391 -1.7423 -1.9184  1.2849
 4251SOL     OW24385   0.200   3.482   9.079 -0.2064  0.1808  0.2007
 4251SOL    HW124386   0.279   3.432   9.100 -0.1913 -0.0808 -0.4939
 4251SOL    HW224387   0.226   3.574   9.088  0.4135  0.1031 -0.7521
 4252SOL     OW24388   4.347   1.899  17.046  0.1875 -0.8269  0.6009
 4252SOL    HW124389   4.394   1.970  17.003 -2.4563 -0.0224 -0.9395
 4252SOL    HW224390   4.371   1.914  17.138 -1.1129  2.6608  0.3707
 4253SOL     OW24391   0.170   2.871   7.960  0.5542 -0.8001  0.3834
 4253SOL    HW124392   0.187   2.782   7.932 -1.3720 -1.1478  0.3377
 4253SOL    HW224393   0.207   2.922   7.888  0.1750 -0.3988  0.4700
 4254SOL     OW24394   2.923   0.827  13.536 -0.1707  0.2435 -0.6434
 4254SOL    HW124395   2.901   0.920  13.536  1.2944  0.5868  0.4808
 4254SOL    HW224396   2.921   0.816  13.631  0.4766  1.5954 -0.4881
 4255SOL     OW24397   2.113   4.344   3.375  0.3203 -0.0560 -0.4822
 4255SOL    HW124398   2.096   4.358   3.468 -0.1180  0.9855 -0.7164
 4255SOL    HW224399   2.088   4.253   3.365  0.0609 -0.1300  0.8776
 4256SOL     OW24400   2.020   1.951  13.542 -0.2393 -0.0129 -0.2466
 4256SOL    HW124401   2.068   2.015  13.490 -0.8762 -0.3194 -1.2070
 4256SOL    HW224402   2.095   1.917  13.591  1.7218  1.8810 -1.9341
 4257SOL     OW24403   2.103   4.490   4.041 -0.1205  0.7884 -0.2180
 4257SOL    HW124404   2.055   4.562   4.081  0.0660 -0.1969  1.7685
 4257SOL    HW224405   2.048   4.478   3.964  1.5123 -3.6983 -0.6931
 4258SOL     OW24406   1.457   0.253  17.662 -0.5981  0.1962  0.3774
 4258SOL    HW124407   1.504   0.277  17.581 -0.9058 -1.3448 -0.2497
 4258SOL    HW224408   1.402   0.180  17.636 -1.5740  1.0731 -0.0371
 4259SOL     OW24409   3.438   2.378  17.433 -0.0405 -0.1172  0.2739
 4259SOL    HW124410   3.530   2.364  17.411  0.0365  0.1423  0.4181
 4259SOL    HW224411   3.463   2.423  17.514  0.0343 -1.4300  0.9837
 4260SOL     OW24412   1.647   2.545   0.031  0.2522 -0.1205  0.1062
 4260SOL    HW124413   1.603   2.460   0.030 -1.8042  0.9552  0.6596
 4260SOL    HW224414   1.691   2.528  17.700 -2.6292  0.6109 -1.5522
 4261SOL     OW24415   0.386   2.046   2.839 -0.2176  0.6672  0.3181
 4261SOL    HW124416   0.331   2.121   2.861  1.0166  0.8924  2.5548
 4261SOL    HW224417   0.413   2.012   2.924  0.4871 -2.5858 -1.2009
 4262SOL     OW24418   0.342   1.550   4.741  0.4214  0.0725  0.2451
 4262SOL    HW124419   0.275   1.517   4.681  2.5847 -1.4409 -1.3360
 4262SOL    HW224420   0.334   1.644   4.731 -1.0184  0.1402  2.1539
 4263SOL     OW24421   2.528   2.361   7.720 -0.1557 -0.6573 -0.2644
 4263SOL    HW124422   2.507   2.289   7.661 -1.3336  0.1310 -0.7997
 4263SOL    HW224423   2.511   2.315   7.802 -0.7438  0.0459  0.0103
 4264SOL     OW24424   3.499   3.513   4.396  0.1772  0.0265  0.0406
 4264SOL    HW124425   3.433   3.569   4.354 -0.3390 -0.5780  0.0394
 4264SOL    HW224426   3.503   3.525   4.490 -0.6512 -1.0368  0.2065
 4265SOL     OW24427   0.019   2.365   0.234  0.1212  0.2911 -0.6218
 4265SOL    HW124428   4.677   2.406   0.204 -0.1014  0.4889  0.2576
 4265SOL    HW224429   4.738   2.273   0.214  0.7406  0.2512 -1.0650
 4266SOL     OW24430   0.317   3.480   0.310 -0.2182  0.2622  0.6200
 4266SOL    HW124431   0.360   3.435   0.236  2.1057  1.2714  1.3460
 4266SOL    HW224432   0.301   3.414   0.377  0.6757 -1.2261 -0.6221
 4267SOL     OW24433   2.803   2.932   8.180  0.7091 -0.1020  0.0164
 4267SOL    HW124434   2.717   2.973   8.182  0.6387 -0.2092 -1.1463
 4267SOL    HW224435   2.784   2.842   8.153  1.1352 -0.8980  2.3801
 4268SOL     OW24436   1.756   2.700   1.962  0.0288  0.3460 -0.1475
 4268SOL    HW124437   1.789   2.660   1.882 -1.2009  1.6423 -1.3009
 4268SOL    HW224438   1.788   2.649   2.037 -1.9798  0.0272  0.4906
 4269SOL     OW24439   1.618   1.302   1.830  0.2771 -0.2811 -0.6103
 4269SOL    HW124440   1.642   1.384   1.874 -1.8046  0.3401 -0.6449
 4269SOL    HW224441   1.645   1.239   1.898 -0.9699  0.1286  0.2627
 4270SOL     OW24442   0.508   2.296   9.479  0.1504  0.0334 -0.3532
 4270SOL    HW124443   0.516   2.390   9.467  0.7985 -0.0857 -0.8340
 4270SOL    HW224444   0.518   2.268   9.388 -1.5502  0.1921 -0.5889
 4271SOL     OW24445   3.224   4.102   7.055  0.2998  0.1642  0.0685
 4271SOL    HW124446   3.306   4.130   7.014  2.1501 -2.6241  1.8536
 4271SOL    HW224447   3.246   4.136   7.142 -0.8207 -1.0296  0.8178
 4272SOL     OW24448   1.284   3.258   1.631  0.2500 -0.5827  0.0702
 4272SOL    HW124449   1.367   3.223   1.598  0.7707 -0.9138  1.7552
 4272SOL    HW224450   1.246   3.179   1.670  0.3469 -1.5328 -1.7508
 4273SOL     OW24451   2.212   1.734  13.993  0.4443 -0.3722 -0.1206
 4273SOL    HW124452   2.200   1.768  13.904 -1.4661  0.8793  0.6339
 4273SOL    HW224453   2.259   1.651  13.981 -0.2442 -0.8114  0.2276
 4274SOL     OW24454   1.879   1.870   5.298 -0.1947 -0.2874 -0.3341
 4274SOL    HW124455   1.802   1.926   5.288  0.2349  0.5293  0.8983
 4274SOL    HW224456   1.938   1.904   5.231  1.6507  0.5426  1.7011
 4275SOL     OW24457   1.453   1.750   9.702 -0.1102  0.5768  0.5260
 4275SOL    HW124458   1.418   1.661   9.701  1.9522 -0.2003 -2.7178
 4275SOL    HW224459   1.380   1.795   9.659 -0.0905 -0.7807 -0.9340
 4276SOL     OW24460   2.326   3.762   1.024 -0.3697 -0.2576 -0.1503
 4276SOL    HW124461   2.297   3.700   0.957  0.1140 -0.7681  0.1069
 4276SOL    HW224462   2.387   3.702   1.068 -0.6124  0.6200  1.3809
 4277SOL     OW24463   2.637   1.523   8.719  0.2446  0.3590  0.1834
 4277SOL    HW124464   2.608   1.433   8.705 -0.4145  0.7251 -0.8466
 4277SOL    HW224465   2.699   1.533   8.647  2.0215 -0.9828  1.5402
 4278SOL     OW24466   0.339   0.616   9.563  0.2507 -0.2175 -0.2705
 4278SOL    HW124467   0.299   0.539   9.603 -0.0818 -0.4426 -1.0463
 4278SOL    HW224468   0.421   0.620   9.613  1.1260 -1.4998 -1.6127
 4279SOL     OW24469   4.314   0.035   1.089 -0.2464  0.2143  0.4567
 4279SOL    HW124470   4.310   4.701   1.151 -0.9066  1.0002  1.3391
 4279SOL    HW224471   4.320   4.724   1.008  2.7598 -1.5723  1.7873
 4280SOL     OW24472   0.323   2.265   6.458 -0.3063  0.2078 -0.2920
 4280SOL    HW124473   0.300   2.240   6.548 -1.3034 -1.4285 -1.0074
 4280SOL    HW224474   0.242   2.255   6.408  1.0816 -0.9533 -2.3062
 4281SOL     OW24475   3.001   4.504   8.408  0.4247 -0.4959  0.4573
 4281SOL    HW124476   2.933   4.568   8.431  0.6817 -0.1864  0.3478
 4281SOL    HW224477   3.083   4.550   8.425  0.4798  0.4628 -2.5297
 4282SOL     OW24478   0.785   1.792   3.248 -0.1203  0.3506 -0.2040
 4282SOL    HW124479   0.783   1.793   3.152 -1.3851  1.8240 -0.1575
 4282SOL    HW224480   0.704   1.841   3.263  0.1078  0.4196  0.8430
 4283SOL     OW24481   4.447   4.429   6.160 -0.0490  0.2583  0.0486
 4283SOL    HW124482   4.522   4.475   6.123 -0.3314  0.3055 -0.4722
 4283SOL    HW224483   4.481   4.417   6.248 -0.7521  2.8439  0.6676
 4284SOL     OW24484   1.373   4.573  14.212  0.0578  0.1123  0.1720
 4284SOL    HW124485   1.365   4.542  14.122 -1.4680 -0.8226  0.6248
 4284SOL    HW224486   1.402   4.662  14.194 -1.2987  0.6102  0.4626
 4285SOL     OW24487   0.898   3.124   7.740  0.2643  0.3502 -0.0016
 4285SOL    HW124488   0.990   3.106   7.756  0.2999  2.3332  2.0446
 4285SOL    HW224489   0.907   3.179   7.662  3.0667  1.5253  1.1588
 4286SOL     OW24490   3.416   0.178   4.116  0.0072  0.5565 -0.3346
 4286SOL    HW124491   3.370   0.257   4.087 -1.5950  0.1346  1.0646
 4286SOL    HW224492   3.355   0.141   4.179 -1.5951  2.6449 -0.6652
 4287SOL     OW24493   1.497   4.180  11.987 -0.0403  0.0136  0.6165
 4287SOL    HW124494   1.545   4.140  11.914 -0.5338  0.8933 -0.1905
 4287SOL    HW224495   1.409   4.169  11.950  0.2869 -0.5416 -0.0036
 4288SOL     OW24496   2.452   2.356   5.258  0.2234  0.9010 -0.0543
 4288SOL    HW124497   2.533   2.361   5.207  0.0987 -0.1323 -0.3457
 4288SOL    HW224498   2.456   2.271   5.301  1.2645  1.0344  0.1200
 4289SOL     OW24499   1.943   0.413   1.520  0.5630 -0.0828  0.4667
 4289SOL    HW124500   2.009   0.473   1.483  1.2230 -1.8667 -1.2590
 4289SOL    HW224501   1.951   0.418   1.615  1.4828 -2.2194  0.4929
 4290SOL     OW24502   2.357   3.704   0.565 -0.0062  0.0867 -0.5504
 4290SOL    HW124503   2.312   3.677   0.484  1.7490 -0.8633 -1.2161
 4290SOL    HW224504   2.330   3.796   0.563  0.9365  0.4345  3.2439
 4291SOL     OW24505   4.294   1.777   5.768 -0.0412  0.6671 -0.5189
 4291SOL    HW124506   4.375   1.731   5.745  0.6249  1.7523 -0.3299
 4291SOL    HW224507   4.322   1.869   5.769  0.5850  0.4898 -1.7607
 4292SOL     OW24508   0.637   4.463   2.191 -0.1122 -0.1490  0.0468
 4292SOL    HW124509   0.645   4.391   2.254  3.2832  0.4101  0.2761
 4292SOL    HW224510   0.670   4.420   2.112 -1.0105  0.7708 -0.8377
 4293SOL     OW24511   4.284   4.351   4.899 -0.0741 -0.8534  0.9719
 4293SOL    HW124512   4.374   4.384   4.897 -0.7986  0.9850 -0.9018
 4293SOL    HW224513   4.285   4.304   4.982  0.1540 -0.1494  1.3628
 4294SOL     OW24514   2.156   1.237  15.795 -0.2167 -0.3198 -0.0762
 4294SOL    HW124515   2.106   1.227  15.876 -0.2089  1.1991  0.1154
 4294SOL    HW224516   2.108   1.311  15.757  0.0244 -0.8856 -1.4952
 4295SOL     OW24517   2.397   2.145   1.070  0.0844  0.0115 -0.7729
 4295SOL    HW124518   2.321   2.199   1.048 -0.1357 -1.5568 -3.8972
 4295SOL    HW224519   2.411   2.091   0.992  0.4142 -1.6898  0.4857
 4296SOL     OW24520   2.710   3.613  16.183  0.1470  1.0356  0.2159
 4296SOL    HW124521   2.684   3.550  16.115  0.3284  0.0221  1.0822
 4296SOL    HW224522   2.759   3.560  16.246 -2.5096 -2.1177 -0.3743
 4297SOL     OW24523   0.363   1.926  16.282 -0.1624  0.3208 -0.0810
 4297SOL    HW124524   0.412   1.844  16.284 -3.1780 -1.5104 -0.5915
 4297SOL    HW224525   0.366   1.931  16.186  0.5861 -0.9737 -0.1202
 4298SOL     OW24526   4.102   0.928   7.753 -0.0541  0.2279  0.3110
 4298SOL    HW124527   4.102   0.903   7.661  0.2635  3.1045 -0.4509
 4298SOL    HW224528   4.013   0.962   7.762 -0.2821 -0.1547 -0.4676
 4299SOL     OW24529   0.269   2.519   3.899  0.4598 -0.1028  0.2694
 4299SOL    HW124530   0.276   2.430   3.933 -1.5023 -0.6638 -0.7942
 4299SOL    HW224531   0.234   2.502   3.812  2.7920 -0.9320 -0.5129
 4300SOL     OW24532   2.169   1.548  15.408 -0.2315 -0.1618 -0.2287
 4300SOL    HW124533   2.082   1.550  15.368 -0.0830 -1.0276 -0.5880
 4300SOL    HW224534   2.195   1.640  15.411 -0.1129 -0.2697  2.2600
 4301SOL     OW24535   0.456   4.492   3.217 -0.1242  0.3606 -0.1747
 4301SOL    HW124536   0.490   4.581   3.217 -0.3759  0.4501 -3.2575
 4301SOL    HW224537   0.484   4.475   3.127 -0.6391 -1.2538 -0.0330
 4302SOL     OW24538   3.487   0.280   6.621 -0.0902  0.6537  0.0039
 4302SOL    HW124539   3.421   0.259   6.687  1.1803 -1.8250  0.4999
 4302SOL    HW224540   3.555   0.220   6.653 -0.6788 -0.4972 -0.9136
 4303SOL     OW24541   0.950   1.266   2.245 -0.4294 -0.4888 -0.0231
 4303SOL    HW124542   1.025   1.301   2.195 -0.2997  0.5639  0.9289
 4303SOL    HW224543   0.916   1.196   2.189 -1.3797 -0.4692  0.5329
 4304SOL     OW24544   1.709   2.084   2.638 -0.0216 -0.2854  0.3370
 4304SOL    HW124545   1.778   2.019   2.638  1.4206  1.2382 -0.3156
 4304SOL    HW224546   1.630   2.044   2.603  1.3609 -2.2662 -0.4822
 4305SOL     OW24547   3.566   1.731   5.767 -0.0136  0.3410 -0.1332
 4305SOL    HW124548   3.502   1.683   5.819 -0.3282  1.7136  0.7314
 4305SOL    HW224549   3.522   1.749   5.684  0.4591 -0.9553 -0.6694
 4306SOL     OW24550   0.454   1.650  13.329 -0.3215  0.3671  0.1323
 4306SOL    HW124551   0.422   1.733  13.363 -0.5384  0.0954  0.6000
 4306SOL    HW224552   0.541   1.666  13.294  0.8801 -0.7774  2.6383
 4307SOL     OW24553   2.634   0.871   2.709  0.3835 -0.1005  0.0269
 4307SOL    HW124554   2.544   0.842   2.722 -0.4739  2.3778 -0.3626
 4307SOL    HW224555   2.629   0.959   2.747  1.6127  0.2441 -0.6214
 4308SOL     OW24556   3.727   2.793  11.007  0.2868 -0.4633 -0.6187
 4308SOL    HW124557   3.650   2.742  10.981 -0.1812  0.8919 -1.8872
 4308SOL    HW224558   3.797   2.754  10.956 -0.3121 -0.9841 -1.0482
 4309SOL     OW24559   2.941   4.581   7.652 -0.3046 -0.1440 -0.0575
 4309SOL    HW124560   2.888   4.528   7.593 -0.5857  0.0411  0.0305
 4309SOL    HW224561   2.885   4.590   7.729  1.4033  1.6139  0.9835
 4310SOL     OW24562   3.071   0.013   6.862  0.1077  0.3966  0.5284
 4310SOL    HW124563   3.055   0.043   6.772  0.2503  0.9913  0.7030
 4310SOL    HW224564   3.158   4.714   6.849 -0.8455 -1.5655 -0.1966
 4311SOL     OW24565   1.619   3.760  10.232  0.0897 -0.1647 -0.2613
 4311SOL    HW124566   1.541   3.714  10.199 -1.6978  2.9430 -0.3760
 4311SOL    HW224567   1.687   3.701  10.200  0.0509  0.5345 -1.6059
 4312SOL     OW24568   0.277   2.222   5.617 -0.3853  0.4305  0.7649
 4312SOL    HW124569   0.349   2.284   5.624  0.1946 -0.0380 -0.9913
 4312SOL    HW224570   0.291   2.188   5.528  0.1837 -0.9846  1.3974
 4313SOL     OW24571   4.446   2.847   7.280 -0.0253 -0.5740  0.1181
 4313SOL    HW124572   4.427   2.770   7.334  1.7230  1.0408  3.0154
 4313SOL    HW224573   4.499   2.811   7.209  2.1508  0.1127  1.4250
 4314SOL     OW24574   3.697   2.656   2.844  0.0954 -0.3572  0.1344
 4314SOL    HW124575   3.792   2.649   2.853  0.2891  1.9595 -0.2134
 4314SOL    HW224576   3.685   2.746   2.874  1.3412 -0.3917  0.7117
 4315SOL     OW24577   1.796   0.502  16.630 -0.3172 -0.3718 -0.3928
 4315SOL    HW124578   1.861   0.569  16.611 -1.2150  0.2222 -1.4028
 4315SOL    HW224579   1.832   0.432  16.575 -1.7885  2.1628 -4.6080
 4316SOL     OW24580   1.717   2.447   5.250 -0.8113  0.2150  0.1866
 4316SOL    HW124581   1.687   2.529   5.209  0.1511 -0.0365 -0.9771
 4316SOL    HW224582   1.637   2.432   5.301 -0.3766  1.3499  1.2167
 4317SOL     OW24583   4.085   3.086   7.915  0.3477  0.0928 -0.0324
 4317SOL    HW124584   4.012   3.055   7.969  3.1621 -3.1536  1.8852
 4317SOL    HW224585   4.158   3.091   7.976 -0.0176  0.9980  0.3430
 4318SOL     OW24586   4.190   4.684   2.122 -0.0724 -0.2938  0.0061
 4318SOL    HW124587   4.148   4.684   2.036 -0.3101 -1.7210  0.1106
 4318SOL    HW224588   4.229   4.596   2.120  0.3663 -0.1275  1.0401
 4319SOL     OW24589   3.437   3.338   6.695 -0.0796  0.2336  0.0990
 4319SOL    HW124590   3.426   3.392   6.617  0.2255 -1.4920 -1.1244
 4319SOL    HW224591   3.410   3.252   6.662  1.0067  0.4278 -1.2790
 4320SOL     OW24592   2.629   1.423   6.646 -0.0769 -0.0922 -0.5331
 4320SOL    HW124593   2.686   1.393   6.716  0.2031  2.2171  0.2349
 4320SOL    HW224594   2.548   1.447   6.691  0.0481 -0.7690  0.0434
 4321SOL     OW24595   2.620   1.713  17.093  0.4586  0.0307  0.8091
 4321SOL    HW124596   2.545   1.741  17.041  2.3125  0.2562 -1.6916
 4321SOL    HW224597   2.609   1.618  17.089  0.0174  0.0927  0.5933
 4322SOL     OW24598   1.945   3.966  14.589 -0.3376 -0.1574  1.0504
 4322SOL    HW124599   1.904   3.940  14.507  1.8472  0.4102 -0.2134
 4322SOL    HW224600   1.951   3.884  14.638  0.5567 -0.8598 -0.2595
 4323SOL     OW24601   1.171   1.864   0.480  0.3548 -0.5779 -0.9789
 4323SOL    HW124602   1.237   1.795   0.476  1.1154  0.0303  0.9263
 4323SOL    HW224603   1.093   1.823   0.441 -1.4757  1.0631  0.9816
 4324SOL     OW24604   4.659   3.974   7.356 -0.1349  0.5501 -0.4822
 4324SOL    HW124605   4.598   3.903   7.378 -1.1055  1.6591  0.4771
 4324SOL    HW224606   4.617   4.016   7.281  0.4211 -1.6530 -1.9853
 4325SOL     OW24607   3.608   3.361   1.747 -0.5184  0.6713 -0.0095
 4325SOL    HW124608   3.687   3.367   1.801 -0.9534 -0.4347  0.7328
 4325SOL    HW224609   3.625   3.428   1.681  1.7949  1.5815  1.4867
 4326SOL     OW24610   3.969   4.407  13.697  0.1271  0.2429 -0.3132
 4326SOL    HW124611   3.889   4.357  13.707  0.8676 -1.1056 -1.0616
 4326SOL    HW224612   4.005   4.414  13.785  2.6356 -2.4314 -1.1228
 4327SOL     OW24613   3.779   1.660  11.991 -0.3585 -0.5214 -0.2586
 4327SOL    HW124614   3.823   1.633  12.072 -2.9960 -0.7448  1.1002
 4327SOL    HW224615   3.691   1.626  12.007  0.6887 -3.7807 -1.4462
 4328SOL     OW24616   3.194   3.329   1.476  0.1137 -0.2496  0.1586
 4328SOL    HW124617   3.184   3.249   1.424  0.7323  0.2187 -0.6789
 4328SOL    HW224618   3.287   3.349   1.471  0.1928 -0.2092  1.6942
 4329SOL     OW24619   2.549   3.074   9.288  0.3455 -0.1495 -0.0883
 4329SOL    HW124620   2.457   3.086   9.312  0.4011  2.4857 -1.1884
 4329SOL    HW224621   2.591   3.145   9.338  0.2007 -0.6344  0.7271
 4330SOL     OW24622   3.565   2.026  10.221 -0.4031 -0.5900 -0.1413
 4330SOL    HW124623   3.609   2.034  10.136 -1.2875 -0.0452 -0.5460
 4330SOL    HW224624   3.610   2.082  10.285 -0.1971 -2.2219  1.1294
 4331SOL     OW24625   0.229   4.646  13.605  0.2769  0.4460  0.2692
 4331SOL    HW124626   0.190   4.731  13.625  0.5576  1.5020 -3.5649
 4331SOL    HW224627   0.245   4.649  13.510 -0.7463 -0.3443  0.0764
 4332SOL     OW24628   0.844   3.725   6.669  0.3196 -0.0175 -0.2934
 4332SOL    HW124629   0.811   3.777   6.596 -1.4621 -1.3244 -0.4212
 4332SOL    HW224630   0.883   3.789   6.728 -1.5757  0.3881  0.5029
 4333SOL     OW24631   2.578   0.737   7.086  0.3758  0.4330  0.5496
 4333SOL    HW124632   2.578   0.774   7.174 -0.4214 -1.2953  1.2891
 4333SOL    HW224633   2.511   0.671   7.107 -0.9711  1.3701 -0.7900
 4334SOL     OW24634   1.490   3.538   6.534  0.0205  0.5711 -0.3792
 4334SOL    HW124635   1.503   3.630   6.510  1.1550  0.2815 -0.8487
 4334SOL    HW224636   1.558   3.519   6.598  0.1011 -0.3919 -0.7532
 4335SOL     OW24637   3.662   3.251  13.687 -0.0679  0.8993 -0.4358
 4335SOL    HW124638   3.613   3.168  13.691  0.0617  0.7704 -1.6154
 4335SOL    HW224639   3.756   3.236  13.680 -0.0899  0.1614  0.7427
 4336SOL     OW24640   0.062   1.981  15.711  0.7580 -0.5102 -0.1179
 4336SOL    HW124641   0.020   1.955  15.629 -0.9170  1.6889  0.0230
 4336SOL    HW224642   0.120   2.055  15.694 -0.8623  0.5303 -1.1878
 4337SOL     OW24643   3.365   3.819   8.440  0.0646  0.8134  0.8124
 4337SOL    HW124644   3.384   3.840   8.348 -3.1600 -1.8088 -0.4594
 4337SOL    HW224645   3.296   3.883   8.456  0.8064  2.1575 -1.2580
 4338SOL     OW24646   4.713   0.046   1.179 -0.1003 -0.2339  0.1619
 4338SOL    HW124647   4.684   0.118   1.123 -3.2500 -0.6795  1.2043
 4338SOL    HW224648   4.646   0.040   1.248 -0.8816  1.5518 -0.4353
 4339SOL     OW24649   0.726   2.220   3.667 -0.1046 -0.1226 -0.0441
 4339SOL    HW124650   0.718   2.315   3.658  1.0372 -0.1360 -1.3514
 4339SOL    HW224651   0.715   2.192   3.576 -0.9075 -1.0844  0.3501
 4340SOL     OW24652   2.782   0.783  16.377 -0.1398 -0.0159 -0.0226
 4340SOL    HW124653   2.854   0.843  16.396  1.0658 -0.4710 -3.1028
 4340SOL    HW224654   2.747   0.769  16.465  0.7674 -1.2424  0.1456
 4341SOL     OW24655   0.808   0.145   1.694  0.8175 -0.2167  0.1653
 4341SOL    HW124656   0.791   0.175   1.784 -2.2629 -2.5971  0.3993
 4341SOL    HW224657   0.779   0.054   1.706 -0.2964  0.3250  1.5005
 4342SOL     OW24658   3.302   2.003   3.426  0.0136 -0.0629 -0.3227
 4342SOL    HW124659   3.305   1.978   3.519  1.7103 -2.1207 -0.9324
 4342SOL    HW224660   3.330   2.095   3.420  0.5160 -0.3399 -2.0670
 4343SOL     OW24661   4.347   0.065   4.905 -0.2573  0.0060 -0.3682
 4343SOL    HW124662   4.337   0.147   4.953 -2.2525  0.8917 -2.2884
 4343SOL    HW224663   4.252   0.058   4.890 -0.0001 -2.2830 -0.9620
 4344SOL     OW24664   1.893   2.225   3.312 -0.4931 -0.4398  0.1724
 4344SOL    HW124665   1.819   2.189   3.263 -0.5908  0.2301 -0.1688
 4344SOL    HW224666   1.886   2.169   3.390 -0.7477 -0.3842  0.1887
 4345SOL     OW24667   0.757   2.066   5.499 -0.0103 -0.0378  0.1498
 4345SOL    HW124668   0.728   1.979   5.473  0.2292  0.1728 -0.7941
 4345SOL    HW224669   0.853   2.061   5.505  0.0861  0.7995 -0.7449
 4346SOL     OW24670   1.979   2.150   3.002 -0.2398  0.0268  0.3584
 4346SOL    HW124671   2.037   2.205   2.950  0.3875 -0.3270  0.6857
 4346SOL    HW224672   1.900   2.203   3.015 -0.8046 -0.2058 -1.9890
 4347SOL     OW24673   1.827   3.051  15.878  0.4992 -0.3656 -0.2274
 4347SOL    HW124674   1.846   3.143  15.896 -1.7517  0.2744 -1.1473
 4347SOL    HW224675   1.904   3.011  15.919 -0.2446 -1.0049  0.5375
 4348SOL     OW24676   4.539   1.686   0.883  0.1612 -0.4321  0.3602
 4348SOL    HW124677   4.632   1.671   0.900  0.6857 -1.0373 -2.9215
 4348SOL    HW224678   4.547   1.643   0.797  1.7491  2.0041 -0.7268
 4349SOL     OW24679   2.429   1.226   3.220 -0.0999 -0.3008 -0.1059
 4349SOL    HW124680   2.411   1.218   3.314 -1.5798  0.1348 -0.3529
 4349SOL    HW224681   2.357   1.285   3.196 -0.4125 -0.7171 -0.1778
 4350SOL     OW24682   0.726   3.100  11.145  0.6594 -0.3243 -0.3749
 4350SOL    HW124683   0.640   3.063  11.161  1.7175 -2.8328 -0.4584
 4350SOL    HW224684   0.790   3.050  11.196 -0.7136  0.2071  1.8842
 4351SOL     OW24685   3.561   1.999   2.033  0.7070  0.0144 -0.2613
 4351SOL    HW124686   3.554   1.905   2.019 -0.8421  0.2644 -1.1069
 4351SOL    HW224687   3.655   2.015   2.047  0.7248  0.8327 -1.2978
 4352SOL     OW24688   1.690   0.477   2.293  0.0570 -0.0926 -0.2332
 4352SOL    HW124689   1.713   0.541   2.226  0.0955 -1.6601 -1.7238
 4352SOL    HW224690   1.762   0.488   2.355 -0.7664  0.7258  0.5728
 4353SOL     OW24691   1.249   2.821   6.494  0.4811  0.6234  0.0930
 4353SOL    HW124692   1.194   2.804   6.570  0.0531 -0.7627 -0.5185
 4353SOL    HW224693   1.305   2.883   6.540  0.0470  0.1084  1.3098
 4354SOL     OW24694   3.817   3.874   3.831  0.0468 -0.2902 -0.2520
 4354SOL    HW124695   3.757   3.800   3.826 -0.4002 -0.1013  2.5398
 4354SOL    HW224696   3.793   3.904   3.919 -0.2340 -0.8186 -0.1461
 4355SOL     OW24697   2.235   0.651   5.338 -0.4993  0.2268 -0.0182
 4355SOL    HW124698   2.201   0.572   5.379 -0.7460  0.2102 -0.2548
 4355SOL    HW224699   2.166   0.717   5.348 -0.9987 -0.7416  2.6926
 4356SOL     OW24700   0.128   3.178   7.795 -0.3123 -0.0575  0.2434
 4356SOL    HW124701   0.090   3.241   7.855  2.8577  1.5027  0.6117
 4356SOL    HW224702   0.076   3.184   7.715 -1.0125  0.0079  0.7100
 4357SOL     OW24703   0.491   2.852   7.852  0.3577  1.4340 -0.2094
 4357SOL    HW124704   0.517   2.823   7.764 -1.6955 -1.3542  0.1325
 4357SOL    HW224705   0.420   2.912   7.829 -1.5097 -0.3008  1.0999
 4358SOL     OW24706   2.760   0.693   9.186  0.0919 -0.4107  0.2388
 4358SOL    HW124707   2.711   0.672   9.106  2.3334 -0.9436 -0.9960
 4358SOL    HW224708   2.715   0.776   9.202 -0.0166 -0.3217 -0.5131
 4359SOL     OW24709   0.467   4.277  17.482 -0.5891  0.4880  0.2867
 4359SOL    HW124710   0.410   4.266  17.559  0.5402 -0.0829  1.0410
 4359SOL    HW224711   0.395   4.267  17.420 -0.4663  1.5087 -0.0164
 4360SOL     OW24712   3.053   3.528   7.831  0.0712  0.3090 -0.0905
 4360SOL    HW124713   3.120   3.596   7.843  2.2473 -1.8046 -0.2229
 4360SOL    HW224714   3.008   3.527   7.915  0.9210 -0.8796  0.3430
 4361SOL     OW24715   1.601   2.163   0.193  0.0368 -0.3963 -0.7985
 4361SOL    HW124716   1.671   2.154   0.128  0.7111 -3.1421  0.2968
 4361SOL    HW224717   1.645   2.214   0.261  2.1867  1.0802 -3.3172
 4362SOL     OW24718   3.711   1.369   4.415  0.2309  0.5740 -0.3616
 4362SOL    HW124719   3.652   1.336   4.483  1.2770 -0.5072  0.0138
 4362SOL    HW224720   3.781   1.411   4.463  1.0613  1.6499 -2.5145
 4363SOL     OW24721   1.124   2.994   7.812  0.1575 -0.1192  0.2289
 4363SOL    HW124722   1.133   2.932   7.739 -0.2286  0.1187 -0.0148
 4363SOL    HW224723   1.108   2.929   7.880  0.9264 -1.4361 -0.8363
 4364SOL     OW24724   3.197   0.717   7.072  0.0040 -0.3644  0.2007
 4364SOL    HW124725   3.135   0.788   7.085  0.7470  0.3983 -0.4432
 4364SOL    HW224726   3.277   0.768   7.055 -0.7280  0.4274 -0.8368
 4365SOL     OW24727   0.211   3.479   5.901  0.0010  0.2190 -0.0580
 4365SOL    HW124728   0.150   3.507   5.969  0.7235  0.8683  0.3249
 4365SOL    HW224729   0.175   3.528   5.827  0.8503  0.3851 -0.3590
 4366SOL     OW24730   1.104   1.793   3.537  0.6384  0.2768  0.2512
 4366SOL    HW124731   1.108   1.703   3.570 -0.7267 -0.0621 -0.4983
 4366SOL    HW224732   1.094   1.841   3.619 -0.9982  3.5272 -1.8559
 4367SOL     OW24733   4.277   1.363   6.567  0.1082  0.0028 -0.0933
 4367SOL    HW124734   4.259   1.305   6.493 -1.0766 -0.3465  0.4683
 4367SOL    HW224735   4.203   1.422   6.558  0.5274  0.7927  1.6718
 4368SOL     OW24736   2.352   1.522  13.901  0.1673  0.2451  0.0469
 4368SOL    HW124737   2.380   1.526  13.809 -1.8006  2.8291 -0.4473
 4368SOL    HW224738   2.318   1.433  13.903  2.7169 -0.7416 -1.3448
 4369SOL     OW24739   3.872   0.162   1.742  0.2774  0.5459  0.3414
 4369SOL    HW124740   3.826   0.080   1.761  0.8566  0.1241 -0.0984
 4369SOL    HW224741   3.886   0.197   1.830 -2.3483  1.0485  0.5560
 4370SOL     OW24742   1.071   3.532   6.635 -0.3589 -0.0642  0.4629
 4370SOL    HW124743   1.029   3.447   6.620 -1.5746  0.9216 -1.6389
 4370SOL    HW224744   0.985   3.574   6.625 -0.8487 -1.2932 -0.5138
 4371SOL     OW24745   1.086   3.156   4.244  0.1835 -0.1092 -0.1317
 4371SOL    HW124746   1.149   3.085   4.261  1.5472  1.2974  0.6480
 4371SOL    HW224747   1.006   3.133   4.291  0.1801  0.8391  0.3213
 4372SOL     OW24748   2.041   0.921   3.522 -0.1521  0.5527 -0.1689
 4372SOL    HW124749   1.991   1.003   3.526  0.4958  1.0267 -1.9293
 4372SOL    HW224750   2.131   0.937   3.492 -0.7952 -1.9476 -3.3775
 4373SOL     OW24751   3.563   2.499   1.542 -0.0920  0.1374  0.0062
 4373SOL    HW124752   3.644   2.532   1.503  1.1917 -0.9738  1.7062
 4373SOL    HW224753   3.608   2.467   1.620  1.9776  0.1705 -1.1645
 4374SOL     OW24754   2.383   4.190   8.965 -0.8544 -0.2009 -0.2229
 4374SOL    HW124755   2.469   4.194   8.923 -0.7710 -1.1125 -0.1195
 4374SOL    HW224756   2.335   4.246   8.903 -4.0517 -1.2985  1.2314
 4375SOL     OW24757   2.267   0.722   1.191 -0.2800 -0.3206 -0.1772
 4375SOL    HW124758   2.264   0.817   1.193 -3.7384 -0.4342  0.5312
 4375SOL    HW224759   2.324   0.699   1.264 -0.8857  2.4136  1.1518
 4376SOL     OW24760   3.017   4.542   0.857  0.1193  0.2344 -0.4543
 4376SOL    HW124761   2.976   4.581   0.934  1.9388  1.2787 -0.0264
 4376SOL    HW224762   2.975   4.593   0.787  1.0761  0.8921 -0.5462
 4377SOL     OW24763   0.859   0.301   5.791 -0.6925  0.2250 -0.0834
 4377SOL    HW124764   0.867   0.246   5.869 -0.0075 -3.3496 -2.6889
 4377SOL    HW224765   0.825   0.379   5.836  0.6293  1.0313 -0.5020
 4378SOL     OW24766   3.141   1.514   6.508 -0.1105  0.4975 -0.2856
 4378SOL    HW124767   3.057   1.470   6.515  0.1378  0.2649  1.1468
 4378SOL    HW224768   3.201   1.439   6.519  0.1793  0.7079 -0.4204
 4379SOL     OW24769   1.495   1.293   9.364 -0.0231 -0.0884  0.0731
 4379SOL    HW124770   1.535   1.357   9.423  0.9648 -0.5610 -0.1027
 4379SOL    HW224771   1.421   1.269   9.421 -1.6816  0.4268 -1.8682
 4380SOL     OW24772   0.565   2.088   2.318 -0.4798  0.3104 -0.1327
 4380SOL    HW124773   0.633   2.024   2.338 -1.9737 -0.7626  1.4915
 4380SOL    HW224774   0.481   2.049   2.340 -0.8409 -0.7499 -3.3146
 4381SOL     OW24775   3.122   4.000   2.808 -0.5109  0.1698  0.3284
 4381SOL    HW124776   3.093   3.910   2.815 -2.3722  1.0539  3.9654
 4381SOL    HW224777   3.070   4.041   2.876  0.5352  1.6771  0.2434
 4382SOL     OW24778   3.813   2.868  12.757  0.7730  0.7678 -0.3302
 4382SOL    HW124779   3.812   2.884  12.851 -0.1714 -3.3987  0.3449
 4382SOL    HW224780   3.872   2.935  12.724 -1.5071  2.8425 -0.1724
 4383SOL     OW24781   4.670   3.829  14.543  0.2069  0.1571 -0.3582
 4383SOL    HW124782   4.630   3.774  14.475 -0.7319 -0.2120  0.4925
 4383SOL    HW224783   0.023   3.811  14.524  0.3089 -0.8340  1.1307
 4384SOL     OW24784   3.209   0.286   7.572  0.0528 -0.0165  1.0423
 4384SOL    HW124785   3.209   0.257   7.481 -1.3171 -0.6983  1.2667
 4384SOL    HW224786   3.167   0.211   7.614 -1.1294 -0.4235 -0.9019
 4385SOL     OW24787   3.857   2.878  15.869  0.4221 -0.0264  0.2210
 4385SOL    HW124788   3.906   2.826  15.933  1.6282  0.8143 -0.0293
 4385SOL    HW224789   3.801   2.933  15.924  0.1645 -0.1632  0.0969
 4386SOL     OW24790   1.018   2.182   4.364  0.2786 -0.2876  0.0833
 4386SOL    HW124791   1.010   2.149   4.454 -1.8349 -0.0467 -0.0227
 4386SOL    HW224792   1.041   2.108   4.308  1.5910  1.4499 -1.6634
 4387SOL     OW24793   4.209   4.145  13.220 -0.4852 -0.5003 -0.0113
 4387SOL    HW124794   4.228   4.122  13.129 -0.7569  0.4092 -0.2985
 4387SOL    HW224795   4.170   4.232  13.211  1.2846  0.4133  1.1283
 4388SOL     OW24796   2.907   3.152   5.975  0.1364  0.6517  0.6000
 4388SOL    HW124797   2.816   3.163   5.947 -0.2083 -0.8577  1.1298
 4388SOL    HW224798   2.951   3.223   5.928 -0.2782  0.8096  0.4507
 4389SOL     OW24799   0.206   3.943   8.681 -0.3972 -0.1959  0.2895
 4389SOL    HW124800   0.130   3.991   8.713 -1.1717 -2.8368  2.4075
 4389SOL    HW224801   0.275   3.994   8.725  0.2818 -0.2872 -0.6706
 4390SOL     OW24802   1.447   2.720  10.061  0.0147  0.1113 -0.0577
 4390SOL    HW124803   1.434   2.811  10.087 -0.1828 -0.1465  0.7358
 4390SOL    HW224804   1.541   2.710  10.046  0.2215  1.3125  0.4449
 4391SOL     OW24805   0.543   0.911   4.781  0.3354 -0.0372 -0.0400
 4391SOL    HW124806   0.525   0.987   4.837 -1.4513 -0.4986  0.0080
 4391SOL    HW224807   0.560   0.953   4.696 -0.1100 -0.7056 -0.4621
 4392SOL     OW24808   2.702   3.946   2.612  0.3855  0.0549  0.6113
 4392SOL    HW124809   2.741   4.020   2.566  2.0214 -1.0189  0.2626
 4392SOL    HW224810   2.615   3.985   2.625 -0.1948 -0.6292 -1.3226
 4393SOL     OW24811   3.368   3.935  16.612 -0.3733  0.3561  0.0621
 4393SOL    HW124812   3.297   3.900  16.666  0.4627  1.1498  1.6899
 4393SOL    HW224813   3.318   3.952  16.533 -2.5888 -0.2433  1.3384
 4394SOL     OW24814   2.113   2.681   2.994  0.0912 -0.2502  0.5355
 4394SOL    HW124815   2.156   2.727   3.066 -0.5578 -0.1169  0.8395
 4394SOL    HW224816   2.029   2.726   2.997 -0.7512 -1.6155 -2.5618
 4395SOL     OW24817   0.206   3.650   9.841 -0.8789  0.4997 -0.0628
 4395SOL    HW124818   0.280   3.694   9.801  1.1987 -0.8914  2.2631
 4395SOL    HW224819   0.250   3.567   9.862 -1.9755  0.1097  0.7195
 4396SOL     OW24820   0.909   1.750   0.389 -0.4500  0.0276 -0.0590
 4396SOL    HW124821   0.927   1.666   0.431  0.6863  0.5581  0.5338
 4396SOL    HW224822   0.823   1.761   0.430 -0.0417  0.7763  0.5937
 4397SOL     OW24823   3.064   2.743   8.121 -0.1784  0.2510  0.2260
 4397SOL    HW124824   3.128   2.691   8.169 -1.0332 -2.1525 -1.2774
 4397SOL    HW224825   3.026   2.679   8.061  1.7794 -0.4996 -0.1933
 4398SOL     OW24826   2.106   2.328  10.995 -0.1756  0.3028 -0.6195
 4398SOL    HW124827   2.073   2.364  11.077 -2.3614  2.9617 -2.6800
 4398SOL    HW224828   2.098   2.406  10.940  2.2021 -1.0648 -2.9269
 4399SOL     OW24829   2.533   4.613  17.264  0.3228 -0.3654 -0.1100
 4399SOL    HW124830   2.598   4.576  17.204  0.3353  1.6561 -1.3467
 4399SOL    HW224831   2.460   4.637  17.207 -0.6355 -0.2346  1.1605
 4400SOL     OW24832   2.023   4.324   2.466 -0.2848 -0.9584 -0.2555
 4400SOL    HW124833   2.022   4.419   2.460 -1.1093 -0.8592  1.2765
 4400SOL    HW224834   1.944   4.307   2.415  0.1289  1.2933 -1.5991
 4401SOL     OW24835   3.959   1.345  12.626 -0.2446  0.6374 -0.0018
 4401SOL    HW124836   4.016   1.273  12.654  1.8847  3.0514  1.8383
 4401SOL    HW224837   4.002   1.426  12.652 -1.2124  1.1896 -0.1175
 4402SOL     OW24838   3.520   0.272   2.241 -0.6049  0.1014  0.0288
 4402SOL    HW124839   3.464   0.349   2.235 -1.3125 -0.5273 -1.4326
 4402SOL    HW224840   3.460   0.218   2.191  1.3601 -2.4565  0.4171
 4403SOL     OW24841   1.064   4.525  15.066 -0.0374  0.1231  0.2633
 4403SOL    HW124842   0.982   4.543  15.111 -0.4618  0.3371 -0.6069
 4403SOL    HW224843   1.029   4.511  14.979 -1.6243 -1.3809  1.1381
 4404SOL     OW24844   2.892   2.617  12.943 -0.1910 -0.4758  0.1895
 4404SOL    HW124845   2.871   2.710  12.942  3.3159  0.3135 -0.2321
 4404SOL    HW224846   2.958   2.630  13.011 -0.8431 -0.6479  0.8594
 4405SOL     OW24847   2.394   1.202   0.422  0.5459  0.3133  0.5863
 4405SOL    HW124848   2.463   1.213   0.356  0.4331 -0.2254  0.3821
 4405SOL    HW224849   2.437   1.199   0.508 -0.4659  1.8479  1.1460
 4406SOL     OW24850   1.039   2.177  11.752 -0.1678  0.6155 -0.5319
 4406SOL    HW124851   1.087   2.116  11.807 -2.2373 -0.3768  0.1601
 4406SOL    HW224852   1.081   2.260  11.777 -1.6004  0.7946  1.2328
 4407SOL     OW24853   4.448   1.934   6.069 -0.4076 -0.2043  0.3515
 4407SOL    HW124854   4.517   1.920   6.004 -0.7844 -3.7728  0.7601
 4407SOL    HW224855   4.402   2.000   6.017 -2.1326 -1.4018  0.3801
 4408SOL     OW24856   3.727   2.516   5.232  0.4547  0.2211 -0.3921
 4408SOL    HW124857   3.805   2.528   5.286  0.8175  1.4813 -1.1880
 4408SOL    HW224858   3.741   2.590   5.172  2.2806 -0.0639 -0.3268
 4409SOL     OW24859   3.172   2.387  14.450  0.3205 -0.5181 -0.0698
 4409SOL    HW124860   3.252   2.423  14.490 -0.4613 -0.3215  1.3338
 4409SOL    HW224861   3.219   2.324  14.396  2.0741 -0.0597  0.9364
 4410SOL     OW24862   1.166   0.627   2.187 -0.1188  0.4534 -0.1405
 4410SOL    HW124863   1.259   0.617   2.209 -0.6438 -0.3380  1.7451
 4410SOL    HW224864   1.128   0.541   2.203 -2.1198  1.0271 -1.8856
 4411SOL     OW24865   2.783   0.597   7.301  0.0904  0.2366  0.9210
 4411SOL    HW124866   2.863   0.564   7.261 -1.9450 -3.3159 -0.2201
 4411SOL    HW224867   2.717   0.558   7.243  1.1043  2.6414 -1.8204
 4412SOL     OW24868   3.576   4.008   3.242 -0.2283  0.2233  0.0264
 4412SOL    HW124869   3.508   3.940   3.245 -1.7065  1.7277  0.6513
 4412SOL    HW224870   3.601   4.025   3.333 -1.8332 -1.3412  0.7653
 4413SOL     OW24871   1.478   3.374  11.317  0.5253 -0.5345  0.6950
 4413SOL    HW124872   1.488   3.290  11.274 -1.3148 -0.9959  1.1657
 4413SOL    HW224873   1.462   3.335  11.403 -1.0198  0.1076  0.6965
 4414SOL     OW24874   2.748   0.508   2.385 -0.3749  0.0291 -0.0941
 4414SOL    HW124875   2.832   0.552   2.395  1.1523 -3.1918  1.2015
 4414SOL    HW224876   2.744   0.520   2.290 -0.7449  1.5836  0.1178
 4415SOL     OW24877   0.728   1.457   6.711  0.4010 -0.2567 -0.2319
 4415SOL    HW124878   0.778   1.380   6.682  1.2736  0.5574 -0.9154
 4415SOL    HW224879   0.754   1.461   6.803 -0.8580 -2.0984  0.1985
 4416SOL     OW24880   0.261   4.002   3.420 -0.2615  0.6579 -0.3701
 4416SOL    HW124881   0.204   4.066   3.462 -1.2822  0.3568 -1.3004
 4416SOL    HW224882   0.265   4.035   3.331 -2.5275  1.8822 -0.0106
 4417SOL     OW24883   3.758   2.576   8.298  0.3775 -0.1591 -0.3440
 4417SOL    HW124884   3.834   2.620   8.335 -0.4110  0.5972  0.3874
 4417SOL    HW224885   3.699   2.593   8.372  1.2027  0.5866  0.1397
 4418SOL     OW24886   2.999   3.886   7.999 -0.1653 -0.2397 -0.2686
 4418SOL    HW124887   3.063   3.820   8.023 -2.0957 -2.1741 -0.4588
 4418SOL    HW224888   2.928   3.861   8.059 -0.1269 -0.8385 -0.4762
 4419SOL     OW24889   3.988   0.457   7.384  0.3174 -0.0636  0.0347
 4419SOL    HW124890   4.075   0.464   7.345 -0.9133  0.8145 -2.5812
 4419SOL    HW224891   3.992   0.536   7.438  2.5633 -1.1653  1.4564
 4420SOL     OW24892   4.023   4.490   5.663  0.1949  0.1664 -0.6822
 4420SOL    HW124893   4.012   4.398   5.684 -2.7110  0.9977  1.4580
 4420SOL    HW224894   3.947   4.532   5.704  1.2643  0.8474  0.6153
 4421SOL     OW24895   3.595   3.503  13.498 -0.1057 -0.6736  0.5839
 4421SOL    HW124896   3.620   3.442  13.568 -3.0234 -1.1355  1.2347
 4421SOL    HW224897   3.679   3.547  13.485  0.9363 -2.8381  0.0471
 4422SOL     OW24898   0.896   1.711  15.780 -0.2039  0.2940 -0.2225
 4422SOL    HW124899   0.829   1.738  15.718  0.2343  3.1221  0.5468
 4422SOL    HW224900   0.841   1.657  15.836 -0.1739 -1.9157 -2.3553
 4423SOL     OW24901   3.401   2.543   2.946 -0.1065 -0.0120 -0.0212
 4423SOL    HW124902   3.496   2.534   2.956 -0.4358 -0.9648  2.2768
 4423SOL    HW224903   3.395   2.613   2.881 -1.9194 -0.7981 -0.6959
 4424SOL     OW24904   2.464   2.102  11.985  0.7442 -0.3324  0.3156
 4424SOL    HW124905   2.534   2.158  11.951 -0.7356 -0.1649 -2.3992
 4424SOL    HW224906   2.463   2.036  11.916  0.1744 -0.4192  0.4025
 4425SOL     OW24907   0.607   3.644   9.802  0.2375 -0.0675  0.0850
 4425SOL    HW124908   0.549   3.717   9.781  0.3374  0.0211  0.1159
 4425SOL    HW224909   0.557   3.574   9.761  2.0646 -1.4581  0.2473
 4426SOL     OW24910   3.260   1.562   4.407  0.7790 -0.3354  0.1788
 4426SOL    HW124911   3.321   1.547   4.479  0.4917 -0.1752  0.4562
 4426SOL    HW224912   3.283   1.495   4.342 -0.8700  1.8365 -2.6681
 4427SOL     OW24913   0.935   0.723   9.762  0.1391  0.1281 -0.4281
 4427SOL    HW124914   0.990   0.657   9.804  0.2152 -0.9593 -2.2461
 4427SOL    HW224915   0.864   0.738   9.825 -0.6192  1.6711 -1.6504
 4428SOL     OW24916   3.299   2.679   5.952  0.3595  0.4170  0.2320
 4428SOL    HW124917   3.251   2.679   5.869  1.5327  1.9942 -0.4603
 4428SOL    HW224918   3.232   2.718   6.008 -0.4926 -1.6943  0.6571
 4429SOL     OW24919   0.162   3.998   1.723  0.3394  0.3926 -0.3379
 4429SOL    HW124920   0.099   4.044   1.668 -0.3132 -0.1193 -0.0185
 4429SOL    HW224921   0.115   3.917   1.743 -1.3578  1.1657 -1.1678
 4430SOL     OW24922   2.396   2.666  13.296 -0.5167 -0.1525 -0.1243
 4430SOL    HW124923   2.489   2.650  13.312 -0.6364 -1.0772 -0.3156
 4430SOL    HW224924   2.358   2.681  13.382  1.4031  2.9597  0.1664
 4431SOL     OW24925   1.642   2.018   7.992  0.0950 -0.6760 -0.0919
 4431SOL    HW124926   1.663   2.090   8.050 -0.4476  0.2402 -1.0332
 4431SOL    HW224927   1.558   2.047   7.956  1.1235  1.9155 -0.3942
 4432SOL     OW24928   0.200   4.114   9.558  0.3531  0.5935  0.4394
 4432SOL    HW124929   0.212   4.162   9.476 -0.8237  0.2791  0.0790
 4432SOL    HW224930   0.151   4.036   9.534  3.7619 -1.5120  0.3224
 4433SOL     OW24931   2.350   1.816   2.247  0.3908 -0.7432  0.2343
 4433SOL    HW124932   2.385   1.901   2.276  2.1967 -1.8156  1.2252
 4433SOL    HW224933   2.310   1.840   2.164  0.1888 -1.2727  0.1792
 4434SOL     OW24934   1.645   1.608   2.653  0.3990  0.5827 -0.4795
 4434SOL    HW124935   1.574   1.557   2.692  0.2421 -0.4625 -2.1467
 4434SOL    HW224936   1.673   1.658   2.730  1.5467 -0.2643 -0.3557
 4435SOL     OW24937   0.741   0.656   4.737  0.5561  0.3690 -0.0178
 4435SOL    HW124938   0.677   0.715   4.696  1.4447  0.2351 -1.5959
 4435SOL    HW224939   0.743   0.577   4.682  0.0310  0.3210  0.0304
 4436SOL     OW24940   1.240   1.574   3.808  0.6470  0.0198  0.5594
 4436SOL    HW124941   1.231   1.509   3.878 -1.7840  1.6933  1.7968
 4436SOL    HW224942   1.318   1.545   3.762 -0.2139 -1.7294  0.1782
 4437SOL     OW24943   0.253   2.071   9.429  0.4186  0.5664  0.7833
 4437SOL    HW124944   0.270   2.058   9.522  1.2951 -0.1211  0.5312
 4437SOL    HW224945   0.342   2.055   9.397 -0.7448 -2.3399 -1.0120
 4438SOL     OW24946   2.027   3.216   7.507 -0.3321  0.0534  0.0460
 4438SOL    HW124947   2.079   3.271   7.449  0.2317  2.6846  3.0858
 4438SOL    HW224948   1.959   3.193   7.443 -1.1650  1.4309  0.4418
 4439SOL     OW24949   0.765   4.688   2.302  0.3270  0.1969  0.5173
 4439SOL    HW124950   0.723   4.605   2.279 -2.0394  1.4065  0.5727
 4439SOL    HW224951   0.830   4.711   2.235  0.8405  0.7630  1.2072
 4440SOL     OW24952   2.248   2.836  16.264  0.1530  0.1475  0.3070
 4440SOL    HW124953   2.257   2.884  16.347 -0.3118  0.4879  0.1560
 4440SOL    HW224954   2.280   2.905  16.206 -1.2342  0.6839  0.1832
 4441SOL     OW24955   1.310   3.136  11.773  0.2173 -0.5271 -0.4265
 4441SOL    HW124956   1.234   3.185  11.803  1.0126  0.7465 -0.4563
 4441SOL    HW224957   1.353   3.126  11.858  2.4864  0.2673 -1.4540
 4442SOL     OW24958   1.577   1.209   4.869 -0.3090  0.0452 -0.1571
 4442SOL    HW124959   1.519   1.241   4.938 -1.9186 -1.9532 -0.5886
 4442SOL    HW224960   1.558   1.265   4.795 -2.3186 -0.9615 -0.4006
 4443SOL     OW24961   2.837   0.031  12.017 -0.5488  0.2968  0.7967
 4443SOL    HW124962   2.842   0.097  12.087  0.3737 -0.6367  1.6112
 4443SOL    HW224963   2.902   0.060  11.953 -0.3925 -1.5924  0.1078
 4444SOL     OW24964   1.826   4.310   6.204 -0.3792  0.1358 -0.2798
 4444SOL    HW124965   1.810   4.399   6.235 -2.2094 -0.2756 -0.0500
 4444SOL    HW224966   1.881   4.334   6.130  0.2829 -0.5001  0.0076
 4445SOL     OW24967   3.235   0.298   7.116  0.5285  0.3074 -1.0570
 4445SOL    HW124968   3.147   0.333   7.135  1.8378  1.6671  2.3736
 4445SOL    HW224969   3.276   0.283   7.201 -1.4927  3.8475  0.5588
 4446SOL     OW24970   0.727   3.915   1.386  0.2356  0.5293  0.0643
 4446SOL    HW124971   0.737   3.989   1.327 -0.3939 -0.2412 -1.0123
 4446SOL    HW224972   0.709   3.952   1.472  0.4092  2.6236 -0.7969
 4447SOL     OW24973   2.525   4.522  12.674 -0.5822 -0.1212 -0.1784
 4447SOL    HW124974   2.484   4.438  12.653  0.6792 -0.5821 -0.8189
 4447SOL    HW224975   2.486   4.588  12.617  2.1699 -0.0927 -2.0251
 4448SOL     OW24976   1.194   1.281   9.582  0.0761 -0.0794  0.4580
 4448SOL    HW124977   1.171   1.373   9.566  2.4660 -0.0335 -2.8403
 4448SOL    HW224978   1.162   1.261   9.669 -1.7161 -1.1362 -0.4366
 4449SOL     OW24979   0.711   3.668  16.222  0.2558 -0.3378 -0.1081
 4449SOL    HW124980   0.631   3.619  16.241  0.2582 -1.2087 -2.2797
 4449SOL    HW224981   0.703   3.751  16.268  1.0361  0.4326 -1.3502
 4450SOL     OW24982   4.387   3.645   8.274 -0.8897 -0.0883  0.5015
 4450SOL    HW124983   4.465   3.633   8.327  0.7232 -1.4607 -2.2081
 4450SOL    HW224984   4.325   3.675   8.340 -2.0001  2.7140 -1.7649
 4451SOL     OW24985   2.917   2.121   8.486  0.0106  0.4220  0.3377
 4451SOL    HW124986   2.957   2.207   8.498  0.9181  0.0652 -0.1739
 4451SOL    HW224987   2.827   2.146   8.464 -0.7755 -2.9562 -0.3342
 4452SOL     OW24988   4.735   4.224   6.206 -0.2492 -0.8421  0.6412
 4452SOL    HW124989   4.705   4.297   6.260 -1.5627  0.3137 -1.6553
 4452SOL    HW224990   0.089   4.235   6.224 -0.0783 -0.0267 -0.7116
 4453SOL     OW24991   0.151   4.007  10.721 -0.1327 -0.1279  0.2989
 4453SOL    HW124992   0.191   4.084  10.680  0.5864 -1.5108 -1.5518
 4453SOL    HW224993   0.113   3.971  10.641 -1.3830 -0.8022  1.1850
 4454SOL     OW24994   3.876   2.792   9.036  0.0024 -0.0264  0.6832
 4454SOL    HW124995   3.897   2.699   9.041  0.0522 -0.0599 -0.0563
 4454SOL    HW224996   3.861   2.827   9.124  1.9741  1.4284  0.4366
 4455SOL     OW24997   2.796   2.130   4.335  0.5012  0.0948  0.0653
 4455SOL    HW124998   2.841   2.112   4.417  1.3828 -2.0538 -0.8911
 4455SOL    HW224999   2.833   2.214   4.309 -0.7206  0.4060 -0.6758
 4456SOL     OW25000   1.749   1.398  16.078 -0.3504  0.0910 -0.1688
 4456SOL    HW125001   1.727   1.460  16.147 -0.3376  0.8912 -0.8914
 4456SOL    HW225002   1.675   1.337  16.084 -0.9440  1.0703  2.2473
 4457SOL     OW25003   3.000   2.192   0.910  0.2143 -0.8429 -0.5120
 4457SOL    HW125004   3.076   2.138   0.888 -0.3655 -1.5728 -0.7291
 4457SOL    HW225005   2.955   2.146   0.980  2.0112  0.2639  1.3539
 4458SOL     OW25006   2.866   1.678   2.853  0.8189  0.2738  0.0436
 4458SOL    HW125007   2.809   1.741   2.894  2.5337  0.4426  2.1597
 4458SOL    HW225008   2.855   1.708   2.763 -0.0216  0.9730  0.3899
 4459SOL     OW25009   1.022   0.659  15.483 -0.4658 -0.2234 -0.1816
 4459SOL    HW125010   1.055   0.722  15.547  1.0482 -0.4336 -0.7760
 4459SOL    HW225011   0.932   0.692  15.472 -0.9436 -1.1775  0.8509
 4460SOL     OW25012   4.105   0.462  11.499 -0.4553  0.1727 -0.3566
 4460SOL    HW125013   4.093   0.445  11.405 -1.8158 -1.7713  0.1749
 4460SOL    HW225014   4.177   0.524  11.488 -0.3958  0.3561  1.1746
 4461SOL     OW25015   4.494   0.252   9.928  0.1915  0.2064  0.0026
 4461SOL    HW125016   4.508   0.337   9.970  0.8992  0.1931 -0.2017
 4461SOL    HW225017   4.574   0.239   9.878 -1.4280 -1.5246 -2.1314
 4462SOL     OW25018   2.613   2.055  16.531 -0.5941 -0.2887 -0.0207
 4462SOL    HW125019   2.634   2.102  16.450 -1.4596  1.9376  1.0513
 4462SOL    HW225020   2.518   2.062  16.541 -0.8134 -2.9071 -0.1827
 4463SOL     OW25021   0.094   1.257   5.270 -0.8798  0.4522  0.3723
 4463SOL    HW125022   0.184   1.235   5.297  0.1946 -0.9402 -4.3525
 4463SOL    HW225023   0.041   1.261   5.350  0.3293  0.6101  1.1705
 4464SOL     OW25024   4.406   2.721   0.588  0.1673 -0.6230  0.4507
 4464SOL    HW125025   4.422   2.656   0.520 -0.6690 -1.0897  0.6944
 4464SOL    HW225026   4.489   2.769   0.585  0.5287 -1.1243  2.0171
 4465SOL     OW25027   1.471   2.480   8.859 -0.3984 -0.3828  0.2478
 4465SOL    HW125028   1.451   2.480   8.766  1.6206 -1.8074 -0.1906
 4465SOL    HW225029   1.386   2.503   8.897 -0.8621 -2.6407  0.5994
 4466SOL     OW25030   3.644   1.591  10.470 -0.2753 -0.0814  0.4383
 4466SOL    HW125031   3.621   1.540  10.393 -0.3726  0.7135 -0.0619
 4466SOL    HW225032   3.569   1.575  10.527 -0.4149 -1.0622 -0.0178
 4467SOL     OW25033   1.106   4.535  13.584  0.4853 -0.0413 -0.1735
 4467SOL    HW125034   1.156   4.455  13.566  1.8711  0.9177 -0.6068
 4467SOL    HW225035   1.100   4.527  13.680 -1.1513  1.9287 -0.1346
 4468SOL     OW25036   3.099   2.694   3.890  0.0224 -0.3053 -0.4682
 4468SOL    HW125037   3.042   2.711   3.964  1.9774 -3.3012  1.7083
 4468SOL    HW225038   3.159   2.632   3.930  0.3657 -0.4106 -1.1459
 4469SOL     OW25039   0.380   3.941   1.556 -0.2071  0.4915 -0.1568
 4469SOL    HW125040   0.313   3.936   1.624 -0.3839  0.7915 -0.3098
 4469SOL    HW225041   0.431   3.864   1.584 -2.0363 -1.0451 -1.0424
 4470SOL     OW25042   3.322   2.247   6.973 -1.0428 -0.2636 -0.4180
 4470SOL    HW125043   3.282   2.161   6.988  1.8401 -1.3735  0.9138
 4470SOL    HW225044   3.327   2.245   6.878 -2.1875 -0.1338 -0.4808
 4471SOL     OW25045   3.081   2.939   4.196  0.1382 -0.2245  0.1029
 4471SOL    HW125046   3.002   2.940   4.142  1.2800 -0.3296 -1.5661
 4471SOL    HW225047   3.133   3.011   4.162 -2.1042  0.1050 -2.6874
 4472SOL     OW25048   0.820   2.187   2.427  0.2687 -0.0545  0.3470
 4472SOL    HW125049   0.724   2.184   2.417  0.6578  0.0989 -3.4101
 4472SOL    HW225050   0.826   2.269   2.476  1.9875  1.5640 -2.5948
 4473SOL     OW25051   3.341   3.474   2.641  0.1605 -0.2793  0.7754
 4473SOL    HW125052   3.432   3.502   2.636  0.3611 -0.6724  2.1310
 4473SOL    HW225053   3.337   3.397   2.583 -1.5227 -0.6011  1.3121
 4474SOL     OW25054   2.276   1.602  13.455  0.2829  0.2146  0.3393
 4474SOL    HW125055   2.211   1.539  13.486 -1.0503  1.0840 -0.7056
 4474SOL    HW225056   2.226   1.653  13.391 -1.7720  1.7565  3.2285
 4475SOL     OW25057   0.213   1.667   7.038 -0.0406 -0.1429  0.0047
 4475SOL    HW125058   0.304   1.645   7.019 -0.6478  0.5365 -3.7114
 4475SOL    HW225059   0.220   1.677   7.133  0.5983  0.9497 -0.1455
 4476SOL     OW25060   1.988   3.471  11.721  0.4223  0.0658 -0.0305
 4476SOL    HW125061   1.947   3.431  11.797 -1.3284 -0.7182 -1.3850
 4476SOL    HW225062   2.043   3.399  11.691 -1.4113 -2.4992  2.6860
 4477SOL     OW25063   1.613   1.474   1.179 -0.8164 -0.1692  0.0560
 4477SOL    HW125064   1.688   1.532   1.164 -0.5538 -0.2205  1.2021
 4477SOL    HW225065   1.648   1.401   1.229  1.7910  2.0762  1.5222
 4478SOL     OW25066   3.958   2.294   5.535  0.5315  0.0674  0.3587
 4478SOL    HW125067   4.008   2.367   5.499  0.5829 -0.6161 -0.9590
 4478SOL    HW225068   3.872   2.332   5.551  2.1666  3.7345  0.3097
 4479SOL     OW25069   3.228   1.795   7.286 -0.0766 -0.5038 -0.3557
 4479SOL    HW125070   3.314   1.813   7.248  0.3950  1.1668  1.5136
 4479SOL    HW225071   3.242   1.812   7.379 -0.3209 -1.9917 -0.0473
 4480SOL     OW25072   0.946   3.168   8.029 -0.0874  0.8900  0.1840
 4480SOL    HW125073   0.896   3.093   7.996 -1.3401  1.9969 -0.4382
 4480SOL    HW225074   1.014   3.109   8.062  1.5417  2.2222 -0.7127
 4481SOL     OW25075   0.703   2.492   1.434 -0.0629  0.4492  0.2323
 4481SOL    HW125076   0.725   2.550   1.507 -1.3269 -1.3291  2.0379
 4481SOL    HW225077   0.781   2.480   1.380 -1.1227 -0.6801 -1.0301
 4482SOL     OW25078   3.008   0.447   0.301 -0.4346 -0.0730 -0.6938
 4482SOL    HW125079   2.954   0.475   0.228 -1.8780 -0.7190  0.1274
 4482SOL    HW225080   2.977   0.518   0.357 -3.1185 -2.7567  1.2812
 4483SOL     OW25081   3.664   0.010   8.152  0.3547 -0.3545 -0.1664
 4483SOL    HW125082   3.716   0.071   8.204  0.5365  0.0576 -0.8313
 4483SOL    HW225083   3.577   0.049   8.157  0.7139  0.1948  1.6911
 4484SOL     OW25084   0.918   1.648   4.456 -0.5311  0.4292  0.6916
 4484SOL    HW125085   0.895   1.557   4.436  1.4026  0.5267 -1.9483
 4484SOL    HW225086   0.891   1.693   4.376 -0.9573 -4.1289 -1.7312
 4485SOL     OW25087   1.915   4.025   8.612 -0.3326  0.1648  0.0823
 4485SOL    HW125088   1.901   4.080   8.690 -1.0571 -0.2064  0.2159
 4485SOL    HW225089   2.006   3.999   8.627  0.0322  1.1018 -0.5344
 4486SOL     OW25090   4.014   4.472   7.387 -0.5667 -0.2224 -0.2292
 4486SOL    HW125091   3.970   4.407   7.442 -0.7480  0.0644 -0.0372
 4486SOL    HW225092   4.052   4.539   7.443  1.4793  0.6108 -2.6231
 4487SOL     OW25093   0.445   3.460   0.688  0.0657  0.1337  0.2120
 4487SOL    HW125094   0.375   3.524   0.678 -0.5597 -0.8288 -1.7183
 4487SOL    HW225095   0.515   3.511   0.647  0.4509 -0.1098  0.5706
 4488SOL     OW25096   1.202   1.256  10.278  0.1455  0.4873  0.0424
 4488SOL    HW125097   1.160   1.339  10.257  0.2644  0.9312  1.5764
 4488SOL    HW225098   1.248   1.281  10.358  0.3441 -0.9416  0.3776
 4489SOL     OW25099   2.317   2.393   5.511  0.1376  0.1012  0.2447
 4489SOL    HW125100   2.269   2.310   5.505  0.6110 -0.3577  2.8863
 4489SOL    HW225101   2.349   2.406   5.422  0.4838  1.2181  0.5309
 4490SOL     OW25102   3.740   2.379   6.298 -0.0013 -0.2800 -0.6862
 4490SOL    HW125103   3.810   2.356   6.359  0.3414 -0.0225 -0.9783
 4490SOL    HW225104   3.679   2.397   6.370  1.3463 -0.1457  0.4133
 4491SOL     OW25105   0.071   3.458   2.378 -0.4630 -0.4997  0.3259
 4491SOL    HW125106   0.074   3.380   2.434  1.2884 -0.8736 -0.3060
 4491SOL    HW225107   0.083   3.416   2.292 -0.8955 -1.2879  0.6462
 4492SOL     OW25108   1.715   0.094   5.431 -0.1496  1.0020 -0.4535
 4492SOL    HW125109   1.696   0.136   5.347 -1.8097  0.8365 -0.1524
 4492SOL    HW225110   1.715   0.000   5.411  0.3606  1.1183 -1.0173
 4493SOL     OW25111   3.805   2.413   3.961  0.7827  0.2828  0.4227
 4493SOL    HW125112   3.758   2.354   4.021 -0.7896  3.1847  2.0377
 4493SOL    HW225113   3.799   2.366   3.877  3.3493  1.3999 -0.3733
 4494SOL     OW25114   1.448   3.730  12.274 -0.2166 -0.6042  0.7400
 4494SOL    HW125115   1.391   3.797  12.312 -1.8926 -1.6418  0.0949
 4494SOL    HW225116   1.420   3.652  12.321 -0.2306 -0.7985  0.4113
 4495SOL     OW25117   2.421   1.275   1.111 -0.3546 -0.3419  0.2223
 4495SOL    HW125118   2.369   1.326   1.173  1.2661  3.4232 -1.5364
 4495SOL    HW225119   2.386   1.187   1.127 -0.6715 -0.2734 -0.1139
 4496SOL     OW25120   3.332   2.660   1.129  0.2672 -0.0602  0.0870
 4496SOL    HW125121   3.388   2.598   1.175  1.1063  0.2025 -0.5687
 4496SOL    HW225122   3.273   2.595   1.090  0.9039 -0.7364  0.2455
 4497SOL     OW25123   0.251   4.092   8.152  0.4996  0.1016  0.2218
 4497SOL    HW125124   0.231   4.076   8.245  3.1247 -1.1792  0.5853
 4497SOL    HW225125   0.243   4.004   8.116  1.0949  0.1806 -0.0927
 4498SOL     OW25126   2.717   2.690   7.580  0.3785 -0.4113 -0.0553
 4498SOL    HW125127   2.673   2.684   7.665 -0.0819 -2.9537 -0.4495
 4498SOL    HW225128   2.667   2.625   7.531 -0.3175  0.4418 -0.4697
 4499SOL     OW25129   3.667   4.695   2.343  0.0567  0.3650  0.3735
 4499SOL    HW125130   3.575   4.675   2.361 -0.5265  1.2913 -1.5580
 4499SOL    HW225131   3.684   4.627   2.278 -0.4101  0.8057 -0.2130
 4500SOL     OW25132   4.586   2.340   7.371  0.2002 -0.3576 -0.2744
 4500SOL    HW125133   4.547   2.406   7.314 -0.5292 -0.3630  0.2231
 4500SOL    HW225134   4.677   2.361   7.348 -0.3683  1.4142 -0.8686
 4501SOL     OW25135   3.040   3.026   8.119 -0.2692  0.1546 -0.9702
 4501SOL    HW125136   2.952   3.025   8.156  0.3299  0.6644  0.4583
 4501SOL    HW225137   3.057   2.932   8.112 -1.2011  0.0216 -1.4432
 4502SOL     OW25138   3.028   1.746   8.186 -0.2310  0.3508  0.0525
 4502SOL    HW125139   2.989   1.744   8.099  0.2201 -1.4033 -0.1111
 4502SOL    HW225140   3.090   1.819   8.181  0.4943 -0.1239  1.8497
 4503SOL     OW25141   3.393   1.944   9.969 -0.3254  0.1111 -0.2462
 4503SOL    HW125142   3.414   1.880  10.038  3.0234 -0.3722 -1.7399
 4503SOL    HW225143   3.367   2.016  10.027  1.8092  1.9484 -1.5872
 4504SOL     OW25144   1.002   1.232   5.616  0.2286 -0.2070 -0.0670
 4504SOL    HW125145   0.927   1.280   5.581  1.9197  1.3386 -1.5355
 4504SOL    HW225146   1.072   1.266   5.560 -1.7343  2.7849 -0.7359
 4505SOL     OW25147   3.693   4.675   1.823  0.2652  0.3918 -0.4814
 4505SOL    HW125148   3.670   4.614   1.893 -2.3221  1.3154 -0.5390
 4505SOL    HW225149   3.648   0.014   1.854  3.4386  2.6864 -1.5993
 4506SOL     OW25150   3.132   1.087  13.632 -0.1507  0.2445 -0.0178
 4506SOL    HW125151   3.098   1.114  13.717  0.2543 -0.6148  0.4128
 4506SOL    HW225152   3.052   1.071  13.581 -0.9654  0.8481  1.0617
 4507SOL     OW25153   4.615   1.151   3.296  0.5802 -0.1992  0.3850
 4507SOL    HW125154   4.576   1.064   3.289  2.4757 -0.8136 -2.7070
 4507SOL    HW225155   4.556   1.188   3.229  0.2930  1.2685  1.4431
 4508SOL     OW25156   3.955   2.570   5.343 -0.4152 -0.4193  0.0680
 4508SOL    HW125157   3.980   2.646   5.291  0.7472  0.8393  2.4489
 4508SOL    HW225158   4.038   2.527   5.359 -1.0071 -1.2379  0.9661
 4509SOL     OW25159   4.172   2.450   8.358 -0.2483  0.1693  0.2711
 4509SOL    HW125160   4.119   2.451   8.277  0.2569  0.0270 -0.0603
 4509SOL    HW225161   4.260   2.478   8.334  0.1764 -0.0127  1.6420
 4510SOL     OW25162   2.906   4.547   4.378 -0.8076 -0.0173  0.8701
 4510SOL    HW125163   2.842   4.552   4.449 -2.7532  1.7571 -1.0095
 4510SOL    HW225164   2.852   4.497   4.316  0.6799  0.5806 -0.9106
 4511SOL     OW25165   4.364   1.057  17.468  0.0476 -0.3630 -0.3517
 4511SOL    HW125166   4.310   1.136  17.466  1.2938  0.4968 -0.0066
 4511SOL    HW225167   4.446   1.105  17.470  0.7034 -1.5151  0.4894
 4512SOL     OW25168   2.650   0.026   8.750 -0.6935  0.2659 -0.2854
 4512SOL    HW125169   2.593   0.044   8.675 -2.2290 -0.4305  0.6912
 4512SOL    HW225170   2.672   0.117   8.768  0.0126  0.3631 -1.7217
 4513SOL     OW25171   2.516   0.561   9.325  0.4835  0.3747  0.2048
 4513SOL    HW125172   2.439   0.598   9.283 -0.6411  0.3611  2.2645
 4513SOL    HW225173   2.491   0.469   9.330  1.7669  0.0297  0.3021
 4514SOL     OW25174   0.690   3.112   6.014  0.2856 -0.4115 -0.2869
 4514SOL    HW125175   0.750   3.115   5.939  1.8676 -0.9516  0.9638
 4514SOL    HW225176   0.691   3.017   6.024 -0.4489 -0.3523  0.3447
 4515SOL     OW25177   1.022   1.129   6.476 -0.1333 -0.5501 -0.4941
 4515SOL    HW125178   1.041   1.076   6.398 -0.5978 -0.9665 -0.3235
 4515SOL    HW225179   1.073   1.082   6.542  0.8133  0.8045 -0.2519
 4516SOL     OW25180   3.423   3.860   0.466  0.3021 -0.0864  0.1689
 4516SOL    HW125181   3.437   3.772   0.430 -0.7095  0.0123 -0.4791
 4516SOL    HW225182   3.360   3.897   0.403 -0.1968  0.7760  1.1806
 4517SOL     OW25183   3.195   3.368  11.745  0.0273  0.0092 -0.5198
 4517SOL    HW125184   3.105   3.338  11.758  1.0806 -2.6130  0.7450
 4517SOL    HW225185   3.254   3.296  11.724  0.1616 -0.3659  1.1334
 4518SOL     OW25186   4.179   4.427   7.160 -0.4987 -0.6132  0.1916
 4518SOL    HW125187   4.141   4.443   7.246 -1.2925 -1.5804  0.0148
 4518SOL    HW225188   4.257   4.379   7.190  0.5461  1.4031  0.7094
 4519SOL     OW25189   0.880   1.558  16.962  0.4854 -0.4817 -0.0383
 4519SOL    HW125190   0.971   1.546  16.937  0.2016 -1.3354 -0.7162
 4519SOL    HW225191   0.829   1.545  16.881 -2.3168  1.3336  1.4265
 4520SOL     OW25192   0.541   1.514  17.718  0.3733 -0.3712  0.8343
 4520SOL    HW125193   0.537   1.609  17.707 -1.1546 -0.3279  1.8183
 4520SOL    HW225194   0.596   1.497   0.042 -0.0508 -1.0813  0.9814
 4521SOL     OW25195   1.811   2.499   1.753  0.1768  0.1622  0.0480
 4521SOL    HW125196   1.746   2.521   1.686  0.7940 -0.9332 -0.9007
 4521SOL    HW225197   1.788   2.407   1.767 -0.0580  0.4120  1.4005
 4522SOL     OW25198   4.442   2.580   1.843 -0.0804 -0.4191  0.0084
 4522SOL    HW125199   4.411   2.510   1.786  0.3089  0.2652 -1.0344
 4522SOL    HW225200   4.534   2.563   1.861 -0.3091 -2.0216 -0.3492
 4523SOL     OW25201   2.673   1.718   7.756  0.4131  0.2824  0.4728
 4523SOL    HW125202   2.595   1.772   7.748  1.5013  1.5831 -1.5178
 4523SOL    HW225203   2.711   1.762   7.832 -1.2948  0.9734  0.9251
 4524SOL     OW25204   3.605   4.023  17.052 -0.0537  0.3865 -0.5174
 4524SOL    HW125205   3.700   4.016  17.063  0.1057  0.9350 -1.5570
 4524SOL    HW225206   3.605   4.103  17.000  1.6465 -1.0393 -2.6926
 4525SOL     OW25207   0.766   3.360  11.062 -0.6131 -0.4503  0.0396
 4525SOL    HW125208   0.728   3.402  11.139  3.1265  1.8729  0.6045
 4525SOL    HW225209   0.756   3.269  11.089 -0.0637 -1.1397 -2.0541
 4526SOL     OW25210   2.616   1.318   7.292  0.0087  0.1956 -0.0788
 4526SOL    HW125211   2.521   1.302   7.295  0.5548 -2.3014  2.8996
 4526SOL    HW225212   2.643   1.233   7.327 -2.7739 -0.8945 -0.5616
 4527SOL     OW25213   0.120   0.327   5.532  0.0971 -0.1204  0.0704
 4527SOL    HW125214   0.215   0.315   5.534 -0.2766 -2.7100  2.9331
 4527SOL    HW225215   0.100   0.243   5.574 -3.2454  0.5985 -0.1093
 4528SOL     OW25216   4.719   2.839   5.374 -0.1022  0.1550  0.2523
 4528SOL    HW125217   4.688   2.756   5.340 -2.4375  1.5978 -1.1752
 4528SOL    HW225218   0.067   2.808   5.399  0.9531  1.6598 -1.5690
 4529SOL     OW25219   1.560   3.736   8.572  0.8182 -0.3961  0.6819
 4529SOL    HW125220   1.585   3.825   8.546 -2.7858  0.4358  0.1509
 4529SOL    HW225221   1.580   3.754   8.664 -3.5371  0.1541  1.4890
 4530SOL     OW25222   3.321   2.231   7.645  0.2743  0.6119  0.3879
 4530SOL    HW125223   3.246   2.201   7.696 -0.2952 -0.4355 -1.0726
 4530SOL    HW225224   3.281   2.288   7.580  1.0821 -1.8565 -2.2597
 4531SOL     OW25225   1.951   1.266  16.323 -0.3885 -0.4124 -0.4244
 4531SOL    HW125226   1.989   1.241  16.239 -0.3938  3.6083 -1.6127
 4531SOL    HW225227   1.933   1.358  16.303  1.3185 -0.8033 -3.7945
 4532SOL     OW25228   4.428   4.306   8.846 -0.5923 -0.3781 -0.6496
 4532SOL    HW125229   4.468   4.220   8.863  2.9377  1.1457 -1.1539
 4532SOL    HW225230   4.503   4.342   8.797 -0.5073  1.4886  0.8527
 4533SOL     OW25231   2.463   3.913   5.120 -0.2036  0.4001 -0.5982
 4533SOL    HW125232   2.448   3.963   5.040  0.5915 -1.1616 -1.7378
 4533SOL    HW225233   2.378   3.927   5.162  0.3284 -0.9710  0.9495
 4534SOL     OW25234   3.355   0.049   2.157  0.3156  0.2491  0.4045
 4534SOL    HW125235   3.261   0.061   2.140  0.4451  1.1967  0.3582
 4534SOL    HW225236   3.359   0.016   2.247 -0.0289 -2.1294 -0.4579
 4535SOL     OW25237   4.513   0.750   3.590  0.2922  0.0552 -0.4916
 4535SOL    HW125238   4.591   0.805   3.584 -0.2952  1.0570  0.8524
 4535SOL    HW225239   4.540   0.680   3.651 -1.6453 -2.0403 -2.0308
 4536SOL     OW25240   4.532   3.053  13.427  0.1092  0.0262 -0.5517
 4536SOL    HW125241   4.585   2.994  13.481  1.4228  2.3595  0.7232
 4536SOL    HW225242   4.476   3.082  13.500 -1.3172 -0.0536 -1.6257
 4537SOL     OW25243   2.546   2.886   2.219 -0.0428 -0.1759 -0.1289
 4537SOL    HW125244   2.540   2.927   2.305  1.4715  1.8114 -0.9702
 4537SOL    HW225245   2.482   2.946   2.182  1.7812 -0.5486 -3.9465
 4538SOL     OW25246   1.076   2.053   8.295  0.1172  0.1526 -0.4246
 4538SOL    HW125247   1.064   1.976   8.350 -2.8768 -0.6658 -2.2178
 4538SOL    HW225248   1.010   2.110   8.335 -0.0320  0.2524 -0.8035
 4539SOL     OW25249   1.953   3.277   5.475  0.3513 -0.6922 -0.0831
 4539SOL    HW125250   2.013   3.255   5.403  0.5864 -1.0157  0.2104
 4539SOL    HW225251   1.929   3.368   5.459  0.1933 -0.6681  0.2870
 4540SOL     OW25252   2.856   1.382   6.851 -0.5323  0.3913  0.4585
 4540SOL    HW125253   2.775   1.371   6.900 -0.5222 -1.8163  0.0250
 4540SOL    HW225254   2.913   1.319   6.895 -0.3949 -0.0438 -0.3353
 4541SOL     OW25255   2.760   4.247  11.853  0.3591 -0.0358 -0.5891
 4541SOL    HW125256   2.741   4.341  11.853  0.7925  0.0533 -0.9420
 4541SOL    HW225257   2.824   4.249  11.782 -0.7622 -1.2014 -1.6384
 4542SOL     OW25258   4.361   1.080   5.042  0.1575 -0.3606  0.0942
 4542SOL    HW125259   4.440   1.032   5.068 -0.2941  0.0047  2.1368
 4542SOL    HW225260   4.304   1.056   5.115  2.1646  0.4800  1.9413
 4543SOL     OW25261   0.707   4.617   1.704  0.3114 -0.3156  0.6425
 4543SOL    HW125262   0.766   4.590   1.775 -0.5154  1.6855  2.0739
 4543SOL    HW225263   0.705   4.545   1.641 -0.7819 -1.0479  1.5216
 4544SOL     OW25264   0.740   4.667  15.386  0.4316  0.4923 -0.4464
 4544SOL    HW125265   0.745   4.736  15.453 -1.3906  0.7929 -0.6018
 4544SOL    HW225266   0.827   4.633  15.366 -0.1594 -0.5101 -1.3117
 4545SOL     OW25267   1.990   3.703  14.919  0.0952  0.5819  0.4441
 4545SOL    HW125268   1.921   3.697  14.853  1.2135 -0.5111 -0.6439
 4545SOL    HW225269   2.004   3.797  14.919  1.2637  0.4021  2.0670
 4546SOL     OW25270   2.436   0.245   1.570  0.4824  0.1941  0.3617
 4546SOL    HW125271   2.435   0.291   1.486  1.6546  2.9485  1.8728
 4546SOL    HW225272   2.406   0.155   1.556 -0.3349  0.5911 -0.4236
 4547SOL     OW25273   0.549   3.304   7.296 -0.1615 -0.4747  0.1688
 4547SOL    HW125274   0.527   3.293   7.388 -1.9975 -3.1849 -0.5761
 4547SOL    HW225275   0.563   3.210   7.283  2.1099 -0.2052  0.8389
 4548SOL     OW25276   1.016   0.012   7.597 -0.0350  0.4490  0.0386
 4548SOL    HW125277   0.980   0.081   7.540  0.3140  0.7731  0.2090
 4548SOL    HW225278   1.107   0.033   7.575  0.2572  0.5812  1.3921
 4549SOL     OW25279   1.019   1.435   8.244  0.5787  0.3484 -0.1366
 4549SOL    HW125280   1.096   1.385   8.217  0.4975  0.4795 -0.6128
 4549SOL    HW225281   0.945   1.376   8.230  0.9272  0.1077 -0.9902
 4550SOL     OW25282   2.997   3.497   3.964  0.9548  0.0173  0.1866
 4550SOL    HW125283   3.084   3.463   3.982  0.0291 -2.4921 -0.1076
 4550SOL    HW225284   2.960   3.422   3.918 -1.2494  0.6170  0.9638
 4551SOL     OW25285   3.468   0.123  12.793 -0.0969  0.9406 -0.2278
 4551SOL    HW125286   3.418   0.167  12.862 -0.6632 -0.3814  0.2075
 4551SOL    HW225287   3.431   0.036  12.803  2.6760 -0.2523 -0.4915
 4552SOL     OW25288   0.207   2.003   0.386 -0.1065 -0.1029  0.4188
 4552SOL    HW125289   0.125   2.032   0.427 -1.5525  0.1996 -2.7171
 4552SOL    HW225290   0.207   2.061   0.310  1.5993  0.6446  0.9943
 4553SOL     OW25291   0.901   4.515   7.986  0.3415 -0.5112 -0.0779
 4553SOL    HW125292   0.941   4.564   7.914 -0.6465  1.8529  0.9591
 4553SOL    HW225293   0.969   4.504   8.051 -0.3177  0.3025  0.7621
 4554SOL     OW25294   2.307   3.655  17.327  0.7427 -0.0640  0.0686
 4554SOL    HW125295   2.249   3.640  17.252 -0.0949  0.6887  0.5600
 4554SOL    HW225296   2.322   3.570  17.368 -0.5613 -0.7562 -0.9170
 4555SOL     OW25297   0.269   2.310  17.215  0.3238 -0.4710 -0.1578
 4555SOL    HW125298   0.339   2.298  17.280 -0.1802  0.1676  0.5049
 4555SOL    HW225299   0.194   2.261  17.248  1.4726 -1.3358  1.1416
 4556SOL     OW25300   3.670   0.441   6.832  0.1406 -0.4574 -0.0855
 4556SOL    HW125301   3.673   0.449   6.737 -0.5026  2.6018  0.1270
 4556SOL    HW225302   3.582   0.474   6.853  1.0100  1.8590 -0.0582
 4557SOL     OW25303   0.247   3.062   7.479  0.2773 -0.4644  0.2584
 4557SOL    HW125304   0.244   3.157   7.469  1.1912 -0.3925  0.6846
 4557SOL    HW225305   0.169   3.038   7.430  0.5682  1.3585 -1.0779
 4558SOL     OW25306   3.769   1.270   9.965 -0.3928 -0.0048 -0.3466
 4558SOL    HW125307   3.753   1.350   9.915  1.0275 -0.1548 -1.0357
 4558SOL    HW225308   3.784   1.313  10.049 -1.6562 -2.4876  1.1502
 4559SOL     OW25309   2.295   4.379   7.961 -0.3709 -0.3541 -0.3977
 4559SOL    HW125310   2.381   4.416   7.941  0.0396 -0.8500  0.4174
 4559SOL    HW225311   2.332   4.300   8.002 -0.2968  0.6035  1.3941
 4560SOL     OW25312   0.860   1.685   1.509 -0.1421  0.3349  0.1587
 4560SOL    HW125313   0.955   1.682   1.511 -0.2617 -1.9196  1.7345
 4560SOL    HW225314   0.846   1.590   1.513 -0.4093  0.2963 -1.3734
 4561SOL     OW25315   4.058   3.101  13.104 -0.4508  0.3029  0.5332
 4561SOL    HW125316   4.026   3.156  13.175 -0.3226  0.5514  0.3989
 4561SOL    HW225317   4.152   3.094  13.121 -0.1009  0.8820 -1.1646
 4562SOL     OW25318   4.293   4.398  16.860 -0.4236  0.3189  0.6936
 4562SOL    HW125319   4.269   4.473  16.915  1.1222  2.2224 -1.2239
 4562SOL    HW225320   4.385   4.384  16.883 -0.3232 -0.2804 -0.0725
 4563SOL     OW25321   3.078   3.254   7.441  0.4339 -0.8739  0.1629
 4563SOL    HW125322   3.000   3.309   7.428  1.5561  0.4854 -0.8353
 4563SOL    HW225323   3.073   3.225   7.532  0.5326 -2.5026 -0.3591
 4564SOL     OW25324   0.773   1.863   2.286 -0.5643 -0.3285 -0.2786
 4564SOL    HW125325   0.779   1.768   2.289 -2.1822 -0.3931  0.7985
 4564SOL    HW225326   0.858   1.882   2.325 -2.9304  1.1891  4.1686
 4565SOL     OW25327   4.435   2.679   7.034 -0.3829 -0.0430  0.6838
 4565SOL    HW125328   4.430   2.766   6.994 -3.1642 -0.9102 -0.8166
 4565SOL    HW225329   4.528   2.657   7.035  0.0206  1.5624 -1.0809
 4566SOL     OW25330   0.081   3.242   6.127 -0.2737  0.2579  0.6365
 4566SOL    HW125331   0.133   3.182   6.074 -0.1360  0.6721  0.3062
 4566SOL    HW225332   0.030   3.176   6.175  0.1525 -1.3276 -1.0864
 4567SOL     OW25333   2.059   3.392   8.496 -0.6726  0.6039 -0.8247
 4567SOL    HW125334   2.056   3.456   8.425  0.4350  1.6133  0.0321
 4567SOL    HW225335   2.060   3.309   8.448  0.5975 -0.1161  0.4482
 4568SOL     OW25336   3.848   2.384  10.547 -0.0380 -0.6796  0.2420
 4568SOL    HW125337   3.917   2.369  10.484  0.7184  1.2484  0.5984
 4568SOL    HW225338   3.900   2.394  10.627 -0.7331 -0.8858  0.7188
 4569SOL     OW25339   2.324   1.579  15.194  0.4998 -0.0923  0.0026
 4569SOL    HW125340   2.267   1.638  15.145  0.9848  1.0422  0.8076
 4569SOL    HW225341   2.269   1.565  15.271 -1.6389  1.5747 -1.2567
 4570SOL     OW25342   4.327   3.716  10.395  0.2719  0.0339  0.7324
 4570SOL    HW125343   4.281   3.798  10.376 -0.8760 -0.2807  2.1700
 4570SOL    HW225344   4.310   3.712  10.489 -3.1279 -2.9046  0.0068
 4571SOL     OW25345   3.262   2.764   8.512  0.0728  0.1911  0.0914
 4571SOL    HW125346   3.281   2.749   8.605  1.8989 -0.6219 -0.4172
 4571SOL    HW225347   3.305   2.847   8.491  0.9401 -0.3683 -0.3594
 4572SOL     OW25348   3.078   2.309   8.159  0.2366 -0.1891 -0.3768
 4572SOL    HW125349   3.061   2.398   8.192 -3.6653 -1.1051  0.0372
 4572SOL    HW225350   3.131   2.272   8.230  0.8749  1.8773  0.2317
 4573SOL     OW25351   2.616   1.630  13.243 -0.8331  0.4039  0.6720
 4573SOL    HW125352   2.624   1.656  13.335 -0.6383 -0.9568  1.0314
 4573SOL    HW225353   2.522   1.613  13.231 -0.3359 -2.4395  0.7602
 4574SOL     OW25354   0.611   0.360  11.362  0.5502  0.2332  0.5810
 4574SOL    HW125355   0.562   0.278  11.359 -0.3802  0.8260 -0.6665
 4574SOL    HW225356   0.668   0.366  11.286 -1.1541  1.7643 -0.5945
 4575SOL     OW25357   2.757   1.234   9.374  0.0992  0.3268 -0.6562
 4575SOL    HW125358   2.740   1.142   9.355  0.6920 -0.0915  0.8875
 4575SOL    HW225359   2.689   1.272   9.318  0.4421  2.2435  0.2061
 4576SOL     OW25360   1.765   1.766   3.925  0.5155 -0.4101 -0.1724
 4576SOL    HW125361   1.843   1.820   3.936  0.4004 -0.3627  0.4570
 4576SOL    HW225362   1.710   1.813   3.989  0.3422 -2.1669  0.9750
 4577SOL     OW25363   0.461   4.069   3.972  0.0298 -0.3789  0.1313
 4577SOL    HW125364   0.368   4.062   3.954 -0.0058 -0.1779  0.2395
 4577SOL    HW225365   0.475   4.158   3.939  1.8569 -0.5307  0.4835
 4578SOL     OW25366   0.847   1.661  11.791 -0.5165  0.0813  0.4507
 4578SOL    HW125367   0.880   1.750  11.780 -4.2251  1.6448  2.2802
 4578SOL    HW225368   0.908   1.614  11.733  0.1921  0.3767  0.9490
 4579SOL     OW25369   1.812   4.032   8.055  0.2954  0.2850  0.0323
 4579SOL    HW125370   1.779   3.982   8.130 -2.2383  2.4643  0.3728
 4579SOL    HW225371   1.820   3.963   7.989  0.0699 -1.5155  1.9007
 4580SOL     OW25372   3.948   1.255   5.499 -0.1995 -0.0265  0.2331
 4580SOL    HW125373   3.956   1.347   5.526  2.1381 -0.6773  1.6644
 4580SOL    HW225374   4.036   1.220   5.489 -0.8131 -1.4417 -0.0968
 4581SOL     OW25375   3.640   3.352   2.146  0.0928  0.1990  0.0044
 4581SOL    HW125376   3.674   3.412   2.212  1.0452 -1.2525  0.8190
 4581SOL    HW225377   3.634   3.266   2.188 -0.1953 -0.3328 -1.1210
 4582SOL     OW25378   1.348   2.157   1.817  0.6070  0.0617 -0.4428
 4582SOL    HW125379   1.330   2.237   1.867  0.2156  0.2873 -0.9434
 4582SOL    HW225380   1.348   2.197   1.731  0.6075  3.2416  1.0236
 4583SOL     OW25381   4.559   3.588   7.948 -0.3638  0.7003 -0.0860
 4583SOL    HW125382   4.635   3.533   7.933 -0.4480  0.0892  1.8102
 4583SOL    HW225383   4.570   3.664   7.890  2.2425  0.0727 -0.4089
 4584SOL     OW25384   3.342   4.168   4.391 -0.2499  0.1116  0.2532
 4584SOL    HW125385   3.258   4.129   4.368  0.3920  0.0010 -1.9040
 4584SOL    HW225386   3.356   4.228   4.317  0.8821 -0.2931  0.1463
 4585SOL     OW25387   3.651   1.947   6.153 -0.3924  0.1061  0.0764
 4585SOL    HW125388   3.682   1.928   6.064 -1.4324  0.5687 -0.3853
 4585SOL    HW225389   3.696   1.874   6.195 -0.8761 -0.5169 -0.4783
 4586SOL     OW25390   4.668   0.871   5.502  0.3676  0.4389  0.2475
 4586SOL    HW125391   4.686   0.911   5.587  1.3159 -0.7781  0.6119
 4586SOL    HW225392   4.639   0.784   5.528  2.3870 -0.5791 -0.9042
 4587SOL     OW25393   3.705   3.029  16.423 -0.2618 -0.2598  0.1116
 4587SOL    HW125394   3.759   2.990  16.492  1.1470  1.3434 -0.0564
 4587SOL    HW225395   3.695   3.115  16.464  0.4694  0.5574 -1.4268
 4588SOL     OW25396   1.066   0.696   3.215 -0.7911  0.2079  0.8782
 4588SOL    HW125397   1.047   0.631   3.282  1.6685 -2.1955 -0.7882
 4588SOL    HW225398   1.105   0.644   3.145 -0.0800 -0.0525  1.4686
 4589SOL     OW25399   0.662   2.503   0.193  0.3305 -0.6729 -0.4327
 4589SOL    HW125400   0.654   2.517   0.099 -0.1132 -2.3568 -0.6381
 4589SOL    HW225401   0.756   2.490   0.203  0.5249  0.9536 -0.0452
 4590SOL     OW25402   4.445   2.033   1.667  0.3135  0.6511  0.1682
 4590SOL    HW125403   4.458   2.084   1.587 -0.4098 -0.5019 -0.6994
 4590SOL    HW225404   4.358   1.996   1.655  0.8392 -1.3581  2.5962
 4591SOL     OW25405   3.378   2.435   6.002 -0.0050 -0.2021 -0.1849
 4591SOL    HW125406   3.342   2.522   5.985 -0.3963  0.7099  5.2021
 4591SOL    HW225407   3.328   2.418   6.081  0.1738  4.2269  0.8664
 4592SOL     OW25408   0.104   0.312   6.496 -0.0447  0.2444  0.3622
 4592SOL    HW125409   0.192   0.273   6.505  0.7919  2.2935  1.1145
 4592SOL    HW225410   0.088   0.283   6.407  1.7849  1.5078 -0.3793
 4593SOL     OW25411   2.474   3.366   2.514  0.0650 -0.0721 -0.5991
 4593SOL    HW125412   2.531   3.372   2.438 -0.8491 -0.6190 -1.3282
 4593SOL    HW225413   2.490   3.451   2.554  2.0686  0.0212 -1.5716
 4594SOL     OW25414   4.292   0.344   7.973 -0.0124  0.6822 -0.1144
 4594SOL    HW125415   4.295   0.435   8.002 -0.6723  1.2055 -1.6617
 4594SOL    HW225416   4.385   0.326   7.959  0.1863  1.1702  0.5910
 4595SOL     OW25417   4.046   4.528   1.885 -0.0669  0.2695  0.2725
 4595SOL    HW125418   4.006   4.467   1.947  0.5413 -1.9900 -1.5324
 4595SOL    HW225419   3.982   4.544   1.815 -0.1184 -1.9242 -0.1930
 4596SOL     OW25420   2.376   2.261   9.778 -0.3981 -0.1202 -0.4305
 4596SOL    HW125421   2.361   2.205   9.854 -1.4395  0.8632  0.0879
 4596SOL    HW225422   2.381   2.340   9.832  1.0947  0.1812 -1.0100
 4597SOL     OW25423   3.520   4.260  10.204  0.4073  0.0676  0.1746
 4597SOL    HW125424   3.574   4.334  10.232  0.8531  0.2632 -1.2158
 4597SOL    HW225425   3.451   4.261  10.271  0.9319 -1.3825  0.7250
 4598SOL     OW25426   4.570   1.725   9.175 -0.2857 -0.3058 -0.0333
 4598SOL    HW125427   4.657   1.688   9.189 -0.1148 -0.2301 -0.8462
 4598SOL    HW225428   4.594   1.817   9.169  0.3644 -0.5373 -1.0741
 4599SOL     OW25429   3.252   0.238   5.822  0.2960 -0.5804 -0.0286
 4599SOL    HW125430   3.309   0.207   5.752  1.3519 -0.0173  0.5825
 4599SOL    HW225431   3.267   0.170   5.888  0.9666 -2.4864 -2.1584
 4600SOL     OW25432   0.481   3.277   3.108 -0.1144  0.3853  0.0874
 4600SOL    HW125433   0.451   3.308   3.193 -2.7290 -2.1257  0.0850
 4600SOL    HW225434   0.563   3.327   3.105  0.7119 -0.9610  0.4540
 4601SOL     OW25435   0.448   3.722   0.342  0.1076 -0.5217  0.2762
 4601SOL    HW125436   0.396   3.800   0.365  1.2686  0.6236 -0.9671
 4601SOL    HW225437   0.389   3.647   0.335 -1.5077  0.8114 -0.5520
 4602SOL     OW25438   0.291   3.912  17.254  0.1232 -0.6777  0.3485
 4602SOL    HW125439   0.375   3.926  17.298 -1.4095  1.1431  2.7084
 4602SOL    HW225440   0.267   3.820  17.264 -0.8161 -0.5735 -0.9295
 4603SOL     OW25441   2.593   4.210   8.323  0.0331  0.2173 -0.1807
 4603SOL    HW125442   2.500   4.191   8.333  0.9945 -3.6834  1.4746
 4603SOL    HW225443   2.617   4.156   8.247 -1.2316 -0.1009 -0.3543
 4604SOL     OW25444   2.707   0.040   3.864  0.7974 -0.2994  0.4509
 4604SOL    HW125445   2.704   0.111   3.801 -1.5655 -1.3467 -0.6062
 4604SOL    HW225446   2.615   0.017   3.883  0.7498  0.9317  1.7372
 4605SOL     OW25447   2.506   1.342   3.899 -0.2922 -0.6512  0.4895
 4605SOL    HW125448   2.497   1.247   3.887 -2.6039 -0.1908 -1.4217
 4605SOL    HW225449   2.524   1.378   3.813 -0.8711  0.1064  0.6865
 4606SOL     OW25450   3.258   3.276   4.970  0.1662 -0.0302 -0.3875
 4606SOL    HW125451   3.276   3.367   4.948  1.9423 -0.5169 -0.9415
 4606SOL    HW225452   3.187   3.256   4.908  1.8297 -0.6431 -2.0809
 4607SOL     OW25453   4.621   2.598   3.242 -0.6460 -0.4360  0.4268
 4607SOL    HW125454   4.568   2.613   3.321 -0.8230 -1.6397  0.5466
 4607SOL    HW225455   4.616   2.691   3.221  0.5502 -0.3517  0.4986
 4608SOL     OW25456   0.614   0.578   6.923  0.2253 -0.5742  0.2114
 4608SOL    HW125457   0.703   0.574   6.889 -0.1338 -3.7451 -0.3488
 4608SOL    HW225458   0.617   0.565   7.018  1.6836  4.9656  0.9279
 4609SOL     OW25459   4.368   4.045   6.594 -0.2710 -0.4359  0.0087
 4609SOL    HW125460   4.304   3.998   6.540  0.7579 -1.7368 -0.0870
 4609SOL    HW225461   4.364   3.990   6.672 -1.6611 -1.5442 -0.8486
 4610SOL     OW25462   4.099   1.868   2.903  0.1949 -0.7989  0.1755
 4610SOL    HW125463   4.109   1.963   2.908  1.0185 -0.7418 -2.5852
 4610SOL    HW225464   4.176   1.843   2.852 -0.0558  1.5907 -1.3404
 4611SOL     OW25465   0.471   3.538   2.488  0.3793 -0.3278 -0.7297
 4611SOL    HW125466   0.416   3.583   2.552 -0.7044 -1.0001 -1.1724
 4611SOL    HW225467   0.523   3.614   2.464 -0.1209  0.0872 -0.5073
 4612SOL     OW25468   1.500   0.390   2.536  0.3716  0.0619  0.4222
 4612SOL    HW125469   1.584   0.374   2.579  1.2635 -2.4717 -2.2373
 4612SOL    HW225470   1.476   0.466   2.589 -1.9174  1.4523 -2.6121
 4613SOL     OW25471   3.977   3.087  12.757  0.1755 -0.0460  0.6152
 4613SOL    HW125472   4.069   3.071  12.776 -0.1521 -1.1738  1.2456
 4613SOL    HW225473   3.955   3.163  12.812 -0.2589  0.4074 -0.1947
 4614SOL     OW25474   0.578   3.455   4.094 -0.2504 -0.9990  0.1737
 4614SOL    HW125475   0.525   3.384   4.058  1.0687 -2.1724  0.5677
 4614SOL    HW225476   0.656   3.405   4.120  0.0708 -1.3836 -1.5614
 4615SOL     OW25477   1.661   2.076  14.476  0.0488 -0.1708  0.1097
 4615SOL    HW125478   1.697   1.995  14.439 -0.0208 -0.9484  1.7458
 4615SOL    HW225479   1.739   2.128  14.494 -0.5211  0.5536  0.4590
 4616SOL     OW25480   3.936   4.525  10.125  0.7163  0.1413 -0.0896
 4616SOL    HW125481   3.977   4.439  10.115 -0.3641 -0.1341 -2.2523
 4616SOL    HW225482   3.997   4.582  10.171 -1.8761  2.2631  0.6990
 4617SOL     OW25483   0.573   1.267  11.293 -0.0633 -0.4529 -0.2893
 4617SOL    HW125484   0.642   1.200  11.290  0.5216  0.0813  1.2864
 4617SOL    HW225485   0.526   1.253  11.375 -0.4805  0.3102 -0.4076
 4618SOL     OW25486   3.809   2.357   8.965 -0.2268  0.3132  0.0584
 4618SOL    HW125487   3.722   2.361   9.006  1.1912  3.3192  2.7886
 4618SOL    HW225488   3.806   2.262   8.952  1.7044 -0.0750  2.3834
 4619SOL     OW25489   1.654   2.622   7.573  0.6614 -0.0122  0.5938
 4619SOL    HW125490   1.716   2.678   7.526  0.4617  0.8670  1.3607
 4619SOL    HW225491   1.708   2.546   7.593  2.2392  1.1701  0.8615
 4620SOL     OW25492   1.248   2.318  13.448  0.0143  0.7171  0.2972
 4620SOL    HW125493   1.222   2.243  13.501  3.8786 -1.5416 -0.9819
 4620SOL    HW225494   1.279   2.378  13.517  2.9030  0.4465 -0.7531
 4621SOL     OW25495   1.041   0.988   0.612 -0.0360 -0.4335 -0.2126
 4621SOL    HW125496   1.057   0.973   0.519  1.4434  1.8463 -0.3230
 4621SOL    HW225497   0.980   0.914   0.613  1.7634 -1.9082 -0.6745
 4622SOL     OW25498   1.359   1.954   4.509 -0.0857 -0.7136 -0.0662
 4622SOL    HW125499   1.415   1.894   4.559  1.3585  1.6492  1.1170
 4622SOL    HW225500   1.274   1.944   4.551  0.0323  1.3016  0.6081
 4623SOL     OW25501   1.509   3.304  17.370 -0.2274  0.3273  0.0534
 4623SOL    HW125502   1.423   3.316  17.329  0.2073 -1.1319 -1.2710
 4623SOL    HW225503   1.495   3.264  17.456  1.2900 -0.8024 -0.2336
 4624SOL     OW25504   4.391   3.855   8.730 -0.4061 -0.4210  0.0733
 4624SOL    HW125505   4.305   3.877   8.765  0.1781  3.2883 -0.7679
 4624SOL    HW225506   4.383   3.763   8.705 -0.9304 -0.7670  1.5458
 4625SOL     OW25507   1.734   1.974   3.406  0.3539  0.4962  0.7342
 4625SOL    HW125508   1.687   2.057   3.415 -0.5097 -0.0568  1.3290
 4625SOL    HW225509   1.757   1.951   3.496  0.0026 -0.3495  0.6072
 4626SOL     OW25510   0.139   2.015   6.487 -0.5464 -0.3647  0.3890
 4626SOL    HW125511   0.223   2.000   6.444 -1.7923  1.7588 -2.7696
 4626SOL    HW225512   0.078   1.981   6.422 -0.0172 -0.5328 -0.0188
 4627SOL     OW25513   4.226   2.591   8.605 -0.0986  0.0079  0.5823
 4627SOL    HW125514   4.202   2.522   8.544 -1.0470  0.4470  0.4605
 4627SOL    HW225515   4.241   2.663   8.544  3.0128 -1.5241 -0.4427
 4628SOL     OW25516   1.939   4.370   6.945 -0.0395 -0.0410  0.4601
 4628SOL    HW125517   1.902   4.318   6.873 -0.0841 -2.3321  2.1419
 4628SOL    HW225518   1.918   4.311   7.017 -1.5063  0.3364  0.3549
 4629SOL     OW25519   0.699   0.699  15.503 -0.7307  0.0503  0.2429
 4629SOL    HW125520   0.693   0.735  15.592  0.1102  0.4515  0.1411
 4629SOL    HW225521   0.653   0.759  15.444  0.2602  0.4538 -0.1288
 4630SOL     OW25522   1.021   4.012  12.072 -0.2268  0.3832 -0.6874
 4630SOL    HW125523   0.934   3.982  12.046 -0.0741  1.2427 -2.1910
 4630SOL    HW225524   1.058   3.941  12.124  0.6566  1.1940 -0.2158
 4631SOL     OW25525   4.586   4.372   7.763  0.5232 -0.9120 -0.5342
 4631SOL    HW125526   4.552   4.357   7.676  0.2749 -1.7103 -0.2970
 4631SOL    HW225527   4.591   4.468   7.760 -0.9518 -0.8190  0.2897
 4632SOL     OW25528   4.701   3.353   8.997  0.1617 -0.3409 -0.3986
 4632SOL    HW125529   4.675   3.332   9.087 -0.9780  3.2741  0.1184
 4632SOL    HW225530   0.023   3.422   9.022 -1.4357  0.6621  0.7359
 4633SOL     OW25531   4.329   2.917   9.084 -0.2932 -0.2574 -0.0214
 4633SOL    HW125532   4.239   2.901   9.055  0.5618 -0.3555 -2.6653
 4633SOL    HW225533   4.320   3.003   9.125  0.2314  1.0162 -2.5681
 4634SOL     OW25534   1.858   1.561  14.523  0.1888 -0.6953 -0.0268
 4634SOL    HW125535   1.841   1.630  14.459 -1.4830 -0.5113  0.6190
 4634SOL    HW225536   1.952   1.543  14.524  0.0245 -1.4776  1.1602
 4635SOL     OW25537   2.210   1.794  10.948 -0.3865 -0.1864  0.1605
 4635SOL    HW125538   2.118   1.794  10.923 -0.6484  1.7990  1.0705
 4635SOL    HW225539   2.221   1.886  10.973 -3.8273  0.2562  0.0068
 4636SOL     OW25540   0.770   2.309   2.712 -0.0869 -0.3640 -0.2836
 4636SOL    HW125541   0.696   2.250   2.698 -1.2159  1.0927 -0.4013
 4636SOL    HW225542   0.761   2.330   2.805 -1.4962  0.5985 -0.6554
 4637SOL     OW25543   2.552   2.822  11.750 -0.0388  0.1574  0.0374
 4637SOL    HW125544   2.487   2.843  11.817  1.2625  0.5465  1.1640
 4637SOL    HW225545   2.565   2.913  11.724 -1.0855 -0.0801 -1.3302
 4638SOL     OW25546   3.981   0.850   1.428  0.0486 -0.8532 -0.1438
 4638SOL    HW125547   3.904   0.850   1.484  0.2327 -1.4555  0.1046
 4638SOL    HW225548   4.017   0.930   1.467 -0.5525 -0.1035 -1.1413
 4639SOL     OW25549   2.064   4.286   8.111  0.1727 -0.9399  0.1837
 4639SOL    HW125550   1.992   4.330   8.066 -0.6388 -4.4218 -1.8475
 4639SOL    HW225551   2.139   4.315   8.060  1.5491 -1.8384  1.6692
 4640SOL     OW25552   3.015   3.640   6.875  0.5280 -0.6086 -0.2059
 4640SOL    HW125553   3.055   3.715   6.919 -0.0745 -0.0383 -0.6285
 4640SOL    HW225554   3.043   3.569   6.934  0.2098 -0.5406  0.0299
 4641SOL     OW25555   1.832   0.753   2.177 -0.1398 -0.1738  0.2903
 4641SOL    HW125556   1.900   0.806   2.218  0.4253  0.1657 -1.0994
 4641SOL    HW225557   1.761   0.814   2.199  0.8205  0.8129  0.6358
 4642SOL     OW25558   4.544   1.679   3.960  0.4423  0.1772 -0.0947
 4642SOL    HW125559   4.484   1.648   4.028  1.4973  0.6063  1.0484
 4642SOL    HW225560   4.593   1.725   4.029  0.5932 -1.6325  1.0074
 4643SOL     OW25561   2.599   3.945   2.169  0.7938  0.4558  0.6739
 4643SOL    HW125562   2.677   3.902   2.133  0.0453 -0.8897  0.6915
 4643SOL    HW225563   2.643   4.007   2.228 -0.3342 -0.0916  2.0790
 4644SOL     OW25564   1.628   1.449  13.868 -0.0971 -0.2100  0.4036
 4644SOL    HW125565   1.616   1.378  13.930 -0.4440 -0.8830 -0.4337
 4644SOL    HW225566   1.682   1.515  13.911  1.1432 -0.0600 -1.3887
 4645SOL     OW25567   1.895   0.685   1.212  0.3999 -0.9459  0.0016
 4645SOL    HW125568   1.840   0.688   1.291  0.0462  1.5242 -0.3555
 4645SOL    HW225569   1.980   0.686   1.256  1.1019  0.7513 -1.4184
 4646SOL     OW25570   3.259   4.037   3.838 -0.3842  0.1939 -0.3729
 4646SOL    HW125571   3.200   4.111   3.828  0.9770  1.1913 -1.0894
 4646SOL    HW225572   3.278   4.043   3.931  2.3039 -2.5081 -0.7401
 4647SOL     OW25573   2.982   1.827   7.160  0.0964 -0.2206  0.0392
 4647SOL    HW125574   3.011   1.837   7.069  0.4004 -2.2276 -0.0838
 4647SOL    HW225575   3.059   1.807   7.213  1.9802 -0.5181 -2.8029
 4648SOL     OW25576   2.938   3.472   2.686  0.0467 -0.1577  0.0943
 4648SOL    HW125577   2.922   3.544   2.625 -0.9267  1.0215  1.7027
 4648SOL    HW225578   2.937   3.396   2.629 -2.6081 -0.8676  1.0502
 4649SOL     OW25579   3.386   4.290   2.458 -0.1319 -0.7565  0.6438
 4649SOL    HW125580   3.343   4.238   2.526 -1.9860  1.6465  1.2842
 4649SOL    HW225581   3.477   4.259   2.467  0.3757  0.1879 -1.1758
 4650SOL     OW25582   2.360   0.276   3.490  0.3936 -0.1335 -0.2790
 4650SOL    HW125583   2.351   0.206   3.424  2.0393 -0.5032 -0.1068
 4650SOL    HW225584   2.388   0.347   3.433 -1.5554  0.9274  0.1091
 4651SOL     OW25585   3.709   3.630   3.495 -0.7212  0.1030 -0.4372
 4651SOL    HW125586   3.795   3.632   3.536  0.0970  2.2056 -2.2202
 4651SOL    HW225587   3.646   3.643   3.566 -1.7555  0.1744 -1.3476
 4652SOL     OW25588   1.988   0.787   5.408 -0.1464 -0.4362 -0.0833
 4652SOL    HW125589   1.913   0.833   5.371 -0.5728 -1.8900 -1.0507
 4652SOL    HW225590   1.949   0.701   5.392  0.2480 -0.6676  0.2030
 4653SOL     OW25591   1.235   3.336  17.200 -0.2428 -0.0078  0.1206
 4653SOL    HW125592   1.284   3.341  17.118  0.5587 -0.1491  0.5923
 4653SOL    HW225593   1.188   3.419  17.193 -1.6062 -0.8542 -0.8233
 4654SOL     OW25594   0.089   0.077   2.453  0.1807  0.7219  0.1642
 4654SOL    HW125595   0.043   0.067   2.370 -0.3679  2.2038  0.2825
 4654SOL    HW225596   0.062   0.166   2.478 -0.2989 -0.0402  2.3407
 4655SOL     OW25597   3.292   0.653  12.621  1.0153 -0.0016 -0.9099
 4655SOL    HW125598   3.383   0.629  12.606  0.5816 -1.7734 -0.7069
 4655SOL    HW225599   3.282   0.737  12.576 -0.4270 -0.5405 -1.6071
 4656SOL     OW25600   0.585   0.176  16.527 -0.2074  0.2467 -0.4280
 4656SOL    HW125601   0.551   0.129  16.451  1.6613  0.4092 -1.3606
 4656SOL    HW225602   0.500   0.199  16.564 -0.1861 -2.2118  1.0880
 4657SOL     OW25603   1.521   2.021   4.839 -0.8951 -0.0997  0.3104
 4657SOL    HW125604   1.536   2.087   4.771 -1.6709  0.8537  1.0635
 4657SOL    HW225605   1.426   2.011   4.826 -1.0851 -1.8517  2.8780
 4658SOL     OW25606   2.162   1.403   9.545  0.0537 -0.4953 -0.1148
 4658SOL    HW125607   2.252   1.399   9.514  0.0948 -0.4826  0.0027
 4658SOL    HW225608   2.135   1.312   9.533 -1.9383 -0.0086  0.6147
 4659SOL     OW25609   0.310   3.561   7.585 -0.0785 -0.2725 -0.5175
 4659SOL    HW125610   0.255   3.566   7.507  0.4180  2.0302 -0.7072
 4659SOL    HW225611   0.326   3.654   7.602 -1.0610 -0.6389  2.3480
 4660SOL     OW25612   3.022   2.384  16.505  0.6464 -0.5758 -0.5478
 4660SOL    HW125613   2.927   2.381  16.496  0.3911  0.5545  1.5921
 4660SOL    HW225614   3.036   2.309  16.563  0.8643 -1.3318 -1.5793
 4661SOL     OW25615   2.453   1.347   2.212 -0.4153 -0.4400 -0.3706
 4661SOL    HW125616   2.445   1.255   2.237 -1.8870 -0.0146  0.6810
 4661SOL    HW225617   2.512   1.350   2.136 -0.8990 -0.4335 -0.7491
 4662SOL     OW25618   0.141   2.014  12.145  0.3358  0.0449  0.1612
 4662SOL    HW125619   0.078   1.986  12.212  2.2830 -1.0118  1.5273
 4662SOL    HW225620   0.126   2.109  12.138 -1.2423 -0.1724  0.5405
 4663SOL     OW25621   1.965   2.059  14.519  0.4195 -0.0630  0.0395
 4663SOL    HW125622   2.038   2.110  14.555  0.8529  0.0914 -1.0465
 4663SOL    HW225623   1.940   2.011  14.598 -0.9775 -0.5378 -0.6899
 4664SOL     OW25624   4.564   1.103   2.067  0.0192 -0.3125 -0.4237
 4664SOL    HW125625   4.559   1.009   2.051  1.2759 -0.5580  0.6124
 4664SOL    HW225626   4.475   1.140   2.069 -0.5432 -1.6719 -0.4433
 4665SOL     OW25627   4.460   2.363   8.675 -0.3281  0.1871  0.2959
 4665SOL    HW125628   4.451   2.335   8.584 -0.8940 -0.1887  0.4692
 4665SOL    HW225629   4.374   2.403   8.684 -1.2134 -0.8822 -3.1469
 4666SOL     OW25630   1.816   3.493  16.094 -0.2276 -0.0350 -0.1486
 4666SOL    HW125631   1.820   3.588  16.086  1.3745 -0.1702 -1.0419
 4666SOL    HW225632   1.721   3.490  16.087 -0.3222 -0.3329  1.3479
 4667SOL     OW25633   4.252   3.373   6.830 -0.4543 -0.1633 -0.0451
 4667SOL    HW125634   4.160   3.392   6.814  0.3490  1.6878 -2.5410
 4667SOL    HW225635   4.254   3.296   6.886  2.0666 -1.3977 -1.8038
 4668SOL     OW25636   1.977   0.847   1.557 -0.4798 -0.0953  0.1353
 4668SOL    HW125637   2.013   0.808   1.637  3.0530  0.4736 -1.1358
 4668SOL    HW225638   1.985   0.941   1.576  3.2230 -0.3326 -0.1400
 4669SOL     OW25639   0.597   3.861   5.235 -0.6475  0.1469  0.3914
 4669SOL    HW125640   0.567   3.942   5.277  1.0257  1.0555 -0.1570
 4669SOL    HW225641   0.642   3.888   5.154  1.7861 -0.4754  1.5280
 4670SOL     OW25642   2.553   3.177  15.023  0.1292 -0.1801 -0.2945
 4670SOL    HW125643   2.485   3.172  15.091 -0.2700 -1.0165 -0.7664
 4670SOL    HW225644   2.575   3.089  14.995 -1.6989 -1.0429  0.9836
 4671SOL     OW25645   3.964   1.344   9.636 -0.3458  0.6157 -0.1109
 4671SOL    HW125646   3.992   1.368   9.725 -2.4731  1.4264  0.3336
 4671SOL    HW225647   4.030   1.394   9.588 -0.4278 -1.1904 -2.0969
 4672SOL     OW25648   2.418   3.321  16.805 -0.1840  0.0219  0.2995
 4672SOL    HW125649   2.420   3.345  16.712  1.5642  0.7684  0.5339
 4672SOL    HW225650   2.512   3.336  16.816 -0.2283 -0.0954  0.8564
 4673SOL     OW25651   0.493   2.730   5.558  0.2084 -0.0561 -0.3314
 4673SOL    HW125652   0.557   2.664   5.584  1.3409  0.9871 -0.5245
 4673SOL    HW225653   0.548   2.807   5.555 -0.3401  0.3948  1.2840
 4674SOL     OW25654   2.140   2.001   0.924  0.2253  0.3148 -0.9976
 4674SOL    HW125655   2.156   2.095   0.918  0.5442  0.3395  0.0621
 4674SOL    HW225656   2.178   1.989   0.838  3.0762 -0.6624  0.4065
 4675SOL     OW25657   4.352   1.777   7.930 -0.1535  0.0714 -0.0823
 4675SOL    HW125658   4.401   1.827   7.865  2.9244 -1.4967  1.0503
 4675SOL    HW225659   4.266   1.818   7.918 -0.2588 -0.1627 -0.1258
 4676SOL     OW25660   3.293   1.805   2.015  0.3801  0.0420  0.4178
 4676SOL    HW125661   3.207   1.764   2.008  0.2188  0.5980 -0.9335
 4676SOL    HW225662   3.274   1.897   1.998  0.5627  0.0803  0.4123
 4677SOL     OW25663   2.354   1.835   7.014  0.0838 -0.0875  0.3379
 4677SOL    HW125664   2.443   1.841   6.979  0.2129 -0.9050  0.5436
 4677SOL    HW225665   2.311   1.786   6.943  1.3610  0.9180 -1.1316
 4678SOL     OW25666   4.546   1.595  16.765  0.0681  0.0177 -0.0636
 4678SOL    HW125667   4.464   1.641  16.752  0.1271  0.1766  0.1232
 4678SOL    HW225668   4.591   1.612  16.682  1.2122 -0.5714  0.4294
 4679SOL     OW25669   3.141   3.042   5.094  0.1538 -0.4276 -0.0915
 4679SOL    HW125670   3.183   3.123   5.067  0.1237  0.3557  2.1835
 4679SOL    HW225671   3.128   3.067   5.186 -1.1041  0.8384 -0.6220
 4680SOL     OW25672   3.014   2.203   0.449  0.1149  0.1097  0.2244
 4680SOL    HW125673   3.032   2.230   0.359  0.3737 -1.6985 -0.2618
 4680SOL    HW225674   3.076   2.260   0.494 -0.7413  1.5414 -0.4111
 4681SOL     OW25675   3.507   0.661   5.393 -0.0063 -0.6001  0.4811
 4681SOL    HW125676   3.463   0.733   5.438 -2.9087 -0.3897 -2.7009
 4681SOL    HW225677   3.444   0.588   5.393 -1.2810  0.4924  4.0211
 4682SOL     OW25678   3.676   0.287   7.973 -0.3536  0.7399  0.3849
 4682SOL    HW125679   3.722   0.330   8.045  2.5363 -1.3361 -0.2212
 4682SOL    HW225680   3.584   0.302   7.996 -0.1669  0.2834  1.4308
 4683SOL     OW25681   2.802   1.762   5.412  0.3154  0.2017  0.1608
 4683SOL    HW125682   2.893   1.792   5.416  0.6511 -0.6648 -1.1343
 4683SOL    HW225683   2.753   1.823   5.467 -2.4700 -1.4441 -0.4867
 4684SOL     OW25684   3.187   4.306  16.729 -0.2259 -0.0089  0.0188
 4684SOL    HW125685   3.174   4.235  16.665  1.9732 -0.0388 -0.3781
 4684SOL    HW225686   3.209   4.385  16.680  0.0639  1.0208  1.8409
 4685SOL     OW25687   1.524   4.550   4.389 -0.0078  0.5443 -0.3768
 4685SOL    HW125688   1.499   4.630   4.434  1.9024  1.8184 -1.5894
 4685SOL    HW225689   1.614   4.569   4.361  0.1585 -0.3610 -0.4497
 4686SOL     OW25690   4.358   0.988  13.364  0.6362  0.5737  1.0088
 4686SOL    HW125691   4.294   1.008  13.296 -0.5943 -0.3394  1.9000
 4686SOL    HW225692   4.322   1.031  13.441  0.7541  1.9799  0.2702
 4687SOL     OW25693   0.372   4.120   6.094  0.5766  0.5088  0.2060
 4687SOL    HW125694   0.417   4.205   6.099 -0.5847  1.0270  1.7487
 4687SOL    HW225695   0.433   4.061   6.050  1.3051  3.6875 -3.0696
 4688SOL     OW25696   3.346   3.709  15.018  0.0737  0.5045  0.4871
 4688SOL    HW125697   3.397   3.629  15.031 -1.9757 -0.6606  1.2156
 4688SOL    HW225698   3.318   3.704  14.927  1.5375 -1.7928  0.1657
 4689SOL     OW25699   2.557   1.772   2.018  0.3504  0.4030 -0.0206
 4689SOL    HW125700   2.554   1.749   2.111  0.1727 -0.4885 -0.2505
 4689SOL    HW225701   2.472   1.814   2.015  0.8230  1.3953  0.4391
 4690SOL     OW25702   3.021   3.825   4.403 -0.2032  0.1022 -0.5622
 4690SOL    HW125703   2.938   3.815   4.355 -1.9341 -0.1719  2.5090
 4690SOL    HW225704   3.027   3.920   4.416 -1.0405  0.1045 -0.1935
 4691SOL     OW25705   0.370   1.109   3.643  0.1624  0.3333  0.0506
 4691SOL    HW125706   0.418   1.053   3.583  1.4876  2.5700 -0.9499
 4691SOL    HW225707   0.423   1.097   3.722  0.7080 -0.0728 -0.3715
 4692SOL     OW25708   3.512   2.296  11.647  0.0864 -0.3541  1.1174
 4692SOL    HW125709   3.585   2.356  11.661 -0.0253 -0.1887  0.9942
 4692SOL    HW225710   3.550   2.212  11.672  1.4093 -0.6145 -1.7642
 4693SOL     OW25711   0.189   0.978   3.319  0.0628  0.1153  0.6372
 4693SOL    HW125712   0.280   1.005   3.306  0.0150 -0.3682 -0.7278
 4693SOL    HW225713   0.148   1.013   3.240 -2.4803  1.4208  2.5311
 4694SOL     OW25714   4.546   3.006  16.177 -0.0010  0.6125 -0.3071
 4694SOL    HW125715   4.489   2.942  16.133 -0.5926 -0.0428  1.4425
 4694SOL    HW225716   4.527   3.086  16.127 -0.4694  1.5651  1.3893
 4695SOL     OW25717   2.752   3.382  12.260 -0.1896  0.0110  0.3642
 4695SOL    HW125718   2.743   3.351  12.350 -0.2288 -1.9878 -0.3231
 4695SOL    HW225719   2.823   3.331  12.220 -0.6144 -0.1420 -0.1955
 4696SOL     OW25720   1.382   3.627   2.325 -0.6815 -0.1797 -0.1250
 4696SOL    HW125721   1.383   3.710   2.277 -2.1805 -0.3533 -0.4513
 4696SOL    HW225722   1.299   3.585   2.302 -0.7055  0.1865 -0.7180
 4697SOL     OW25723   2.294   0.476   3.250 -0.0506 -0.0245 -0.6038
 4697SOL    HW125724   2.292   0.567   3.221 -0.4082  0.0653 -0.3008
 4697SOL    HW225725   2.383   0.446   3.235  0.5383  1.3169  0.2685
 4698SOL     OW25726   2.206   1.831   6.452 -0.0745  0.2215  0.2977
 4698SOL    HW125727   2.187   1.797   6.365  0.4608  0.8890 -0.0828
 4698SOL    HW225728   2.239   1.918   6.430  0.3011  0.0477  0.1760
 4699SOL     OW25729   0.049   2.085   5.243  0.6505 -0.9147 -0.1863
 4699SOL    HW125730   0.037   2.003   5.289 -1.5212  0.5452  1.8178
 4699SOL    HW225731   0.010   2.062   5.158 -0.5342  1.9513 -0.4458
 4700SOL     OW25732   2.643   2.985  11.516 -0.2807  0.0921 -0.7646
 4700SOL    HW125733   2.614   2.994  11.426 -0.1736 -0.0370 -0.8127
 4700SOL    HW225734   2.611   2.897  11.538  0.2290  0.0109 -0.3304
 4701SOL     OW25735   3.892   3.244   1.221  0.1063 -0.1652  0.1348
 4701SOL    HW125736   3.872   3.160   1.261 -0.2663  0.0171  0.3238
 4701SOL    HW225737   3.943   3.287   1.290 -1.1001  1.4994 -0.0257
 4702SOL     OW25738   4.016   0.806   4.431  0.3863 -0.0257 -0.5202
 4702SOL    HW125739   4.006   0.807   4.526  0.0835 -1.0992 -0.5447
 4702SOL    HW225740   4.022   0.899   4.408 -0.7255 -0.2778 -1.8116
 4703SOL     OW25741   4.056   0.604   8.266  0.2715 -0.1832 -0.3298
 4703SOL    HW125742   4.119   0.665   8.305  0.9993 -1.8197  1.0829
 4703SOL    HW225743   4.106   0.522   8.263  0.0337 -0.3784  0.8523
 4704SOL     OW25744   4.053   3.982   3.640 -0.2191  0.1818 -0.1440
 4704SOL    HW125745   4.065   4.064   3.689  1.3398 -1.6694  2.5829
 4704SOL    HW225746   3.984   3.938   3.690 -0.5541  0.5995 -0.2466
 4705SOL     OW25747   0.744   2.989   7.923 -0.7426  0.5175 -0.4430
 4705SOL    HW125748   0.666   2.934   7.910  0.3904 -1.2120  0.1575
 4705SOL    HW225749   0.780   3.022   7.841 -0.8291 -2.0106 -1.4761
 4706SOL     OW25750   2.579   1.078  12.442 -0.9615  0.5436 -0.0666
 4706SOL    HW125751   2.529   1.024  12.381 -1.9312  1.6213 -0.2316
 4706SOL    HW225752   2.564   1.043  12.530 -1.1983 -0.6534 -0.5804
 4707SOL     OW25753   3.219   3.103   2.259  0.7124 -0.2123 -0.0082
 4707SOL    HW125754   3.178   3.087   2.174  1.5598 -2.0642 -0.0753
 4707SOL    HW225755   3.183   3.033   2.313  0.9073  0.9436  1.6077
 4708SOL     OW25756   0.885   3.454   5.543  0.1398  0.7290 -0.0024
 4708SOL    HW125757   0.962   3.510   5.536  0.5338  0.1729 -0.1376
 4708SOL    HW225758   0.836   3.495   5.471 -1.0207  0.0810  0.4075
 4709SOL     OW25759   2.054   1.701  14.778 -0.6729  0.3910 -0.4690
 4709SOL    HW125760   2.005   1.783  14.769 -1.2244 -0.1048 -2.0398
 4709SOL    HW225761   1.992   1.643  14.822  0.9356 -2.6325 -2.2218
 4710SOL     OW25762   2.489   3.821  14.450  0.1170 -0.3933  0.1284
 4710SOL    HW125763   2.463   3.869  14.372 -1.3537  1.8648  1.9741
 4710SOL    HW225764   2.419   3.757  14.460 -0.2824 -0.4745 -3.3266
 4711SOL     OW25765   1.946   2.473  17.284  0.3840 -0.1319 -0.5992
 4711SOL    HW125766   1.937   2.561  17.246  1.1650  0.5927  0.8636
 4711SOL    HW225767   1.902   2.422  17.216  1.2594 -2.0118  0.2495
 4712SOL     OW25768   2.530   4.388   4.796 -0.3119 -0.0465  0.5844
 4712SOL    HW125769   2.566   4.367   4.882 -1.8445 -0.5459  1.0948
 4712SOL    HW225770   2.602   4.352   4.744 -0.4731  1.6875 -0.8280
 4713SOL     OW25771   0.848   2.019   2.853 -0.4686 -0.0411 -0.1196
 4713SOL    HW125772   0.823   2.059   2.770 -2.2025 -0.2287  0.3158
 4713SOL    HW225773   0.778   2.052   2.909 -1.4027  0.3793 -1.5318
 4714SOL     OW25774   4.075   1.860   7.904  0.5272 -0.7676 -0.8288
 4714SOL    HW125775   3.982   1.881   7.905  0.8372  0.5977  0.5932
 4714SOL    HW225776   4.094   1.890   7.993  1.4615  0.4082 -1.4143
 4715SOL     OW25777   1.295   2.734   4.956 -0.0536 -0.4516 -0.4999
 4715SOL    HW125778   1.317   2.824   4.930 -1.1301 -0.2291 -0.6413
 4715SOL    HW225779   1.205   2.748   4.985  0.2087 -0.0764  0.1502
 4716SOL     OW25780   4.346   3.696   2.266  0.1609  0.1010 -0.4108
 4716SOL    HW125781   4.379   3.729   2.182  2.0643  0.0704  0.3141
 4716SOL    HW225782   4.433   3.689   2.304  1.1716  1.7754 -2.4188
 4717SOL     OW25783   3.474   0.132   3.580 -0.1758  0.3792  0.3481
 4717SOL    HW125784   3.498   0.207   3.525 -0.7021  0.5413  0.3421
 4717SOL    HW225785   3.512   0.153   3.666  0.5657  1.8713 -0.3283
 4718SOL     OW25786   1.824   3.599  10.173  0.9034 -0.2111  0.7149
 4718SOL    HW125787   1.894   3.607  10.237  3.1593  1.8458 -1.9856
 4718SOL    HW225788   1.881   3.553  10.112  0.4064 -0.6437  0.5719
 4719SOL     OW25789   3.034   0.034  14.380 -0.3371  0.2752 -0.5661
 4719SOL    HW125790   2.976   4.698  14.395 -0.4140  0.4016 -0.2499
 4719SOL    HW225791   3.074   0.031  14.467  1.8119  3.0337 -1.4765
 4720SOL     OW25792   3.550   2.105   6.783 -0.0100 -0.5157  0.2863
 4720SOL    HW125793   3.535   2.163   6.857 -1.0314 -0.4106 -0.0032
 4720SOL    HW225794   3.645   2.098   6.793 -0.1794  0.4978  2.5543
 4721SOL     OW25795   4.128   0.072   3.431 -0.0608  0.1212  0.6912
 4721SOL    HW125796   4.211   0.101   3.392 -1.2691  1.5089 -0.8331
 4721SOL    HW225797   4.078   0.153   3.436 -0.8263 -0.3288  0.3656
 4722SOL     OW25798   2.170   3.267   9.438 -0.1168  0.0275  0.1277
 4722SOL    HW125799   2.169   3.321   9.516 -2.9060  1.7722 -1.1165
 4722SOL    HW225800   2.260   3.284   9.412  0.3329 -1.6806  0.5784
 4723SOL     OW25801   2.080   1.498   6.890  0.2506  0.3307  0.3579
 4723SOL    HW125802   2.119   1.536   6.811 -1.9429  1.9125  0.0422
 4723SOL    HW225803   2.003   1.549   6.916  0.9811  1.8368 -0.4289
 4724SOL     OW25804   0.335   1.144  16.350 -0.2585  0.0013 -0.0261
 4724SOL    HW125805   0.377   1.087  16.415  0.0556  1.9093  1.4428
 4724SOL    HW225806   0.261   1.175  16.401 -1.3140 -0.3797 -1.3229
 4725SOL     OW25807   1.070   0.105   4.924 -0.3259 -0.0488  0.1769
 4725SOL    HW125808   1.073   0.066   4.837 -0.8158  0.6728 -0.1676
 4725SOL    HW225809   1.148   0.060   4.955  0.7688  1.0265 -0.9995
 4726SOL     OW25810   4.002   3.787   6.994  0.0200  0.4107 -0.3188
 4726SOL    HW125811   3.990   3.880   6.976 -0.2810  0.1234 -1.6113
 4726SOL    HW225812   4.070   3.756   6.935  0.6580  0.7409  0.2493
 4727SOL     OW25813   0.602   0.747   3.843 -0.7140  0.4496  0.0685
 4727SOL    HW125814   0.537   0.814   3.864 -0.4571  0.4547  0.8539
 4727SOL    HW225815   0.563   0.704   3.767  1.0160  1.2622 -1.2574
 4728SOL     OW25816   1.629   3.729  13.571 -0.7386  0.6979  0.9831
 4728SOL    HW125817   1.625   3.635  13.588 -2.6551  0.9581  2.0098
 4728SOL    HW225818   1.592   3.762  13.652 -0.7902  2.4227  0.2584
 4729SOL     OW25819   2.581   4.424  16.447 -0.1442  0.0295  0.6224
 4729SOL    HW125820   2.675   4.418  16.464 -0.4649  1.0656  2.8112
 4729SOL    HW225821   2.577   4.519  16.443  1.6611  0.0824 -0.1606
 4730SOL     OW25822   4.331   4.071   9.664 -0.4772  0.2081  0.5169
 4730SOL    HW125823   4.421   4.086   9.634 -0.8748 -0.0146 -0.7865
 4730SOL    HW225824   4.334   3.978   9.685 -1.9492 -0.0736 -0.5061
 4731SOL     OW25825   2.215   1.745   5.143  0.0116 -0.5508  0.3321
 4731SOL    HW125826   2.192   1.725   5.234 -1.8171 -2.2706 -0.5244
 4731SOL    HW225827   2.193   1.838   5.146  2.6497  0.0163  2.6065
 4732SOL     OW25828   2.855   4.013   7.234 -0.2705  0.1177 -0.5877
 4732SOL    HW125829   2.773   4.055   7.261  1.5791  2.6086  1.1219
 4732SOL    HW225830   2.853   4.015   7.138 -2.8108 -1.7101 -0.5835
 4733SOL     OW25831   0.494   0.967   2.134  0.4377 -0.0032 -0.2852
 4733SOL    HW125832   0.574   0.937   2.178 -0.0860 -2.4333 -0.9989
 4733SOL    HW225833   0.515   0.935   2.047  2.1288 -2.4973  1.0422
 4734SOL     OW25834   3.411   0.527   6.872  0.3897 -0.3254 -1.1981
 4734SOL    HW125835   3.343   0.459   6.869  0.8251 -0.8267  0.2942
 4734SOL    HW225836   3.344   0.594   6.885 -0.2623 -1.1675 -0.1732
 4735SOL     OW25837   0.928   4.154   9.061 -0.5019 -0.5400  0.1732
 4735SOL    HW125838   0.988   4.189   8.995 -0.1719 -0.2233  0.6387
 4735SOL    HW225839   0.874   4.097   9.006 -0.4738 -1.9089  1.5744
 4736SOL     OW25840   4.710   0.962   9.452  0.5291 -0.1176 -0.6683
 4736SOL    HW125841   0.039   0.899   9.478 -1.3926 -0.9960  2.1381
 4736SOL    HW225842   4.706   1.031   9.518 -0.2963  1.5553 -2.4904
 4737SOL     OW25843   1.793   2.394   2.890  0.1881  0.2020  0.2394
 4737SOL    HW125844   1.842   2.389   2.808 -0.9811  2.6167 -0.6051
 4737SOL    HW225845   1.834   2.467   2.936  0.4337 -1.0745  2.0281
 4738SOL     OW25846   2.448   3.038   3.132  0.7225  0.1510 -0.0952
 4738SOL    HW125847   2.398   3.092   3.193  2.3345  1.7953 -0.2325
 4738SOL    HW225848   2.489   2.975   3.190  1.9243  0.9071 -0.1230
 4739SOL     OW25849   1.308   2.145  16.634 -0.4873  0.4839 -0.1483
 4739SOL    HW125850   1.257   2.207  16.583 -1.0735 -0.4681 -0.7343
 4739SOL    HW225851   1.374   2.117  16.569 -1.9727 -0.6965 -1.1574
 4740SOL     OW25852   2.345   2.969   5.998 -0.7354  0.2790 -0.5671
 4740SOL    HW125853   2.396   3.048   6.015  1.1347 -0.9595 -0.3796
 4740SOL    HW225854   2.370   2.954   5.907  0.0492 -1.5598 -0.0580
 4741SOL     OW25855   1.615   2.970   1.348  0.5842  0.0648  0.1500
 4741SOL    HW125856   1.599   2.977   1.254 -0.0533  1.7666  0.3858
 4741SOL    HW225857   1.535   2.922   1.371  0.5156 -0.0562 -0.3343
 4742SOL     OW25858   1.485   3.365  14.205 -0.4595  0.3971 -0.1294
 4742SOL    HW125859   1.469   3.272  14.192  0.2155 -0.2851  3.6882
 4742SOL    HW225860   1.580   3.377  14.217 -0.2757  1.3420 -2.5621
 4743SOL     OW25861   0.777   2.118  10.039 -0.0073  0.3777  0.1569
 4743SOL    HW125862   0.692   2.161  10.030 -1.5001 -2.8488 -1.4928
 4743SOL    HW225863   0.833   2.181   9.994 -1.4367  2.3565  1.1646
 4744SOL     OW25864   3.790   1.887   5.011  0.2295 -0.7179 -0.3936
 4744SOL    HW125865   3.824   1.851   5.093 -0.7817  0.8430  0.7123
 4744SOL    HW225866   3.735   1.958   5.043  0.1108 -1.1132  0.2839
 4745SOL     OW25867   3.999   4.302  10.541  0.5556  0.5587 -0.4124
 4745SOL    HW125868   3.958   4.278  10.458 -1.7034 -1.2807  1.2369
 4745SOL    HW225869   4.082   4.344  10.517  0.2373  1.8973  0.7776
 4746SOL     OW25870   4.464   3.076   7.989  0.0504 -0.1663 -0.6787
 4746SOL    HW125871   4.523   3.008   8.024 -1.0162 -0.5558  0.3245
 4746SOL    HW225872   4.379   3.054   8.025 -0.0182 -0.0755 -0.7873
 4747SOL     OW25873   0.588   0.096   4.378  0.1128  0.3595 -0.5953
 4747SOL    HW125874   0.601   0.100   4.472  0.5743  0.1477 -0.6510
 4747SOL    HW225875   0.495   0.115   4.373  0.1935  1.4400  2.0666
 4748SOL     OW25876   1.966   2.273   1.968  0.2660 -0.1351  0.4871
 4748SOL    HW125877   1.916   2.332   1.911  2.0876  2.0650  1.1357
 4748SOL    HW225878   1.905   2.238   2.033  1.0940 -2.4421  0.0204
 4749SOL     OW25879   3.319   2.079   0.500 -0.5861  0.1452 -0.1800
 4749SOL    HW125880   3.297   2.103   0.589  1.5925  0.2165  0.3504
 4749SOL    HW225881   3.337   2.163   0.459  1.9845 -0.4412 -0.2560
 4750SOL     OW25882   4.666   4.121   9.193  0.2549  0.2650 -0.4835
 4750SOL    HW125883   4.611   4.063   9.248  0.3073  0.1997 -0.4997
 4750SOL    HW225884   4.660   4.211   9.225  3.1559  0.1679  0.3725
 4751SOL     OW25885   2.472   2.430  14.920  0.3488  0.0181  0.4132
 4751SOL    HW125886   2.522   2.384  14.852 -0.0446  0.2829 -0.0574
 4751SOL    HW225887   2.455   2.372  14.993  1.6266  1.3043  1.7438
 4752SOL     OW25888   0.241   2.960  13.091 -0.0099  0.1987 -0.2137
 4752SOL    HW125889   0.305   2.889  13.103  0.5261  0.7503  0.2495
 4752SOL    HW225890   0.196   2.931  13.013  0.6024  0.7130 -0.7639
 4753SOL     OW25891   1.982   1.111   7.869 -0.0950 -0.2190  0.2497
 4753SOL    HW125892   1.988   1.153   7.783 -1.2047 -0.7994 -0.1215
 4753SOL    HW225893   2.062   1.143   7.909  1.6254 -0.8376 -2.6701
 4754SOL     OW25894   0.361   2.631   5.824 -0.2528 -0.7603  0.1818
 4754SOL    HW125895   0.374   2.574   5.749 -0.6803  0.1836 -0.6112
 4754SOL    HW225896   0.342   2.565   5.891 -1.4510 -0.4676  0.1364
 4755SOL     OW25897   3.201   1.971   2.748  0.7497  0.5681  0.4329
 4755SOL    HW125898   3.228   2.053   2.706  0.3792  2.2735  3.4785
 4755SOL    HW225899   3.287   1.934   2.766  0.9229  0.8789  0.2382
 4756SOL     OW25900   2.201   0.801  12.967  0.1385 -0.1032  0.4749
 4756SOL    HW125901   2.214   0.883  13.014 -1.9100  1.9268 -2.4578
 4756SOL    HW225902   2.193   0.748  13.046 -2.6184  0.9872  0.9512
 4757SOL     OW25903   4.186   2.245  11.213 -0.3599 -0.4301  0.3332
 4757SOL    HW125904   4.265   2.294  11.237 -1.3667  0.5656  1.6872
 4757SOL    HW225905   4.192   2.225  11.120  2.0455 -0.0200  0.3854
 4758SOL     OW25906   4.006   0.302   5.646  0.1102 -0.3724  0.3521
 4758SOL    HW125907   3.962   0.297   5.561 -2.9314 -0.9428  1.9413
 4758SOL    HW225908   4.093   0.330   5.618 -0.5273  0.2568 -0.9825
 4759SOL     OW25909   4.430   3.466   9.219  0.5714  0.0521  0.0458
 4759SOL    HW125910   4.388   3.471   9.133 -0.0948 -0.4114  0.3505
 4759SOL    HW225911   4.499   3.529   9.200  0.3096  0.2044 -0.4008
 4760SOL     OW25912   2.851   1.737   9.415 -0.3896 -0.2322 -0.3597
 4760SOL    HW125913   2.755   1.737   9.416 -0.4224 -5.5299 -0.3372
 4760SOL    HW225914   2.864   1.662   9.356  2.0311 -2.0307  2.4679
 4761SOL     OW25915   4.562   1.692  15.849  0.2174  0.3782  0.2988
 4761SOL    HW125916   4.611   1.688  15.931  1.9174  2.1896 -0.6088
 4761SOL    HW225917   4.472   1.706  15.879 -0.5903 -0.6069 -1.6534
 4762SOL     OW25918   0.337   0.137   6.247 -0.0674 -0.4848  0.0906
 4762SOL    HW125919   0.320   0.192   6.171  0.2252 -0.4150  0.0781
 4762SOL    HW225920   0.387   0.196   6.304  2.2408 -2.0705 -0.3007
 4763SOL     OW25921   1.097   1.298   1.501 -0.2627 -0.3383  0.3451
 4763SOL    HW125922   1.185   1.269   1.479 -0.5325 -0.5107 -0.4930
 4763SOL    HW225923   1.048   1.245   1.438  0.8947  0.7861 -1.4900
 4764SOL     OW25924   0.353   0.083   8.172  0.0798  0.2291 -0.4844
 4764SOL    HW125925   0.395   0.160   8.211  4.0060 -1.2618 -1.7136
 4764SOL    HW225926   0.292   0.118   8.108 -0.1150  1.7338  0.5403
 4765SOL     OW25927   2.046   4.107   9.440  0.4091  0.3720  0.2271
 4765SOL    HW125928   2.111   4.039   9.462 -0.4152 -0.2231  0.8243
 4765SOL    HW225929   2.094   4.172   9.389 -1.2529  1.1047 -0.3884
 4766SOL     OW25930   1.368   0.016   0.845 -0.1012 -0.1118  0.2372
 4766SOL    HW125931   1.421   4.728   0.920 -0.1330 -1.3997 -0.2115
 4766SOL    HW225932   1.279   4.738   0.875 -1.2177  1.5649 -2.0940
 4767SOL     OW25933   0.814   3.335   5.782  0.6994  0.0903  0.5544
 4767SOL    HW125934   0.730   3.377   5.764  0.8259 -0.4593 -1.2490
 4767SOL    HW225935   0.859   3.365   5.704  1.2635  1.5963  1.4524
 4768SOL     OW25936   3.431   2.242   2.278 -0.1804  0.6953 -0.4795
 4768SOL    HW125937   3.520   2.252   2.244  0.2428 -1.5247 -0.0333
 4768SOL    HW225938   3.438   2.289   2.360  1.9288 -1.0076  0.3230
 4769SOL     OW25939   4.481   0.240   2.362  0.6405 -0.2082 -0.1681
 4769SOL    HW125940   4.392   0.249   2.328 -0.2470 -1.9778  1.6510
 4769SOL    HW225941   4.482   0.166   2.422 -0.2098 -0.3581 -0.3324
 4770SOL     OW25942   1.456   3.142   6.387 -0.0734 -0.0214 -0.3509
 4770SOL    HW125943   1.418   3.132   6.474 -0.6687 -1.5039 -0.7828
 4770SOL    HW225944   1.380   3.115   6.336  0.8267 -0.7593 -1.2993
 4771SOL     OW25945   1.538   3.995   4.894 -0.1009  0.5464 -0.1357
 4771SOL    HW125946   1.498   3.927   4.948  0.6666 -0.3218 -0.6584
 4771SOL    HW225947   1.516   4.079   4.936  2.1470  1.3463 -0.5406
 4772SOL     OW25948   1.964   3.964  14.881  0.6163 -0.2206  0.3373
 4772SOL    HW125949   1.901   3.937  14.815  0.4854  2.7199 -0.7744
 4772SOL    HW225950   1.944   4.055  14.903  0.2872 -0.7344  2.1688
 4773SOL     OW25951   4.297   2.279  16.074 -0.1834 -0.2491  0.3034
 4773SOL    HW125952   4.328   2.334  16.001  0.3856  0.3989  1.0315
 4773SOL    HW225953   4.259   2.211  16.019  2.0592 -0.8596 -0.4675
 4774SOL     OW25954   2.999   2.590   4.667 -0.4503  0.2069 -0.0773
 4774SOL    HW125955   2.941   2.562   4.738  0.5119  0.5460  0.8364
 4774SOL    HW225956   2.938   2.635   4.608 -0.5548 -0.2023 -0.2790
 4775SOL     OW25957   4.700   2.697   2.554 -0.1536  0.0193  0.2098
 4775SOL    HW125958   4.692   2.683   2.459 -1.5724  1.6297  0.1051
 4775SOL    HW225959   0.050   2.730   2.569  0.7872 -1.9503 -1.0175
 4776SOL     OW25960   3.047   1.483   4.884 -0.3206  0.0388  0.1760
 4776SOL    HW125961   3.036   1.565   4.836  1.7690 -0.0142 -0.4057
 4776SOL    HW225962   3.036   1.418   4.815  2.1514  0.4856 -0.6553
 4777SOL     OW25963   1.907   3.249   1.964  0.1631 -0.0304  0.2702
 4777SOL    HW125964   1.836   3.268   2.026 -0.0485 -1.2388  0.3849
 4777SOL    HW225965   1.913   3.155   1.980  1.7503 -0.0078 -0.1748
 4778SOL     OW25966   3.250   4.315   7.587 -0.2080 -0.8393 -0.5961
 4778SOL    HW125967   3.176   4.255   7.597  0.7684 -1.8485  0.4966
 4778SOL    HW225968   3.291   4.268   7.514  0.4455  0.8015 -1.2869
 4779SOL     OW25969   1.969   3.980   4.325  0.6002  0.0545 -0.4834
 4779SOL    HW125970   1.967   4.044   4.397  1.5309 -0.6172  0.1490
 4779SOL    HW225971   2.008   4.027   4.251 -0.7254 -1.9863 -2.4658
 4780SOL     OW25972   1.379   1.549  15.093 -0.6896 -0.5679  0.7720
 4780SOL    HW125973   1.450   1.572  15.033 -2.3716  4.0709  0.6077
 4780SOL    HW225974   1.417   1.488  15.156  1.9457 -0.4570 -0.7292
 4781SOL     OW25975   4.384   4.692   3.657 -0.1538  0.4675 -0.5382
 4781SOL    HW125976   4.400   4.668   3.566 -0.2588  0.3648 -0.5292
 4781SOL    HW225977   4.295   4.663   3.676  0.3076  0.4478  1.6163
 4782SOL     OW25978   0.627   3.873   4.942  0.5518  0.0252 -0.6751
 4782SOL    HW125979   0.716   3.889   4.909  0.4949  2.0642  0.1704
 4782SOL    HW225980   0.585   3.905   4.862 -1.5273  1.1161  0.8885
 4783SOL     OW25981   0.062   2.068   0.135  0.2734  0.2676 -0.0831
 4783SOL    HW125982   0.033   1.977   0.146  2.2984 -0.6314 -2.1941
 4783SOL    HW225983   0.097   2.066   0.046 -0.7357  3.0254 -0.5313
 4784SOL     OW25984   2.633   0.292   4.267 -0.2881  0.3105 -0.0087
 4784SOL    HW125985   2.683   0.213   4.248  2.0039  0.9282  3.4890
 4784SOL    HW225986   2.606   0.298   4.359 -0.1954 -1.6018  0.1370
 4785SOL     OW25987   1.910   0.560   2.790  0.2031  0.0246 -0.0483
 4785SOL    HW125988   1.853   0.483   2.781 -0.7930  0.9591 -1.8081
 4785SOL    HW225989   1.843   0.625   2.809 -0.3872 -0.4818 -0.4001
 4786SOL     OW25990   3.457   1.349   6.274 -0.2244 -0.2242 -0.3918
 4786SOL    HW125991   3.504   1.318   6.352 -1.4718  0.9224  0.8203
 4786SOL    HW225992   3.439   1.442   6.289 -0.0213 -0.6386  2.3833
 4787SOL     OW25993   1.801   0.955   2.483  0.6086  0.0188  0.0397
 4787SOL    HW125994   1.744   1.005   2.424 -0.1759  0.2899  1.0143
 4787SOL    HW225995   1.778   0.987   2.570  1.4594  3.6400 -1.0628
 4788SOL     OW25996   3.701   3.198   2.642 -0.0233  0.4000  0.1536
 4788SOL    HW125997   3.703   3.245   2.726  1.3482  1.6225 -0.5640
 4788SOL    HW225998   3.665   3.271   2.591  0.8097 -0.7713 -2.0963
 4789SOL     OW25999   1.806   2.320   0.542 -0.2860 -0.6016  0.0699
 4789SOL    HW126000   1.790   2.339   0.449 -2.6924 -2.4290  0.1189
 4789SOL    HW226001   1.784   2.227   0.548  1.4204 -1.1602 -2.2663
 4790SOL     OW26002   2.955   1.687  15.270  0.7550 -0.5045 -0.0222
 4790SOL    HW126003   2.942   1.594  15.249 -1.7097 -0.2141  0.2467
 4790SOL    HW226004   3.034   1.695  15.217 -1.0454 -0.2393 -2.6394
 4791SOL     OW26005   2.892   4.651   0.652  0.1234  0.2505  0.2464
 4791SOL    HW126006   2.932   4.738   0.644  2.8593 -0.5192  5.3464
 4791SOL    HW226007   2.848   4.649   0.567  1.0280  0.1785 -0.2230
 4792SOL     OW26008   0.197   3.795  14.485  0.4588 -0.4028  0.4446
 4792SOL    HW126009   0.250   3.776  14.408 -0.0907 -1.9861  0.4515
 4792SOL    HW226010   0.261   3.812  14.554 -0.4719 -1.7641  1.6375
 4793SOL     OW26011   1.675   4.276   8.554  0.2962 -0.1175  0.0386
 4793SOL    HW126012   1.753   4.310   8.510  0.3289  1.6960  1.4728
 4793SOL    HW226013   1.698   4.293   8.646  0.7695 -0.4425 -0.0218
 4794SOL     OW26014   0.131   4.204  16.637  0.3710 -0.0083 -0.3416
 4794SOL    HW126015   0.160   4.283  16.683  0.2703  1.0699 -2.1387
 4794SOL    HW226016   0.115   4.143  16.709  3.9173 -1.1121 -0.5094
 4795SOL     OW26017   2.016   2.919   8.130  0.0119 -0.2598  0.0994
 4795SOL    HW126018   1.969   2.836   8.120  0.3807 -0.6831  1.9463
 4795SOL    HW226019   2.051   2.901   8.217 -1.0519  0.3783  0.6570
 4796SOL     OW26020   0.143   3.758   3.108  0.3238 -0.0144  0.0935
 4796SOL    HW126021   0.200   3.721   3.175 -2.0387 -1.4997  1.3030
 4796SOL    HW226022   0.119   3.846   3.135  1.1147  0.7523 -1.6949
 4797SOL     OW26023   1.873   2.659  11.066 -0.6093  0.2160  0.2293
 4797SOL    HW126024   1.959   2.623  11.089 -0.7282  1.4014  2.5225
 4797SOL    HW226025   1.885   2.668  10.972  2.6426  1.2465  0.7430
 4798SOL     OW26026   1.688   1.179   8.327  0.3671  0.1539  0.2493
 4798SOL    HW126027   1.750   1.200   8.258  0.3335 -0.9996 -0.1262
 4798SOL    HW226028   1.645   1.099   8.297 -2.5036  1.8376 -0.1399
 4799SOL     OW26029   2.477   1.593   3.014 -0.0178 -0.4036  0.1977
 4799SOL    HW126030   2.387   1.593   3.045  0.7025  0.4634  2.2538
 4799SOL    HW226031   2.480   1.664   2.949  2.9265 -0.1331  0.6443
 4800SOL     OW26032   4.571   4.489  13.692  0.6045 -0.8540 -0.1308
 4800SOL    HW126033   4.509   4.539  13.639 -0.5775 -3.4919 -1.2637
 4800SOL    HW226034   4.604   4.416  13.640  3.0126 -1.9679  2.9615
 4801SOL     OW26035   2.847   2.938   3.124  0.9546 -0.5798 -0.9285
 4801SOL    HW126036   2.854   3.010   3.186 -0.2175 -1.4078  0.1770
 4801SOL    HW226037   2.860   2.866   3.187 -0.7080 -0.3376 -0.3042
 4802SOL     OW26038   0.978   3.586   4.826 -0.6295 -0.2459 -0.2100
 4802SOL    HW126039   1.070   3.610   4.841 -0.5448  0.2175 -1.4195
 4802SOL    HW226040   0.991   3.492   4.813 -1.4061 -0.5177  0.9686
 4803SOL     OW26041   1.649   0.169   9.486  0.0676  0.3280 -0.2176
 4803SOL    HW126042   1.613   0.258   9.485 -0.2667  0.1847 -0.9940
 4803SOL    HW226043   1.680   0.171   9.576  1.6136 -0.1561 -0.7541
 4804SOL     OW26044   2.824   0.242   5.998  0.5300  0.4266 -0.3452
 4804SOL    HW126045   2.907   0.207   6.031 -0.5993 -0.6091  1.3797
 4804SOL    HW226046   2.808   0.322   6.047 -1.9030 -0.1326 -0.2533
 4805SOL     OW26047   2.514   3.025   0.161  0.2512 -0.2974 -0.2430
 4805SOL    HW126048   2.553   2.971   0.092 -0.0274 -1.0535  0.1821
 4805SOL    HW226049   2.500   3.105   0.111 -1.6520 -0.8560 -0.5911
 4806SOL     OW26050   4.435   0.116   2.018  0.4571 -0.1821 -0.4243
 4806SOL    HW126051   4.447   0.059   2.094 -0.9379  1.0856  0.7364
 4806SOL    HW226052   4.340   0.112   2.009  0.4180 -1.6602  0.5726
 4807SOL     OW26053   3.162   1.069   0.055 -0.3309 -0.5732 -0.0422
 4807SOL    HW126054   3.212   1.104  17.734 -0.5361  2.8475  1.4312
 4807SOL    HW226055   3.155   0.977   0.031 -1.6514 -0.2247 -0.9820
 4808SOL     OW26056   1.662   3.001   6.059  0.0382  0.1773  0.7235
 4808SOL    HW126057   1.650   3.011   6.153 -0.2518 -2.9590  1.0190
 4808SOL    HW226058   1.642   2.910   6.036  1.1741 -0.0267  0.5827
 4809SOL     OW26059   1.095   1.931   4.568  0.7838 -0.3915  0.3821
 4809SOL    HW126060   1.054   1.873   4.503 -2.2656 -0.4983  2.3904
 4809SOL    HW226061   1.031   1.998   4.591  0.1916 -0.1822 -1.9281
 4810SOL     OW26062   1.982   3.989   5.945  0.0467  0.2204 -0.0690
 4810SOL    HW126063   1.899   3.974   5.991  0.6123 -0.2757  0.7973
 4810SOL    HW226064   1.997   4.082   5.962  2.4429 -0.0789 -0.5546
 4811SOL     OW26065   2.596   0.806   9.435  0.1124  0.2705 -0.2574
 4811SOL    HW126066   2.688   0.796   9.411  0.2782 -1.5752  1.1951
 4811SOL    HW226067   2.561   0.719   9.419 -0.5917  0.1803  1.7767
 4812SOL     OW26068   4.695   4.138   1.605 -0.4515  0.0838  0.0225
 4812SOL    HW126069   4.669   4.206   1.542 -0.1645 -0.9190 -1.1731
 4812SOL    HW226070   4.608   4.133   1.643 -0.6421 -2.4424 -0.7673
 4813SOL     OW26071   3.050   4.449   4.814  0.3307 -0.8404  0.0614
 4813SOL    HW126072   3.031   4.542   4.826 -3.1735 -1.2803 -2.3932
 4813SOL    HW226073   3.074   4.441   4.722 -0.0405  0.5163 -0.1635
 4814SOL     OW26074   1.152   1.528   6.727 -0.0070  0.0976 -0.0973
 4814SOL    HW126075   1.183   1.438   6.714  0.2722  0.1959 -0.1017
 4814SOL    HW226076   1.178   1.579   6.651 -1.0054 -1.1193 -1.2404
 4815SOL     OW26077   2.934   3.573  12.782 -0.1695 -0.5015 -0.0024
 4815SOL    HW126078   2.844   3.605  12.776 -0.2813 -0.5258  1.4176
 4815SOL    HW226079   2.992   3.648  12.797 -2.0194  0.6980  1.0801
 4816SOL     OW26080   0.746   3.914   9.000  0.3201  0.2038 -0.1653
 4816SOL    HW126081   0.744   3.820   8.983  0.2225 -0.0222  1.0808
 4816SOL    HW226082   0.654   3.927   9.021 -0.0140 -1.8678 -0.3158
 4817SOL     OW26083   1.974   0.458   8.784  0.8292  0.2331  0.2913
 4817SOL    HW126084   1.889   0.485   8.818  1.1838  1.8024 -0.0694
 4817SOL    HW226085   1.989   0.520   8.712  2.7941  0.5733  0.9934
 4818SOL     OW26086   0.150   1.060   2.786 -0.2105 -0.0154  0.3581
 4818SOL    HW126087   0.061   1.094   2.794 -0.0029  1.0717 -2.2033
 4818SOL    HW226088   0.172   1.073   2.694  0.3982  0.1499  0.5302
 4819SOL     OW26089   0.579   1.226   1.652  0.3042 -0.1824  0.2345
 4819SOL    HW126090   0.506   1.267   1.699  0.2830 -0.4377  0.4244
 4819SOL    HW226091   0.528   1.181   1.584  3.3278  0.6816 -2.5895
 4820SOL     OW26092   4.590   4.076   9.570  0.0594 -0.9114 -0.0593
 4820SOL    HW126093   4.634   4.152   9.532  0.5637 -0.6176  1.1242
 4820SOL    HW226094   4.621   4.008   9.510  0.3491  0.8531 -1.9019
 4821SOL     OW26095   2.825   2.866   5.451 -0.0478  0.6035  0.3369
 4821SOL    HW126096   2.739   2.907   5.452  1.2862  3.3791  1.9754
 4821SOL    HW226097   2.824   2.817   5.534  1.5207 -0.5436 -0.3095
 4822SOL     OW26098   4.297   1.047  14.557 -0.2467  0.0922  1.3325
 4822SOL    HW126099   4.255   1.071  14.474 -1.3907  0.1842  1.9294
 4822SOL    HW226100   4.340   1.131  14.570  1.0337 -0.2783 -0.5674
 4823SOL     OW26101   0.330   0.907  11.400  0.3281 -0.4748 -0.2077
 4823SOL    HW126102   0.302   0.985  11.351  0.0009  0.5125  1.5747
 4823SOL    HW226103   0.295   0.924  11.487 -0.4177 -2.5876 -0.0881
 4824SOL     OW26104   4.273   1.883   6.443 -0.4109  0.6641  0.2687
 4824SOL    HW126105   4.294   1.926   6.526  1.5819  0.0951  0.0658
 4824SOL    HW226106   4.276   1.961   6.388  0.5599  0.1561 -0.3994
 4825SOL     OW26107   0.560   4.650   8.188  0.1950 -0.1218 -0.0092
 4825SOL    HW126108   0.622   4.708   8.144 -2.4871  3.0084  0.3002
 4825SOL    HW226109   0.486   4.708   8.172 -1.7232 -2.0371  1.9950
 4826SOL     OW26110   1.936   0.002  16.071 -0.2105 -0.2779 -0.7470
 4826SOL    HW126111   2.013   4.705  16.027  0.3161 -0.0997  0.0254
 4826SOL    HW226112   1.987   0.046  16.139  1.5103 -1.4183 -1.3062
 4827SOL     OW26113   0.592   3.576   3.822 -0.6480  0.0958  0.3839
 4827SOL    HW126114   0.560   3.559   3.911  0.1266 -1.7487  0.3216
 4827SOL    HW226115   0.663   3.513   3.808 -0.0536  0.8665 -0.0365
 4828SOL     OW26116   4.295   3.815   8.012  0.0692  0.3530  0.5224
 4828SOL    HW126117   4.254   3.892   8.052 -1.2548 -0.9383  1.6560
 4828SOL    HW226118   4.236   3.803   7.937 -0.9027 -0.9196  1.5056
 4829SOL     OW26119   4.322   0.033  16.714 -0.3508 -0.0315  0.4298
 4829SOL    HW126120   4.368   0.033  16.630  1.9726  1.5128  1.7186
 4829SOL    HW226121   4.380   4.726  16.775 -0.8727 -0.2095  0.7884
 4830SOL     OW26122   0.750   4.300   1.984  0.0074  0.2486 -0.3358
 4830SOL    HW126123   0.834   4.286   1.938  0.4155  0.1803  0.4376
 4830SOL    HW226124   0.730   4.208   1.998  2.9795 -0.5410 -1.2364
 4831SOL     OW26125   4.038   0.045  16.839  0.0046 -0.0903 -0.2888
 4831SOL    HW126126   3.990   4.733  16.905  0.0647  1.4271  0.9226
 4831SOL    HW226127   4.119   4.735  16.823  1.2487  1.6851  0.6702
 4832SOL     OW26128   3.108   0.783   9.472 -0.6751 -0.6115 -0.2244
 4832SOL    HW126129   3.145   0.868   9.448 -1.0052  0.0079  1.4162
 4832SOL    HW226130   3.026   0.820   9.505  0.1440  0.8022  0.2049
 4833SOL     OW26131   4.724   1.787   6.993  0.2687  0.0052 -0.5385
 4833SOL    HW126132   0.011   1.865   6.944 -3.0188 -0.2649 -2.6727
 4833SOL    HW226133   0.074   1.751   6.992 -0.1704 -1.0763 -0.6048
 4834SOL     OW26134   4.170   1.693   4.496  0.0088  0.6246  0.8270
 4834SOL    HW126135   4.236   1.655   4.554  0.3014 -3.7911 -2.3968
 4834SOL    HW226136   4.214   1.727   4.418  0.9519  0.3013  1.2242
 4835SOL     OW26137   3.197   2.951  13.099  0.5087  0.1230  0.2218
 4835SOL    HW126138   3.214   3.011  13.026 -0.3844 -2.9274 -2.5126
 4835SOL    HW226139   3.134   3.002  13.149  0.3778 -0.4498  0.6397
 4836SOL     OW26140   3.913   0.607   2.750 -0.5852 -0.5845  0.1068
 4836SOL    HW126141   3.864   0.527   2.732 -1.1023 -0.7216  2.1328
 4836SOL    HW226142   3.997   0.571   2.778 -0.3858 -0.6301 -0.5362
 4837SOL     OW26143   0.937   3.305   0.466 -1.3542 -0.3300 -0.1900
 4837SOL    HW126144   0.856   3.318   0.515 -0.0695  2.6614  1.1501
 4837SOL    HW226145   0.918   3.349   0.383  2.7794 -0.1370 -1.0285
 4838SOL     OW26146   4.508   1.997  17.674 -0.2660  0.3919 -0.1363
 4838SOL    HW126147   4.543   1.944  17.746  0.4957  0.6033 -0.3533
 4838SOL    HW226148   4.458   2.067  17.716  0.5245 -0.5748  2.3901
 4839SOL     OW26149   2.552   0.436   6.827 -0.0807  0.3882  0.5224
 4839SOL    HW126150   2.563   0.531   6.819  0.1894  0.6385  3.8176
 4839SOL    HW226151   2.471   0.425   6.779  0.4696  2.1493 -0.8040
 4840SOL     OW26152   1.675   0.579   6.156 -0.1048 -0.3248 -0.5079
 4840SOL    HW126153   1.710   0.650   6.210 -1.0952  1.0586 -1.6760
 4840SOL    HW226154   1.604   0.548   6.213 -0.5931 -1.1493 -1.5654
 4841SOL     OW26155   3.001   1.139   0.264  0.2103  0.3118 -0.2412
 4841SOL    HW126156   3.055   1.108   0.191  0.0274  0.0688 -0.2747
 4841SOL    HW226157   3.036   1.227   0.278  1.0637 -0.4330  2.3474
 4842SOL     OW26158   4.045   4.149   1.755  0.0960 -0.1056  0.2532
 4842SOL    HW126159   4.115   4.214   1.750  0.2410 -0.1851  1.2596
 4842SOL    HW226160   4.027   4.147   1.849 -0.5149 -4.1660  0.0747
 4843SOL     OW26161   3.514   3.875   2.090 -0.2051 -0.1676 -0.7351
 4843SOL    HW126162   3.433   3.889   2.041 -0.7247 -0.3426  0.0726
 4843SOL    HW226163   3.490   3.801   2.146  0.4878  0.5390  0.4927
 4844SOL     OW26164   3.104   4.626   6.594  0.3501 -0.0563 -0.3350
 4844SOL    HW126165   3.165   4.585   6.655 -1.3959 -1.8033  0.2469
 4844SOL    HW226166   3.069   4.554   6.543  1.2778 -1.8268  1.5268
 4845SOL     OW26167   0.654   4.539  14.929  0.3239  0.3781 -0.2254
 4845SOL    HW126168   0.678   4.523  14.838  1.6711  0.2265  0.1576
 4845SOL    HW226169   0.565   4.506  14.916  0.6908 -0.4684 -0.5640
 4846SOL     OW26170   4.547   3.792  14.800  0.3561 -0.4719 -0.3521
 4846SOL    HW126171   4.576   3.802  14.709 -0.1104  1.8547 -0.2476
 4846SOL    HW226172   4.554   3.697  14.810  0.8809 -0.5402 -1.3344
 4847SOL     OW26173   0.283   2.477   8.490 -0.0242 -0.2031 -0.7674
 4847SOL    HW126174   0.372   2.465   8.456  0.3839 -1.1693  0.6764
 4847SOL    HW226175   0.265   2.395   8.535 -0.1054 -0.0090 -0.4474
 4848SOL     OW26176   0.102   3.153   9.822  1.0388  0.5458 -0.0497
 4848SOL    HW126177   0.193   3.138   9.800  1.1309 -1.3528  1.6613
 4848SOL    HW226178   0.066   3.227   9.773 -0.7338 -0.1158  0.2355
 4849SOL     OW26179   4.188   2.636   0.764  0.1985 -0.0705 -0.9736
 4849SOL    HW126180   4.255   2.658   0.699 -1.1854  1.6264 -1.8196
 4849SOL    HW226181   4.226   2.675   0.843  1.8558 -1.6714 -0.9708
 4850SOL     OW26182   0.966   2.391   5.382  0.2378  0.0780 -0.1832
 4850SOL    HW126183   0.956   2.444   5.461  0.1692  0.6094 -0.5522
 4850SOL    HW226184   1.010   2.454   5.325  0.7948 -1.2208 -1.1931
 4851SOL     OW26185   0.045   0.937   4.258 -0.0208  0.2725 -0.3626
 4851SOL    HW126186   0.132   0.900   4.242 -0.0313  0.7551 -1.4984
 4851SOL    HW226187   4.726   0.864   4.239  1.2586 -1.1038  1.0510
 4852SOL     OW26188   4.388   1.134   1.012  0.0584 -0.4886 -0.2547
 4852SOL    HW126189   4.319   1.194   1.040 -0.9763 -1.0955 -1.5569
 4852SOL    HW226190   4.377   1.148   0.918 -2.1896  0.4572  0.1661
 4853SOL     OW26191   0.766   2.034   7.659 -0.1148 -0.0937 -0.0194
 4853SOL    HW126192   0.859   2.058   7.664  0.4670 -1.9241 -2.2355
 4853SOL    HW226193   0.773   1.949   7.704  2.0837 -0.9433 -1.9458
 4854SOL     OW26194   1.281   3.643   8.556  0.4322 -0.3010 -0.4459
 4854SOL    HW126195   1.260   3.572   8.617 -0.4679  0.0697 -0.3217
 4854SOL    HW226196   1.359   3.679   8.597  1.5565 -0.9000 -2.0609
 4855SOL     OW26197   3.048   2.379  16.184  0.5464  0.3002 -0.6570
 4855SOL    HW126198   2.962   2.413  16.210 -0.2818 -2.3794  0.0691
 4855SOL    HW226199   3.042   2.296  16.231 -0.1314  0.7004 -0.0219
 4856SOL     OW26200   2.847   1.046   8.488  0.1368  0.0598 -0.2265
 4856SOL    HW126201   2.875   0.955   8.504 -0.0428  0.0133 -0.1773
 4856SOL    HW226202   2.929   1.090   8.466  0.0724 -0.1528 -0.9067
 4857SOL     OW26203   0.724   3.884   6.497 -0.2668 -0.2867 -0.2024
 4857SOL    HW126204   0.646   3.830   6.510 -1.1680  1.0571 -0.0579
 4857SOL    HW226205   0.731   3.890   6.402  0.5475  0.7005 -0.0817
 4858SOL     OW26206   0.648   4.098  14.045 -0.0361 -0.3608 -0.2272
 4858SOL    HW126207   0.694   4.177  14.017 -1.1363  0.7627  1.1980
 4858SOL    HW226208   0.559   4.105  14.011 -1.0656 -3.4389  1.8242
 4859SOL     OW26209   3.055   1.116   4.751 -1.1788 -0.2208 -0.0446
 4859SOL    HW126210   3.042   1.087   4.661 -2.1658  3.7282 -1.1938
 4859SOL    HW226211   2.965   1.115   4.785 -1.4386  1.9620 -0.6573
 4860SOL     OW26212   2.138   2.402   8.581  0.1690  0.1262  0.2218
 4860SOL    HW126213   2.230   2.424   8.596  0.0164  1.1084 -0.2555
 4860SOL    HW226214   2.110   2.353   8.658 -0.5920 -0.6094 -0.5265
 4861SOL     OW26215   0.022   4.565   6.557  0.9296 -0.3468 -0.0326
 4861SOL    HW126216   0.109   4.604   6.552  0.5168  0.6728  0.8412
 4861SOL    HW226217   4.710   4.634   6.514 -0.3949  0.0518  2.1578
 4862SOL     OW26218   2.637   3.278   0.850 -0.2017 -0.0469 -0.0220
 4862SOL    HW126219   2.564   3.219   0.831  0.8057 -1.5884  0.9177
 4862SOL    HW226220   2.600   3.363   0.873  0.4918  0.0173  0.8897
 4863SOL     OW26221   4.012   1.451   8.520 -0.1801  0.0663  0.1892
 4863SOL    HW126222   3.986   1.512   8.589 -2.1229  0.7264 -1.1290
 4863SOL    HW226223   4.077   1.507   8.477 -1.5611  2.1130  0.7590
 4864SOL     OW26224   0.164   4.285   5.858 -0.2067 -0.0391 -0.0056
 4864SOL    HW126225   0.247   4.290   5.812  0.0942 -1.6074  0.3838
 4864SOL    HW226226   0.195   4.304   5.947  0.2216  0.5985 -0.2884
 4865SOL     OW26227   2.265   1.286   4.208 -0.2870  0.1997  0.4300
 4865SOL    HW126228   2.347   1.238   4.203 -1.7642 -2.2463 -0.3762
 4865SOL    HW226229   2.304   1.371   4.187  1.2261 -0.8748 -1.1608
 4866SOL     OW26230   0.568   4.569   9.607 -0.6554  0.0117 -0.3918
 4866SOL    HW126231   0.496   4.611   9.559 -1.2086  0.2912  0.7017
 4866SOL    HW226232   0.599   4.637   9.666  1.8198 -0.5582 -1.0294
 4867SOL     OW26233   2.627   3.099   1.993 -0.1976 -0.1461 -0.1063
 4867SOL    HW126234   2.603   3.023   1.940  2.3264 -1.0334 -0.0224
 4867SOL    HW226235   2.720   3.095   2.016 -0.2826  1.4410  0.5481
 4868SOL     OW26236   2.000   1.431   4.509 -0.4411 -0.0862 -0.1688
 4868SOL    HW126237   1.933   1.484   4.465 -0.7396  0.4610  0.9379
 4868SOL    HW226238   1.957   1.384   4.581  1.4235 -0.2686  0.8163
 4869SOL     OW26239   4.013   2.113   5.303 -0.6357  0.2705  0.3411
 4869SOL    HW126240   3.982   2.147   5.387  2.7241 -0.0130  1.6934
 4869SOL    HW226241   3.953   2.159   5.244  0.2304  1.5660  0.4610
 4870SOL     OW26242   1.712   2.390   6.682 -0.3098 -0.2234  0.2276
 4870SOL    HW126243   1.647   2.438   6.734 -0.3043 -1.1615  1.0910
 4870SOL    HW226244   1.763   2.353   6.754  0.7926 -0.8898 -0.8989
 4871SOL     OW26245   2.181   0.142  16.212 -0.1473 -0.0162 -0.5130
 4871SOL    HW126246   2.193   0.226  16.168 -3.4795  0.5036 -0.4282
 4871SOL    HW226247   2.255   0.146  16.273 -1.1455 -0.2640  0.7120
 4872SOL     OW26248   0.450   2.263   7.138 -1.1832  0.0671  0.7738
 4872SOL    HW126249   0.471   2.246   7.046 -3.8063  1.1973 -0.0303
 4872SOL    HW226250   0.363   2.302   7.134 -2.8073 -3.5722  0.7826
 4873SOL     OW26251   1.935   2.599   3.813  0.1195  0.0557  0.1551
 4873SOL    HW126252   1.953   2.675   3.758 -1.2497  0.2332 -0.0450
 4873SOL    HW226253   1.932   2.524   3.754  1.5249  0.9263 -1.0230
 4874SOL     OW26254   4.307   3.168  16.321  0.2585 -0.5040  0.2026
 4874SOL    HW126255   4.352   3.087  16.346  1.3640  0.7563  2.3626
 4874SOL    HW226256   4.262   3.192  16.403  0.6262  2.1155 -0.3537
 4875SOL     OW26257   0.787   4.032   2.480 -0.5353  0.5178 -0.1254
 4875SOL    HW126258   0.735   3.952   2.480 -0.0345  0.1540  3.7427
 4875SOL    HW226259   0.728   4.084   2.426 -0.2473  1.5252  0.5200
 4876SOL     OW26260   2.420   1.466   5.964  0.2799 -0.0979 -0.0782
 4876SOL    HW126261   2.407   1.452   6.058 -1.0600  0.9494 -0.0971
 4876SOL    HW226262   2.504   1.511   5.963  0.2680 -0.0369  1.7710
 4877SOL     OW26263   0.456   2.734   6.697  0.5890  0.2569  0.4393
 4877SOL    HW126264   0.424   2.740   6.787 -1.9184 -0.6023 -0.3745
 4877SOL    HW226265   0.416   2.813   6.661 -2.0609 -0.6660  1.3602
 4878SOL     OW26266   0.642   1.496   4.181  0.3599  0.0005 -0.2826
 4878SOL    HW126267   0.726   1.458   4.208  0.2439  2.0809  3.0488
 4878SOL    HW226268   0.633   1.472   4.089  0.7059 -2.0102  0.1984
 4879SOL     OW26269   4.400   4.019   2.244  0.8655  0.8939 -0.6209
 4879SOL    HW126270   4.441   3.953   2.187 -0.9194 -0.6062 -0.1697
 4879SOL    HW226271   4.446   4.000   2.326 -0.2245 -0.3280 -0.2835
 4880SOL     OW26272   0.515   4.310   3.883  0.2174 -1.0379  0.7169
 4880SOL    HW126273   0.564   4.345   3.808 -0.9153  1.7848  1.2733
 4880SOL    HW226274   0.468   4.386   3.918 -0.2370 -0.8537 -0.2882
 4881SOL     OW26275   1.547   2.504  10.879 -0.1464 -0.5791 -0.7047
 4881SOL    HW126276   1.509   2.448  10.811 -2.8174 -0.2814  0.5369
 4881SOL    HW226277   1.632   2.525  10.839  0.7068 -0.8342  0.9769
 4882SOL     OW26278   1.407   0.415   4.350 -0.7920 -0.6009  0.3241
 4882SOL    HW126279   1.376   0.436   4.438 -0.4915 -1.8427  0.7185
 4882SOL    HW226280   1.484   0.471   4.337 -2.3491  1.4876  0.1626
 4883SOL     OW26281   1.541   2.591   0.879 -0.4299 -0.2729 -0.5098
 4883SOL    HW126282   1.455   2.615   0.845 -0.6004  3.1910  2.3423
 4883SOL    HW226283   1.575   2.540   0.805 -0.1445  0.3712 -0.8302
 4884SOL     OW26284   4.392   0.800   4.243  0.1348  0.3808  0.0435
 4884SOL    HW126285   4.346   0.874   4.204  0.2816  0.7035  0.4729
 4884SOL    HW226286   4.327   0.747   4.289 -1.2136  0.4607 -1.7963
 4885SOL     OW26287   4.213   0.027   6.319  0.3271 -0.0369  0.0678
 4885SOL    HW126288   4.242   4.696   6.378  3.2287  0.5589 -0.6253
 4885SOL    HW226289   4.158   4.725   6.252  1.2396 -0.9179 -0.1511
 4886SOL     OW26290   4.646   1.032   7.674  0.0619  0.0239 -0.2111
 4886SOL    HW126291   4.662   0.976   7.751  0.4533  0.8513  0.3136
 4886SOL    HW226292   4.705   1.106   7.686  1.2622 -1.2539  1.9384
 4887SOL     OW26293   3.699   3.110  11.000 -0.1935 -0.8064 -0.1026
 4887SOL    HW126294   3.653   3.056  11.064 -1.2307  0.7533  0.4647
 4887SOL    HW226295   3.789   3.076  11.000 -0.1271 -0.6344  0.4093
 4888SOL     OW26296   2.125   3.645   2.937  0.1731  0.0261 -0.0138
 4888SOL    HW126297   2.041   3.686   2.959 -0.7426 -2.3782  0.8724
 4888SOL    HW226298   2.089   3.566   2.898 -0.6932 -1.2025  3.2244
 4889SOL     OW26299   3.724   1.442   9.744 -0.0331  0.2741 -0.1374
 4889SOL    HW126300   3.815   1.415   9.729 -0.2092  0.7179 -2.0434
 4889SOL    HW226301   3.726   1.531   9.707 -1.7319  0.6097  0.5808
 4890SOL     OW26302   2.153   3.757  13.796 -0.3489 -0.1644 -0.7495
 4890SOL    HW126303   2.081   3.815  13.770 -1.1955 -0.4589  0.9729
 4890SOL    HW226304   2.210   3.754  13.719  2.4904  1.0320  1.3117
 4891SOL     OW26305   0.682   1.222   1.889  0.6383 -0.3633  0.4750
 4891SOL    HW126306   0.659   1.228   1.796 -1.2766  0.6685  0.9995
 4891SOL    HW226307   0.666   1.312   1.918  0.8764 -0.1195 -0.1648
 4892SOL     OW26308   0.971   2.780   9.476  0.2208 -0.3085 -0.4018
 4892SOL    HW126309   1.028   2.855   9.495 -0.1981 -0.2412  0.6066
 4892SOL    HW226310   1.010   2.727   9.546 -0.3505  0.1680  0.2702
 4893SOL     OW26311   2.330   1.752   3.316 -0.0762 -0.3252 -0.3150
 4893SOL    HW126312   2.284   1.734   3.234 -1.1320  2.2194 -0.2887
 4893SOL    HW226313   2.321   1.847   3.327 -1.0456 -0.0162 -3.8755
 4894SOL     OW26314   3.077   3.576  13.093  0.8277 -0.5718 -0.1262
 4894SOL    HW126315   3.092   3.613  13.007 -2.2321 -0.2233 -0.5079
 4894SOL    HW226316   3.114   3.641  13.152 -0.6200 -0.9543  1.2239
 4895SOL     OW26317   1.348   1.381  10.478  0.3710  0.8464  0.4951
 4895SOL    HW126318   1.321   1.363  10.568  1.9337 -0.6984  0.6593
 4895SOL    HW226319   1.413   1.449  10.491 -0.9288  1.7410  2.1939
 4896SOL     OW26320   1.227   0.913   7.683  0.0031 -0.3145  0.5518
 4896SOL    HW126321   1.228   0.902   7.588 -1.3428 -0.4900  0.5585
 4896SOL    HW226322   1.170   0.840   7.709 -0.0035 -0.4732  0.1014
 4897SOL     OW26323   2.070   0.217   6.337 -0.0940 -0.1326 -0.5723
 4897SOL    HW126324   2.165   0.231   6.343  0.5369 -4.1563 -0.7548
 4897SOL    HW226325   2.056   0.155   6.409 -0.5736 -0.5317 -1.0123
 4898SOL     OW26326   1.504   3.188   4.530 -0.8297  0.0180 -0.0212
 4898SOL    HW126327   1.525   3.101   4.496 -0.4172 -0.3020  1.0522
 4898SOL    HW226328   1.535   3.244   4.458  3.4159  0.6859  2.3423
 4899SOL     OW26329   3.906   4.551  16.687 -0.0708  0.1387 -0.3630
 4899SOL    HW126330   3.944   4.526  16.771  1.5280  1.9174 -0.5642
 4899SOL    HW226331   3.970   4.523  16.622  1.9660 -0.5498  1.9314
 4900SOL     OW26332   4.713   1.746  14.176 -0.0151 -0.2931 -0.6291
 4900SOL    HW126333   0.056   1.775  14.135  0.2083 -0.5498 -0.3656
 4900SOL    HW226334   4.660   1.731  14.098  0.8973 -0.2379 -1.2554
 4901SOL     OW26335   4.224   3.658   5.170 -0.3751  0.2134  0.6509
 4901SOL    HW126336   4.310   3.618   5.182 -0.2709  0.3291  0.2733
 4901SOL    HW226337   4.255   3.747   5.186  1.5263 -0.5177  1.0237
 4902SOL     OW26338   3.623   1.505   2.455 -0.3603 -0.5068 -0.0042
 4902SOL    HW126339   3.542   1.454   2.446 -0.0913 -0.6565 -1.6455
 4902SOL    HW226340   3.655   1.476   2.540  0.6390  1.9198  0.4508
 4903SOL     OW26341   3.220   1.252  15.008  0.2935  0.4421  0.1268
 4903SOL    HW126342   3.287   1.186  14.991  0.1316  0.4581 -0.6037
 4903SOL    HW226343   3.270   1.332  14.998  1.0926  0.0116  0.6693
 4904SOL     OW26344   3.921   4.039   6.682  0.3897  0.0764  0.7813
 4904SOL    HW126345   4.009   4.034   6.720 -0.0373  0.6323  1.8421
 4904SOL    HW226346   3.935   4.105   6.614  0.8632  0.4776  1.2625
 4905SOL     OW26347   4.496   1.461   5.061  0.0913 -0.6797 -0.3011
 4905SOL    HW126348   4.505   1.556   5.064 -0.0019 -0.6555 -0.7286
 4905SOL    HW226349   4.588   1.434   5.056  0.7401  1.5748 -0.4444
 4906SOL     OW26350   4.276   4.002   3.193  0.0780  0.1064  0.1655
 4906SOL    HW126351   4.215   4.024   3.264  1.8963  2.9312  0.8363
 4906SOL    HW226352   4.278   3.910   3.220  1.1757 -0.0259 -0.3889
 4907SOL     OW26353   1.002   0.695   8.724 -0.3934  0.1058 -0.0489
 4907SOL    HW126354   0.974   0.750   8.651 -0.2813  0.4840  0.1957
 4907SOL    HW226355   1.091   0.671   8.699 -0.2395  0.1320  0.4951
 4908SOL     OW26356   1.979   2.829   2.284 -0.1706  0.5113 -0.5265
 4908SOL    HW126357   2.062   2.817   2.330  0.5763  2.4331 -1.3514
 4908SOL    HW226358   1.949   2.744   2.251  1.4575 -0.3502  0.2471
 4909SOL     OW26359   1.428   2.697   5.478  0.0038 -0.2588  0.0659
 4909SOL    HW126360   1.519   2.728   5.474 -0.2781  0.3709 -1.4450
 4909SOL    HW226361   1.418   2.704   5.572 -0.1453  0.4760 -0.0096
 4910SOL     OW26362   4.523   2.639   8.788 -0.5430  0.6583  0.1957
 4910SOL    HW126363   4.606   2.594   8.803 -0.9440  0.4177  1.6759
 4910SOL    HW226364   4.490   2.589   8.713  1.4569  0.5838 -0.6358
 4911SOL     OW26365   0.806   4.462  15.141  0.0832  0.3963 -0.2843
 4911SOL    HW126366   0.811   4.369  15.123 -3.4586 -0.1413  1.4741
 4911SOL    HW226367   0.789   4.490  15.051 -3.2822  1.8092  0.7838
 4912SOL     OW26368   1.115   3.621   2.205 -0.2666  0.1271  0.0067
 4912SOL    HW126369   1.172   3.627   2.129 -0.7328  0.0242 -0.3539
 4912SOL    HW226370   1.049   3.565   2.165 -1.4418 -0.5424  2.8296
 4913SOL     OW26371   2.049   3.130   4.907 -0.2409  0.4470  0.1961
 4913SOL    HW126372   2.108   3.205   4.915 -0.8822  1.0255 -0.5776
 4913SOL    HW226373   1.976   3.152   4.964 -0.9436 -0.4616 -0.3386
 4914SOL     OW26374   4.376   0.834   6.462 -0.3904 -0.7313  0.0616
 4914SOL    HW126375   4.323   0.797   6.391  0.0630 -1.9022  0.3347
 4914SOL    HW226376   4.325   0.803   6.537  1.1516  0.2279  1.4878
 4915SOL     OW26377   3.917   3.050  17.238 -0.5386 -0.3124  0.1065
 4915SOL    HW126378   3.920   3.118  17.305 -2.5030 -0.4738  0.3542
 4915SOL    HW226379   4.008   3.037  17.211 -1.1707 -0.8696 -1.7571
 4916SOL     OW26380   2.485   3.565   6.291 -0.0079 -0.1243 -0.6902
 4916SOL    HW126381   2.555   3.507   6.321  0.3706 -0.4735 -2.2331
 4916SOL    HW226382   2.527   3.650   6.277 -0.8922  0.3466 -0.4589
 4917SOL     OW26383   1.938   2.226  17.076 -0.3044  0.1857  0.2960
 4917SOL    HW126384   1.878   2.266  17.012 -0.4439  0.0247  0.3273
 4917SOL    HW226385   2.007   2.194  17.018  0.7859 -1.2501  2.3977
 4918SOL     OW26386   4.382   1.149   2.377  0.9535  0.2597  0.1166
 4918SOL    HW126387   4.443   1.214   2.342  0.8977  0.0887 -0.2922
 4918SOL    HW226388   4.428   1.065   2.368 -1.2332 -0.4814 -3.9119
 4919SOL     OW26389   1.571   0.945   9.927  0.0501  0.1677 -0.1056
 4919SOL    HW126390   1.662   0.920   9.942  0.2007  0.8416  0.1077
 4919SOL    HW226391   1.578   1.029   9.882 -1.2771  0.4988  0.3098
 4920SOL     OW26392   0.183   0.858   8.999  0.0155  1.1567 -0.1261
 4920SOL    HW126393   0.146   0.850   8.911 -0.5124 -0.3439  0.2298
 4920SOL    HW226394   0.274   0.831   8.989 -0.5514 -0.7605 -0.1141
 4921SOL     OW26395   2.344   1.391   6.220 -0.2206  0.1666  0.0079
 4921SOL    HW126396   2.254   1.381   6.188  0.5271 -1.0064 -1.7278
 4921SOL    HW226397   2.367   1.298   6.209  0.7754  0.3873  0.2352
 4922SOL     OW26398   0.565   1.971   2.616  0.2588  0.0585 -0.0649
 4922SOL    HW126399   0.526   1.973   2.703  2.1363 -1.5550  0.8123
 4922SOL    HW226400   0.574   1.876   2.608 -0.8974  0.2228 -3.0420
 4923SOL     OW26401   2.809   2.697   7.105  0.6991 -0.0196  0.0636
 4923SOL    HW126402   2.737   2.637   7.085  0.9382 -0.5155  0.6896
 4923SOL    HW226403   2.876   2.641   7.143 -1.8213 -2.9639  0.1407
 4924SOL     OW26404   0.490   3.788   1.889 -0.7122 -0.6439  0.0577
 4924SOL    HW126405   0.519   3.878   1.905  1.2791 -0.8660 -2.2054
 4924SOL    HW226406   0.526   3.770   1.802  0.8077 -4.2616  1.3952
 4925SOL     OW26407   1.712   1.054   7.014  0.3568  0.2006 -0.1930
 4925SOL    HW126408   1.730   1.113   6.940  3.5193 -2.5739 -1.6268
 4925SOL    HW226409   1.742   1.113   7.083 -2.8611  1.1358  0.4162
 4926SOL     OW26410   2.905   0.614   8.532 -0.1390 -0.1773 -0.0156
 4926SOL    HW126411   2.987   0.664   8.534  0.0199 -0.3936 -1.4407
 4926SOL    HW226412   2.849   0.683   8.497  1.0463 -0.4263 -2.3496
 4927SOL     OW26413   4.266   4.484   1.093  0.1269  0.0096  0.7329
 4927SOL    HW126414   4.238   4.495   1.003  1.1087  1.0130  0.5489
 4927SOL    HW226415   4.352   4.442   1.089 -0.1756 -0.4523 -0.6723
 4928SOL     OW26416   1.897   1.884   2.675 -0.0646  0.0104 -0.3430
 4928SOL    HW126417   1.943   1.801   2.664 -1.6564 -0.6692 -1.7215
 4928SOL    HW226418   1.830   1.861   2.739 -0.3154  1.5975 -0.0325
 4929SOL     OW26419   1.807   2.107   4.170  0.1427 -0.7324 -0.5412
 4929SOL    HW126420   1.755   2.148   4.239  0.2122 -1.4668 -0.0578
 4929SOL    HW226421   1.748   2.038   4.140 -0.8526 -0.3715  0.5837
 4930SOL     OW26422   2.347   0.040   8.321 -0.2843  0.7516 -0.7416
 4930SOL    HW126423   2.423   0.091   8.294  0.2929 -0.0943 -0.7061
 4930SOL    HW226424   2.272   0.098   8.305 -0.3410  0.7333 -0.5441
 4931SOL     OW26425   3.889   2.191   9.292 -0.2886  0.2485  0.7121
 4931SOL    HW126426   3.848   2.256   9.235  0.7452 -0.2263 -0.5893
 4931SOL    HW226427   3.970   2.165   9.247 -1.4539 -2.4900  0.2078
 4932SOL     OW26428   2.732   1.590   4.768  0.7852  0.1932 -0.0266
 4932SOL    HW126429   2.776   1.661   4.722  2.2048  1.0329  2.6150
 4932SOL    HW226430   2.769   1.600   4.855 -0.9473  1.6608  0.5472
 4933SOL     OW26431   0.410   2.637   7.033  0.2972 -1.3050 -0.5566
 4933SOL    HW126432   0.463   2.571   6.988 -0.5954 -2.4654  0.1160
 4933SOL    HW226433   0.320   2.614   7.008  0.2589 -1.7764  0.0261
 4934SOL     OW26434   2.468   2.581  17.398  0.8579  0.3711  0.1693
 4934SOL    HW126435   2.486   2.506  17.341 -2.1112 -0.9680  0.9494
 4934SOL    HW226436   2.372   2.580  17.392  0.7204  0.0020  2.2689
 4935SOL     OW26437   1.538   3.642   7.234 -0.1777  0.2506  0.2503
 4935SOL    HW126438   1.629   3.666   7.249 -0.8946  2.7644  0.5679
 4935SOL    HW226439   1.513   3.601   7.316 -1.1285  2.8015  1.2590
 4936SOL     OW26440   2.738   0.401   7.534  0.6076 -0.1146  0.1617
 4936SOL    HW126441   2.763   0.317   7.495 -1.0209 -0.9297  0.8859
 4936SOL    HW226442   2.750   0.464   7.463  1.6243 -1.0365 -0.4879
 4937SOL     OW26443   3.078   0.973   2.581  0.1943  0.1430 -0.1835
 4937SOL    HW126444   3.022   0.981   2.659 -0.3904  1.8704 -0.7754
 4937SOL    HW226445   3.056   1.046   2.523 -3.2248 -0.1414  0.7379
 4938SOL     OW26446   2.326   0.171   8.757  0.4698  0.0458  0.0944
 4938SOL    HW126447   2.396   0.152   8.819 -0.8937 -1.0812  1.2611
 4938SOL    HW226448   2.361   0.120   8.684  2.2252 -0.3257  1.1902
 4939SOL     OW26449   0.271   3.870  10.050  0.1315 -0.0691  0.4098
 4939SOL    HW126450   0.365   3.870  10.031  0.4057 -1.8112  1.7416
 4939SOL    HW226451   0.228   3.813   9.987  0.5009  1.2579 -1.0303
 4940SOL     OW26452   2.796   3.551   5.609  0.0662  0.6605  0.4783
 4940SOL    HW126453   2.866   3.602   5.650  2.2150 -0.8504 -1.2828
 4940SOL    HW226454   2.848   3.487   5.561  0.5121  1.1816  0.2611
 4941SOL     OW26455   0.051   2.525   5.610  0.2421 -0.0270  0.2820
 4941SOL    HW126456   0.020   2.602   5.657 -0.6000 -0.9247  1.1810
 4941SOL    HW226457   0.110   2.561   5.543  1.2329 -0.0977  1.1270
 4942SOL     OW26458   3.829   3.365   5.112  0.1273 -0.6571 -0.1177
 4942SOL    HW126459   3.830   3.455   5.077 -1.0293  0.1240  1.8845
 4942SOL    HW226460   3.736   3.348   5.097 -0.8123  2.0841  2.6203
 4943SOL     OW26461   3.213   1.964   3.144 -0.5324 -0.4750  0.1305
 4943SOL    HW126462   3.291   1.996   3.098 -0.8579  0.4186  0.2146
 4943SOL    HW226463   3.230   1.996   3.232  1.6892 -2.3860  0.4272
 4944SOL     OW26464   3.733   2.889   4.164  0.3058 -0.1797 -0.2589
 4944SOL    HW126465   3.829   2.892   4.161  0.3491  0.0586  1.3952
 4944SOL    HW226466   3.726   2.970   4.214  0.6419 -1.5569  2.0008
 4945SOL     OW26467   3.718   1.180   7.370  0.4009 -0.2048  0.6393
 4945SOL    HW126468   3.705   1.244   7.441 -2.3220 -1.0987  0.9290
 4945SOL    HW226469   3.796   1.217   7.329  0.0866  0.9485  1.0698
 4946SOL     OW26470   0.674   1.748   2.003 -0.4828 -0.3308  0.1059
 4946SOL    HW126471   0.609   1.720   2.067  0.6236 -0.4164  1.1984
 4946SOL    HW226472   0.673   1.843   2.016  0.3285 -0.3849  0.5599
 4947SOL     OW26473   2.923   1.116  15.881  0.9182 -0.4685  0.1885
 4947SOL    HW126474   2.957   1.185  15.824  1.5966 -1.1165 -0.1917
 4947SOL    HW226475   2.905   1.170  15.958 -1.2611 -0.8435 -0.0653
 4948SOL     OW26476   2.141   2.482   4.018 -0.6723 -0.1057 -0.0096
 4948SOL    HW126477   2.064   2.431   4.040  0.7164 -1.6562  1.2647
 4948SOL    HW226478   2.102   2.566   3.993  0.1315  0.1373 -0.4651
 4949SOL     OW26479   0.974   1.384   8.882 -0.3188 -0.1484  0.1097
 4949SOL    HW126480   1.017   1.386   8.968  1.7861  0.6228 -0.9428
 4949SOL    HW226481   0.988   1.472   8.847 -2.1516 -0.9100 -2.5256
 4950SOL     OW26482   0.673   2.270  11.192  0.6717 -0.2691 -0.2178
 4950SOL    HW126483   0.709   2.326  11.261 -0.8381  2.1022 -1.3513
 4950SOL    HW226484   0.581   2.294  11.199  0.2168 -2.0801  0.0108
 4951SOL     OW26485   2.346   1.330  11.469 -0.8261 -0.0215 -0.4610
 4951SOL    HW126486   2.290   1.311  11.544  1.0666 -0.5780  0.8213
 4951SOL    HW226487   2.418   1.370  11.518 -1.3206 -0.0284  0.2722
 4952SOL     OW26488   1.911   3.540   4.751  0.2723 -0.3672  0.3992
 4952SOL    HW126489   1.943   3.587   4.828  0.7116 -1.8525  1.1226
 4952SOL    HW226490   1.912   3.615   4.691 -1.0008  0.5936  1.5944
 4953SOL     OW26491   0.641   0.051   6.184 -0.4175 -0.0673 -0.6141
 4953SOL    HW126492   0.728   0.013   6.190 -0.9350 -0.8506  1.9725
 4953SOL    HW226493   0.660   0.140   6.154  0.2831 -0.6736 -1.9530
 4954SOL     OW26494   0.099   1.197  17.351  0.2084  0.4872  0.4985
 4954SOL    HW126495   0.012   1.159  17.346 -0.6392  2.4381  0.1145
 4954SOL    HW226496   0.115   1.207  17.445  0.5401 -2.5534  0.7384
 4955SOL     OW26497   3.444   3.239   4.357  0.0315  0.1018  0.5175
 4955SOL    HW126498   3.469   3.250   4.449  0.1285  0.2839  0.4699
 4955SOL    HW226499   3.434   3.331   4.335 -1.1071 -0.8610 -2.9878
 4956SOL     OW26500   3.955   3.528   8.984  0.4737  0.7551  0.0508
 4956SOL    HW126501   4.042   3.495   9.002  0.0840  0.2318  0.9781
 4956SOL    HW226502   3.960   3.562   8.894 -0.8195 -0.4086 -0.4579
 4957SOL     OW26503   0.660   1.143   3.298  0.6787  0.4516  0.4755
 4957SOL    HW126504   0.715   1.076   3.340  0.8633  0.1775 -0.2058
 4957SOL    HW226505   0.585   1.096   3.261  1.2252  0.3699 -0.5192
 4958SOL     OW26506   2.127   3.159   7.740  0.7411  0.5026 -0.2354
 4958SOL    HW126507   2.093   3.187   7.654  2.8458  1.5069 -0.7593
 4958SOL    HW226508   2.151   3.069   7.720  3.1188  1.2408 -0.7268
 4959SOL     OW26509   2.110   4.055   4.071 -0.4150 -0.0363 -0.2122
 4959SOL    HW126510   2.022   4.075   4.039 -0.8098 -1.2530  0.1206
 4959SOL    HW226511   2.164   4.124   4.031  1.3422 -1.8064 -0.8767
 4960SOL     OW26512   0.719   1.940   5.836  0.2280 -0.1551  0.2510
 4960SOL    HW126513   0.666   1.900   5.767 -2.4863  2.4020  0.8651
 4960SOL    HW226514   0.715   2.031   5.810 -2.0453  0.0592  1.3836
 4961SOL     OW26515   3.809   4.500   4.894  0.0774  0.1253 -0.3511
 4961SOL    HW126516   3.814   4.587   4.934  0.8309  0.1048 -0.3907
 4961SOL    HW226517   3.726   4.520   4.851 -0.8119 -0.8523  0.9514
 4962SOL     OW26518   2.986   1.197  17.489 -0.1814 -0.4006  0.1514
 4962SOL    HW126519   3.065   1.221  17.537 -1.6267  0.2641  2.2312
 4962SOL    HW226520   3.010   1.218  17.399  0.0907  0.0369  0.3224
 4963SOL     OW26521   3.830   1.473   4.817 -0.0731 -0.3227  0.3517
 4963SOL    HW126522   3.837   1.483   4.911 -1.9422 -1.2186  0.5992
 4963SOL    HW226523   3.750   1.422   4.806  0.2230 -0.3932 -1.5469
 4964SOL     OW26524   0.758   0.361   2.952  0.5154  0.2810  0.2822
 4964SOL    HW126525   0.690   0.418   2.916 -1.3777  0.2985  3.9415
 4964SOL    HW226526   0.827   0.413   2.913  1.1574  0.0586  1.1310
 4965SOL     OW26527   1.298   2.785   9.396  0.9485  0.4802 -0.0400
 4965SOL    HW126528   1.296   2.855   9.330  0.2264 -0.4348 -0.9887
 4965SOL    HW226529   1.242   2.723   9.348 -0.6397 -0.7535  3.3925
 4966SOL     OW26530   0.702   0.131   8.064 -0.0543 -0.0626  0.4068
 4966SOL    HW126531   0.692   0.197   8.133 -1.3700  1.8346 -1.6002
 4966SOL    HW226532   0.798   0.136   8.055 -0.2510  0.0721 -1.6377
 4967SOL     OW26533   3.238   0.934   3.133  0.2558 -0.1721 -0.4838
 4967SOL    HW126534   3.218   0.998   3.201  0.4339 -2.1216  1.3729
 4967SOL    HW226535   3.247   0.856   3.188  2.3528  0.3875 -0.0223
 4968SOL     OW26536   4.074   0.780  11.009  0.5750  0.1580 -0.1471
 4968SOL    HW126537   3.997   0.726  10.993  1.7616 -0.9401 -2.2410
 4968SOL    HW226538   4.040   0.843  11.072  1.3132 -1.6507  2.0704
 4969SOL     OW26539   0.626   1.472   1.939  0.0512  0.1446  0.3200
 4969SOL    HW126540   0.676   1.504   2.014  2.9049 -1.6532 -0.8248
 4969SOL    HW226541   0.631   1.546   1.878  0.9601 -1.3930 -1.4695
 4970SOL     OW26542   1.251   1.452   2.903 -0.2569  0.0273 -0.4212
 4970SOL    HW126543   1.207   1.460   2.988 -0.6523 -1.9167 -0.4474
 4970SOL    HW226544   1.254   1.540   2.863 -2.7455  0.4039  0.2289
 4971SOL     OW26545   3.939   0.421   1.618 -0.0806 -0.2847  0.7822
 4971SOL    HW126546   3.872   0.411   1.550  0.7476  0.1657 -0.0976
 4971SOL    HW226547   3.923   0.342   1.671 -0.8855 -0.4161  0.3498
 4972SOL     OW26548   0.588   0.677  10.836  0.6055 -0.1635  0.1480
 4972SOL    HW126549   0.540   0.636  10.908  1.4886  0.1989  0.9445
 4972SOL    HW226550   0.584   0.606  10.773  0.7938 -0.1127  0.0792
 4973SOL     OW26551   1.740   2.335   8.465 -0.0341  0.8388 -0.0623
 4973SOL    HW126552   1.713   2.425   8.451 -1.8727  0.4043  0.5995
 4973SOL    HW226553   1.756   2.330   8.371  0.7464  3.4537 -0.0653
 4974SOL     OW26554   3.861   4.546   7.181 -0.0653 -0.2696  0.3211
 4974SOL    HW126555   3.902   4.524   7.265  0.8558 -2.4479 -0.6986
 4974SOL    HW226556   3.939   4.580   7.137  1.4894  0.2521  3.4414
 4975SOL     OW26557   2.910   2.798   8.425  0.2334  0.4409 -0.0158
 4975SOL    HW126558   2.962   2.802   8.345  0.1762  1.6194  0.0026
 4975SOL    HW226559   2.832   2.840   8.388  1.4981  3.8341  1.1701
 4976SOL     OW26560   2.049   0.123   4.451  0.0933  0.4904  0.6664
 4976SOL    HW126561   2.095   0.111   4.534 -1.2919 -2.8536  0.9514
 4976SOL    HW226562   1.956   0.117   4.474 -0.0059  0.7723  0.3292
 4977SOL     OW26563   2.001   2.090  17.750 -0.5379 -0.1862 -0.5079
 4977SOL    HW126564   1.941   2.019  17.725 -1.9171  0.5472  0.7087
 4977SOL    HW226565   2.080   2.041   0.016  1.3880  2.3221 -2.0931
 4978SOL     OW26566   2.318   0.875   2.550 -0.4831 -0.1456 -0.7442
 4978SOL    HW126567   2.307   0.969   2.540  0.3249 -0.0545 -0.7296
 4978SOL    HW226568   2.248   0.856   2.613 -0.0615  0.3673 -0.1207
 4979SOL     OW26569   2.822   3.348   1.980  0.2001  0.2632  0.3722
 4979SOL    HW126570   2.822   3.258   2.013  0.1032 -0.4999 -1.7448
 4979SOL    HW226571   2.765   3.344   1.903 -0.6175  1.3938  0.9213
 4980SOL     OW26572   1.841   3.187   1.560  0.0416 -0.6610 -0.0605
 4980SOL    HW126573   1.883   3.273   1.566  1.3491 -1.2993 -0.0157
 4980SOL    HW226574   1.879   3.139   1.634  0.4106  1.2937  1.0450
 4981SOL     OW26575   0.176   0.413   7.553 -0.1107  0.2548  0.2170
 4981SOL    HW126576   0.224   0.361   7.618  0.7510  0.9341  0.1215
 4981SOL    HW226577   0.222   0.398   7.471 -0.4109  0.8198 -0.0505
 4982SOL     OW26578   3.692   3.800   4.113 -0.0039  0.1095 -0.4919
 4982SOL    HW126579   3.726   3.711   4.113 -2.6233 -0.9321 -5.2623
 4982SOL    HW226580   3.604   3.792   4.151  1.0438 -0.8391  1.7304
 4983SOL     OW26581   2.446   2.824   6.246 -0.2310 -0.2136 -0.3908
 4983SOL    HW126582   2.457   2.920   6.248  1.8058 -0.4452 -1.0715
 4983SOL    HW226583   2.461   2.791   6.335 -2.5952  4.6282  1.8650
 4984SOL     OW26584   2.663   0.995   9.252  0.3184 -0.3870 -0.3247
 4984SOL    HW126585   2.582   1.030   9.215 -0.3918 -2.0298 -0.3263
 4984SOL    HW226586   2.624   0.936   9.316 -0.8675  1.0598  0.3004
 4985SOL     OW26587   4.294   2.214   9.184 -0.0591 -0.1810 -0.2784
 4985SOL    HW126588   4.259   2.300   9.161  0.3922 -0.0056 -0.3042
 4985SOL    HW226589   4.309   2.236   9.276 -0.3456 -0.8133 -0.0788
 4986SOL     OW26590   0.522   4.292   7.661 -0.0604  0.2579  0.3484
 4986SOL    HW126591   0.499   4.367   7.715 -0.2372 -0.8110  1.7450
 4986SOL    HW226592   0.616   4.278   7.666 -0.0657 -0.6140 -1.9544
 4987SOL     OW26593   4.569   3.271  14.284 -0.1913 -0.6858 -0.1931
 4987SOL    HW126594   4.564   3.179  14.311  2.6009 -0.6517  0.4742
 4987SOL    HW226595   4.477   3.296  14.275  0.3432  2.1888  2.6157
 4988SOL     OW26596   4.317   4.124  15.555  0.1735 -0.0530 -0.1419
 4988SOL    HW126597   4.232   4.165  15.570  1.5479  2.2866  1.2883
 4988SOL    HW226598   4.373   4.190  15.596 -0.6930  1.5087 -1.4348
 4989SOL     OW26599   0.353   2.067   9.667 -0.6518  0.5640  0.2341
 4989SOL    HW126600   0.427   2.126   9.679 -1.0947  0.8971  1.3502
 4989SOL    HW226601   0.298   2.086   9.743 -1.7588  1.7306 -0.8442
 4990SOL     OW26602   4.420   4.165   1.675  0.3205 -0.4198 -0.1166
 4990SOL    HW126603   4.372   4.143   1.755  0.6199  1.1403  0.4840
 4990SOL    HW226604   4.347   4.182   1.615 -1.3281 -1.5435  1.5808
 4991SOL     OW26605   4.174   4.611   1.510  0.0990  0.5023 -0.2088
 4991SOL    HW126606   4.105   4.618   1.576  0.3087  1.5132 -0.0971
 4991SOL    HW226607   4.172   4.704   1.486  0.5523  0.5004 -0.2631
 4992SOL     OW26608   0.517   3.503   8.111 -0.7603  0.7230  0.1193
 4992SOL    HW126609   0.558   3.424   8.078  0.7509  1.0721  1.1452
 4992SOL    HW226610   0.553   3.564   8.047 -0.3242  0.8073  0.4429
 4993SOL     OW26611   1.904   1.164   1.892  0.3023  0.0388 -0.0745
 4993SOL    HW126612   1.827   1.142   1.945 -1.5465  0.1170 -2.6820
 4993SOL    HW226613   1.976   1.107   1.916 -0.1926 -1.0267 -1.1244
 4994SOL     OW26614   1.465   0.140   9.828 -0.1307 -0.4523  0.7092
 4994SOL    HW126615   1.427   0.228   9.823  1.8006  0.3909  0.5770
 4994SOL    HW226616   1.558   0.156   9.812 -0.3508  0.4287  0.3119
 4995SOL     OW26617   1.650   1.510   5.299  0.2771  0.5215  0.2150
 4995SOL    HW126618   1.623   1.539   5.212  0.4565 -1.0138 -0.3566
 4995SOL    HW226619   1.744   1.502   5.287  0.5608  2.2349  1.3521
 4996SOL     OW26620   2.805   3.192   9.665 -0.0242 -0.1735  0.2231
 4996SOL    HW126621   2.802   3.115   9.722  1.3226  0.2829  0.9165
 4996SOL    HW226622   2.863   3.161   9.595 -2.3758 -0.3458 -1.6562
 4997SOL     OW26623   3.379   3.200   2.816 -0.2568  0.4451 -0.4523
 4997SOL    HW126624   3.438   3.246   2.757  0.2420 -1.5649 -1.5245
 4997SOL    HW226625   3.333   3.270   2.862 -0.1969 -0.3289  0.7749
 4998SOL     OW26626   3.100   2.207   9.094 -0.5573 -0.4991 -0.1858
 4998SOL    HW126627   3.076   2.204   9.001  0.1977 -1.4239 -0.3536
 4998SOL    HW226628   3.020   2.176   9.135 -1.0117  2.3904  1.1115
 4999SOL     OW26629   1.456   1.641   9.284  0.1734 -0.3881  0.0442
 4999SOL    HW126630   1.389   1.584   9.245 -0.4723  1.3895 -1.4167
 4999SOL    HW226631   1.401   1.712   9.317  1.8837  0.4631  1.0455
 5000SOL     OW26632   1.429   3.074  17.559 -0.0467  0.2821 -0.2915
 5000SOL    HW126633   1.449   2.996  17.508 -2.3729 -0.0136 -0.7670
 5000SOL    HW226634   1.474   3.054  17.641 -0.8367  0.3242  0.1550
 5001SOL     OW26635   0.700   1.321   8.308  0.3312 -0.0221 -0.3956
 5001SOL    HW126636   0.762   1.259   8.271 -0.0022 -0.8996  0.5117
 5001SOL    HW226637   0.642   1.258   8.350 -0.1904 -0.1877 -1.3637
 5002SOL     OW26638   0.037   2.577   7.267 -0.6973 -0.0231  0.2805
 5002SOL    HW126639   0.002   2.635   7.336 -0.0948  0.2345  0.3668
 5002SOL    HW226640   0.121   2.620   7.253 -0.6214 -0.8113 -1.5767
 5003SOL     OW26641   2.101   3.310   3.573 -0.0022  0.0076 -0.3987
 5003SOL    HW126642   2.015   3.283   3.542 -1.4162  0.5095  3.0701
 5003SOL    HW226643   2.113   3.248   3.645  2.6811  1.2737  0.2423
 5004SOL     OW26644   1.390   1.892   1.830  0.3132 -0.0621 -0.5187
 5004SOL    HW126645   1.396   1.988   1.829  0.9434 -0.0688  2.7772
 5004SOL    HW226646   1.296   1.881   1.825  0.2566  0.8291 -1.5518
 5005SOL     OW26647   0.666   1.704  10.173 -0.0760  0.2823 -0.1541
 5005SOL    HW126648   0.684   1.734  10.084 -0.2973  0.2135 -0.2224
 5005SOL    HW226649   0.721   1.761  10.226 -2.2474  0.9100  1.4170
 5006SOL     OW26650   3.472   4.555   5.528  0.1455 -0.1894 -0.3165
 5006SOL    HW126651   3.484   4.478   5.584 -0.5562  1.9631  2.8427
 5006SOL    HW226652   3.378   4.560   5.545  0.3871  0.6693  0.7890
 5007SOL     OW26653   0.514   2.681   3.934 -0.0626  0.2991 -0.0342
 5007SOL    HW126654   0.540   2.615   3.998  1.6128  0.6949 -0.3004
 5007SOL    HW226655   0.467   2.621   3.876  0.8558 -2.0574  1.6299
 5008SOL     OW26656   4.473   3.309   4.634 -0.4239 -0.4681 -0.5807
 5008SOL    HW126657   4.440   3.362   4.562 -2.2151  0.9203  1.2595
 5008SOL    HW226658   4.398   3.249   4.637 -0.9247  0.0935 -1.8930
 5009SOL     OW26659   0.420   4.567   5.597 -0.0586 -0.0772 -0.3992
 5009SOL    HW126660   0.416   4.581   5.503  3.0419 -2.7181 -0.9296
 5009SOL    HW226661   0.478   4.643   5.608 -1.5412  1.1383 -1.0279
 5010SOL     OW26662   1.581   3.990   5.492 -0.4982  0.0496 -0.3235
 5010SOL    HW126663   1.626   3.951   5.417  1.0078 -0.4657  0.8627
 5010SOL    HW226664   1.523   4.053   5.449 -1.2895  0.3099  1.1259
 5011SOL     OW26665   3.487   3.990   0.158  0.6385  0.6304  0.3260
 5011SOL    HW126666   3.421   3.925   0.179  2.0178 -0.6216  0.8171
 5011SOL    HW226667   3.483   4.006   0.064 -0.5486  1.3195  0.4952
 5012SOL     OW26668   4.443   3.802   7.466 -0.0101 -0.3123 -0.0223
 5012SOL    HW126669   4.416   3.880   7.513  0.9813  0.8873 -1.4463
 5012SOL    HW226670   4.363   3.750   7.453  0.3130 -1.0141  0.7920
 5013SOL     OW26671   2.130   2.525  10.822 -0.3656 -0.3983 -0.4110
 5013SOL    HW126672   2.156   2.617  10.826 -1.6542 -0.1289  2.0425
 5013SOL    HW226673   2.082   2.530  10.740  2.4038  1.0782 -1.9250
 5014SOL     OW26674   3.580   4.418  16.451  0.0798  0.7910  0.3963
 5014SOL    HW126675   3.521   4.429  16.376 -0.2720  2.0434  0.8536
 5014SOL    HW226676   3.547   4.341  16.497  0.1368  0.3966 -0.2248
 5015SOL     OW26677   1.758   0.151  13.433  0.1122  0.1947 -0.5310
 5015SOL    HW126678   1.813   0.227  13.417  0.8482 -0.1411  0.4176
 5015SOL    HW226679   1.675   0.194  13.415 -0.7382 -1.2618 -0.1311
 5016SOL     OW26680   2.634   2.369  10.814  0.1089 -0.1316 -0.0064
 5016SOL    HW126681   2.542   2.387  10.831  0.5984  0.0677  2.3531
 5016SOL    HW226682   2.672   2.423  10.883  0.6171 -0.0032 -0.3794
 5017SOL     OW26683   0.126   3.942   9.007 -0.7497  0.5200  0.4499
 5017SOL    HW126684   0.059   3.879   8.980 -0.7217  0.2737  0.9566
 5017SOL    HW226685   0.104   4.017   8.953  0.5467  0.3089 -0.3659
 5018SOL     OW26686   0.497   0.951   5.817  0.3240  0.2594  0.4405
 5018SOL    HW126687   0.525   0.861   5.801 -0.0457  0.3620 -0.7500
 5018SOL    HW226688   0.571   0.989   5.864  1.2468  0.7717 -1.4322
 5019SOL     OW26689   2.592   2.176  15.053 -0.0920  0.3311 -0.0770
 5019SOL    HW126690   2.541   2.170  15.134 -0.0233  0.8556  0.0096
 5019SOL    HW226691   2.644   2.096  15.052 -1.2427 -0.4228 -0.1756
 5020SOL     OW26692   3.510   2.738   4.229 -0.5290 -0.0603 -0.4650
 5020SOL    HW126693   3.482   2.784   4.308  0.9204 -0.4577  0.2850
 5020SOL    HW226694   3.587   2.794   4.216 -1.5225  1.1578 -1.0333
 5021SOL     OW26695   1.416   3.462   9.886  0.6858  1.3589 -0.4162
 5021SOL    HW126696   1.508   3.457   9.914  0.9416  2.0639 -1.1046
 5021SOL    HW226697   1.373   3.414   9.956  1.7815  2.8793  1.3237
 5022SOL     OW26698   1.531   1.744   6.164 -0.0649 -0.3357 -0.1714
 5022SOL    HW126699   1.609   1.799   6.168  0.1397 -0.7073  1.1524
 5022SOL    HW226700   1.480   1.773   6.239 -0.1674  1.4995 -0.9546
 5023SOL     OW26701   0.856   3.741   1.977 -0.0875 -0.1262 -0.1025
 5023SOL    HW126702   0.790   3.689   2.022  0.4270 -0.9592 -0.3159
 5023SOL    HW226703   0.891   3.690   1.905  3.3961  0.3249  1.2335
 5024SOL     OW26704   3.869   0.725  14.892 -0.4730 -0.1867  0.3741
 5024SOL    HW126705   3.948   0.696  14.845 -1.3449 -1.1811 -0.5121
 5024SOL    HW226706   3.832   0.642  14.923 -0.8986 -0.5928 -1.1997
 5025SOL     OW26707   0.534   1.223   5.705 -0.2353  0.2910 -0.1836
 5025SOL    HW126708   0.499   1.140   5.736 -1.2452  0.6193 -0.4513
 5025SOL    HW226709   0.527   1.206   5.611  2.0247 -1.2583 -0.0464
 5026SOL     OW26710   3.751   2.534   3.198 -0.0979  0.0311  0.3264
 5026SOL    HW126711   3.716   2.622   3.184  0.8407  0.3206 -0.2224
 5026SOL    HW226712   3.840   2.554   3.168 -1.3343  1.7312 -2.1380
 5027SOL     OW26713   2.597   3.869   7.472  0.1680  0.2991  0.2608
 5027SOL    HW126714   2.583   3.915   7.555 -1.3833 -0.1423  0.2483
 5027SOL    HW226715   2.570   3.780   7.494 -1.6643  0.5810 -0.8534
 5028SOL     OW26716   3.486   0.563   6.561 -0.0243  0.1132 -0.2998
 5028SOL    HW126717   3.485   0.482   6.612  1.9862  1.2801  1.6063
 5028SOL    HW226718   3.498   0.636   6.622  0.7595 -1.7540  1.7742
 5029SOL     OW26719   2.173   0.179   4.004  0.4543 -0.0204 -0.1055
 5029SOL    HW126720   2.192   0.130   4.084  1.4024  0.1866 -0.2011
 5029SOL    HW226721   2.156   0.112   3.937  2.6766 -1.6590  0.9476
 5030SOL     OW26722   1.588   4.186   6.265  0.9661  0.2937 -0.2452
 5030SOL    HW126723   1.581   4.259   6.326 -0.4536  0.4407 -0.5604
 5030SOL    HW226724   1.667   4.223   6.225 -0.0165  2.5497 -0.1145
 5031SOL     OW26725   0.735   4.256   5.782 -0.0777  0.1093  0.1264
 5031SOL    HW126726   0.685   4.178   5.806  1.6048 -1.3137 -0.9596
 5031SOL    HW226727   0.709   4.271   5.691 -0.0593  0.4202  0.1729
 5032SOL     OW26728   0.076   2.229   7.086 -0.6121 -0.4241 -0.0305
 5032SOL    HW126729   0.049   2.163   7.022 -1.6565 -0.4373  0.4269
 5032SOL    HW226730   0.115   2.178   7.156  0.3549  0.1550 -0.1515
 5033SOL     OW26731   2.040   4.263   5.993  0.0333  0.6616  0.3187
 5033SOL    HW126732   2.078   4.349   5.972  0.2165  0.6588  0.6446
 5033SOL    HW226733   2.103   4.221   6.051  2.3669  2.0442 -1.2063
 5034SOL     OW26734   1.256   3.419   6.458  0.0137  0.8796 -0.4849
 5034SOL    HW126735   1.190   3.429   6.527 -0.0774  0.8168 -0.5637
 5034SOL    HW226736   1.329   3.460   6.505 -0.5009 -1.0754  2.0240
 5035SOL     OW26737   3.983   2.255   4.882 -0.1187  0.1025 -0.1504
 5035SOL    HW126738   4.005   2.303   4.962  0.4479 -2.8522  1.5090
 5035SOL    HW226739   3.937   2.176   4.912  1.5673 -1.8337 -2.6784
 5036SOL     OW26740   4.256   3.704   0.119 -0.1244  0.5326 -0.4286
 5036SOL    HW126741   4.318   3.760   0.164  0.1491  0.0618 -0.2291
 5036SOL    HW226742   4.241   3.627   0.174  1.4550  0.9194  0.5256
 5037SOL     OW26743   3.855   4.169  16.854  0.3524 -0.1341  0.3378
 5037SOL    HW126744   3.850   4.179  16.949 -0.9842  1.5705  0.0836
 5037SOL    HW226745   3.779   4.220  16.826  0.4491 -0.8522 -1.2938
 5038SOL     OW26746   3.865   1.841   9.238  0.5740 -0.0732 -0.0803
 5038SOL    HW126747   3.791   1.897   9.261 -1.1038 -0.7190 -4.0313
 5038SOL    HW226748   3.934   1.907   9.228 -0.4964  1.3695  1.9017
 5039SOL     OW26749   1.415   4.613   7.713  1.1748  0.7035 -0.2062
 5039SOL    HW126750   1.469   4.542   7.677 -1.0559 -2.1610  2.0680
 5039SOL    HW226751   1.482   4.642   7.775  0.1529 -1.2041  1.8018
 5040SOL     OW26752   1.591   0.596   5.407 -0.3526  0.0064 -0.3609
 5040SOL    HW126753   1.546   0.512   5.406  1.3668 -0.9115  1.5858
 5040SOL    HW226754   1.681   0.571   5.425 -0.6903 -0.7829  0.2196
 5041SOL     OW26755   2.025   1.600  13.784 -0.4054  0.3783 -0.3529
 5041SOL    HW126756   2.019   1.558  13.870  1.5874 -0.6422 -0.7185
 5041SOL    HW226757   2.020   1.529  13.720 -0.4138  0.7986 -0.8216
 5042SOL     OW26758   3.248   4.517   1.984 -0.4081  0.1299  0.1479
 5042SOL    HW126759   3.197   4.588   1.945 -0.7969  0.1721  0.7224
 5042SOL    HW226760   3.229   4.539   2.076  0.1537  0.4386  0.1934
 5043SOL     OW26761   2.622   0.427   7.935  0.1296  0.4447  0.3530
 5043SOL    HW126762   2.531   0.417   7.905  0.5366  0.2504 -0.8466
 5043SOL    HW226763   2.615   0.480   8.014 -2.4432  0.7888 -0.0982
 5044SOL     OW26764   1.127   0.026   9.476 -0.1202 -0.2474  0.4715
 5044SOL    HW126765   1.222   0.022   9.483 -0.1149  0.8950  1.0209
 5044SOL    HW226766   1.128   0.069   9.391  2.0936 -0.7308  0.2759
 5045SOL     OW26767   3.845   2.555  14.217  0.7051  0.1824  0.5787
 5045SOL    HW126768   3.904   2.631  14.215  0.9260  0.0010  0.0293
 5045SOL    HW226769   3.762   2.601  14.210 -0.0338 -1.1654  0.6215
 5046SOL     OW26770   0.016   4.368   2.724  0.7581  0.3947 -0.1886
 5046SOL    HW126771   4.725   4.416   2.647  1.5025 -0.1412 -0.7950
 5046SOL    HW226772   4.704   4.399   2.800 -0.3848  0.9607 -1.1897
 5047SOL     OW26773   3.640   0.764   5.689 -0.2728 -0.4595  0.0809
 5047SOL    HW126774   3.663   0.798   5.775  0.0737  0.4573 -0.3637
 5047SOL    HW226775   3.571   0.702   5.710  1.1768 -2.2355 -0.4479
 5048SOL     OW26776   4.111   4.222   2.606  0.1922  0.5616  0.3309
 5048SOL    HW126777   4.128   4.316   2.604  1.6256  0.2794 -1.3957
 5048SOL    HW226778   4.111   4.213   2.701  0.9575  0.8359  0.3572
 5049SOL     OW26779   1.807   1.465  15.802  0.3628  0.6855  0.7058
 5049SOL    HW126780   1.765   1.432  15.881  0.4603 -0.4959  0.2746
 5049SOL    HW226781   1.806   1.385  15.749  1.4356  0.9453  0.2819
 5050SOL     OW26782   2.118   0.405   5.342  0.1376 -0.0322 -0.8496
 5050SOL    HW126783   2.194   0.350   5.361 -0.7782 -1.4778 -1.3417
 5050SOL    HW226784   2.089   0.426   5.431 -2.1669 -2.1614 -1.0898
 5051SOL     OW26785   0.795   3.915   7.943 -0.4112  0.0310  0.2077
 5051SOL    HW126786   0.790   4.010   7.933 -3.2045 -0.2490 -1.0946
 5051SOL    HW226787   0.865   3.890   7.882 -1.3940  0.1341 -0.9695
 5052SOL     OW26788   4.345   0.297   0.816 -0.3575 -0.1840  0.0569
 5052SOL    HW126789   4.413   0.360   0.795  0.0241  0.1329  2.1734
 5052SOL    HW226790   4.359   0.285   0.910  2.7490  0.7223 -0.2638
 5053SOL     OW26791   2.720   1.144   6.556  0.2516 -0.2308  0.4804
 5053SOL    HW126792   2.695   1.222   6.505 -0.6237 -1.3110 -0.7513
 5053SOL    HW226793   2.800   1.128   6.506  0.9887  0.4492  1.4414
 5054SOL     OW26794   2.375   0.296   7.976  0.6856  0.3369  0.3362
 5054SOL    HW126795   2.339   0.248   7.901 -1.4645  1.9494  0.3437
 5054SOL    HW226796   2.422   0.223   8.017  1.5898  0.6288 -0.1778
 5055SOL     OW26797   1.503   4.470   3.027  0.5521  0.3477  0.1937
 5055SOL    HW126798   1.586   4.453   2.983  1.1871 -0.7054  1.7762
 5055SOL    HW226799   1.459   4.516   2.956 -1.1480 -1.3026  0.1678
 5056SOL     OW26800   4.253   3.714   8.976  0.2618  0.4119  0.5344
 5056SOL    HW126801   4.231   3.622   8.993  2.1839  0.0538  1.1150
 5056SOL    HW226802   4.217   3.727   8.888  0.7785 -0.3039  0.2127
 5057SOL     OW26803   1.258   2.432   5.523 -0.2194  0.6279  0.1514
 5057SOL    HW126804   1.272   2.478   5.606  0.2374  0.6316  0.0738
 5057SOL    HW226805   1.291   2.347   5.552 -0.1525 -0.0200 -1.8610
 5058SOL     OW26806   3.497   0.038   3.861 -0.1489  0.1738  0.1102
 5058SOL    HW126807   3.505   0.119   3.910  0.6401 -0.7145  1.4353
 5058SOL    HW226808   3.405   0.037   3.832  0.0997 -0.2440 -0.6737
 5059SOL     OW26809   2.203   3.585   2.524  0.0302 -0.1941  0.1375
 5059SOL    HW126810   2.249   3.502   2.538  0.5967  0.5651  2.8711
 5059SOL    HW226811   2.170   3.581   2.434 -1.4126  0.7465  0.6346
 5060SOL     OW26812   0.928   0.347   6.196 -0.0797  0.4169 -0.2944
 5060SOL    HW126813   0.838   0.352   6.163 -0.0376 -3.2426 -0.9610
 5060SOL    HW226814   0.973   0.300   6.126 -0.1060 -0.5394  0.3317
 5061SOL     OW26815   4.363   0.714   5.252  0.0838  0.2014  0.1930
 5061SOL    HW126816   4.337   0.802   5.280  1.2175  0.6829 -0.2510
 5061SOL    HW226817   4.449   0.734   5.213  1.0262 -2.0628  1.1281
 5062SOL     OW26818   3.605   2.006   3.203  0.3863 -0.0171  0.1211
 5062SOL    HW126819   3.633   1.951   3.276 -4.0254 -2.1474  0.1873
 5062SOL    HW226820   3.688   2.038   3.166  1.3504  0.8770  3.0975
 5063SOL     OW26821   0.402   3.416   0.036 -0.3860 -0.4393  0.2067
 5063SOL    HW126822   0.347   3.491   0.015  1.5919  1.0001  0.2225
 5063SOL    HW226823   0.443   3.411  17.703  0.6934  1.1559  0.6520
 5064SOL     OW26824   2.525   3.798  16.179 -0.4748  0.3833  0.1488
 5064SOL    HW126825   2.574   3.874  16.150 -0.0521  0.6250  1.4974
 5064SOL    HW226826   2.600   3.740  16.194  1.6514  2.4966 -2.5372
 5065SOL     OW26827   4.662   4.738   6.895  0.1558 -0.2721  0.2751
 5065SOL    HW126828   4.717   4.719   6.820 -0.1793  2.0783 -0.5554
 5065SOL    HW226829   4.581   0.030   6.854 -0.5352 -0.3359  1.5697
 5066SOL     OW26830   0.412   3.799   9.708 -0.4589  0.0827  0.1039
 5066SOL    HW126831   0.460   3.845   9.639 -1.1879  2.6589  1.3179
 5066SOL    HW226832   0.366   3.873   9.748  1.2710 -0.0127  2.2584
 5067SOL     OW26833   2.218   0.976   7.569 -0.4109 -0.0070 -0.6807
 5067SOL    HW126834   2.153   0.919   7.609  0.5531 -1.1955 -0.8231
 5067SOL    HW226835   2.180   0.992   7.482 -0.3141 -1.6453 -1.0215
 5068SOL     OW26836   0.412   4.463   6.454  0.3355  0.5037  0.5172
 5068SOL    HW126837   0.394   4.386   6.401  0.3851  0.6899  0.2273
 5068SOL    HW226838   0.505   4.478   6.440  0.8290 -2.3675  0.8277
 5069SOL     OW26839   3.436   1.631  14.169 -0.3968  0.1554  0.1695
 5069SOL    HW126840   3.493   1.617  14.245  1.2009 -0.7556 -1.1814
 5069SOL    HW226841   3.496   1.675  14.108  0.4846 -2.0128 -0.5165
 5070SOL     OW26842   3.505   3.971  13.356  0.8255 -0.5259 -0.8124
 5070SOL    HW126843   3.422   4.011  13.383  1.5391  0.7482 -0.5200
 5070SOL    HW226844   3.501   3.895  13.415  0.7635  1.3212  1.5952
 5071SOL     OW26845   3.141   2.099  14.964  0.4030 -0.3390 -0.1991
 5071SOL    HW126846   3.138   2.010  14.928 -2.5122 -0.9436  1.5305
 5071SOL    HW226847   3.146   2.153  14.885  1.5414  1.0374  0.8180
 5072SOL     OW26848   0.177   2.291   6.699  0.3296 -0.3686  0.3508
 5072SOL    HW126849   0.108   2.245   6.651  0.8182 -1.6364  0.8508
 5072SOL    HW226850   0.131   2.375   6.698 -0.0054 -0.5629 -0.6148
 5073SOL     OW26851   3.425   2.408   3.906 -0.1036 -0.0739 -0.1247
 5073SOL    HW126852   3.475   2.350   3.963 -0.3860  0.0214  0.2247
 5073SOL    HW226853   3.445   2.497   3.936  3.3375 -0.8303 -0.2630
 5074SOL     OW26854   3.903   2.930  16.253 -0.0790 -0.0522 -0.1146
 5074SOL    HW126855   3.842   2.891  16.191 -0.5360 -0.6459  0.7085
 5074SOL    HW226856   3.840   2.987  16.296  2.1708  1.6445  0.9250
 5075SOL     OW26857   3.528   3.679   7.596  0.8240 -0.3390  0.6888
 5075SOL    HW126858   3.603   3.723   7.555  1.5012  0.2133  2.5255
 5075SOL    HW226859   3.473   3.659   7.520 -2.1622  1.8339  2.2838
 5076SOL     OW26860   1.910   2.615   1.412 -0.6744  0.1609 -0.2690
 5076SOL    HW126861   1.931   2.705   1.387 -0.4251 -0.0689 -0.8934
 5076SOL    HW226862   1.987   2.590   1.463 -1.2944  0.8263  1.0135
 5077SOL     OW26863   1.486   1.328  14.785  0.6192  0.2597  1.0638
 5077SOL    HW126864   1.518   1.410  14.825 -0.1464  0.8018  0.5617
 5077SOL    HW226865   1.561   1.269  14.790 -1.0280 -1.8336  0.6918
 5078SOL     OW26866   2.362   1.944   1.278  0.4852 -0.1845 -0.1195
 5078SOL    HW126867   2.397   2.020   1.231 -1.4298  1.0801  0.4725
 5078SOL    HW226868   2.311   1.906   1.206  0.3338  0.9138 -0.5934
 5079SOL     OW26869   1.193   2.249   6.788  0.1665  0.1729 -0.0855
 5079SOL    HW126870   1.146   2.189   6.845  0.5637  2.6146  2.8385
 5079SOL    HW226871   1.282   2.213   6.781  0.0616 -0.0592 -0.1943
 5080SOL     OW26872   0.087   2.514   0.660 -0.2373 -0.3765 -0.1919
 5080SOL    HW126873   0.100   2.504   0.755 -3.1097 -2.6141 -0.0359
 5080SOL    HW226874   0.114   2.425   0.639 -0.1564  0.0021 -1.6870
 5081SOL     OW26875   3.201   1.113   6.493  0.0691  0.0470 -0.0634
 5081SOL    HW126876   3.245   1.196   6.513  1.4886 -0.6900 -0.0825
 5081SOL    HW226877   3.152   1.098   6.574 -0.4622 -0.2992 -0.4545
 5082SOL     OW26878   2.141   3.081   4.293  0.3238 -0.5285  0.0759
 5082SOL    HW126879   2.138   3.060   4.200 -1.4223 -3.3073  0.7527
 5082SOL    HW226880   2.049   3.097   4.310  0.3084  2.6592 -3.1037
 5083SOL     OW26881   4.329   2.992   6.430  0.0949 -0.0822  0.2710
 5083SOL    HW126882   4.240   2.958   6.425  0.9674 -2.4619  1.2460
 5083SOL    HW226883   4.322   3.087   6.415  0.7938  0.3090  2.4686
 5084SOL     OW26884   2.642   0.129   5.204  0.1384  0.0816  0.4022
 5084SOL    HW126885   2.670   0.202   5.148 -1.2263  0.1931 -0.1307
 5084SOL    HW226886   2.643   0.058   5.141 -2.2178  0.2487  0.1863
 5085SOL     OW26887   1.919   4.445  17.689 -0.0278 -0.0374 -0.1292
 5085SOL    HW126888   1.836   4.401  17.669 -0.0398 -0.7102  1.3895
 5085SOL    HW226889   1.919   4.448   0.032  2.0995 -1.8603 -0.0758
 5086SOL     OW26890   3.748   2.297   0.972 -0.2563 -0.3078 -0.2978
 5086SOL    HW126891   3.830   2.333   0.939 -0.0944 -1.3532 -1.0561
 5086SOL    HW226892   3.729   2.354   1.046  0.9786 -1.1746  0.6846
 5087SOL     OW26893   0.315   2.378   5.972  0.1226 -0.2964 -0.1411
 5087SOL    HW126894   0.256   2.315   5.932  0.0262  0.7706 -1.6556
 5087SOL    HW226895   0.401   2.342   5.953  0.0380 -0.9118  0.6504
 5088SOL     OW26896   1.000   3.293   2.294 -0.1423  0.0003  0.3213
 5088SOL    HW126897   1.091   3.312   2.317 -0.3786  1.6661 -0.1708
 5088SOL    HW226898   1.008   3.321   2.203 -2.6635 -0.1960  0.0445
 5089SOL     OW26899   0.278   4.359   3.647 -0.5418 -0.3061 -0.0639
 5089SOL    HW126900   0.265   4.279   3.697  0.9019  1.0168  2.4020
 5089SOL    HW226901   0.327   4.323   3.573  1.4452  0.0558  1.0624
 5090SOL     OW26902   1.645   3.086   3.479 -0.0576 -0.0627  0.0999
 5090SOL    HW126903   1.608   3.066   3.566 -3.6793  1.3741 -1.0907
 5090SOL    HW226904   1.670   2.996   3.459 -0.4129 -0.7509  2.6478
 5091SOL     OW26905   0.546   3.402   5.758 -0.2259 -0.4990  0.3909
 5091SOL    HW126906   0.495   3.453   5.821 -0.7937 -1.1297  0.4457
 5091SOL    HW226907   0.474   3.344   5.731 -0.6308  0.1880 -0.0046
 5092SOL     OW26908   1.599   2.206   3.424 -0.4780  0.4411  0.0253
 5092SOL    HW126909   1.547   2.264   3.478  0.8109 -0.0677  1.7966
 5092SOL    HW226910   1.579   2.246   3.339 -2.1146  0.3309  0.3686
 5093SOL     OW26911   0.314   1.877   5.833  0.0684  0.7318  0.3918
 5093SOL    HW126912   0.246   1.817   5.863  0.9569 -1.3166 -1.6903
 5093SOL    HW226913   0.377   1.865   5.904 -1.1411 -0.6856  1.1982
 5094SOL     OW26914   2.936   1.770   9.657 -0.5106  0.2947  0.1289
 5094SOL    HW126915   2.901   1.687   9.691  1.2109 -0.1915  0.7198
 5094SOL    HW226916   2.925   1.744   9.566  1.1920 -4.1599  1.1354
 5095SOL     OW26917   4.721   3.120   2.116  0.3393 -0.6127 -0.1540
 5095SOL    HW126918   4.675   3.072   2.185 -0.2209 -0.7743 -0.6376
 5095SOL    HW226919   4.729   3.054   2.047 -0.8331  1.0922 -1.9154
 5096SOL     OW26920   0.733   1.154   3.742  0.4058 -0.6170 -0.2704
 5096SOL    HW126921   0.653   1.147   3.794  0.7841  0.3191  0.4213
 5096SOL    HW226922   0.729   1.247   3.720  1.8176 -0.6472 -0.6753
 5097SOL     OW26923   3.399   1.580   9.688 -0.2702 -0.3181 -0.3926
 5097SOL    HW126924   3.322   1.631   9.664 -0.1287 -1.5646 -3.4677
 5097SOL    HW226925   3.460   1.649   9.713 -1.2453  0.8171 -1.1667
 5098SOL     OW26926   3.746   1.673   3.153  0.5414 -0.3318 -0.2884
 5098SOL    HW126927   3.666   1.631   3.124 -0.0451  2.2086 -2.3238
 5098SOL    HW226928   3.780   1.726   3.081 -0.0226 -0.7516 -0.8566
 5099SOL     OW26929   2.680   3.000  12.622  0.1039 -0.2276 -0.5142
 5099SOL    HW126930   2.628   2.962  12.552 -1.2981 -1.3343  1.1380
 5099SOL    HW226931   2.619   3.064  12.661 -0.0362 -0.8804  0.3393
 5100SOL     OW26932   0.314   2.783   3.631  0.4118 -0.2766 -0.1047
 5100SOL    HW126933   0.302   2.863   3.682  1.5459 -0.6594  0.7601
 5100SOL    HW226934   0.221   2.762   3.619 -0.0069 -0.2843  3.2021
 5101SOL     OW26935   1.817   1.725  15.784  0.1448 -0.1355  0.9691
 5101SOL    HW126936   1.746   1.755  15.842 -0.2211  2.0390 -0.6094
 5101SOL    HW226937   1.804   1.630  15.782 -0.9303  0.0845 -1.9094
 5102SOL     OW26938   0.479   1.605  11.732 -0.3364 -0.1178  0.6164
 5102SOL    HW126939   0.518   1.518  11.735  0.3583  0.1835  0.1536
 5102SOL    HW226940   0.486   1.622  11.638  2.6645 -0.8646  0.7280
 5103SOL     OW26941   4.092   2.892   8.643 -0.1882  0.0993  0.4403
 5103SOL    HW126942   4.047   2.970   8.611 -2.1143 -1.4107 -0.5165
 5103SOL    HW226943   4.133   2.924   8.723  1.7337  0.0828 -0.5312
 5104SOL     OW26944   3.372   1.974   2.297  0.2025  0.1651  0.0963
 5104SOL    HW126945   3.374   2.070   2.288 -1.1191 -0.0477 -2.6218
 5104SOL    HW226946   3.369   1.957   2.203  1.3136  0.1648  0.0579
 5105SOL     OW26947   3.493   2.512   1.268 -0.8872  0.6173 -0.4137
 5105SOL    HW126948   3.502   2.475   1.356  0.5254 -2.2297 -1.7656
 5105SOL    HW226949   3.586   2.518   1.246  0.0707 -0.6770  3.2577
 5106SOL     OW26950   0.494   3.906   9.160 -0.0190  0.0880 -0.4228
 5106SOL    HW126951   0.549   3.874   9.231 -0.4920  0.0734 -0.0650
 5106SOL    HW226952   0.419   3.941   9.207  0.2247  0.7683 -0.5327
 5107SOL     OW26953   3.954   3.674   6.419 -0.8197  0.2782 -0.1468
 5107SOL    HW126954   3.959   3.770   6.418  1.9670  0.1116 -1.9068
 5107SOL    HW226955   3.880   3.653   6.363 -1.1542 -1.6391  0.9977
 5108SOL     OW26956   0.928   0.737   4.238  0.3436 -0.4515  0.0098
 5108SOL    HW126957   1.009   0.742   4.289  2.0679 -0.5687 -2.6502
 5108SOL    HW226958   0.921   0.822   4.196  1.1375  0.4308  1.6714
 5109SOL     OW26959   3.122   1.502   7.958 -0.5151  0.0568  0.0788
 5109SOL    HW126960   3.143   1.426   7.903 -1.5194  1.0503 -1.6645
 5109SOL    HW226961   3.207   1.524   7.996  0.2463  1.8469 -2.7166
 5110SOL     OW26962   2.155   2.905  11.296 -0.0741 -0.2925 -0.1113
 5110SOL    HW126963   2.081   2.864  11.340  0.4531 -0.8646  0.2406
 5110SOL    HW226964   2.212   2.943  11.363 -2.2775  0.1936  1.4624
 5111SOL     OW26965   1.393   4.597   5.205  0.1090  0.2637  0.1199
 5111SOL    HW126966   1.370   4.654   5.279 -0.9021 -0.4792  0.3875
 5111SOL    HW226967   1.380   4.668   5.143  1.5598 -0.0640 -0.5528
 5112SOL     OW26968   0.697   1.462   7.581  0.6520  0.4612  0.1856
 5112SOL    HW126969   0.675   1.422   7.497 -0.5759  1.0300  0.2388
 5112SOL    HW226970   0.714   1.381   7.628  1.2286  0.1817 -0.5041
 5113SOL     OW26971   2.085   2.152   4.019  0.8278  0.3477  0.8521
 5113SOL    HW126972   2.166   2.189   3.985  0.8962  0.6414  1.3274
 5113SOL    HW226973   2.012   2.210   3.997  1.1128  0.1086 -0.7285
 5114SOL     OW26974   0.107   1.428   2.717 -0.4900  0.1067 -0.3076
 5114SOL    HW126975   0.053   1.365   2.669 -0.4852 -1.3717  1.6127
 5114SOL    HW226976   0.063   1.509   2.693  2.2209  1.4525 -0.6713
 5115SOL     OW26977   0.063   4.177   2.149 -0.2870 -0.0523 -0.1768
 5115SOL    HW126978   0.103   4.209   2.068 -2.3685  0.6589 -0.9202
 5115SOL    HW226979   0.113   4.098   2.163  0.0203  0.2382  0.3490
 5116SOL     OW26980   4.453   1.290   3.109  0.4103 -0.0278  0.1748
 5116SOL    HW126981   4.428   1.374   3.147 -4.0301 -1.6362  0.8448
 5116SOL    HW226982   4.403   1.282   3.028 -1.6123 -2.6563  1.6805
 5117SOL     OW26983   4.495   3.931   9.324  0.4771 -0.4232  0.0144
 5117SOL    HW126984   4.410   3.971   9.340  0.4895 -0.3838 -0.0183
 5117SOL    HW226985   4.475   3.844   9.358  3.3761 -0.5053  1.4718
 5118SOL     OW26986   1.539   1.358   9.092 -0.4091 -0.1928  0.6266
 5118SOL    HW126987   1.454   1.324   9.062 -0.5265  0.5242  0.1540
 5118SOL    HW226988   1.523   1.330   9.182 -1.4666 -0.3568  0.3943
 5119SOL     OW26989   3.728   0.848   1.556 -0.4004 -0.0778  0.1847
 5119SOL    HW126990   3.645   0.836   1.511 -0.0353 -0.2860 -0.4344
 5119SOL    HW226991   3.680   0.873   1.635 -2.1778 -0.2915 -0.8502
 5120SOL     OW26992   0.755   0.513   4.224  0.2330 -0.5873 -0.2320
 5120SOL    HW126993   0.824   0.579   4.227  0.4970 -0.8387 -0.7413
 5120SOL    HW226994   0.679   0.570   4.213 -0.2948 -1.2157  0.1545
 5121SOL     OW26995   1.340   3.840  17.507  0.2585  0.1469 -0.0209
 5121SOL    HW126996   1.424   3.796  17.489 -0.5338 -0.7820 -1.5119
 5121SOL    HW226997   1.326   3.806  17.595 -3.4582  0.5708 -0.4818
 5122SOL     OW26998   2.872   2.880   4.011 -0.2226  0.4271 -0.2205
 5122SOL    HW126999   2.784   2.895   4.046  0.3261 -0.8571  1.7638
 5122SOL    HW227000   2.856   2.908   3.921 -1.1072 -1.0701 -0.5268
 5123SOL     OW27001   0.054   3.353   3.909  0.0364  0.3703 -0.4709
 5123SOL    HW127002   0.075   3.361   4.002 -0.3345  1.7971 -0.5000
 5123SOL    HW227003   0.141   3.370   3.872 -0.9115  0.5877 -2.6124
 5124SOL     OW27004   4.513   1.761   5.044  0.6572  0.1593 -0.5797
 5124SOL    HW127005   4.587   1.811   5.011 -0.0697  1.3108 -0.4682
 5124SOL    HW227006   4.442   1.795   4.989  0.0717  0.7438  0.5229
 5125SOL     OW27007   3.090   3.716   9.409  0.2719 -0.7813 -0.4275
 5125SOL    HW127008   3.002   3.740   9.439  0.0272  0.9402 -2.5752
 5125SOL    HW227009   3.073   3.636   9.360 -0.7039 -2.1225  2.0980
 5126SOL     OW27010   1.911   1.498   1.999 -0.2318 -0.1519 -1.1425
 5126SOL    HW127011   1.905   1.586   2.036  1.9674  0.0497 -1.2690
 5126SOL    HW227012   1.851   1.494   1.925 -0.9137  2.2576 -0.6903
 5127SOL     OW27013   3.407   4.675   2.406 -0.3370 -0.0240  0.3042
 5127SOL    HW127014   3.395   4.612   2.335  0.6295  1.0485 -0.8168
 5127SOL    HW227015   3.317   4.696   2.428  0.0834 -0.2919  2.2466
 5128SOL     OW27016   3.983   2.292   7.464 -0.6655 -0.6235  0.2608
 5128SOL    HW127017   3.932   2.230   7.515  0.5345 -2.3198 -0.5834
 5128SOL    HW227018   3.919   2.323   7.400 -2.0921 -0.2587  1.8633
 5129SOL     OW27019   3.489   3.636  11.878  0.0020 -0.0909  0.1915
 5129SOL    HW127020   3.490   3.567  11.945 -0.0263  0.4121  0.7130
 5129SOL    HW227021   3.527   3.713  11.919  0.4138 -1.6487  2.7312
 5130SOL     OW27022   3.565   4.454   8.349  0.4258  0.5343  0.1283
 5130SOL    HW127023   3.601   4.365   8.351 -2.2315 -0.5589 -1.2643
 5130SOL    HW227024   3.482   4.439   8.304  1.6830  0.1241 -2.0609
 5131SOL     OW27025   0.311   1.591   0.828 -0.1401  0.0126  0.5342
 5131SOL    HW127026   0.283   1.608   0.737 -0.7767  2.8241  1.2727
 5131SOL    HW227027   0.221   1.565   0.847 -0.6521  0.6663 -0.9909
 5132SOL     OW27028   2.404   1.141   8.544  0.6542  0.0058  0.3458
 5132SOL    HW127029   2.389   1.060   8.592 -0.1134 -0.1927 -0.2391
 5132SOL    HW227030   2.499   1.152   8.554  0.5131 -0.7265  2.4485
 5133SOL     OW27031   2.615   3.611   0.709  0.7305 -0.0242 -0.5761
 5133SOL    HW127032   2.528   3.644   0.685 -0.1199 -0.5251  1.8789
 5133SOL    HW227033   2.628   3.652   0.795 -0.7176  1.9571 -1.2897
 5134SOL     OW27034   1.240   2.732   4.553  0.2254  0.2839  0.0609
 5134SOL    HW127035   1.199   2.647   4.568  0.5909  0.5203  2.5399
 5134SOL    HW227036   1.179   2.790   4.599 -1.0043 -1.9749  1.2668
 5135SOL     OW27037   3.370   3.314   3.363  0.4505  0.0532 -0.1984
 5135SOL    HW127038   3.292   3.272   3.327  0.8246 -0.4690 -0.3933
 5135SOL    HW227039   3.378   3.273   3.449  4.4814 -1.4303 -1.3176
 5136SOL     OW27040   4.385   4.420  11.962 -0.3822 -0.4657  0.6105
 5136SOL    HW127041   4.393   4.329  11.990 -3.1908 -0.9604 -0.2236
 5136SOL    HW227042   4.313   4.444  12.020 -0.0999 -1.3193  1.3250
 5137SOL     OW27043   0.433   2.162  17.384 -0.0486 -0.0918 -0.0109
 5137SOL    HW127044   0.452   2.104  17.310 -0.7807  0.3550 -0.5503
 5137SOL    HW227045   0.517   2.200  17.410  0.1035 -0.6911  0.3724
 5138SOL     OW27046   0.811   4.237  15.020  0.0781 -0.2768 -0.0979
 5138SOL    HW127047   0.817   4.141  15.020 -0.5439 -0.3140 -0.9280
 5138SOL    HW227048   0.734   4.244  14.963  0.3965  2.1347 -0.2238
 5139SOL     OW27049   1.822   1.628   4.773 -0.2561  0.0460  0.1917
 5139SOL    HW127050   1.834   1.652   4.865  1.3187  1.1841 -0.2979
 5139SOL    HW227051   1.879   1.551   4.769  1.2660  1.1943 -0.3805
 5140SOL     OW27052   1.922   1.996  11.498  0.0558  0.0717  0.2775
 5140SOL    HW127053   2.015   1.996  11.521  0.5492 -0.4517 -1.6658
 5140SOL    HW227054   1.896   1.908  11.470  0.7096  0.5215 -1.7631
 5141SOL     OW27055   0.567   3.352   1.224  0.0001 -0.1183  0.0049
 5141SOL    HW127056   0.639   3.398   1.266 -0.5071  0.9860 -0.3445
 5141SOL    HW227057   0.583   3.371   1.132 -2.4667  1.1341 -0.1571
 5142SOL     OW27058   0.266   1.357  14.368  0.5462 -0.2633 -0.5060
 5142SOL    HW127059   0.253   1.274  14.322 -0.9927 -0.5845  0.5383
 5142SOL    HW227060   0.343   1.384  14.318  0.1958  2.2581  0.3115
 5143SOL     OW27061   4.016   2.762   7.457 -0.5596 -0.6029  0.4280
 5143SOL    HW127062   3.997   2.792   7.368 -0.0326 -0.7162  0.2750
 5143SOL    HW227063   3.955   2.806   7.516  0.5516  0.2642  0.9063
 5144SOL     OW27064   3.617   0.012   9.946 -0.0883  0.0174  0.3330
 5144SOL    HW127065   3.532   4.738   9.989  1.0634 -1.3146  2.1710
 5144SOL    HW227066   3.627   0.106   9.960 -1.2854  0.4567 -1.5947
 5145SOL     OW27067   3.502   2.312   7.188 -0.8075  0.1025 -0.0210
 5145SOL    HW127068   3.450   2.297   7.110 -0.8083 -1.9943  0.3860
 5145SOL    HW227069   3.528   2.221   7.205 -3.2905 -0.5754  0.1556
 5146SOL     OW27070   1.311   4.370   2.218 -0.0790 -0.1482  0.2035
 5146SOL    HW127071   1.383   4.325   2.174  1.2191  1.8520  0.2792
 5146SOL    HW227072   1.317   4.329   2.305  1.4099 -0.4836 -0.0598
 5147SOL     OW27073   2.267   2.700   2.409 -0.5725 -0.0382 -0.0421
 5147SOL    HW127074   2.215   2.652   2.472 -1.4144  0.0707 -0.6464
 5147SOL    HW227075   2.297   2.622   2.363 -0.9166  0.3963 -1.0285
 5148SOL     OW27076   0.644   1.728   6.705 -0.3008  0.2193 -0.1384
 5148SOL    HW127077   0.635   1.632   6.703 -1.2105  0.3330 -1.6078
 5148SOL    HW227078   0.649   1.732   6.800 -0.3509 -1.5435 -0.0521
 5149SOL     OW27079   1.582   4.268  16.093  0.2166 -0.2152 -0.2835
 5149SOL    HW127080   1.596   4.349  16.142  0.2045 -0.7659  0.6419
 5149SOL    HW227081   1.490   4.280  16.069  0.2938  0.1189 -0.4075
 5150SOL     OW27082   3.114   0.792   8.197  0.5849  0.0820  0.5484
 5150SOL    HW127083   3.031   0.840   8.186 -0.6261 -2.4863 -1.5229
 5150SOL    HW227084   3.110   0.744   8.114 -0.1244  0.3479  0.4213
 5151SOL     OW27085   2.278   0.638   9.231 -0.3449  0.3378  0.5941
 5151SOL    HW127086   2.220   0.575   9.188  2.3579 -1.2564 -0.7245
 5151SOL    HW227087   2.216   0.672   9.295 -0.8830  1.1480 -0.3661
 5152SOL     OW27088   3.481   2.980   3.809  0.2939 -0.2645  0.0977
 5152SOL    HW127089   3.514   2.891   3.820  0.2318 -0.2097  0.7636
 5152SOL    HW227090   3.392   2.950   3.791  0.9040 -2.3923  0.7231
 5153SOL     OW27091   0.027   2.971   6.669  0.1467 -0.5162 -0.2778
 5153SOL    HW127092   0.015   2.942   6.579  3.2191 -1.1618 -0.4911
 5153SOL    HW227093   4.725   3.058   6.672  2.0207  0.3370  0.5680
 5154SOL     OW27094   4.103   1.483   9.421 -0.1094  0.3225 -0.4708
 5154SOL    HW127095   4.054   1.452   9.345  0.2992 -1.1204 -0.1402
 5154SOL    HW227096   4.187   1.500   9.379  0.5894  0.8166  1.1016
 5155SOL     OW27097   2.303   0.917   3.481  0.5149  0.1867  0.0402
 5155SOL    HW127098   2.323   1.008   3.503  1.1338  0.1770 -0.5154
 5155SOL    HW227099   2.393   0.891   3.460  0.3948 -0.3477  0.1738
 5156SOL     OW27100   0.545   3.687   8.316 -0.0391 -0.3794 -0.0713
 5156SOL    HW127101   0.607   3.754   8.289  1.2234 -1.9119 -1.0031
 5156SOL    HW227102   0.544   3.625   8.243 -0.8044 -0.4268 -0.0190
 5157SOL     OW27103   0.369   0.399   3.128  0.1603  0.2442 -0.2366
 5157SOL    HW127104   0.376   0.359   3.041  0.9546 -0.2921  0.0792
 5157SOL    HW227105   0.315   0.328   3.163 -0.4968  1.2599  0.8068
 5158SOL     OW27106   1.764   1.285   6.061  0.5427  0.2501  0.1864
 5158SOL    HW127107   1.728   1.337   6.134  2.2580  0.9485  0.5204
 5158SOL    HW227108   1.742   1.342   5.988 -2.9243 -2.7418 -1.1255
 5159SOL     OW27109   3.249   0.625   1.246 -0.9037  0.5585  0.7199
 5159SOL    HW127110   3.155   0.606   1.240 -0.8034  0.1723  0.3391
 5159SOL    HW227111   3.263   0.538   1.284 -0.7380 -0.4746 -1.6525
 5160SOL     OW27112   3.280   4.121  16.888  0.1176  0.2525 -0.4181
 5160SOL    HW127113   3.235   4.192  16.842 -1.4674 -0.6079 -0.1749
 5160SOL    HW227114   3.229   4.109  16.968  0.0729  2.5076 -0.1015
 5161SOL     OW27115   1.452   1.151   0.483  0.0790  0.2944  0.1396
 5161SOL    HW127116   1.372   1.178   0.439  0.4978  0.4291 -0.5312
 5161SOL    HW227117   1.499   1.100   0.417  0.6714 -0.0853  0.8530
 5162SOL     OW27118   3.252   0.552   1.743 -0.1571 -0.0027  1.0353
 5162SOL    HW127119   3.169   0.579   1.703 -0.0965  2.4519  2.5584
 5162SOL    HW227120   3.228   0.573   1.833 -0.0128  0.0402  1.0634
 5163SOL     OW27121   3.354   1.220   9.236 -0.0901  0.7307  0.0484
 5163SOL    HW127122   3.319   1.270   9.163 -0.2696 -0.6498 -0.8177
 5163SOL    HW227123   3.368   1.285   9.305 -0.4098  0.3993  0.4346
 5164SOL     OW27124   0.693   2.521   5.675 -0.4423  0.7616  0.0811
 5164SOL    HW127125   0.768   2.463   5.683 -0.7403  0.3168 -0.3427
 5164SOL    HW227126   0.656   2.523   5.763 -1.0323 -1.8235 -0.1175
 5165SOL     OW27127   3.718   2.136   8.122  0.6914  0.3499 -0.2635
 5165SOL    HW127128   3.668   2.196   8.177  1.2635  0.1596  0.4595
 5165SOL    HW227129   3.805   2.156   8.156  0.0024  0.3923  1.4600
 5166SOL     OW27130   2.458   2.148   7.522 -0.0414 -0.1530 -0.3165
 5166SOL    HW127131   2.428   2.085   7.456  0.5940 -0.9301  0.1289
 5166SOL    HW227132   2.553   2.147   7.511 -0.0487  0.4315 -0.4326
 5167SOL     OW27133   0.147   3.539  12.068  0.2289 -0.4157  0.0842
 5167SOL    HW127134   0.150   3.617  12.012 -1.1918 -0.8285 -0.5579
 5167SOL    HW227135   0.111   3.580  12.146  0.7052  1.5025 -0.6824
 5168SOL     OW27136   4.137   0.994   4.199  0.3169 -0.6066  0.1045
 5168SOL    HW127137   4.128   1.072   4.145 -0.9044  0.9301  2.5201
 5168SOL    HW227138   4.166   1.031   4.282  0.5858 -1.5508  0.4365
 5169SOL     OW27139   0.317   2.610  15.667 -0.0375 -0.0056  0.0976
 5169SOL    HW127140   0.404   2.578  15.691 -0.3949 -1.0080  0.0336
 5169SOL    HW227141   0.328   2.613  15.572  1.3604  0.0721  0.2621
 5170SOL     OW27142   2.417   0.424  10.572 -0.0330  0.1870 -0.7783
 5170SOL    HW127143   2.429   0.441  10.666  1.0753  0.9982 -1.0621
 5170SOL    HW227144   2.475   0.348  10.572  0.1998  0.3571  1.9714
 5171SOL     OW27145   3.896   1.220   3.689 -0.1206 -0.2725 -0.2334
 5171SOL    HW127146   3.910   1.315   3.693 -1.3226 -0.1289  0.3652
 5171SOL    HW227147   3.886   1.198   3.781 -0.4838  0.2913 -0.1409
 5172SOL     OW27148   0.766   2.093   1.450 -0.1697 -0.2862  0.8088
 5172SOL    HW127149   0.789   2.170   1.501  0.6121  0.4257 -0.6200
 5172SOL    HW227150   0.682   2.077   1.493  0.0106  1.7806  1.9018
 5173SOL     OW27151   3.089   0.756   0.063 -0.0896  0.4445 -0.8162
 5173SOL    HW127152   3.111   0.763  17.723  0.9055  1.7396 -0.4842
 5173SOL    HW227153   3.033   0.678   0.067  1.3282 -0.4934  0.7417
 5174SOL     OW27154   3.773   3.310   7.567 -0.3016  0.5237 -0.2159
 5174SOL    HW127155   3.770   3.328   7.473  0.2310 -0.2806 -0.3834
 5174SOL    HW227156   3.868   3.318   7.571 -0.1624 -1.0602 -0.3075
 5175SOL     OW27157   0.543   1.745   9.324 -0.0529 -0.2900  0.0735
 5175SOL    HW127158   0.484   1.782   9.259  0.2638  0.2693  0.0972
 5175SOL    HW227159   0.562   1.663   9.280 -3.8854 -0.6705 -0.8842
 5176SOL     OW27160   0.049   2.319  12.351  0.1718 -0.3147 -0.1085
 5176SOL    HW127161   0.062   2.358  12.265 -0.2129  2.4242  1.0439
 5176SOL    HW227162   4.713   2.262  12.335 -2.3311  2.9668 -0.1900
 5177SOL     OW27163   1.649   1.188   6.786 -0.1202 -0.2519  0.2470
 5177SOL    HW127164   1.621   1.131   6.715 -1.7902  0.2820  0.4728
 5177SOL    HW227165   1.686   1.249   6.723  0.3603 -1.3045 -0.4936
 5178SOL     OW27166   2.503   4.165   8.665 -0.5221 -0.0296 -0.1174
 5178SOL    HW127167   2.573   4.158   8.731  1.2807  1.6079 -1.8514
 5178SOL    HW227168   2.516   4.256   8.641  0.0302  0.2601  1.2412
 5179SOL     OW27169   0.813   3.397   8.397  0.7126 -0.2251 -0.5258
 5179SOL    HW127170   0.830   3.449   8.476  1.1564 -0.3419 -0.5454
 5179SOL    HW227171   0.718   3.407   8.397  0.8962  1.5730  2.0885
 5180SOL     OW27172   1.275   3.879   2.551  0.2575 -0.2074  0.4526
 5180SOL    HW127173   1.202   3.818   2.560 -1.6128  1.9820  0.2884
 5180SOL    HW227174   1.348   3.828   2.585  0.0308 -1.3258 -0.7639
 5181SOL     OW27175   4.229   2.304   0.240 -0.3621  0.3849 -0.2540
 5181SOL    HW127176   4.294   2.336   0.302  0.7342 -0.2978 -1.0375
 5181SOL    HW227177   4.145   2.310   0.287 -0.2054  0.4950  0.0108
 5182SOL     OW27178   1.730   1.957   6.545  0.2328 -0.5042 -0.6166
 5182SOL    HW127179   1.773   2.035   6.510 -1.0203  0.5034  0.0937
 5182SOL    HW227180   1.804   1.923   6.595  0.7265  0.9742 -0.3311
 5183SOL     OW27181   0.198   1.442   6.254 -0.2814 -0.1648 -0.1686
 5183SOL    HW127182   0.211   1.348   6.242  0.5305  0.0247 -0.7202
 5183SOL    HW227183   0.106   1.464   6.239  0.3030  2.2414 -0.1964
 5184SOL     OW27184   3.336   4.468  16.929  0.3654 -0.4922 -0.0078
 5184SOL    HW127185   3.288   4.407  16.873  0.5720 -0.7337  0.0749
 5184SOL    HW227186   3.406   4.508  16.876 -0.5828 -0.8099 -1.5069
 5185SOL     OW27187   2.936   1.975   1.690 -0.4154 -0.8267 -0.1904
 5185SOL    HW127188   3.007   1.980   1.754 -1.2971 -0.5784  0.7570
 5185SOL    HW227189   2.862   1.943   1.741  1.5357 -0.1006  3.1173
 5186SOL     OW27190   1.377   2.940  14.781 -0.1192 -0.0483 -0.2910
 5186SOL    HW127191   1.325   3.007  14.738 -2.4139 -0.5735  1.6759
 5186SOL    HW227192   1.305   2.895  14.824  0.8742 -1.0711  0.3210
 5187SOL     OW27193   2.252   0.712   4.854  0.0732  0.9171  0.3663
 5187SOL    HW127194   2.173   0.659   4.865  0.6295 -0.6368 -3.0913
 5187SOL    HW227195   2.295   0.704   4.939  1.9382  3.4337 -0.3291
 5188SOL     OW27196   0.080   4.305   7.058  0.0788 -0.1248 -0.0870
 5188SOL    HW127197   0.004   4.314   7.001 -1.7205  1.1454  2.5593
 5188SOL    HW227198   0.140   4.366   7.014 -0.0430  0.9996  1.3244
 5189SOL     OW27199   2.642   1.060   5.562  0.3150  0.1858 -0.2155
 5189SOL    HW127200   2.694   1.004   5.505 -0.1537 -1.4038  0.8928
 5189SOL    HW227201   2.599   0.991   5.612  2.8296 -1.0660  0.2126
 5190SOL     OW27202   1.658   3.617   3.938 -0.7435  0.8120 -0.2519
 5190SOL    HW127203   1.666   3.544   3.999 -1.2444  0.4852 -0.5842
 5190SOL    HW227204   1.640   3.575   3.854  3.0082 -0.9024 -0.1967
 5191SOL     OW27205   2.945   1.027   5.337 -0.7157  0.5787 -0.6354
 5191SOL    HW127206   2.918   0.942   5.372  1.9211 -0.6528 -1.5287
 5191SOL    HW227207   2.859   1.065   5.317 -0.8573  1.7609  2.3251
 5192SOL     OW27208   0.144   4.324   7.735 -0.0233  0.0737  0.2724
 5192SOL    HW127209   0.048   4.328   7.732  0.0138  0.4779 -0.3431
 5192SOL    HW227210   0.166   4.401   7.683 -0.5213  0.0925  0.0970
 5193SOL     OW27211   4.536   2.427   6.627  0.0375  0.0759 -0.5677
 5193SOL    HW127212   4.473   2.486   6.587 -1.8644 -1.4706  0.1395
 5193SOL    HW227213   4.479   2.412   6.702 -0.8227 -0.7686 -1.3870
 5194SOL     OW27214   4.140   4.459   0.837  0.6021  0.1698  0.4513
 5194SOL    HW127215   4.216   4.437   0.782 -0.3862 -1.3162 -0.3377
 5194SOL    HW227216   4.066   4.427   0.786 -0.2842  0.7140  1.4092
 5195SOL     OW27217   3.544   3.694   3.739  0.3785  0.5786  0.1498
 5195SOL    HW127218   3.456   3.732   3.741  0.3986  0.7057 -1.7292
 5195SOL    HW227219   3.530   3.611   3.785  0.1185  1.4781  1.6832
 5196SOL     OW27220   4.117   4.649   7.555 -0.0240  0.0533 -0.2183
 5196SOL    HW127221   4.157   4.726   7.594  0.5458  0.1757 -1.0355
 5196SOL    HW227222   4.087   4.603   7.633  2.0936 -2.1309 -0.6815
 5197SOL     OW27223   0.452   2.444   9.815 -0.1432 -0.6480  0.2964
 5197SOL    HW127224   0.365   2.439   9.855  0.5458 -1.5208  1.6645
 5197SOL    HW227225   0.423   2.476   9.729  1.3370 -1.2915 -0.4467
 5198SOL     OW27226   3.679   3.908   5.904 -0.7585  0.4039  0.4774
 5198SOL    HW127227   3.664   3.921   5.998  2.4977 -2.1509  1.3289
 5198SOL    HW227228   3.773   3.899   5.893 -0.6565  1.8806  0.1824
 5199SOL     OW27229   2.656   1.138  12.113  0.3227  0.4659 -0.5431
 5199SOL    HW127230   2.602   1.081  12.168 -1.3840  1.5438 -1.0875
 5199SOL    HW227231   2.740   1.124  12.156 -0.5096 -0.4220  0.8270
 5200SOL     OW27232   4.133   4.365   7.699 -0.0326  0.1414 -0.1112
 5200SOL    HW127233   4.060   4.421   7.727  1.1805  0.8741  1.5478
 5200SOL    HW227234   4.091   4.279   7.700  1.0806 -0.3724  1.4574
 5201SOL     OW27235   0.485   4.170   1.033  0.4316  0.1971 -0.2206
 5201SOL    HW127236   0.464   4.257   1.065 -0.8259 -1.1689  2.6065
 5201SOL    HW227237   0.549   4.134   1.095  1.4475  0.7362 -0.9560
 5202SOL     OW27238   1.735   0.983   9.542  0.0419 -0.5379 -0.4434
 5202SOL    HW127239   1.773   0.942   9.619 -0.7588 -1.5035 -0.5533
 5202SOL    HW227240   1.649   1.018   9.564  1.4770  3.0617 -0.6805
 5203SOL     OW27241   3.365   1.470   2.803  0.4850  0.2480  0.6177
 5203SOL    HW127242   3.324   1.411   2.866 -0.7300 -0.7258 -1.0728
 5203SOL    HW227243   3.442   1.493   2.855  1.0611 -0.6242  0.1594
 5204SOL     OW27244   1.935   2.931   3.404 -0.0182  0.2477 -0.6455
 5204SOL    HW127245   2.030   2.937   3.410  0.0193 -0.4628 -0.5774
 5204SOL    HW227246   1.916   3.025   3.396 -0.5703  0.0918 -1.1165
 5205SOL     OW27247   2.478   4.677   4.358  0.4177 -0.5156 -0.8072
 5205SOL    HW127248   2.417   0.010   4.345  0.4646 -0.0333  1.5193
 5205SOL    HW227249   2.479   4.633   4.273  0.6394 -2.3533  0.1493
 5206SOL     OW27250   0.880   0.988   4.113  0.5899  0.7860  0.6823
 5206SOL    HW127251   0.933   1.060   4.077  3.2606 -1.5013  0.0332
 5206SOL    HW227252   0.860   0.955   4.025  0.7599 -2.7924  1.9928
 5207SOL     OW27253   1.079   3.880  14.840  0.1693  0.2033  0.6142
 5207SOL    HW127254   1.107   3.885  14.748  3.0695  2.5313  1.6459
 5207SOL    HW227255   1.129   3.806  14.875  1.2765  1.2811  1.2671
 5208SOL     OW27256   1.530   0.642   2.692  0.0882  0.2412  0.2135
 5208SOL    HW127257   1.572   0.664   2.608  1.5929 -1.5788  0.4948
 5208SOL    HW227258   1.587   0.694   2.749  1.2186 -0.0602 -0.6424
 5209SOL     OW27259   2.733   0.044   4.145  0.5111  0.0086  0.0570
 5209SOL    HW127260   2.666   4.721   4.117  0.3025 -0.2787  1.1601
 5209SOL    HW227261   2.761   0.082   4.062  0.6008 -1.6557 -0.6615
 5210SOL     OW27262   4.497   2.992   5.483  0.0219 -0.1682  0.2944
 5210SOL    HW127263   4.470   2.943   5.560 -2.8799  0.2962 -0.4325
 5210SOL    HW227264   4.576   2.946   5.454  0.3711 -0.4459  1.7079
 5211SOL     OW27265   3.682   1.402   8.714  0.7143  0.5752  0.2330
 5211SOL    HW127266   3.719   1.314   8.721  0.9768  0.5499 -1.3972
 5211SOL    HW227267   3.643   1.413   8.801 -1.0222 -2.0850 -0.2059
 5212SOL     OW27268   3.773   3.478   6.618 -0.1068  0.7965  0.2659
 5212SOL    HW127269   3.733   3.410   6.565 -1.8688  1.5634  0.6333
 5212SOL    HW227270   3.786   3.547   6.553  3.2265  0.7279  0.8316
 5213SOL     OW27271   4.523   4.670  16.472  0.8621  0.1197  0.0898
 5213SOL    HW127272   4.492   4.596  16.524  1.9154  1.4788  2.6406
 5213SOL    HW227273   4.607   4.691  16.512  1.5311 -1.3552 -0.5197
 5214SOL     OW27274   4.213   4.279   6.572  0.0894  0.0194 -0.8527
 5214SOL    HW127275   4.179   4.235   6.650  0.9698 -0.9753 -1.0329
 5214SOL    HW227276   4.282   4.215   6.556  1.3688  0.3317  3.4425
 5215SOL     OW27277   2.416   3.958  10.418 -0.0802  0.2932 -0.5068
 5215SOL    HW127278   2.334   3.920  10.388 -0.6576  0.8987  0.3169
 5215SOL    HW227279   2.398   3.970  10.511  2.9854  0.1354  0.1040
 5216SOL     OW27280   1.251   3.467   3.332 -0.0277 -0.2133  0.2493
 5216SOL    HW127281   1.300   3.429   3.260  0.2589  1.4855 -0.4640
 5216SOL    HW227282   1.304   3.547   3.331  1.7268 -1.4266 -1.5000
 5217SOL     OW27283   3.283   3.807   2.442 -0.0323  0.1783  0.6593
 5217SOL    HW127284   3.338   3.764   2.376 -1.5183 -0.9383  0.1372
 5217SOL    HW227285   3.328   3.773   2.519 -1.6924 -3.3085  0.0825
 5218SOL     OW27286   3.200   1.803   9.717 -0.0340  0.4457  0.7576
 5218SOL    HW127287   3.215   1.887   9.760  2.1246  0.1526  0.5680
 5218SOL    HW227288   3.105   1.807   9.705 -0.0498 -0.5923  0.5316
 5219SOL     OW27289   1.110   0.842  11.022 -0.2260 -0.2341 -0.2471
 5219SOL    HW127290   1.190   0.873  10.980 -1.6286  1.9505 -1.3801
 5219SOL    HW227291   1.129   0.847  11.115 -1.2356 -0.3453 -0.0285
 5220SOL     OW27292   4.527   0.823  17.507  0.3314 -0.1590  0.1325
 5220SOL    HW127293   4.456   0.875  17.468 -0.2118 -0.4215  0.7833
 5220SOL    HW227294   4.488   0.797  17.590 -0.0656 -1.2295 -0.3777
 5221SOL     OW27295   4.714   4.411   8.333  0.0077  0.4409  0.2007
 5221SOL    HW127296   0.012   4.342   8.388 -0.9112 -2.2269 -2.5106
 5221SOL    HW227297   0.050   4.470   8.331  0.9156 -0.7014  0.7661
 5222SOL     OW27298   0.108   2.271   0.503  0.3620 -0.0616  0.5223
 5222SOL    HW127299   0.198   2.304   0.502  0.9865 -1.8068 -1.2317
 5222SOL    HW227300   0.067   2.307   0.425  0.6642  1.5458  1.1095
 5223SOL     OW27301   3.801   0.340   9.490 -0.2561  0.3535  0.0415
 5223SOL    HW127302   3.839   0.291   9.564 -0.7281  1.6381  1.1352
 5223SOL    HW227303   3.876   0.355   9.433 -0.4225  0.0166 -0.2665
 5224SOL     OW27304   1.017   0.323   8.691  0.6694  0.1017  0.0127
 5224SOL    HW127305   1.045   0.320   8.782  0.3283  1.3662  0.1649
 5224SOL    HW227306   1.085   0.276   8.642 -0.9846 -0.3796 -1.8310
 5225SOL     OW27307   4.486   2.754   2.104 -0.5830  0.1332  0.0643
 5225SOL    HW127308   4.442   2.723   2.184  3.0781 -0.5586  1.7888
 5225SOL    HW227309   4.415   2.777   2.044 -0.5004 -0.6377 -0.3335
 5226SOL     OW27310   0.482   3.683  17.606  0.2711 -0.0905  0.5339
 5226SOL    HW127311   0.416   3.675  17.675  0.0180 -2.6330  0.0264
 5226SOL    HW227312   0.517   3.595  17.621 -0.3016 -0.8507 -2.5499
 5227SOL     OW27313   2.539   3.756   8.026 -0.0134  0.1230 -0.2683
 5227SOL    HW127314   2.512   3.680   8.077  2.9243 -0.6585  0.1095
 5227SOL    HW227315   2.490   3.759   7.944  1.3636 -1.4334 -1.1523
 5228SOL     OW27316   3.922   1.746  17.460 -0.1480  0.1416 -0.3739
 5228SOL    HW127317   3.877   1.731  17.376 -1.3582  0.8647  0.1553
 5228SOL    HW227318   3.976   1.824  17.454  0.1015  0.0005  0.0259
 5229SOL     OW27319   1.199   3.538   4.478  0.1322  0.2204  0.9120
 5229SOL    HW127320   1.127   3.561   4.419  1.0658  1.2346  0.1624
 5229SOL    HW227321   1.195   3.604   4.547  0.7941 -1.6219  2.7102
 5230SOL     OW27322   2.220   2.602   9.668  0.3338 -0.2858  0.4280
 5230SOL    HW127323   2.205   2.637   9.756 -0.0825  1.8220 -0.4932
 5230SOL    HW227324   2.147   2.541   9.660  0.5984 -0.5931  0.3229
 5231SOL     OW27325   4.554   3.955   4.856  0.2067 -0.4987  0.3556
 5231SOL    HW127326   4.557   4.044   4.890 -2.8902 -0.2331 -0.0936
 5231SOL    HW227327   4.615   3.915   4.918  0.9368 -1.6928 -1.1153
 5232SOL     OW27328   1.816   3.378   4.087  0.4274 -0.2142 -0.6736
 5232SOL    HW127329   1.765   3.441   4.138 -0.9973 -1.4627 -0.5594
 5232SOL    HW227330   1.908   3.400   4.097  0.4915 -1.8492  2.3595
 5233SOL     OW27331   1.394   4.241  12.452 -1.0114  0.5527  0.7747
 5233SOL    HW127332   1.315   4.263  12.502 -0.5332 -1.8837  2.5771
 5233SOL    HW227333   1.420   4.328  12.421  1.0683 -0.0628  0.8205
 5234SOL     OW27334   2.043   4.641  16.318 -0.2626 -0.1842 -0.4586
 5234SOL    HW127335   2.090   4.700  16.259 -2.1746  1.3660 -0.4369
 5234SOL    HW227336   2.116   4.581  16.336 -0.3566  0.6694  2.7698
 5235SOL     OW27337   2.222   1.847  15.393 -0.7076 -0.3677  0.0865
 5235SOL    HW127338   2.136   1.879  15.419 -1.3348 -1.1174 -1.0310
 5235SOL    HW227339   2.263   1.855  15.479 -1.3412 -0.2486  0.3812
 5236SOL     OW27340   0.399   0.640  14.199 -0.2846  0.2382  0.2878
 5236SOL    HW127341   0.382   0.597  14.283 -0.9305  2.0062  1.0637
 5236SOL    HW227342   0.362   0.723  14.229 -0.6580 -1.0303  3.2745
 5237SOL     OW27343   3.781   2.377   7.932 -0.0967  0.0122 -0.9047
 5237SOL    HW127344   3.806   2.323   7.856 -1.9242 -0.1884 -1.3669
 5237SOL    HW227345   3.690   2.354   7.950  0.2234  2.1106  3.2489
 5238SOL     OW27346   2.980   2.689   5.829 -0.0503  0.1910  0.0918
 5238SOL    HW127347   2.982   2.610   5.884  1.0469  0.0992 -0.0858
 5238SOL    HW227348   2.885   2.695   5.828 -0.0587  0.0531  0.0211
 5239SOL     OW27349   0.149   1.437   4.606  0.2131  0.0811 -0.2243
 5239SOL    HW127350   0.118   1.350   4.630 -1.2910 -0.7996 -5.3393
 5239SOL    HW227351   0.139   1.429   4.511 -0.6897 -0.1371 -0.1108
 5240SOL     OW27352   2.637   1.326  16.272  0.3048  0.7030  0.3897
 5240SOL    HW127353   2.617   1.256  16.334  2.8639 -1.9313 -1.7299
 5240SOL    HW227354   2.631   1.403  16.329  2.1677  1.2415 -0.1499
 5241SOL     OW27355   2.486   3.160  10.290 -0.2418  0.0740  0.1555
 5241SOL    HW127356   2.428   3.193  10.359  0.2013 -1.0646  1.0741
 5241SOL    HW227357   2.519   3.084  10.338  1.2196  1.6431  1.6194
 5242SOL     OW27358   4.421   3.640   1.369 -0.0179 -0.4146 -0.2712
 5242SOL    HW127359   4.396   3.705   1.303 -3.1055  0.0624  1.3333
 5242SOL    HW227360   4.474   3.570   1.331 -0.0323  0.8083 -2.5512
 5243SOL     OW27361   2.672   0.537   1.612  0.1216 -0.2556 -0.3872
 5243SOL    HW127362   2.663   0.511   1.520  0.5755 -2.2748  0.1429
 5243SOL    HW227363   2.737   0.472   1.638  1.5864  0.5513 -2.0257
 5244SOL     OW27364   1.003   0.796   9.187 -0.3587  0.3095 -0.0562
 5244SOL    HW127365   1.069   0.772   9.122 -0.2077  0.2056  0.1380
 5244SOL    HW227366   1.012   0.723   9.248  1.6354  1.2257  0.7345
 5245SOL     OW27367   0.728   3.426   0.599 -0.4695  0.4130 -0.2738
 5245SOL    HW127368   0.664   3.377   0.651 -0.3912  0.6833  0.0832
 5245SOL    HW227369   0.764   3.497   0.653  1.5452 -0.4598 -0.4801
 5246SOL     OW27370   3.589   2.566   7.751 -0.2274 -0.1441 -0.2774
 5246SOL    HW127371   3.571   2.479   7.786 -1.2887  0.0100 -0.4217
 5246SOL    HW227372   3.605   2.613   7.833  0.2486  0.0895 -0.5034
 5247SOL     OW27373   1.611   0.928   8.237  0.5528  0.1875  0.4172
 5247SOL    HW127374   1.539   0.864   8.233  0.1637  0.5374  1.7990
 5247SOL    HW227375   1.638   0.934   8.146 -0.4131 -0.6955  0.0691
 5248SOL     OW27376   2.123   3.341   5.244  0.5381  0.0516 -0.2600
 5248SOL    HW127377   2.181   3.269   5.265  2.1741  1.5326  0.2692
 5248SOL    HW227378   2.173   3.416   5.277  0.2364  1.1676 -2.3675
 5249SOL     OW27379   2.864   0.929   9.577 -0.0156  0.0646  0.1798
 5249SOL    HW127380   2.904   0.996   9.633  1.5638 -0.7405 -0.0066
 5249SOL    HW227381   2.777   0.967   9.565  0.1313  0.0628 -0.9017
 5250SOL     OW27382   4.685   2.408   3.731  0.0433  0.3029 -0.2209
 5250SOL    HW127383   0.010   2.412   3.660 -0.5985 -2.4919 -0.9669
 5250SOL    HW227384   4.621   2.350   3.690  3.2232 -0.5161 -3.9685
 5251SOL     OW27385   0.414   0.042   1.502  0.4870 -0.0633  0.2004
 5251SOL    HW127386   0.499   0.068   1.467  1.8881 -2.2933  1.9486
 5251SOL    HW227387   0.430   0.002   1.588  0.9482 -0.2647  0.0190
 5252SOL     OW27388   0.430   4.717   0.481 -0.0451 -0.2738  0.5879
 5252SOL    HW127389   0.439   4.624   0.502 -0.8109 -0.3119  0.7784
 5252SOL    HW227390   0.368   0.008   0.548 -0.4765  1.0864 -0.4050
 5253SOL     OW27391   0.566   1.161   6.148 -0.3331 -0.1994 -0.0412
 5253SOL    HW127392   0.610   1.100   6.089  0.1465  1.3921 -1.3486
 5253SOL    HW227393   0.584   1.246   6.107  0.5530 -1.9098 -3.2092
 5254SOL     OW27394   1.693   4.055   3.091  0.4003  0.1382  0.4067
 5254SOL    HW127395   1.774   4.005   3.084 -0.1360 -0.7352  0.4299
 5254SOL    HW227396   1.659   4.085   3.006  0.2982 -1.6373 -0.1961
 5255SOL     OW27397   1.332   3.160  11.192 -0.4259 -0.2182  0.1228
 5255SOL    HW127398   1.272   3.164  11.117  0.6089  0.9237 -0.6554
 5255SOL    HW227399   1.295   3.097  11.253 -0.2160 -0.6849 -0.2322
 5256SOL     OW27400   1.980   3.793   4.601  0.4918 -0.1196  0.2780
 5256SOL    HW127401   1.971   3.773   4.508  0.6417  1.0831  0.0148
 5256SOL    HW227402   1.925   3.869   4.619 -0.4592 -1.2186  2.0017
 5257SOL     OW27403   1.195   1.363  15.028  0.0968 -0.7890  0.2901
 5257SOL    HW127404   1.198   1.378  14.934 -0.1424 -0.3211  0.3600
 5257SOL    HW227405   1.262   1.429  15.049 -0.1995 -0.2228 -0.5393
 5258SOL     OW27406   3.958   4.262   9.991 -0.2027  0.0838 -0.0692
 5258SOL    HW127407   3.955   4.170  10.017  1.6165 -0.0253 -0.2572
 5258SOL    HW227408   3.945   4.259   9.896  2.0394  0.9011 -0.3923
 5259SOL     OW27409   2.055   0.756   9.041 -0.1392 -0.2572  0.4495
 5259SOL    HW127410   2.120   0.688   9.057  1.2213  1.1004  0.7159
 5259SOL    HW227411   1.972   0.716   9.067  0.5908 -0.2310  2.8018
 5260SOL     OW27412   1.992   1.926   3.937 -0.0276  0.1528 -1.0426
 5260SOL    HW127413   2.063   1.964   3.885 -0.7633  1.8285 -0.8274
 5260SOL    HW227414   1.991   1.996   4.002  2.5606 -1.3320  0.5905
 5261SOL     OW27415   1.601   3.036   9.858 -0.2590  0.2865 -0.1663
 5261SOL    HW127416   1.668   3.099   9.884  0.3383 -0.9225  1.2081
 5261SOL    HW227417   1.599   2.969   9.927  1.2189  1.7669  1.3284
 5262SOL     OW27418   1.228   2.217   3.884  0.1530 -0.0929  0.0288
 5262SOL    HW127419   1.303   2.276   3.875 -1.7854  1.9723 -2.4317
 5262SOL    HW227420   1.172   2.263   3.946  0.2994 -0.0206  0.1082
 5263SOL     OW27421   2.193   0.576   2.721 -0.5225 -0.2549 -0.0141
 5263SOL    HW127422   2.101   0.586   2.748 -0.1671 -0.2007  1.1931
 5263SOL    HW227423   2.212   0.495   2.768  0.7102 -0.3945 -0.7704
 5264SOL     OW27424   2.957   0.047   4.250  0.0288  0.4657  0.1939
 5264SOL    HW127425   2.977   4.702   4.292  0.6882  0.0134 -1.0384
 5264SOL    HW227426   2.869   0.028   4.218  0.4094  0.3546 -0.7725
 5265SOL     OW27427   0.530   2.502  15.468 -0.4807 -0.8205  0.7480
 5265SOL    HW127428   0.558   2.414  15.440  4.0024  1.0181 -0.5524
 5265SOL    HW227429   0.467   2.511  15.397 -1.3207  1.8309  1.8422
 5266SOL     OW27430   2.467   0.419   5.009  0.4826 -0.3636  0.0915
 5266SOL    HW127431   2.545   0.400   5.061  0.3554 -1.8113 -0.2439
 5266SOL    HW227432   2.461   0.514   5.021 -1.8521 -0.1676 -2.7113
 5267SOL     OW27433   3.318   0.710   6.363 -0.2002  0.0460 -0.0552
 5267SOL    HW127434   3.366   0.683   6.441 -0.9428 -1.3633 -0.0892
 5267SOL    HW227435   3.364   0.793   6.351  1.4633 -1.0336 -1.1986
 5268SOL     OW27436   3.884   4.435  12.943  0.0807 -0.2307  0.1745
 5268SOL    HW127437   3.836   4.512  12.913 -0.6348 -0.8295 -0.2081
 5268SOL    HW227438   3.870   4.376  12.870  0.8959 -0.8901  0.5434
 5269SOL     OW27439   1.896   2.955   4.737 -0.0349 -0.2658  0.1145
 5269SOL    HW127440   1.894   2.997   4.651  2.1769  0.7893  0.5675
 5269SOL    HW227441   1.966   3.001   4.784 -0.2909  0.5548 -0.3062
 5270SOL     OW27442   4.134   3.249   6.106  0.2583  0.0325  0.0500
 5270SOL    HW127443   4.140   3.203   6.022  2.0432  0.1309  0.1248
 5270SOL    HW227444   4.227   3.266   6.114  0.1274  0.0565  1.4854
 5271SOL     OW27445   4.601   3.229   2.996  0.1082 -0.0026 -0.4578
 5271SOL    HW127446   4.636   3.288   3.064 -0.7816 -1.0660  0.9215
 5271SOL    HW227447   4.631   3.268   2.914 -2.6606  1.5885 -0.7245
 5272SOL     OW27448   2.340   0.672   7.496 -0.5768 -0.0817 -0.3378
 5272SOL    HW127449   2.248   0.645   7.500  0.1752 -2.6234 -0.1958
 5272SOL    HW227450   2.366   0.660   7.587 -0.7903 -0.7353 -0.3645
 5273SOL     OW27451   1.365   3.946   2.278  0.0415 -0.4015 -0.4901
 5273SOL    HW127452   1.309   3.946   2.356 -1.3253  1.9074 -1.4603
 5273SOL    HW227453   1.385   4.038   2.262 -0.9587 -0.0185  0.4263
 5274SOL     OW27454   4.094   3.444   5.828 -0.0016  0.2191 -0.4793
 5274SOL    HW127455   4.125   3.475   5.742  1.0205 -0.4204 -0.3373
 5274SOL    HW227456   4.130   3.355   5.831 -0.8069  0.0259  2.5987
 5275SOL     OW27457   1.430   4.616   5.946  0.0175  0.1666 -0.1572
 5275SOL    HW127458   1.515   4.649   5.918 -0.3376  1.6508  0.5283
 5275SOL    HW227459   1.441   4.595   6.039  0.5858 -1.0902 -0.5073
 5276SOL     OW27460   0.102   0.377   0.440 -0.0729 -0.8279 -0.0590
 5276SOL    HW127461   0.088   0.445   0.374 -0.9609 -0.0126  0.9600
 5276SOL    HW227462   0.098   0.305   0.378 -3.6001 -2.1622  1.7453
 5277SOL     OW27463   3.144   1.722   1.612  0.4968  0.1277  0.6285
 5277SOL    HW127464   3.109   1.634   1.597 -1.7307  0.7731  1.9473
 5277SOL    HW227465   3.068   1.770   1.579 -0.4903 -2.4117 -0.8169
 5278SOL     OW27466   0.952   2.376   5.718  0.5648 -0.3329  0.1671
 5278SOL    HW127467   1.004   2.295   5.727 -2.0800 -1.8174  1.9615
 5278SOL    HW227468   0.988   2.428   5.790  0.4177  1.2533 -0.9039
 5279SOL     OW27469   2.915   1.891   5.863  0.0117  0.0515  0.0453
 5279SOL    HW127470   2.978   1.963   5.857  3.6269 -3.1589 -0.1038
 5279SOL    HW227471   2.922   1.863   5.955 -1.2952 -0.7969 -0.1138
 5280SOL     OW27472   3.175   2.533   2.638 -0.4946  0.4274  0.0325
 5280SOL    HW127473   3.107   2.556   2.574 -0.9395 -0.5465  0.1466
 5280SOL    HW227474   3.162   2.603   2.701 -0.7798 -0.9155  1.4732
 5281SOL     OW27475   4.097   4.672   8.644 -0.4188  0.2422  1.0864
 5281SOL    HW127476   4.139   0.019   8.642 -0.6422  0.3418  0.7682
 5281SOL    HW227477   4.018   4.705   8.688 -1.4102 -0.1348 -0.4332
 5282SOL     OW27478   1.639   0.647   3.124 -0.0731  0.4742  0.4614
 5282SOL    HW127479   1.728   0.613   3.131 -0.0356  0.7732  1.4962
 5282SOL    HW227480   1.590   0.596   3.188  0.0731  1.4268  1.3512
 5283SOL     OW27481   4.242   4.672   3.118  0.3640  0.8498 -0.0416
 5283SOL    HW127482   4.300   0.005   3.144  1.8399 -0.6780  0.8877
 5283SOL    HW227483   4.232   4.624   3.199  1.5366 -0.3672 -0.6203
 5284SOL     OW27484   3.722   3.779  13.711 -0.7234 -0.2408  0.1696
 5284SOL    HW127485   3.744   3.856  13.765  2.6761 -0.3240 -1.1226
 5284SOL    HW227486   3.721   3.713  13.780 -0.0092 -2.4417 -1.9484
 5285SOL     OW27487   4.244   2.115   6.308 -0.3449  0.2115  0.7781
 5285SOL    HW127488   4.217   2.082   6.222  0.6131 -0.2207  0.6408
 5285SOL    HW227489   4.179   2.181   6.334 -1.5786 -0.9454  0.6634
 5286SOL     OW27490   1.538   4.107   7.355 -0.6392  0.8791 -0.0168
 5286SOL    HW127491   1.510   4.148   7.437 -0.7845  0.7851 -0.0189
 5286SOL    HW227492   1.542   4.015   7.379  0.2999  0.8767 -0.2144
 5287SOL     OW27493   0.636   3.739  11.114  0.2434 -0.8024 -0.3287
 5287SOL    HW127494   0.625   3.725  11.020  1.1093  0.7395 -0.6661
 5287SOL    HW227495   0.722   3.697  11.127 -0.6427 -1.7759  2.3827
 5288SOL     OW27496   1.783   3.068   5.538 -0.0668  0.2330  0.0573
 5288SOL    HW127497   1.786   3.075   5.633  2.3458 -2.1209  0.1619
 5288SOL    HW227498   1.841   3.140   5.512 -0.8680  0.2053 -1.7619
 5289SOL     OW27499   3.573   1.827  17.343  0.1883  0.6247  0.2321
 5289SOL    HW127500   3.498   1.821  17.403 -0.2874  0.5362 -0.3681
 5289SOL    HW227501   3.634   1.882  17.392  0.0058  0.6414  0.4421
 5290SOL     OW27502   2.442   2.889  12.918 -0.0366 -0.4271 -0.2980
 5290SOL    HW127503   2.520   2.936  12.949 -0.8511  1.0128 -0.4347
 5290SOL    HW227504   2.472   2.802  12.946  1.3972  0.2444  0.2397
 5291SOL     OW27505   4.577   1.799  10.707 -0.1284  0.1842 -0.0024
 5291SOL    HW127506   4.588   1.885  10.666 -0.6719 -0.4046 -1.3769
 5291SOL    HW227507   4.482   1.797  10.714 -0.1291  1.0626  0.3476
 5292SOL     OW27508   2.965   0.882   7.196  0.3905  0.2741 -0.5879
 5292SOL    HW127509   2.911   0.817   7.152 -2.2492 -0.1097  3.2134
 5292SOL    HW227510   2.981   0.844   7.283  0.2327  0.4162 -0.4952
 5293SOL     OW27511   0.297   2.541   5.058  0.1499 -0.3246 -0.5544
 5293SOL    HW127512   0.333   2.501   5.137  0.0390  0.9845  0.1446
 5293SOL    HW227513   0.320   2.632   5.075 -1.3000  0.0160 -0.4971
 5294SOL     OW27514   4.503   1.699   4.688 -0.1652 -0.3938  0.0285
 5294SOL    HW127515   4.586   1.659   4.713 -0.8341 -1.0950  1.1269
 5294SOL    HW227516   4.432   1.640   4.713  0.0915 -0.4509  0.6169
 5295SOL     OW27517   1.396   1.583  13.468 -0.3369  0.1322 -1.0360
 5295SOL    HW127518   1.351   1.534  13.400 -0.1563 -4.3351  2.0755
 5295SOL    HW227519   1.409   1.520  13.539  1.9921  0.5732 -1.0606
 5296SOL     OW27520   2.185   1.319   5.071  0.2109  0.6052  0.2789
 5296SOL    HW127521   2.136   1.273   5.003  0.9237  0.2567 -0.0011
 5296SOL    HW227522   2.254   1.343   5.009 -0.2584  1.5779  0.1315
 5297SOL     OW27523   1.679   0.926  16.260  0.1206  0.3208  0.0733
 5297SOL    HW127524   1.646   0.882  16.338  1.0737  0.2313  0.4187
 5297SOL    HW227525   1.772   0.940  16.276  0.1363  1.3358 -0.9020
 5298SOL     OW27526   1.696   1.200   7.399 -0.4625 -0.2052 -0.4139
 5298SOL    HW127527   1.614   1.250   7.394 -1.5286 -1.9401 -0.3678
 5298SOL    HW227528   1.681   1.150   7.480  1.0220  0.7709  0.4669
 5299SOL     OW27529   4.525   1.403   2.311 -0.1158 -0.2465 -0.2734
 5299SOL    HW127530   4.486   1.425   2.227 -0.0653  0.5045 -0.1023
 5299SOL    HW227531   4.500   1.474   2.371  1.5005  0.0488  0.0606
 5300SOL     OW27532   1.568   3.828   8.838  0.5550 -0.6210 -0.4153
 5300SOL    HW127533   1.491   3.774   8.854 -1.2907  1.4231 -2.4323
 5300SOL    HW227534   1.599   3.843   8.927  1.5757 -0.7451 -0.7543
 5301SOL     OW27535   2.078   1.775  14.240 -0.0038  0.1330  0.5777
 5301SOL    HW127536   2.122   1.790  14.156 -0.8514 -3.0602 -0.4642
 5301SOL    HW227537   2.148   1.742  14.295  0.1172  0.3802  0.5709
 5302SOL     OW27538   3.655   3.664   4.838  0.4037 -0.1154  0.8419
 5302SOL    HW127539   3.612   3.735   4.885 -1.6548  0.1490 -1.4494
 5302SOL    HW227540   3.648   3.699   4.749 -0.1590  0.0939  0.9681
 5303SOL     OW27541   3.465   2.547   0.905  0.4020  0.3395 -0.1445
 5303SOL    HW127542   3.493   2.483   0.971  2.2670  0.2600 -1.0095
 5303SOL    HW227543   3.435   2.617   0.962  0.4170 -1.4178  2.0428
 5304SOL     OW27544   1.062   2.690   2.277 -0.0620 -0.4463 -0.4017
 5304SOL    HW127545   0.994   2.623   2.282 -0.2086 -0.4273 -1.9868
 5304SOL    HW227546   1.042   2.753   2.346 -0.4626  0.5699 -1.4446
 5305SOL     OW27547   3.250   2.076   6.179 -0.4398  0.3730 -0.0487
 5305SOL    HW127548   3.186   2.145   6.197  0.3237  1.2204 -0.6190
 5305SOL    HW227549   3.326   2.125   6.146  0.8884 -1.1388  0.7825
 5306SOL     OW27550   4.010   1.158   9.974 -0.1857  0.4216  0.0260
 5306SOL    HW127551   4.014   1.142   9.880 -0.4387  2.1062 -0.2647
 5306SOL    HW227552   3.919   1.189   9.969 -0.3839 -0.2561 -0.5130
 5307SOL     OW27553   1.213   2.129   8.961  0.4958 -0.4210  0.2922
 5307SOL    HW127554   1.145   2.181   9.005 -0.3285  0.4309 -2.0116
 5307SOL    HW227555   1.184   2.043   8.990 -0.4389  0.5663  2.2898
 5308SOL     OW27556   3.287   0.796  15.109 -0.2060 -0.0440  0.1718
 5308SOL    HW127557   3.233   0.765  15.182  1.8952 -1.4875  1.1310
 5308SOL    HW227558   3.302   0.887  15.132 -0.9611  0.6812 -2.2176
 5309SOL     OW27559   4.686   2.315   4.868 -0.1664 -0.2761  0.2321
 5309SOL    HW127560   4.616   2.359   4.819  0.5259  2.0505  1.3126
 5309SOL    HW227561   4.694   2.381   4.937  0.9306 -0.4393  0.2581
 5310SOL     OW27562   1.534   4.640   1.046 -0.4621  0.0965  0.0704
 5310SOL    HW127563   1.478   4.658   1.121  1.0305 -0.9280  1.4367
 5310SOL    HW227564   1.611   4.686   1.077 -1.7376  1.9508  0.4678
 5311SOL     OW27565   4.367   3.022  16.629 -0.5903 -0.4038  0.4758
 5311SOL    HW127566   4.349   3.066  16.713  3.8501  0.7031  0.8960
 5311SOL    HW227567   4.354   2.929  16.647 -0.6576 -0.4229  0.3279
 5312SOL     OW27568   1.723   0.830   5.299  0.3297  0.6596 -0.0394
 5312SOL    HW127569   1.631   0.805   5.308 -0.0188  1.2693 -1.9807
 5312SOL    HW227570   1.741   0.767   5.230 -1.7842 -0.8746  0.8034
 5313SOL     OW27571   1.380   3.632  10.184 -0.2019 -0.2931  0.5939
 5313SOL    HW127572   1.304   3.690  10.185 -1.1482 -1.5041 -0.0710
 5313SOL    HW227573   1.349   3.550  10.145 -0.1820  1.2255 -2.6400
 5314SOL     OW27574   2.308   0.167   2.606  0.2633 -0.6794  0.6396
 5314SOL    HW127575   2.228   0.116   2.603  0.4515 -0.9920  0.9356
 5314SOL    HW227576   2.377   0.105   2.585  1.3747  0.4133  1.0303
 5315SOL     OW27577   1.237   0.770   9.443  0.2938  0.1572 -0.1649
 5315SOL    HW127578   1.178   0.805   9.510  0.9285  2.8222 -1.0069
 5315SOL    HW227579   1.287   0.850   9.425  0.8699  0.3570  2.2910
 5316SOL     OW27580   0.747   1.540  15.964 -0.3557  0.5291  0.1282
 5316SOL    HW127581   0.686   1.526  15.891  2.3898  0.7678 -2.1816
 5316SOL    HW227582   0.694   1.504  16.036  0.2371  0.6143  0.6035
 5317SOL     OW27583   2.758   1.234   5.219 -0.5907  0.3254  0.3374
 5317SOL    HW127584   2.695   1.208   5.152  1.9659  2.1952 -2.7816
 5317SOL    HW227585   2.706   1.307   5.255  1.5151  2.0014 -0.0499
 5318SOL     OW27586   3.952   0.520   3.627  0.8566 -0.0980  0.0642
 5318SOL    HW127587   3.860   0.537   3.646  1.3057  0.1774  2.0066
 5318SOL    HW227588   3.978   0.561   3.544 -0.4558 -0.6614 -0.6182
 5319SOL     OW27589   3.907   0.067   8.775 -0.4029 -0.1414  0.2119
 5319SOL    HW127590   3.912   0.158   8.804 -0.3255 -0.9026  2.6176
 5319SOL    HW227591   3.933   0.020   8.854 -0.8036  0.1703  0.5302
 5320SOL     OW27592   3.832   0.112   7.149  0.2019 -0.2385 -0.3147
 5320SOL    HW127593   3.857   0.088   7.238 -0.2484  0.7114  0.0753
 5320SOL    HW227594   3.892   0.062   7.094  0.2426 -0.2881 -0.2253
 5321SOL     OW27595   1.133   4.078  12.614 -0.1078 -0.5248  0.2668
 5321SOL    HW127596   1.040   4.094  12.625  0.0568 -0.8272  2.2046
 5321SOL    HW227597   1.162   4.168  12.627  0.7577 -0.2398 -3.6504
 5322SOL     OW27598   3.041   3.494  17.671 -0.4024  0.0519  0.3732
 5322SOL    HW127599   3.085   3.483  17.587  0.0858  0.7190  0.5322
 5322SOL    HW227600   3.073   3.416  17.716  1.6561 -0.4364 -1.9512
 5323SOL     OW27601   4.152   2.468   2.924 -0.0924  0.1985  0.5350
 5323SOL    HW127602   4.110   2.456   3.009 -1.3455  1.2233  0.0671
 5323SOL    HW227603   4.104   2.544   2.893 -2.6074 -1.6968 -0.2432
 5324SOL     OW27604   2.208   1.108  11.227 -0.0829 -0.4152  0.5748
 5324SOL    HW127605   2.206   1.013  11.219 -0.5300 -0.3660  0.1285
 5324SOL    HW227606   2.172   1.107  11.315 -3.9344 -0.3819 -1.0065
 5325SOL     OW27607   0.607   4.549   5.856  0.1722  0.6140 -0.1843
 5325SOL    HW127608   0.700   4.529   5.865 -0.1993 -0.7760  0.5739
 5325SOL    HW227609   0.613   4.636   5.818  2.1921  0.9885  0.9748
 5326SOL     OW27610   4.414   3.562   3.117  0.4240  0.4814  0.0467
 5326SOL    HW127611   4.369   3.629   3.169  1.1838  0.3033  0.9268
 5326SOL    HW227612   4.471   3.622   3.068  1.5940 -0.9281 -0.2940
 5327SOL     OW27613   0.442   0.743   9.076 -0.2550 -0.0903  0.2133
 5327SOL    HW127614   0.395   0.681   9.132 -1.2436  2.5284  2.2997
 5327SOL    HW227615   0.524   0.750   9.124  0.9197  0.1421 -1.8332
 5328SOL     OW27616   3.136   2.829   3.132  0.8568  0.0466 -0.1228
 5328SOL    HW127617   3.060   2.888   3.135  0.5944 -0.2635 -0.6866
 5328SOL    HW227618   3.192   2.872   3.068  0.2054  0.3067 -0.5218
 5329SOL     OW27619   0.865   0.511   8.834 -0.4314 -0.2205 -0.0784
 5329SOL    HW127620   0.904   0.461   8.762  0.6090  1.1861 -0.5131
 5329SOL    HW227621   0.902   0.598   8.819 -0.3486 -0.2936 -0.3017
 5330SOL     OW27622   0.855   1.903  10.247 -0.6269 -0.4913 -0.1809
 5330SOL    HW127623   0.788   1.959  10.206  0.8720  1.3882 -0.0624
 5330SOL    HW227624   0.833   1.911  10.339  0.4766 -1.2504  0.1473
 5331SOL     OW27625   3.909   2.194   6.464  0.5404 -0.3173 -0.1966
 5331SOL    HW127626   3.905   2.120   6.403  0.9508 -0.6098  0.1402
 5331SOL    HW227627   3.951   2.157   6.541 -0.0986  2.7777  1.6361
 5332SOL     OW27628   2.678   1.829   7.225 -0.1497  0.3719 -0.5074
 5332SOL    HW127629   2.633   1.764   7.279 -1.7396  1.4156 -0.5605
 5332SOL    HW227630   2.769   1.824   7.253 -0.2192  1.0007 -0.1684
 5333SOL     OW27631   3.773   0.295   9.125 -0.1544  0.0965 -0.2214
 5333SOL    HW127632   3.738   0.207   9.110  2.4699 -1.0790  0.5749
 5333SOL    HW227633   3.694   0.339   9.158  0.5356  0.8190  0.4629
 5334SOL     OW27634   2.556   3.024   8.179 -0.3890  0.0910 -0.5268
 5334SOL    HW127635   2.478   2.984   8.140  0.0993 -0.6311 -0.7683
 5334SOL    HW227636   2.524   3.044   8.267  1.6394 -0.6099  0.3633
 5335SOL     OW27637   1.278   1.083   9.417 -0.3451  0.6860  0.3109
 5335SOL    HW127638   1.218   1.056   9.347  0.8246  1.8691 -1.1637
 5335SOL    HW227639   1.234   1.149   9.471  0.6290  0.6666  1.1401
 5336SOL     OW27640   0.760   3.045   4.191 -0.4637  0.3665 -0.5162
 5336SOL    HW127641   0.736   3.028   4.100  0.9490  1.0267 -1.0159
 5336SOL    HW227642   0.699   2.999   4.248  3.2173 -1.5434  1.8468
 5337SOL     OW27643   3.084   1.642  14.756  0.1475  0.6439 -0.2951
 5337SOL    HW127644   3.130   1.618  14.676  0.0428 -2.3164  0.5605
 5337SOL    HW227645   3.056   1.558  14.792  0.5929  0.4969 -0.2954
 5338SOL     OW27646   4.602   2.456   7.109  0.1222  0.3576  0.4088
 5338SOL    HW127647   4.678   2.506   7.138  0.1740  1.1728 -1.1430
 5338SOL    HW227648   4.651   2.379   7.082  0.3506  0.5756  0.2010
 5339SOL     OW27649   1.913   0.885  16.418 -0.0553 -0.8346 -0.2449
 5339SOL    HW127650   1.918   0.811  16.478 -2.1928  0.3195  1.3224
 5339SOL    HW227651   1.871   0.951  16.473 -0.5706 -1.9263  0.6858
 5340SOL     OW27652   0.890   2.113   6.312  0.6017  0.6648 -0.2175
 5340SOL    HW127653   0.924   2.190   6.358  1.2672  1.8314 -2.6651
 5340SOL    HW227654   0.972   2.086   6.272  0.4350 -0.4471  0.1853
 5341SOL     OW27655   0.742   2.678   6.696  0.2162 -0.1098 -0.0629
 5341SOL    HW127656   0.649   2.683   6.716 -0.3371 -0.2658 -2.7133
 5341SOL    HW227657   0.751   2.708   6.606  2.4915 -0.8109 -0.0880
 5342SOL     OW27658   0.725   0.790   9.135  0.0703 -0.1101 -0.4741
 5342SOL    HW127659   0.688   0.873   9.165  0.9444  0.1879 -0.2384
 5342SOL    HW227660   0.817   0.814   9.146 -0.2368  0.4537  0.8075
 5343SOL     OW27661   1.559   0.436   9.428  0.2270  0.1359  0.1198
 5343SOL    HW127662   1.466   0.446   9.413  0.8684  3.1295 -1.8198
 5343SOL    HW227663   1.567   0.498   9.500 -1.6671 -0.0046  0.4289
 5344SOL     OW27664   3.042   1.862   2.220  0.9473 -0.0798  0.1764
 5344SOL    HW127665   2.983   1.791   2.196  0.1314  0.2728  1.1420
 5344SOL    HW227666   3.074   1.890   2.134  1.0378  3.6778  1.4399
 5345SOL     OW27667   1.647   4.559   7.533 -0.0190 -0.0708  0.1818
 5345SOL    HW127668   1.599   4.480   7.558  1.7566 -0.7477  1.4313
 5345SOL    HW227669   1.708   4.511   7.477  2.5216  2.5660  0.6898
 5346SOL     OW27670   1.915   3.378   4.535 -0.1981  0.0023  0.6959
 5346SOL    HW127671   1.908   3.453   4.594 -0.4313  0.7563 -0.2785
 5346SOL    HW227672   2.009   3.362   4.530  0.2874  2.9244  0.5058
 5347SOL     OW27673   3.319   4.187  15.592  0.1575  0.3490 -0.4699
 5347SOL    HW127674   3.377   4.239  15.537  0.3270  0.4876 -0.1582
 5347SOL    HW227675   3.338   4.234  15.673 -0.4843  0.1517 -0.2030
 5348SOL     OW27676   0.708   0.940   1.629  0.1719  0.0842  0.2319
 5348SOL    HW127677   0.661   0.933   1.712 -0.1767 -1.3688 -0.0886
 5348SOL    HW227678   0.785   0.992   1.653  0.9041 -0.1213 -1.6661
 5349SOL     OW27679   1.841   2.446   7.386  0.3370 -0.2196 -0.2784
 5349SOL    HW127680   1.921   2.496   7.368  0.9866 -1.7031 -1.4750
 5349SOL    HW227681   1.846   2.432   7.480 -0.6349 -0.5105 -0.2659
 5350SOL     OW27682   4.660   3.221  12.272  0.1142 -0.1209  0.4571
 5350SOL    HW127683   0.017   3.232  12.276  0.3542 -1.9570 -0.0946
 5350SOL    HW227684   4.652   3.132  12.240  0.4080 -0.7442  2.0757
 5351SOL     OW27685   4.032   0.601   0.572  0.1735  0.4285  0.2018
 5351SOL    HW127686   4.060   0.680   0.620 -1.7992  0.6724  0.9455
 5351SOL    HW227687   4.112   0.550   0.579  0.6607  1.1676  0.0225
 5352SOL     OW27688   2.633   0.067   7.861  0.1048  0.0065 -0.0845
 5352SOL    HW127689   2.684   4.725   7.857 -1.8357 -1.2525  0.7392
 5352SOL    HW227690   2.626   0.081   7.766 -0.7323  0.2529  0.0150
 5353SOL     OW27691   3.459   4.722  13.159 -0.0151 -0.9682  0.2790
 5353SOL    HW127692   3.384   4.725  13.100  1.2159  0.6282 -1.2214
 5353SOL    HW227693   3.423   4.737  13.246 -1.1354 -0.4320 -0.2785
 5354SOL     OW27694   2.814   1.067   2.373 -0.3686 -0.4220  0.7176
 5354SOL    HW127695   2.765   1.087   2.453 -0.3142 -0.5504  0.7838
 5354SOL    HW227696   2.892   1.115   2.403 -0.2040  0.1636 -0.6558
 5355SOL     OW27697   3.258   0.129   4.686  1.1161  0.0671 -0.2059
 5355SOL    HW127698   3.271   0.034   4.686  1.2489  0.0849 -0.8081
 5355SOL    HW227699   3.319   0.162   4.752 -1.8821  0.4555  2.4277
 5356SOL     OW27700   3.412   4.202   5.990  0.3235  0.3014  0.3231
 5356SOL    HW127701   3.329   4.234   5.957  1.0285  1.0306 -0.7500
 5356SOL    HW227702   3.439   4.159   5.909 -0.9649 -0.3318  0.2405
 5357SOL     OW27703   2.135   1.733  17.002  0.1412 -0.4290  0.4963
 5357SOL    HW127704   2.089   1.715  16.919  1.9843 -0.3010 -0.5558
 5357SOL    HW227705   2.069   1.762  17.065  1.3441 -0.0755  1.5809
 5358SOL     OW27706   3.895   3.599  12.483 -0.2278  0.3221 -0.5016
 5358SOL    HW127707   3.875   3.515  12.441 -5.1300  0.6382  1.1672
 5358SOL    HW227708   3.990   3.596  12.486 -0.3017 -0.3033  1.4208
 5359SOL     OW27709   2.646   0.630   6.355 -0.8025 -0.0359 -0.0003
 5359SOL    HW127710   2.632   0.656   6.446 -1.8071  0.2522 -0.2404
 5359SOL    HW227711   2.721   0.683   6.326 -0.1638 -1.5495 -1.1238
 5360SOL     OW27712   4.143   4.642   6.763 -0.3517 -0.0949  0.5432
 5360SOL    HW127713   4.108   4.658   6.676 -0.8577 -1.1377  0.5533
 5360SOL    HW227714   4.237   4.630   6.748 -0.6265  0.2091 -1.4356
 5361SOL     OW27715   0.973   1.479   4.927 -0.4872 -0.1426  0.1374
 5361SOL    HW127716   0.946   1.450   5.014 -1.7882  1.5819  0.3097
 5361SOL    HW227717   0.883   1.508   4.914 -0.8428 -1.5914 -0.5895
 5362SOL     OW27718   2.512   2.431   5.956 -0.9609 -0.0910 -0.2468
 5362SOL    HW127719   2.507   2.523   5.930  1.0381 -0.2547 -1.1968
 5362SOL    HW227720   2.496   2.381   5.876 -0.1626 -2.2895  0.9637
 5363SOL     OW27721   1.529   1.802   1.288  0.2360 -0.4745 -0.1452
 5363SOL    HW127722   1.460   1.767   1.231  0.4624 -0.9818 -0.1120
 5363SOL    HW227723   1.493   1.774   1.372  0.2328 -0.9593 -0.3041
 5364SOL     OW27724   1.478   2.851   1.717  0.8294 -0.2796 -0.4903
 5364SOL    HW127725   1.472   2.939   1.681 -1.0950  0.2149  1.0513
 5364SOL    HW227726   1.571   2.830   1.703  1.0512  0.2179  0.2152
 5365SOL     OW27727   2.275   2.238   2.502  0.8848  0.3762 -0.2084
 5365SOL    HW127728   2.227   2.168   2.547  0.6327 -0.5006 -1.8062
 5365SOL    HW227729   2.211   2.276   2.442  0.0096  3.3009  2.6464
 5366SOL     OW27730   3.628   4.502  12.851  0.3991  0.6847  0.1850
 5366SOL    HW127731   3.567   4.567  12.883 -1.6547 -0.5865 -1.1709
 5366SOL    HW227732   3.617   4.426  12.909  1.0265 -0.1255 -0.7497
 5367SOL     OW27733   3.350   0.238  12.996 -0.0666 -0.3043  0.0634
 5367SOL    HW127734   3.391   0.235  13.082  3.3322 -2.1544 -1.6236
 5367SOL    HW227735   3.332   0.327  12.966  1.7055  0.6278  1.7927
 5368SOL     OW27736   2.778   4.375   2.753  0.5782 -0.6005  0.0077
 5368SOL    HW127737   2.684   4.392   2.755  0.6699 -0.3027  1.6078
 5368SOL    HW227738   2.811   4.458   2.785 -1.4200  0.3427 -0.3590
 5369SOL     OW27739   4.392   0.893   1.484 -0.1971  0.6757  0.0054
 5369SOL    HW127740   4.324   0.944   1.528 -1.4413 -1.3688  0.4541
 5369SOL    HW227741   4.387   0.924   1.394 -0.1012 -2.8428 -1.2259
 5370SOL     OW27742   1.496   2.232   6.857 -0.1990 -0.6635 -0.2973
 5370SOL    HW127743   1.569   2.211   6.916 -0.1981 -0.8315 -0.3585
 5370SOL    HW227744   1.485   2.324   6.881 -0.9021 -0.2837 -2.0547
 5371SOL     OW27745   2.296   1.920   6.694 -0.0983  0.3597  0.1792
 5371SOL    HW127746   2.330   1.834   6.715 -1.9899 -1.1677 -3.0809
 5371SOL    HW227747   2.250   1.924   6.610  1.2550  3.3904 -0.4320
 5372SOL     OW27748   0.281   1.187   6.161  0.7792  0.4095 -0.3879
 5372SOL    HW127749   0.284   1.174   6.066  0.8942 -0.6046 -0.2386
 5372SOL    HW227750   0.376   1.187   6.163  0.8026  0.4213 -1.3920
 5373SOL     OW27751   4.105   3.502   3.836  0.3217 -0.2066 -0.1772
 5373SOL    HW127752   4.173   3.437   3.858 -0.2823 -0.9694 -0.5759
 5373SOL    HW227753   4.066   3.509   3.923  0.2014  0.4584 -0.2890
 5374SOL     OW27754   1.235   3.884  13.656  0.2718  0.4306 -0.0567
 5374SOL    HW127755   1.156   3.929  13.688 -1.1969 -0.3473 -2.5909
 5374SOL    HW227756   1.254   3.833  13.735  1.0114 -0.8203 -1.0529
 5375SOL     OW27757   1.889   3.090   4.489  0.1531 -0.0634  0.2195
 5375SOL    HW127758   1.910   3.179   4.516 -1.2688  0.2317  0.3663
 5375SOL    HW227759   1.856   3.109   4.401  0.0605 -0.5498  0.1502
 5376SOL     OW27760   1.180   1.649   7.681  0.5108 -0.0270 -0.5049
 5376SOL    HW127761   1.104   1.605   7.644  0.0676  0.9377 -0.7316
 5376SOL    HW227762   1.180   1.615   7.770  0.4797 -0.4121 -0.6534
 5377SOL     OW27763   0.137   0.908   5.188  0.2371  0.5256  0.5947
 5377SOL    HW127764   0.195   0.926   5.261  1.6922 -0.3134 -0.3485
 5377SOL    HW227765   0.141   0.813   5.180 -2.1004  0.3203  1.8678
 5378SOL     OW27766   0.059   0.955  11.847 -0.0220 -1.0597 -0.2600
 5378SOL    HW127767   0.100   0.974  11.931 -3.6310  2.3163  0.7353
 5378SOL    HW227768   0.003   0.885  11.880  3.4864 -3.7272  0.0649
 5379SOL     OW27769   4.386   0.492   6.954  0.0774 -0.1970  0.3600
 5379SOL    HW127770   4.313   0.485   7.016 -0.7405 -1.6030 -0.7569
 5379SOL    HW227771   4.387   0.398   6.936 -0.2160 -0.0044 -0.6718
 5380SOL     OW27772   1.566   2.501   0.342  0.1335 -0.1685 -0.1882
 5380SOL    HW127773   1.520   2.585   0.345 -1.9821 -1.3079 -1.3020
 5380SOL    HW227774   1.492   2.442   0.354 -0.0250 -0.2022 -1.4353
 5381SOL     OW27775   0.407   3.318   7.545 -0.3207  0.9110 -0.1658
 5381SOL    HW127776   0.403   3.411   7.566 -0.3788  1.6736 -3.5475
 5381SOL    HW227777   0.437   3.280   7.627 -1.6301 -2.9270 -1.4532
 5382SOL     OW27778   0.281   1.333   5.467  0.4788 -0.1039  0.4867
 5382SOL    HW127779   0.223   1.331   5.544  0.2488 -2.4016  0.2727
 5382SOL    HW227780   0.309   1.424   5.458  1.4035 -0.4973 -0.6578
 5383SOL     OW27781   1.604   0.595   6.508  0.4898 -0.0608  0.1786
 5383SOL    HW127782   1.549   0.653   6.455 -0.3623 -2.0523 -1.1012
 5383SOL    HW227783   1.651   0.656   6.566  1.4143  1.5558 -2.2662
 5384SOL     OW27784   1.733   0.183   9.766 -0.4904  0.1895  0.6518
 5384SOL    HW127785   1.790   0.260   9.775 -2.7234  1.7432  1.4840
 5384SOL    HW227786   1.755   0.129   9.842 -2.3998 -1.4732  0.0416
 5385SOL     OW27787   2.133   1.905   5.641 -0.3378 -0.7532  0.5451
 5385SOL    HW127788   2.195   1.852   5.691  1.7740 -0.3116 -1.6121
 5385SOL    HW227789   2.127   1.981   5.699 -1.7302  0.7265 -1.5028
 5386SOL     OW27790   0.165   0.742   4.786  0.2629 -0.1885  0.5283
 5386SOL    HW127791   0.209   0.762   4.869 -0.2307 -2.5071  1.3330
 5386SOL    HW227792   0.082   0.788   4.799  0.4183  0.2373  0.0412
 5387SOL     OW27793   3.602   3.726  12.243 -0.6437  0.1252  0.2578
 5387SOL    HW127794   3.598   3.636  12.210  0.2945  0.0054  0.4700
 5387SOL    HW227795   3.569   3.776  12.169  2.7476  1.9371 -0.0088
 5388SOL     OW27796   0.116   0.016   3.212 -0.2854  0.3657  0.4817
 5388SOL    HW127797   0.107   0.090   3.272 -1.0613 -1.2815  2.4020
 5388SOL    HW227798   0.206   0.026   3.183 -0.2643  0.5473  0.6072
 5389SOL     OW27799   2.701   4.719   5.748 -0.3006 -0.0903 -0.2108
 5389SOL    HW127800   2.621   0.028   5.727  1.1417  2.1410 -0.6095
 5389SOL    HW227801   2.669   4.665   5.820 -1.5651  2.1609  0.9181
 5390SOL     OW27802   4.699   0.954  11.467  0.0490 -0.2873  0.6701
 5390SOL    HW127803   4.607   0.937  11.444  0.5028 -0.1380 -1.2464
 5390SOL    HW227804   4.738   0.869  11.487  1.3992  0.1907  0.0724
 5391SOL     OW27805   4.075   2.918   3.182 -0.4079  1.0069 -0.0262
 5391SOL    HW127806   4.043   2.829   3.193  0.9720  0.6384  1.1893
 5391SOL    HW227807   4.051   2.930   3.090  0.0847  0.4344 -0.2259
 5392SOL     OW27808   2.417   1.622  16.774 -0.1539  0.3018 -0.0451
 5392SOL    HW127809   2.404   1.533  16.741 -1.3187  1.3109 -2.2956
 5392SOL    HW227810   2.399   1.592  16.863  0.0652  0.3952  0.0324
 5393SOL     OW27811   2.640   4.387   1.221 -0.2496  0.4577  0.2211
 5393SOL    HW127812   2.632   4.294   1.203 -2.1154  0.6176  0.1816
 5393SOL    HW227813   2.573   4.408   1.286 -1.7229 -1.3575 -0.7032
 5394SOL     OW27814   1.521   2.879  11.102 -0.0782  0.1966 -0.1250
 5394SOL    HW127815   1.569   2.897  11.021  0.0764  0.4075  0.0137
 5394SOL    HW227816   1.502   2.785  11.099  0.4784  0.0513  0.8520
 5395SOL     OW27817   4.575   0.670  10.184  0.2415 -0.0980 -0.2883
 5395SOL    HW127818   4.634   0.740  10.209  0.8722 -1.1491  1.2039
 5395SOL    HW227819   4.491   0.715  10.195  1.2958  1.6593  0.4064
 5396SOL     OW27820   1.294   3.610   1.975  0.3505 -0.0433  0.1325
 5396SOL    HW127821   1.338   3.531   1.945 -1.9590 -1.6017  0.8156
 5396SOL    HW227822   1.340   3.677   1.924 -0.7141 -1.5927 -2.8433
 5397SOL     OW27823   2.323   3.549   5.092  0.0372 -0.0085 -0.2664
 5397SOL    HW127824   2.299   3.543   5.185  1.0238  0.2845  0.0003
 5397SOL    HW227825   2.417   3.567   5.092  0.3460 -1.6202 -1.0003
 5398SOL     OW27826   0.680   0.316   6.093  0.3067  0.5340 -0.1591
 5398SOL    HW127827   0.615   0.360   6.148 -1.5334 -0.3115 -1.6429
 5398SOL    HW227828   0.631   0.319   6.011 -3.1553  0.7001  1.9249
 5399SOL     OW27829   1.929   0.888   8.820 -0.5569 -0.1901 -0.0113
 5399SOL    HW127830   1.986   0.821   8.857 -3.6764 -2.7368  0.1088
 5399SOL    HW227831   1.867   0.826   8.781 -1.5178  0.5481  0.3387
 5400SOL     OW27832   3.721   0.694   3.155  0.4524  0.1300  0.1192
 5400SOL    HW127833   3.649   0.755   3.142  0.7755  0.8292  1.6201
 5400SOL    HW227834   3.789   0.721   3.093 -0.8055  0.2816 -1.1908
 5401SOL     OW27835   2.916   0.103   4.548 -0.0633 -0.2213  0.0922
 5401SOL    HW127836   2.920   0.090   4.454 -3.5078  1.4759 -0.2864
 5401SOL    HW227837   2.825   0.130   4.565  0.0512 -0.1096  0.5314
 5402SOL     OW27838   1.517   1.266   7.914  0.3917  0.4409 -0.1174
 5402SOL    HW127839   1.596   1.294   7.960  0.4970 -1.9432  1.1339
 5402SOL    HW227840   1.450   1.315   7.961  1.9671  0.0605  2.5315
 5403SOL     OW27841   3.332   4.707  11.047 -0.2202 -0.1240 -0.3997
 5403SOL    HW127842   3.339   4.737  11.137  2.2208 -2.0755  0.0774
 5403SOL    HW227843   3.283   4.626  11.059 -0.4288  0.1982  0.9372
 5404SOL     OW27844   0.516   4.541  17.574 -0.4335 -0.5898 -0.1046
 5404SOL    HW127845   0.436   4.557  17.625 -1.9095  1.2532 -3.0237
 5404SOL    HW227846   0.496   4.453  17.541 -2.1927 -0.7482  1.3468
 5405SOL     OW27847   2.511   3.038  11.262 -0.6199  0.1065  0.5509
 5405SOL    HW127848   2.593   3.042  11.212 -0.2379 -2.0646  1.0069
 5405SOL    HW227849   2.486   3.129  11.274  1.3879  0.6211  0.9234
 5406SOL     OW27850   0.047   0.244   6.239  0.2162  0.0858 -0.3717
 5406SOL    HW127851   0.120   0.232   6.178 -0.1157 -0.8826 -0.5720
 5406SOL    HW227852   4.708   0.259   6.185  0.2226  1.9082  0.1126
 5407SOL     OW27853   2.977   3.331   5.529 -0.1404  0.2777 -0.1952
 5407SOL    HW127854   3.023   3.360   5.608 -1.4014  1.1204  0.2299
 5407SOL    HW227855   2.900   3.282   5.557  0.3897  0.0428  0.8549
 5408SOL     OW27856   0.859   3.781  12.662 -0.3246 -0.1720 -0.5300
 5408SOL    HW127857   0.870   3.840  12.736 -0.1976 -0.8905  0.0279
 5408SOL    HW227858   0.928   3.716  12.680  0.8139  0.8959 -1.0470
 5409SOL     OW27859   0.677   0.338  17.686  0.1959 -0.5412 -0.2404
 5409SOL    HW127860   0.664   0.273  17.618  0.5119 -0.5371 -0.3048
 5409SOL    HW227861   0.763   0.324  17.726  0.1357  1.7935  0.6856
 5410SOL     OW27862   0.376   1.349  12.575 -0.0365  0.2544 -0.1599
 5410SOL    HW127863   0.442   1.408  12.540  0.3548 -0.6974 -1.0132
 5410SOL    HW227864   0.429   1.272  12.593 -0.5020  0.2277  1.1191
 5411SOL     OW27865   4.555   1.387   3.928 -0.1112 -0.2406 -0.5392
 5411SOL    HW127866   4.568   1.328   4.001 -0.7198 -1.7624 -1.6748
 5411SOL    HW227867   4.583   1.474   3.958 -3.1341  0.8387 -0.8385
 5412SOL     OW27868   3.877   1.662   4.306 -0.0329  0.6091  0.0122
 5412SOL    HW127869   3.894   1.660   4.400 -1.4737  1.3169  0.3038
 5412SOL    HW227870   3.828   1.744   4.298 -0.5070  0.1385 -1.9833
 5413SOL     OW27871   4.726   2.287   6.458  0.2421  0.2646 -0.4839
 5413SOL    HW127872   4.672   2.360   6.484  1.3389  1.0418 -0.3807
 5413SOL    HW227873   4.660   2.229   6.421 -0.1750  1.3127 -1.3701
 5414SOL     OW27874   2.567   2.100   7.852  0.1585  0.2964 -0.2022
 5414SOL    HW127875   2.649   2.096   7.803 -1.1652  0.2964 -2.4310
 5414SOL    HW227876   2.558   2.005   7.862 -0.5866  0.4778  0.8862
 5415SOL     OW27877   0.588   2.327   3.862 -0.0874 -0.3829 -0.3161
 5415SOL    HW127878   0.508   2.325   3.809 -0.1763  0.5445 -0.2049
 5415SOL    HW227879   0.648   2.274   3.810 -0.5077 -1.3216  0.1482
 5416SOL     OW27880   1.731   3.677  11.021  0.3602  0.2237  0.0192
 5416SOL    HW127881   1.743   3.687  10.926  1.5033 -2.3635 -0.1083
 5416SOL    HW227882   1.701   3.764  11.048  0.2269  0.3545 -0.5338
 5417SOL     OW27883   0.444   4.685   1.780 -0.7183  0.2626  0.0230
 5417SOL    HW127884   0.433   4.650   1.869  0.8647 -2.8612 -0.9924
 5417SOL    HW227885   0.535   4.657   1.768 -0.7135  1.8245 -3.4481
 5418SOL     OW27886   0.766   3.849   8.267  0.0336 -0.0557 -0.2649
 5418SOL    HW127887   0.756   3.944   8.273 -3.3842 -0.4172 -0.4641
 5418SOL    HW227888   0.829   3.845   8.195 -0.6509 -1.5998 -0.7694
 5419SOL     OW27889   0.209   4.042   3.844 -0.5176 -0.0107  0.4501
 5419SOL    HW127890   0.140   4.036   3.778  0.1489  1.1842 -0.3759
 5419SOL    HW227891   0.167   4.095   3.911  0.5411  1.3568  0.0441
 5420SOL     OW27892   1.538   2.877   2.573  0.2287 -0.4823  0.3475
 5420SOL    HW127893   1.629   2.899   2.595  0.6793 -1.7233 -0.2805
 5420SOL    HW227894   1.537   2.782   2.563 -0.7011 -0.2674 -1.4785
 5421SOL     OW27895   3.902   3.266   3.986 -0.1768  0.4563 -0.1337
 5421SOL    HW127896   3.921   3.256   4.079  2.0238 -1.7994 -0.8308
 5421SOL    HW227897   3.846   3.191   3.965 -2.3419  1.7331  1.0349
 5422SOL     OW27898   3.899   4.400   4.241 -0.0374  0.2002  0.1460
 5422SOL    HW127899   3.904   4.331   4.307  1.0420  0.6869  0.5713
 5422SOL    HW227900   3.953   4.355   4.176  0.2423 -0.9389  1.1700
 5423SOL     OW27901   3.618   3.299   3.129 -0.5025 -0.0688  0.2543
 5423SOL    HW127902   3.544   3.327   3.183 -0.9615  1.7360 -1.3007
 5423SOL    HW227903   3.628   3.378   3.076 -2.2654  0.2645  0.4349
 5424SOL     OW27904   0.736   1.426   3.673 -0.1752  0.0838  0.4035
 5424SOL    HW127905   0.787   1.507   3.681  0.2828 -0.0970 -0.6205
 5424SOL    HW227906   0.729   1.426   3.577  0.5937 -0.0961  0.3442
 5425SOL     OW27907   0.085   2.522   6.131 -0.1432  0.0801 -0.1029
 5425SOL    HW127908   0.105   2.433   6.104  0.5012  0.7822 -1.9367
 5425SOL    HW227909   0.078   2.563   6.045  1.4640 -0.6093 -0.5710
 5426SOL     OW27910   1.674   4.226   1.480 -0.3429 -0.1404  0.0295
 5426SOL    HW127911   1.643   4.217   1.570  1.5440  1.1482  0.8119
 5426SOL    HW227912   1.589   4.212   1.440  0.2505 -1.3063 -0.8123
 5427SOL     OW27913   0.248   1.731  16.755 -0.0496  0.8425  0.0053
 5427SOL    HW127914   0.297   1.653  16.780 -2.2444 -0.1719  1.1625
 5427SOL    HW227915   0.317   1.788  16.721  1.4225  0.0482  1.6216
 5428SOL     OW27916   1.360   1.894   8.104  0.1677  0.1525  0.1190
 5428SOL    HW127917   1.414   1.956   8.152  2.1595  0.8988 -3.0303
 5428SOL    HW227918   1.298   1.947   8.054  0.8337 -0.2352 -1.1442
 5429SOL     OW27919   2.443   1.888   7.723 -0.2061  0.1474  0.7414
 5429SOL    HW127920   2.374   1.854   7.779  0.6549 -2.8139 -0.0090
 5429SOL    HW227921   2.397   1.915   7.643  1.6327 -1.8126 -0.9742
 5430SOL     OW27922   3.038   2.126  16.285 -0.1075 -0.6504 -0.1158
 5430SOL    HW127923   3.129   2.107  16.310 -0.1679  0.5409  1.0262
 5430SOL    HW227924   3.008   2.134  16.376 -0.2178  1.5771 -0.3373
 5431SOL     OW27925   3.115   4.312   8.284 -0.1232 -0.2862  0.0720
 5431SOL    HW127926   3.199   4.340   8.247  0.4505 -2.0878 -0.0309
 5431SOL    HW227927   3.077   4.392   8.319  0.8014  0.4639 -0.6328
 5432SOL     OW27928   0.574   4.465   7.443  0.0405  0.1584  0.4208
 5432SOL    HW127929   0.541   4.376   7.443  0.3473  0.0445  0.9151
 5432SOL    HW227930   0.548   4.503   7.527 -0.2829 -0.0318  0.4062
 5433SOL     OW27931   1.954   1.539   3.195  0.5065  0.4211 -0.0345
 5433SOL    HW127932   1.917   1.625   3.214 -0.4676 -0.4187  1.9221
 5433SOL    HW227933   1.891   1.480   3.235  3.0906 -1.1011  1.7863
 5434SOL     OW27934   1.316   3.639   6.826  0.0621 -0.6087 -0.7643
 5434SOL    HW127935   1.393   3.673   6.780 -0.0841 -1.3675 -1.5646
 5434SOL    HW227936   1.259   3.620   6.752  0.3708  0.2833 -1.2260
 5435SOL     OW27937   4.410   4.063   7.843 -0.0396 -0.0635  0.0176
 5435SOL    HW127938   4.347   4.039   7.911  2.2217  0.4816  2.2932
 5435SOL    HW227939   4.453   4.141   7.878 -2.8201  1.9143 -0.9845
 5436SOL     OW27940   1.512   4.242  13.764  0.5730  0.0380 -0.5635
 5436SOL    HW127941   1.482   4.172  13.706 -0.6328  0.2646 -0.2101
 5436SOL    HW227942   1.460   4.318  13.739  0.2397 -0.2206 -0.6509
 5437SOL     OW27943   0.092   0.823   3.806  0.3988 -0.2536 -0.2536
 5437SOL    HW127944   0.056   0.903   3.845  0.5377  0.9462 -2.5504
 5437SOL    HW227945   0.108   0.770   3.883  1.1764 -0.8201 -0.8106
 5438SOL     OW27946   1.450   2.164   1.161  0.1247 -0.2966  0.4312
 5438SOL    HW127947   1.450   2.080   1.114 -2.4295 -0.4156  0.6680
 5438SOL    HW227948   1.364   2.202   1.147 -0.7426 -2.0336  1.0130
 5439SOL     OW27949   3.593   0.487   9.475  0.3632  0.8481 -0.3816
 5439SOL    HW127950   3.673   0.435   9.484 -0.5625 -0.4803  0.2413
 5439SOL    HW227951   3.527   0.420   9.456  0.2441  1.1866 -1.1638
 5440SOL     OW27952   3.403   1.582   2.176 -0.5076  0.7139 -0.4278
 5440SOL    HW127953   3.389   1.665   2.130 -0.4910 -0.5066 -2.6407
 5440SOL    HW227954   3.376   1.607   2.264 -0.6882  1.1442 -0.6081
 5441SOL     OW27955   2.039   4.621   5.236  0.2585 -0.5195 -0.5740
 5441SOL    HW127956   1.962   4.638   5.290  0.0738  1.0823 -1.3493
 5441SOL    HW227957   2.083   4.706   5.242  0.4736 -0.7065  0.5240
 5442SOL     OW27958   0.345   1.073  12.069  0.9073  0.3990 -0.2291
 5442SOL    HW127959   0.357   1.125  12.149  1.4984 -1.8797  1.1861
 5442SOL    HW227960   0.423   1.113  12.030  0.4798  0.3894 -1.0991
 5443SOL     OW27961   2.912   2.349   7.444 -0.7129  0.1596  0.2612
 5443SOL    HW127962   2.877   2.398   7.518 -3.0341 -0.7114 -0.2650
 5443SOL    HW227963   2.991   2.309   7.481 -0.3501 -0.5737 -1.2983
 5444SOL     OW27964   2.258   1.460   4.629 -0.3843 -0.9495  0.0833
 5444SOL    HW127965   2.165   1.454   4.606 -0.7137 -3.8028  2.0886
 5444SOL    HW227966   2.288   1.370   4.617  3.0622  0.4472 -1.7877
 5445SOL     OW27967   2.971   4.710   5.638 -0.5778  0.0704  0.2525
 5445SOL    HW127968   2.959   0.053   5.686  0.3443  0.2583  0.1504
 5445SOL    HW227969   2.883   4.696   5.602 -0.4304 -1.8215  0.6482
 5446SOL     OW27970   2.001   4.400  14.696 -0.0977 -0.0022 -0.1785
 5446SOL    HW127971   1.922   4.349  14.679  1.4097 -2.6188  0.7666
 5446SOL    HW227972   2.070   4.334  14.694  1.6153  1.7539  0.9886
 5447SOL     OW27973   2.980   2.654   2.452  0.8318  0.1899 -0.0373
 5447SOL    HW127974   2.974   2.743   2.488  0.5916  0.3786 -0.5400
 5447SOL    HW227975   2.999   2.681   2.362  0.5478  1.1093  0.1737
 5448SOL     OW27976   1.685   2.684   7.843  0.3846 -0.1645 -0.0127
 5448SOL    HW127977   1.674   2.764   7.894 -1.6459 -0.4536  0.0343
 5448SOL    HW227978   1.665   2.716   7.755  3.9523 -0.5334 -0.9506
 5449SOL     OW27979   1.517   1.764   4.700 -0.1691  0.2707 -0.3394
 5449SOL    HW127980   1.590   1.702   4.695 -0.4389 -0.0377 -0.4407
 5449SOL    HW227981   1.557   1.847   4.726  0.4653 -0.3062  0.5010
 5450SOL     OW27982   3.201   2.194  11.966 -0.2869 -0.5629 -0.6968
 5450SOL    HW127983   3.266   2.256  11.933  0.1255 -0.3494  0.5042
 5450SOL    HW227984   3.155   2.180  11.884 -0.3636 -0.3612 -0.6878
 5451SOL     OW27985   0.981   0.940  13.370 -0.1115  0.3202  0.9725
 5451SOL    HW127986   1.076   0.936  13.365 -0.2334 -0.0096 -1.1281
 5451SOL    HW227987   0.944   0.870  13.316  2.6207 -1.0236  0.8276
 5452SOL     OW27988   0.392   2.976   2.146  0.3295 -0.4233  0.2127
 5452SOL    HW127989   0.343   2.893   2.141 -0.9979  0.2213  2.3772
 5452SOL    HW227990   0.469   2.945   2.099  0.6120  1.9612 -0.8921
 5453SOL     OW27991   3.219   4.141   8.906 -0.3783  0.3356 -0.0265
 5453SOL    HW127992   3.264   4.226   8.905 -0.4342  0.3410 -2.2761
 5453SOL    HW227993   3.189   4.145   8.815  0.1732 -0.6138 -0.2569
 5454SOL     OW27994   1.880   2.906   7.684  0.5513 -0.3890 -0.4594
 5454SOL    HW127995   1.863   2.986   7.735 -2.5648 -0.2347 -1.7562
 5454SOL    HW227996   1.949   2.867   7.738  2.7112  2.3076 -1.3031
 5455SOL     OW27997   0.180   3.253  10.492 -0.0434  0.4130 -0.1559
 5455SOL    HW127998   0.271   3.271  10.518  1.0543 -2.4100 -2.1093
 5455SOL    HW227999   0.147   3.338  10.522 -0.6071 -0.6950  2.2955
 5456SOL     OW28000   1.576   3.367   6.306 -0.0948 -0.3067  0.1968
 5456SOL    HW128001   1.534   3.298   6.358  0.8988  0.7563  2.4040
 5456SOL    HW228002   1.571   3.442   6.364 -0.6705  1.0226 -1.5930
 5457SOL     OW28003   0.198   4.737  13.350 -0.3192  0.1032  0.2474
 5457SOL    HW128004   0.142   4.704  13.280 -0.0102 -1.7289  0.8709
 5457SOL    HW228005   0.200   0.092  13.331 -1.0501 -0.1102 -0.8641
 5458SOL     OW28006   4.028   0.326   8.034 -0.0822 -0.0314  0.9593
 5458SOL    HW128007   3.982   0.311   7.952  0.5048 -0.8462  0.7793
 5458SOL    HW228008   4.122   0.318   8.018  0.4400  0.8895  3.5786
 5459SOL     OW28009   3.793   2.870  14.841 -0.1900 -0.2146 -0.0337
 5459SOL    HW128010   3.846   2.829  14.910  0.0608  1.6227  0.8733
 5459SOL    HW228011   3.797   2.799  14.777 -0.0648 -0.4252  0.2054
 5460SOL     OW28012   0.888   1.133   2.464  0.1416  0.1292 -0.8407
 5460SOL    HW128013   0.803   1.117   2.423  0.2768 -1.2092 -0.6069
 5460SOL    HW228014   0.929   1.174   2.388  1.5253  0.0252 -0.1664
 5461SOL     OW28015   2.639   3.168   1.481  0.1292 -0.1214 -0.1096
 5461SOL    HW128016   2.592   3.251   1.486  2.8956  1.4300  0.4583
 5461SOL    HW228017   2.696   3.190   1.407  0.3167  1.0981  0.3929
 5462SOL     OW28018   4.488   4.723   2.447  0.3544 -0.1294 -0.7581
 5462SOL    HW128019   4.467   4.653   2.386 -0.6497  0.3400 -0.9384
 5462SOL    HW228020   4.438   4.695   2.524  2.9691 -0.1610  0.9480
 5463SOL     OW28021   4.561   2.643  12.698  0.2252 -0.2659  0.0802
 5463SOL    HW128022   4.647   2.612  12.725  0.4909  2.1470  1.9842
 5463SOL    HW228023   4.540   2.711  12.762  2.8919 -0.3912  1.0872
 5464SOL     OW28024   0.792   4.438   3.659 -0.1872 -0.2217 -0.5112
 5464SOL    HW128025   0.746   4.513   3.622 -0.0509 -0.2266 -0.6860
 5464SOL    HW228026   0.819   4.393   3.579  1.5281 -0.9377  0.4571
 5465SOL     OW28027   0.972   3.327   6.330 -0.1112  0.2218  0.2648
 5465SOL    HW128028   1.011   3.288   6.409 -0.3989  0.1290  0.3635
 5465SOL    HW228029   0.900   3.266   6.314  0.1240 -0.6079  2.2893
 5466SOL     OW28030   3.962   2.666   5.622  0.0994  0.1100 -0.0860
 5466SOL    HW128031   3.870   2.657   5.648  0.8057 -1.2888  1.8898
 5466SOL    HW228032   3.944   2.690   5.531  1.8101  0.0652 -0.4366
 5467SOL     OW28033   3.163   0.260   6.413  0.4390  0.0637 -0.0035
 5467SOL    HW128034   3.205   0.179   6.384  1.4872  1.1825 -1.6097
 5467SOL    HW228035   3.227   0.323   6.380 -2.0375  3.2044  1.2568
 5468SOL     OW28036   4.700   2.831  10.136  0.0763 -0.1284 -0.6929
 5468SOL    HW128037   4.666   2.841  10.224  0.1043  1.2028 -0.8322
 5468SOL    HW228038   0.008   2.752  10.165 -3.0073 -1.0037  1.9508
 5469SOL     OW28039   0.911   1.117   1.998 -0.0030  0.1554  0.8545
 5469SOL    HW128040   0.841   1.139   1.937  0.2813 -1.3840 -0.0209
 5469SOL    HW228041   0.985   1.153   1.949 -0.4701 -0.1658 -0.0724
 5470SOL     OW28042   0.956   3.109   5.843  0.3251  0.3002 -0.3358
 5470SOL    HW128043   1.026   3.151   5.893  0.0751 -1.0493  1.1403
 5470SOL    HW228044   0.904   3.186   5.819  0.1068  0.5808  1.0448
 5471SOL     OW28045   0.806   2.519   5.957 -0.4589 -0.0752  0.7622
 5471SOL    HW128046   0.775   2.464   6.029 -1.2994 -0.3828  0.1631
 5471SOL    HW228047   0.897   2.501   5.982 -0.0750  1.9874  0.8788
 5472SOL     OW28048   4.615   3.652   5.745 -0.0180 -0.5627 -0.1326
 5472SOL    HW128049   4.708   3.667   5.728 -0.5205  1.1798 -1.2967
 5472SOL    HW228050   4.578   3.701   5.672 -0.7772 -0.0033  0.6229
 5473SOL     OW28051   2.004   3.478  10.000  0.1343 -0.0090 -0.4157
 5473SOL    HW128052   2.016   3.386  10.022 -1.2620  0.0479  0.6077
 5473SOL    HW228053   2.083   3.525  10.027 -0.6552  1.2131 -0.2071
 5474SOL     OW28054   4.247   2.735   1.970  0.5850 -0.0148 -0.2586
 5474SOL    HW128055   4.178   2.718   1.906 -0.1211 -0.7129  0.6904
 5474SOL    HW228056   4.316   2.679   1.935 -0.0046 -0.0732 -1.3192
 5475SOL     OW28057   2.104   1.144   3.780 -0.0375  0.0505 -0.4123
 5475SOL    HW128058   2.142   1.207   3.719 -2.2213  0.7108 -1.1033
 5475SOL    HW228059   2.012   1.147   3.755  0.0274 -0.6443 -0.7267
 5476SOL     OW28060   3.767   3.098   4.593 -0.5122 -0.4840 -0.1774
 5476SOL    HW128061   3.786   3.062   4.506  0.1599 -1.3239  0.3249
 5476SOL    HW228062   3.823   3.039   4.643 -0.9836 -0.8138 -0.0375
 5477SOL     OW28063   3.646   1.067   9.801 -0.0464  0.6995  0.3301
 5477SOL    HW128064   3.658   0.983   9.846 -1.7050  0.2388 -0.0624
 5477SOL    HW228065   3.683   1.130   9.862  0.2115  0.4577  0.4273
 5478SOL     OW28066   2.541   3.596   5.471  0.3039  0.1572 -0.0905
 5478SOL    HW128067   2.541   3.689   5.451  1.7326  0.1641 -0.0351
 5478SOL    HW228068   2.631   3.575   5.494  0.4217 -0.5247 -1.1878
 5479SOL     OW28069   3.865   1.961   2.080 -0.0390 -0.1996  0.3332
 5479SOL    HW128070   3.839   2.003   2.163 -0.7097 -1.8295  0.9522
 5479SOL    HW228071   3.813   1.881   2.089 -1.4061  0.7234  0.8128
 5480SOL     OW28072   1.418   3.866   7.115  0.0291  0.2926  0.0787
 5480SOL    HW128073   1.329   3.850   7.148 -0.0328  2.6051  1.0245
 5480SOL    HW228074   1.468   3.798   7.160 -0.4482  0.4853  0.8959
 5481SOL     OW28075   3.935   0.620   2.024  0.8733 -0.4009  0.0622
 5481SOL    HW128076   3.842   0.611   2.002  0.9679  0.0610 -0.5209
 5481SOL    HW228077   3.953   0.710   2.049  0.7795 -0.0356 -1.1874
 5482SOL     OW28078   3.556   2.937   4.950 -0.7001  0.1595 -0.0565
 5482SOL    HW128079   3.464   2.926   4.928 -0.2794 -0.9008 -1.2992
 5482SOL    HW228080   3.542   3.001   5.020 -0.0493 -0.2086  0.4143
 5483SOL     OW28081   1.033   3.182  11.282 -0.8583 -0.2702  0.3798
 5483SOL    HW128082   1.085   3.196  11.361  0.1327  0.3527 -0.3822
 5483SOL    HW228083   0.978   3.107  11.307 -1.8295 -0.1692 -1.4770
 5484SOL     OW28084   4.579   0.586   7.915 -0.1335 -0.1270  0.3238
 5484SOL    HW128085   4.490   0.551   7.911 -0.3756  0.2479  2.6422
 5484SOL    HW228086   4.636   0.514   7.889 -2.4589 -1.3141 -1.5856
 5485SOL     OW28087   1.220   0.857  12.642  0.4188  0.4553  0.3678
 5485SOL    HW128088   1.162   0.932  12.624  1.2418  1.0670  0.2932
 5485SOL    HW228089   1.162   0.791  12.603  0.1779  0.6578  0.3789
 5486SOL     OW28090   2.155   2.235  17.236  0.2231  0.1884  0.2216
 5486SOL    HW128091   2.072   2.256  17.194 -0.6693 -0.9277  1.4285
 5486SOL    HW228092   2.164   2.294  17.311  1.7265 -0.7417  0.7879
 5487SOL     OW28093   3.275   1.584   3.965 -0.3647 -0.4428 -0.9614
 5487SOL    HW128094   3.183   1.575   3.942  0.1422 -0.1194 -3.0984
 5487SOL    HW228095   3.319   1.556   3.884 -1.0418 -1.0257 -1.1282
 5488SOL     OW28096   4.198   0.934  16.235 -0.2084 -0.0432  0.2894
 5488SOL    HW128097   4.239   1.008  16.191  1.5517 -1.7616 -0.9607
 5488SOL    HW228098   4.256   0.864  16.204 -0.9890 -1.7676  2.7433
 5489SOL     OW28099   2.508   1.180   6.121  0.2722  0.2939  0.1301
 5489SOL    HW128100   2.541   1.163   6.033  2.4976  2.1013  0.6072
 5489SOL    HW228101   2.574   1.241   6.155 -0.5380  1.4712 -0.3907
 5490SOL     OW28102   3.558   2.665   5.950  0.0568 -0.0052 -0.1320
 5490SOL    HW128103   3.564   2.576   5.984 -1.3381 -0.7609 -1.8482
 5490SOL    HW228104   3.465   2.683   5.964  1.1168  3.7514  2.2150
 5491SOL     OW28105   0.933   4.627   3.964 -0.5693  0.0769 -0.0960
 5491SOL    HW128106   1.006   4.575   3.929 -0.1259  0.1009  0.8104
 5491SOL    HW228107   0.894   4.569   4.029 -0.6882  2.0536  1.5898
 5492SOL     OW28108   1.203   2.131   5.248  0.5551  0.0864  0.3822
 5492SOL    HW128109   1.277   2.165   5.198  1.7373 -0.7612  1.5723
 5492SOL    HW228110   1.192   2.050   5.198 -0.3318  1.6675 -1.9775
 5493SOL     OW28111   0.354   0.698   4.367  0.3255 -0.1884 -0.1367
 5493SOL    HW128112   0.350   0.607   4.337 -0.1792  0.5118 -2.2441
 5493SOL    HW228113   0.413   0.735   4.300 -0.8893  2.1879  0.1040
 5494SOL     OW28114   1.669   0.039   6.314  0.4234  0.2422 -0.3397
 5494SOL    HW128115   1.730   0.106   6.281  0.1003  0.2814 -0.8579
 5494SOL    HW228116   1.719   0.017   6.392 -1.5973 -0.0655  0.8574
 5495SOL     OW28117   0.635   4.675   8.641 -0.0043 -0.3937  0.1032
 5495SOL    HW128118   0.577   4.625   8.583 -0.8411 -1.8160  2.1860
 5495SOL    HW228119   0.630   0.016   8.587 -0.6794 -1.2828 -1.1669
 5496SOL     OW28120   2.049   2.823   8.959 -0.0879  0.0546 -0.0897
 5496SOL    HW128121   2.027   2.730   8.951  0.1054  0.1417 -1.6393
 5496SOL    HW228122   2.116   2.827   9.027  2.0652  2.0489 -2.3393
 5497SOL     OW28123   1.045   0.689   7.628 -0.3429 -0.4622 -0.1158
 5497SOL    HW128124   1.100   0.647   7.562 -2.0372  0.0358 -1.8539
 5497SOL    HW228125   0.959   0.691   7.584  0.8266  2.0951 -2.2383
 5498SOL     OW28126   1.387   1.935   3.921 -0.0832  0.0483  0.2571
 5498SOL    HW128127   1.377   2.023   3.955 -0.2500  0.6714 -1.3853
 5498SOL    HW228128   1.420   1.878   3.990 -1.2691  0.4374  1.1391
 5499SOL     OW28129   1.927   0.636   7.048 -0.5653  0.1508 -0.4856
 5499SOL    HW128130   1.920   0.686   7.129 -2.1487  1.0381 -1.1660
 5499SOL    HW228131   1.874   0.559   7.066  0.3033 -0.5207 -0.8142
 5500SOL     OW28132   2.127   1.489   3.912  0.0509  0.6638  0.4067
 5500SOL    HW128133   2.188   1.499   3.985  1.6119 -1.9657 -0.5356
 5500SOL    HW228134   2.063   1.428   3.949  0.5484 -0.9391 -1.4077
 5501SOL     OW28135   4.738   2.169   3.027 -0.0836 -0.1701  0.2973
 5501SOL    HW128136   0.058   2.214   2.966 -1.5962  0.2202 -0.8682
 5501SOL    HW228137   4.666   2.232   3.030 -0.2045 -0.2893 -0.1772
 5502SOL     OW28138   3.914   1.596   1.300 -0.4937  0.0566  0.0703
 5502SOL    HW128139   3.985   1.551   1.345 -0.6397  0.6936  0.9237
 5502SOL    HW228140   3.927   1.688   1.325  0.8388  0.3423 -1.6761
 5503SOL     OW28141   2.626   4.238   6.344 -0.0188  0.1978 -0.4245
 5503SOL    HW128142   2.670   4.206   6.423 -0.6869 -0.5181 -0.3333
 5503SOL    HW228143   2.676   4.315   6.317 -1.9824  1.0633 -1.6167
 5504SOL     OW28144   0.661   2.070   0.183 -0.2189 -0.5582  0.5218
 5504SOL    HW128145   0.699   2.141   0.236 -0.1629 -0.0144 -0.2447
 5504SOL    HW228146   0.569   2.092   0.170 -0.4394 -2.2569 -0.7224
 5505SOL     OW28147   2.071   0.315   1.254  0.2329 -0.4272 -0.0355
 5505SOL    HW128148   2.030   0.358   1.329 -1.2570 -0.4945 -0.7964
 5505SOL    HW228149   2.106   0.389   1.204 -0.8266 -0.7054 -1.2124
 5506SOL     OW28150   0.344   1.913   6.328  0.7845 -0.0677  0.1808
 5506SOL    HW128151   0.414   1.849   6.340  0.3680 -0.5794 -0.1135
 5506SOL    HW228152   0.359   1.960   6.247 -0.2969 -0.7368 -0.4135
 5507SOL     OW28153   2.154   4.131   6.799  0.2630 -0.9212  0.1345
 5507SOL    HW128154   2.070   4.168   6.774  0.8270  0.5588  0.4420
 5507SOL    HW228155   2.219   4.200   6.795 -1.2149  0.4188 -0.5132
 5508SOL     OW28156   1.626   0.005   5.758  0.2807  0.6471 -0.3381
 5508SOL    HW128157   1.671   4.660   5.749 -0.6520  0.2446 -1.2466
 5508SOL    HW228158   1.694   0.053   5.806  0.9284  0.6118 -1.1991
 5509SOL     OW28159   0.866   0.179   3.992 -0.4604  0.0310 -0.1262
 5509SOL    HW128160   0.935   0.126   3.952  1.4529  3.2503 -1.0120
 5509SOL    HW228161   0.908   0.200   4.075  1.8727 -1.9101 -0.8186
 5510SOL     OW28162   2.074   2.000   5.125  0.0444 -0.4320  0.4529
 5510SOL    HW128163   2.106   2.086   5.100 -0.1128  0.0550  1.9319
 5510SOL    HW228164   2.067   1.951   5.043 -0.9495 -0.8152  0.7685
 5511SOL     OW28165   0.932   4.187   5.425 -0.2718  0.5059  0.1754
 5511SOL    HW128166   0.995   4.197   5.496 -0.6118  0.1238  0.5277
 5511SOL    HW228167   0.935   4.093   5.410  1.4244  1.0900 -3.3172
 5512SOL     OW28168   2.227   0.545   6.497 -0.6252  0.1613 -0.3633
 5512SOL    HW128169   2.267   0.596   6.426  1.0556 -1.9284 -0.9323
 5512SOL    HW228170   2.141   0.535   6.457 -1.2190  0.7635  0.7724
 5513SOL     OW28171   4.096   2.363   6.367 -0.0194 -0.8506  0.0488
 5513SOL    HW128172   4.038   2.287   6.376 -2.3285  0.8459 -0.3850
 5513SOL    HW228173   4.057   2.427   6.428 -1.9157  2.1788 -4.3414
 5514SOL     OW28174   1.993   2.646   0.298 -0.2523  0.4225  0.0215
 5514SOL    HW128175   2.083   2.616   0.285 -0.3032  0.0198  0.5967
 5514SOL    HW228176   1.952   2.560   0.288 -0.3981  0.5695 -0.6571
 5515SOL     OW28177   3.272   0.910   9.053 -0.4379  0.6463  0.3470
 5515SOL    HW128178   3.332   0.945   8.987 -1.9120 -0.5724 -1.6732
 5515SOL    HW228179   3.189   0.947   9.023 -0.7391 -0.5716 -0.3379
 5516SOL     OW28180   1.515   0.583   9.063 -0.1440  0.2168  0.5842
 5516SOL    HW128181   1.443   0.540   9.109 -0.9763 -0.3134 -1.2230
 5516SOL    HW228182   1.531   0.656   9.123  0.4817  1.2005 -0.7954
 5517SOL     OW28183   0.599   2.830   6.033  0.2569  0.5548  0.0584
 5517SOL    HW128184   0.615   2.760   6.096  0.7391 -0.0540 -0.7448
 5517SOL    HW228185   0.520   2.878   6.060  1.7701  2.7989  0.5367
 5518SOL     OW28186   2.456   1.580  14.140  0.1661  0.4702  0.6326
 5518SOL    HW128187   2.518   1.643  14.104 -1.7821  1.7270 -0.5361
 5518SOL    HW228188   2.421   1.539  14.061 -2.1002 -0.4635  2.1053
 5519SOL     OW28189   0.641   3.619   0.142  0.2464 -0.0158 -0.5200
 5519SOL    HW128190   0.627   3.544   0.200  0.0709  0.4518  0.0424
 5519SOL    HW228191   0.569   3.670   0.177  1.2743  0.2429  1.1985
 5520SOL     OW28192   4.699   0.928  10.225  0.3064 -0.4154  0.0785
 5520SOL    HW128193   0.037   0.915  10.168 -0.2598 -1.1942 -0.5134
 5520SOL    HW228194   4.724   1.001  10.282 -2.5602  1.5694 -1.2595
 5521SOL     OW28195   2.211   1.424   3.316  0.3675  0.2316  0.1906
 5521SOL    HW128196   2.170   1.438   3.231  0.4703  0.2189  0.1396
 5521SOL    HW228197   2.141   1.442   3.380  1.1421  1.6907  0.6087
 5522SOL     OW28198   0.475   2.690   8.788 -0.1199  0.1799  0.6668
 5522SOL    HW128199   0.395   2.648   8.757 -0.4613  1.5536 -0.2991
 5522SOL    HW228200   0.434   2.770   8.822 -0.4297 -0.2606  1.3310
 5523SOL     OW28201   4.605   0.687   5.876 -0.7866  0.1606 -0.0436
 5523SOL    HW128202   4.531   0.632   5.902 -0.1681 -0.9390 -0.6540
 5523SOL    HW228203   4.630   0.656   5.789 -1.2987  0.7144 -0.3850
 5524SOL     OW28204   3.635   3.460   7.745 -0.0482  0.3773 -0.8276
 5524SOL    HW128205   3.680   3.405   7.681 -0.4315  0.2483 -0.9813
 5524SOL    HW228206   3.597   3.526   7.687 -2.5644 -0.9138 -0.6529
 5525SOL     OW28207   0.349   3.904   4.798 -0.2700 -0.4020  0.6822
 5525SOL    HW128208   0.286   3.917   4.727  1.2375 -0.2606 -0.6222
 5525SOL    HW228209   0.304   3.848   4.861 -2.9809  1.1657  0.1518
 5526SOL     OW28210   4.100   0.628   6.951  0.4344 -0.2154 -0.5316
 5526SOL    HW128211   4.058   0.673   7.025  1.2652  0.9109 -0.7568
 5526SOL    HW228212   4.128   0.710   6.910 -0.7451  0.7470  0.5771
 5527SOL     OW28213   3.640   2.753  11.448 -0.3744  0.2380  0.2727
 5527SOL    HW128214   3.651   2.743  11.543 -0.2979  0.6357  0.3034
 5527SOL    HW228215   3.546   2.740  11.432 -0.5703 -0.6049  2.0585
 5528SOL     OW28216   1.118   1.709  10.407  0.4206  0.1501 -0.4472
 5528SOL    HW128217   1.051   1.746  10.465 -0.1767 -0.2377 -0.8805
 5528SOL    HW228218   1.191   1.697  10.468 -0.3726  2.2222  0.9160
 5529SOL     OW28219   2.925   3.972   2.194 -0.6000  0.5850  0.2829
 5529SOL    HW128220   2.995   4.016   2.243  0.5923 -1.6057  0.5667
 5529SOL    HW228221   2.855   4.006   2.249 -1.3535 -0.3772 -0.0775
 5530SOL     OW28222   4.036   2.431   1.579  0.6126 -0.4221  0.5616
 5530SOL    HW128223   3.978   2.371   1.627 -1.7406  1.3287 -0.0717
 5530SOL    HW228224   4.121   2.397   1.607  0.2191 -1.3172  0.6836
 5531SOL     OW28225   0.067   1.423   6.988 -0.1236 -0.6632 -0.2567
 5531SOL    HW128226   0.139   1.360   6.994  0.8714  0.2271 -2.7046
 5531SOL    HW228227   0.123   1.498   7.006  0.7495 -2.5840  5.0581
 5532SOL     OW28228   0.420   0.368   1.558  0.3253 -0.6119  0.1646
 5532SOL    HW128229   0.492   0.430   1.547  0.5046 -0.7216  0.7129
 5532SOL    HW228230   0.438   0.335   1.646  4.0864 -0.8424 -0.6814
 5533SOL     OW28231   3.368   2.450   2.450  0.0896 -0.1919  0.4692
 5533SOL    HW128232   3.453   2.459   2.494  0.6163  1.1238 -0.7940
 5533SOL    HW228233   3.309   2.513   2.491  1.1068  1.6456 -0.8526
 5534SOL     OW28234   0.565   3.308   2.353 -0.5067 -0.3735 -0.0593
 5534SOL    HW128235   0.533   3.376   2.411  1.8452  0.1293  0.6353
 5534SOL    HW228236   0.501   3.238   2.368 -0.4202 -0.9374 -2.3012
 5535SOL     OW28237   3.854   0.030   3.641 -0.3970  0.0728 -0.1493
 5535SOL    HW128238   3.813   0.116   3.632 -0.2981  0.1446  0.0881
 5535SOL    HW228239   3.917   0.047   3.711 -2.1924  0.9959  1.2247
 5536SOL     OW28240   1.622   1.199   9.787  0.4534 -0.1989 -0.6080
 5536SOL    HW128241   1.664   1.211   9.702 -0.3558  2.6314 -0.6346
 5536SOL    HW228242   1.630   1.290   9.818  1.1592 -0.1559 -0.9231
 5537SOL     OW28243   0.721   4.583  17.270  0.0522 -0.1869  0.1438
 5537SOL    HW128244   0.780   4.508  17.281  0.5981  0.5351  2.0941
 5537SOL    HW228245   0.634   4.547  17.288 -0.1397  0.4259  0.4112
 5538SOL     OW28246   2.928   2.674   8.918 -0.1525  0.2709  0.1476
 5538SOL    HW128247   2.923   2.614   8.843  0.0512  0.2060  0.1860
 5538SOL    HW228248   2.973   2.618   8.981  0.9358 -0.1457 -0.9982
 5539SOL     OW28249   3.240   3.227  12.121 -0.3689  0.1983  0.3669
 5539SOL    HW128250   3.222   3.137  12.148 -0.8888 -0.1487 -1.1325
 5539SOL    HW228251   3.149   3.252  12.105 -1.3285 -1.1680  3.7651
 5540SOL     OW28252   1.030   3.264   6.602  0.0984  0.3910 -0.1591
 5540SOL    HW128253   1.100   3.227   6.656 -0.3350  1.2003  0.9655
 5540SOL    HW228254   0.970   3.191   6.586 -0.2584  1.3386 -3.2307
 5541SOL     OW28255   1.451   2.455   8.579 -0.7197  0.2080  0.3434
 5541SOL    HW128256   1.506   2.501   8.516 -0.9781  0.1916  0.1073
 5541SOL    HW228257   1.376   2.423   8.529 -1.0936  1.1685  0.2955
 5542SOL     OW28258   3.916   3.343   9.735 -0.5087  0.3299  0.1596
 5542SOL    HW128259   3.832   3.311   9.767  0.3293 -1.7354  0.3161
 5542SOL    HW228260   3.896   3.436   9.742 -1.4305  0.1932 -0.6210
 5543SOL     OW28261   4.601   2.484   0.490 -0.2243 -0.3179  0.3167
 5543SOL    HW128262   4.665   2.491   0.560 -0.3666 -2.8705  0.6720
 5543SOL    HW228263   4.653   2.496   0.410 -0.5966 -2.7539 -0.3029
 5544SOL     OW28264   2.961   3.171  16.417  0.0628 -0.3651  0.1396
 5544SOL    HW128265   3.054   3.176  16.393  0.2367 -3.4664  0.1542
 5544SOL    HW228266   2.958   3.076  16.426 -0.0187 -0.2491  1.2898
 5545SOL     OW28267   2.452   0.903   6.908  0.2145 -0.4838  0.8447
 5545SOL    HW128268   2.510   0.864   6.974 -0.3401 -2.0508  0.4055
 5545SOL    HW228269   2.377   0.843   6.909 -0.5496  0.4775  0.9458
 5546SOL     OW28270   3.420   3.352   7.561  0.1703 -0.0007 -0.1805
 5546SOL    HW128271   3.334   3.393   7.552 -0.3981 -1.0515  0.4127
 5546SOL    HW228272   3.434   3.330   7.469  0.0898 -1.0458  0.0573
 5547SOL     OW28273   0.066   2.123   8.557 -0.5325  0.8371  0.2990
 5547SOL    HW128274   0.097   2.120   8.466 -0.0612  1.8672  0.4207
 5547SOL    HW228275   0.114   2.202   8.582  3.3675 -1.1737 -0.8401
 5548SOL     OW28276   3.330   2.164   8.262 -0.1099 -0.6757 -0.5455
 5548SOL    HW128277   3.336   2.178   8.356 -1.4356 -2.4768 -0.1943
 5548SOL    HW228278   3.423   2.180   8.245  0.0663  2.0618  3.0897
 5549SOL     OW28279   2.508   4.286   2.329 -0.2358  0.0598 -0.2359
 5549SOL    HW128280   2.436   4.270   2.390 -0.6673 -0.6368 -0.9334
 5549SOL    HW228281   2.490   4.380   2.324 -0.2693  0.1014  0.5945
 5550SOL     OW28282   0.493   0.695   6.678 -0.0354  0.0414  0.3524
 5550SOL    HW128283   0.540   0.651   6.748  1.7040 -0.0663 -0.8780
 5550SOL    HW228284   0.565   0.694   6.616  0.2042 -0.2064  0.6348
 5551SOL     OW28285   0.780   1.552  10.594 -0.0739 -0.1864 -0.5873
 5551SOL    HW128286   0.830   1.498  10.533  0.6296  0.0565 -0.2316
 5551SOL    HW228287   0.704   1.564  10.537  0.8566  1.0205 -1.5943
 5552SOL     OW28288   2.306   3.518   5.365  0.1358 -0.7095 -0.2470
 5552SOL    HW128289   2.390   3.527   5.409  0.2426  0.2920 -0.6372
 5552SOL    HW228290   2.262   3.586   5.417 -0.5329 -1.7613  0.5648
 5553SOL     OW28291   0.679   4.541   6.410  0.5554  0.7068 -0.9050
 5553SOL    HW128292   0.731   4.465   6.434 -0.4901  0.8199  1.7307
 5553SOL    HW228293   0.712   4.542   6.320  2.5494 -0.6031 -0.1670
 5554SOL     OW28294   0.434   3.453   5.340 -0.4644  0.2158 -0.7438
 5554SOL    HW128295   0.404   3.413   5.421  0.8519  1.0083  0.1302
 5554SOL    HW228296   0.413   3.380   5.282  0.3644 -0.8791  0.3552
 5555SOL     OW28297   2.212   1.690   5.957  0.2216 -0.4177  0.4819
 5555SOL    HW128298   2.196   1.602   5.924 -2.5538  0.6695 -1.1764
 5555SOL    HW228299   2.284   1.706   5.896 -2.5719 -1.1319 -3.0134
 5556SOL     OW28300   3.176   2.624  11.270  0.0886  0.0055  0.5492
 5556SOL    HW128301   3.115   2.559  11.304  0.5711 -1.3712 -1.1827
 5556SOL    HW228302   3.234   2.627  11.345 -0.0395 -1.3952  0.7025
 5557SOL     OW28303   0.298   1.551   5.156  0.1848 -0.1057 -0.1247
 5557SOL    HW128304   0.256   1.633   5.128 -1.6401 -0.2995  2.1132
 5557SOL    HW228305   0.294   1.556   5.252 -3.3198 -1.7618 -0.2143
 5558SOL     OW28306   1.207   4.610   2.095  0.0672 -0.4806  0.2748
 5558SOL    HW128307   1.298   4.638   2.102  0.2752 -1.7370  2.8244
 5558SOL    HW228308   1.223   4.519   2.122  0.3935 -0.6704 -0.5736
 5559SOL     OW28309   4.641   1.036   5.270  0.1025 -0.0173  0.2363
 5559SOL    HW128310   4.672   0.998   5.353 -0.1699 -0.2459  0.2365
 5559SOL    HW228311   4.721   1.066   5.229 -0.4642 -1.1818 -1.7622
 5560SOL     OW28312   2.494   0.804   0.712 -0.3145  0.0241  0.2347
 5560SOL    HW128313   2.457   0.820   0.625 -1.0158 -0.5246  0.4332
 5560SOL    HW228314   2.418   0.823   0.768 -1.0024  0.8614 -0.9666
 5561SOL     OW28315   0.240   2.888   5.866 -0.1355 -0.4011 -0.2325
 5561SOL    HW128316   0.329   2.924   5.868 -1.0711  1.8700  0.3472
 5561SOL    HW228317   0.250   2.795   5.848 -0.1859  0.0322 -2.5265
 5562SOL     OW28318   4.322   0.196   4.245 -0.0784 -0.3505  0.1349
 5562SOL    HW128319   4.292   0.201   4.335  0.5895 -0.0186  0.3405
 5562SOL    HW228320   4.263   0.261   4.206  0.0098  0.0222  0.6285
 5563SOL     OW28321   0.495   1.664   7.044 -0.7054  0.0573 -0.2425
 5563SOL    HW128322   0.588   1.675   7.022 -0.6965  0.9188  0.2072
 5563SOL    HW228323   0.493   1.580   7.090 -3.0410  0.4307  0.3193
 5564SOL     OW28324   4.304   0.725  13.774  0.1684 -0.3989 -0.0903
 5564SOL    HW128325   4.235   0.780  13.736  0.7350  0.3910  0.0150
 5564SOL    HW228326   4.245   0.671  13.826 -0.6430 -0.0921 -0.6912
 5565SOL     OW28327   0.858   0.574   2.770 -0.7208  0.0498 -0.0066
 5565SOL    HW128328   0.834   0.666   2.766  1.8933  0.7621  0.6756
 5565SOL    HW228329   0.950   0.567   2.743 -0.4912 -2.4712  1.3632
 5566SOL     OW28330   3.437   1.125   2.917 -0.0356 -0.1216 -0.3031
 5566SOL    HW128331   3.408   1.130   2.826  1.0224 -0.4555 -0.6530
 5566SOL    HW228332   3.412   1.034   2.932  3.0052 -1.2378 -1.9751
 5567SOL     OW28333   3.384   4.020  11.481  0.2573  0.5900 -0.5286
 5567SOL    HW128334   3.360   3.954  11.415 -2.2654 -1.1866  2.1867
 5567SOL    HW228335   3.335   4.100  11.459 -2.2287 -0.5390  0.8681
 5568SOL     OW28336   1.311   1.238   7.593 -0.3976  0.1651  0.0851
 5568SOL    HW128337   1.397   1.198   7.610 -0.3623 -0.2950 -1.1520
 5568SOL    HW228338   1.337   1.330   7.587 -3.1178  0.9712  0.8517
 5569SOL     OW28339   0.587   1.633  10.429 -0.1906 -0.3085 -1.0469
 5569SOL    HW128340   0.577   1.727  10.443 -2.9172 -1.0664  1.9888
 5569SOL    HW228341   0.631   1.632  10.344 -0.7353 -1.3716 -1.3215
 5570SOL     OW28342   3.819   2.226   3.766  0.2513  1.1367 -0.6855
 5570SOL    HW128343   3.758   2.152   3.765  2.1635 -0.4676  1.9368
 5570SOL    HW228344   3.894   2.167   3.764 -1.7277 -1.3874 -0.9204
 5571SOL     OW28345   2.701   4.438  17.122 -0.5825 -0.3248  0.4117
 5571SOL    HW128346   2.787   4.398  17.108 -0.0299  0.9508  0.1244
 5571SOL    HW228347   2.635   4.369  17.132 -1.8197  0.5415 -1.9145
 5572SOL     OW28348   2.305   1.136  14.560  0.0990  0.0938  0.0390
 5572SOL    HW128349   2.377   1.084  14.524  0.5910 -0.0748  1.2882
 5572SOL    HW228350   2.241   1.066  14.572 -1.2885  1.1076 -1.4931
 5573SOL     OW28351   2.152   1.344  10.332 -0.5873  0.6035  0.2242
 5573SOL    HW128352   2.121   1.256  10.308  0.9561 -0.0160  0.5302
 5573SOL    HW228353   2.073   1.395  10.314 -2.1402 -1.7503  0.3510
 5574SOL     OW28354   2.244   1.293  13.780  0.1953 -0.4818  0.6911
 5574SOL    HW128355   2.210   1.325  13.696 -1.0321  1.9529  2.1127
 5574SOL    HW228356   2.194   1.213  13.793  2.8734 -2.0147  1.5343
 5575SOL     OW28357   2.889   2.205  15.676  0.1535 -0.0537  0.2003
 5575SOL    HW128358   2.796   2.182  15.668  0.2284 -0.6820  1.0294
 5575SOL    HW228359   2.911   2.152  15.753  0.7681 -0.5437 -0.3110
 5576SOL     OW28360   2.099   3.787  16.961  0.1863 -0.3816  0.2707
 5576SOL    HW128361   2.131   3.744  17.040 -0.8655  0.6041  1.2257
 5576SOL    HW228362   2.133   3.744  16.883 -2.1839 -3.6842  1.0774
 5577SOL     OW28363   1.394   0.409   6.278  0.2988 -0.2006 -0.3423
 5577SOL    HW128364   1.351   0.463   6.211  0.4126  0.6903  0.2955
 5577SOL    HW228365   1.347   0.434   6.358 -0.3013  0.4489 -0.8968
 5578SOL     OW28366   2.940   0.343   3.122  0.3899 -0.7744 -0.2294
 5578SOL    HW128367   2.933   0.413   3.056  1.1853  1.1829  1.7679
 5578SOL    HW228368   2.858   0.296   3.110  0.5374 -0.8230 -1.0433
 5579SOL     OW28369   4.523   0.618  13.693  0.1190  0.2786 -0.0955
 5579SOL    HW128370   4.521   0.553  13.763  0.4069  2.5156  1.9536
 5579SOL    HW228371   4.456   0.679  13.723 -0.8804 -2.1359  2.5670
 5580SOL     OW28372   2.644   4.487   5.876 -0.4213  0.3232  0.4273
 5580SOL    HW128373   2.650   4.412   5.817  2.4782  0.9706 -0.1050
 5580SOL    HW228374   2.638   4.443   5.961  2.5022 -1.4700 -0.2968
 5581SOL     OW28375   2.978   2.555   7.958 -0.7732  0.8424  0.1033
 5581SOL    HW128376   2.990   2.546   7.863  2.9797  2.7051  0.3986
 5581SOL    HW228377   2.897   2.507   7.973  0.9207 -2.4374 -1.3509
 5582SOL     OW28378   0.124   3.182   8.841 -0.4279 -0.0704 -0.3450
 5582SOL    HW128379   0.079   3.242   8.901  0.6093 -1.3710  1.7287
 5582SOL    HW228380   0.045   3.131   8.823 -0.6223 -0.0625  0.4929
 5583SOL     OW28381   0.465   0.476   2.432  0.1787  0.2458 -0.5780
 5583SOL    HW128382   0.455   0.383   2.456 -0.0386 -0.5385 -3.7221
 5583SOL    HW228383   0.529   0.489   2.502  1.8367 -2.1106 -1.6482
 5584SOL     OW28384   0.784   2.084   6.944  0.4849  0.2723 -0.3679
 5584SOL    HW128385   0.757   2.008   6.892  1.4469 -0.1859 -0.2085
 5584SOL    HW228386   0.871   2.100   6.908 -0.2331 -2.7449 -3.4885
 5585SOL     OW28387   1.602   1.776   8.126 -0.0818 -0.3409 -1.0120
 5585SOL    HW128388   1.632   1.841   8.062  0.8811  0.4434  0.2274
 5585SOL    HW228389   1.509   1.798   8.121 -0.1168  0.0542  1.3491
 5586SOL     OW28390   4.507   2.224   2.155 -0.5310  0.4684 -0.0034
 5586SOL    HW128391   4.588   2.246   2.202 -1.7717 -0.0699  2.3862
 5586SOL    HW228392   4.442   2.283   2.193  1.0022  1.7107  0.7316
 5587SOL     OW28393   4.012   4.727   4.330 -0.7254  0.0364  0.9123
 5587SOL    HW128394   3.923   4.694   4.343 -0.4793 -0.7761  0.4852
 5587SOL    HW228395   3.999   0.050   4.259 -0.8685  0.8980  1.6834
 5588SOL     OW28396   0.412   3.421   6.195  1.0280  0.2906  0.6583
 5588SOL    HW128397   0.411   3.326   6.179  1.2230  0.3047  0.5731
 5588SOL    HW228398   0.410   3.464   6.110  1.0751 -0.5826  0.2181
 5589SOL     OW28399   2.231   3.141   2.125 -0.1603  0.3261 -0.5672
 5589SOL    HW128400   2.269   3.055   2.107  0.9367  0.2346  2.2757
 5589SOL    HW228401   2.255   3.193   2.048  2.5032  0.0077  0.0582
 5590SOL     OW28402   4.183   3.741   3.582 -0.1371  0.1965  0.4258
 5590SOL    HW128403   4.153   3.831   3.590 -0.0785  0.4452 -2.0204
 5590SOL    HW228404   4.101   3.700   3.611 -0.8569  0.5148 -1.1802
 5591SOL     OW28405   0.099   1.622   2.096 -0.3310 -0.2120  0.3541
 5591SOL    HW128406   0.150   1.661   2.025  1.1542 -0.6091  1.1907
 5591SOL    HW228407   0.073   1.538   2.057 -1.9989  1.1059 -1.3676
 5592SOL     OW28408   2.556   4.257   3.071  0.0883 -0.7424 -0.2402
 5592SOL    HW128409   2.581   4.276   3.162 -4.5761  0.0748  0.8455
 5592SOL    HW228410   2.630   4.205   3.040  2.3029  1.5386  1.1984
 5593SOL     OW28411   3.865   4.647   9.875 -0.5839 -0.2527 -0.2936
 5593SOL    HW128412   3.914   4.624   9.954  0.7698  0.0886 -1.0272
 5593SOL    HW228413   3.786   4.687   9.910 -0.3708  0.8792 -1.1040
 5594SOL     OW28414   2.414   1.313   7.536 -0.6329  0.3128 -0.1165
 5594SOL    HW128415   2.479   1.381   7.552  0.5979 -0.8142 -0.3515
 5594SOL    HW228416   2.464   1.234   7.556 -2.3054 -0.5055  0.8221
 5595SOL     OW28417   2.536   2.068   0.837 -0.0985 -0.0593  0.0282
 5595SOL    HW128418   2.528   2.020   0.754 -3.9846  1.9805 -0.7913
 5595SOL    HW228419   2.610   2.124   0.816 -1.1193  0.7143 -1.5026
 5596SOL     OW28420   1.133   1.846   1.848  0.2865  0.0386 -0.1413
 5596SOL    HW128421   1.068   1.834   1.778  0.4484  1.0883 -0.4763
 5596SOL    HW228422   1.079   1.810   1.918 -0.5311 -0.0518 -0.8169
 5597SOL     OW28423   2.784   4.669   6.616 -0.6161 -0.2365  0.1857
 5597SOL    HW128424   2.814   0.016   6.646  1.8154 -0.8407 -0.5259
 5597SOL    HW228425   2.830   4.608   6.674 -1.8150 -0.9120  0.4391
 5598SOL     OW28426   3.074   2.191  11.716  0.6147 -0.5437 -0.0400
 5598SOL    HW128427   3.130   2.266  11.697 -0.0955  0.0034  0.0651
 5598SOL    HW228428   3.007   2.214  11.653  1.6058 -3.5687 -2.2162
 5599SOL     OW28429   1.686   1.766   2.859 -0.4300 -0.1434  0.3221
 5599SOL    HW128430   1.693   1.729   2.947 -0.8245 -1.4472 -0.1971
 5599SOL    HW228431   1.615   1.827   2.880 -1.1437 -0.8179 -0.1166
 5600SOL     OW28432   1.992   1.135   1.227  0.0066  0.2582 -0.6630
 5600SOL    HW128433   1.991   1.115   1.321  0.8636 -0.3105 -0.7833
 5600SOL    HW228434   1.900   1.121   1.202 -0.6590  2.3312  0.6073
 5601SOL     OW28435   0.167   0.529  15.704  0.9086 -0.0661  0.7820
 5601SOL    HW128436   0.165   0.534  15.800 -0.5235  1.4840  0.6792
 5601SOL    HW228437   0.260   0.533  15.685  0.4888  0.9516 -1.0740
 5602SOL     OW28438   3.421   4.186  12.032  0.5302 -0.5263 -0.3420
 5602SOL    HW128439   3.338   4.141  12.014 -1.3547  1.8314  2.2893
 5602SOL    HW228440   3.392   4.277  12.045 -1.5707 -1.1531 -0.5331
 5603SOL     OW28441   0.266   0.048   9.841  0.0390  0.3819 -0.4100
 5603SOL    HW128442   0.203   4.718   9.859 -1.4082  1.0007 -3.0567
 5603SOL    HW228443   0.346   4.733   9.850 -0.4006 -0.1715  0.1639
 5604SOL     OW28444   3.876   3.974   4.191 -0.5665  0.2798 -0.2870
 5604SOL    HW128445   3.841   4.051   4.146 -2.2684  0.7293  1.7969
 5604SOL    HW228446   3.795   3.923   4.184 -0.9882  1.0337 -0.8506
 5605SOL     OW28447   3.598   1.875   0.678 -0.2537  0.0060 -0.0927
 5605SOL    HW128448   3.571   1.950   0.731  1.4132  1.4081 -1.2227
 5605SOL    HW228449   3.693   1.882   0.686 -0.2586 -1.3604  1.1888
 5606SOL     OW28450   1.692   2.150   7.708 -0.4695  0.1228  0.2944
 5606SOL    HW128451   1.613   2.167   7.761  0.2711  0.7496  1.1930
 5606SOL    HW228452   1.762   2.167   7.770  2.0563 -1.5203 -2.1495
 5607SOL     OW28453   3.320   2.302   3.015  0.6199  0.3519 -0.2507
 5607SOL    HW128454   3.298   2.245   2.942  0.0026  1.0714 -0.6263
 5607SOL    HW228455   3.359   2.374   2.966  0.0176  1.0709  0.3048
 5608SOL     OW28456   1.026   3.065   9.016  0.3303 -0.1701 -0.7509
 5608SOL    HW128457   1.095   3.128   9.039  0.5843 -0.4373 -0.7802
 5608SOL    HW228458   1.071   2.983   9.036  1.4341  0.6691  0.2365
 5609SOL     OW28459   0.909   3.948   3.579 -0.2829  0.5644 -0.1075
 5609SOL    HW128460   0.842   3.893   3.622  1.0065  1.4337  2.9811
 5609SOL    HW228461   0.944   3.988   3.658  0.5625 -0.5283  0.0760
 5610SOL     OW28462   1.747   1.602   3.457 -0.2609  0.0812  0.0852
 5610SOL    HW128463   1.781   1.652   3.531 -1.0956 -0.2588  0.6936
 5610SOL    HW228464   1.759   1.665   3.386 -0.2230  1.2809  1.1694
 5611SOL     OW28465   3.182   2.305   4.006  0.6028 -0.3304  0.1366
 5611SOL    HW128466   3.250   2.365   3.975 -2.2568  2.0550 -1.4308
 5611SOL    HW228467   3.208   2.234   3.946 -3.0042  0.3525 -2.2277
 5612SOL     OW28468   0.563   0.603   7.468  0.4065 -0.2625  0.1392
 5612SOL    HW128469   0.487   0.613   7.526  1.4985 -2.8841  2.0101
 5612SOL    HW228470   0.601   0.522   7.501 -0.6062 -2.1746 -3.3783
 5613SOL     OW28471   3.934   1.045  12.615  0.0880  0.4561 -0.2124
 5613SOL    HW128472   3.967   1.062  12.527 -0.1899  0.4288 -0.3199
 5613SOL    HW228473   4.008   1.076  12.668  1.9261 -2.4999 -1.1063
 5614SOL     OW28474   1.286   1.836   9.360 -0.2550  0.3214  0.3747
 5614SOL    HW128475   1.279   1.884   9.442  1.1535  1.0788  0.0464
 5614SOL    HW228476   1.209   1.862   9.309 -0.1491 -1.0458 -0.4835
 5615SOL     OW28477   2.927   0.611   3.022 -0.0054  0.6666 -0.4525
 5615SOL    HW128478   2.903   0.600   2.930 -0.4639 -2.1903  0.0202
 5615SOL    HW228479   2.867   0.685   3.034 -2.3987 -1.2972 -0.3269
 5616SOL     OW28480   1.726   2.485   8.812 -0.1272  0.5072  0.3457
 5616SOL    HW128481   1.638   2.492   8.849 -0.1908 -0.0235  0.2999
 5616SOL    HW228482   1.748   2.392   8.816 -2.5002 -0.0430  0.4128
 5617SOL     OW28483   4.649   2.841   6.999  0.3516 -0.2843  0.2328
 5617SOL    HW128484   4.590   2.900   6.953  0.7866  0.6272  0.8344
 5617SOL    HW228485   4.730   2.893   7.000  2.5046 -3.5877 -0.4566
 5618SOL     OW28486   4.712   2.437   8.760  0.2338 -0.3527 -0.5187
 5618SOL    HW128487   4.726   2.361   8.817  0.2263 -1.5098 -2.0670
 5618SOL    HW228488   4.635   2.417   8.707  0.7660  2.4526 -2.3292
 5619SOL     OW28489   1.815   0.426   7.195 -0.1554  0.2644 -0.4028
 5619SOL    HW128490   1.831   0.442   7.288  1.3918 -0.3491 -0.5634
 5619SOL    HW228491   1.857   0.341   7.189 -0.2493  0.2684 -1.1941
 5620SOL     OW28492   1.675   3.322   2.555 -0.0584 -0.5169 -0.0503
 5620SOL    HW128493   1.757   3.372   2.552 -1.2869  1.4770 -0.4153
 5620SOL    HW228494   1.656   3.343   2.646 -2.7873 -0.4318 -0.6524
 5621SOL     OW28495   2.312   3.142  15.779 -0.1019  0.3933  0.1732
 5621SOL    HW128496   2.267   3.216  15.737 -0.8246 -0.2954 -0.2668
 5621SOL    HW228497   2.289   3.155  15.871  1.8187 -0.3244  0.7477
 5622SOL     OW28498   0.892   4.656  12.092 -0.4109 -0.5430 -0.2442
 5622SOL    HW128499   0.970   4.701  12.058 -0.1961 -0.5943  0.1814
 5622SOL    HW228500   0.928   4.567  12.083  0.9067 -0.2130  1.8876
 5623SOL     OW28501   4.669   3.538  15.855  0.0319 -0.1814  0.5984
 5623SOL    HW128502   4.581   3.550  15.820 -1.0745 -0.7436  3.1690
 5623SOL    HW228503   4.669   3.600  15.928 -0.1516  0.8740 -0.3077
 5624SOL     OW28504   1.896   3.735   6.756  0.1267 -0.3911 -1.1599
 5624SOL    HW128505   1.981   3.747   6.798  0.0747 -1.0476 -0.8702
 5624SOL    HW228506   1.837   3.790   6.807 -0.8214  0.0174 -2.6630
 5625SOL     OW28507   4.220   4.468  10.573  0.7987 -0.2250  0.3211
 5625SOL    HW128508   4.149   4.521  10.610  0.9070 -0.4379  0.8434
 5625SOL    HW228509   4.297   4.523  10.584  1.8292 -1.3851 -1.0450
 5626SOL     OW28510   1.810   4.094   2.074  0.4708 -0.5685 -0.0357
 5626SOL    HW128511   1.869   4.166   2.096 -0.7873 -0.1648  2.0412
 5626SOL    HW228512   1.776   4.072   2.161  0.4062 -2.0289 -0.4277
 5627SOL     OW28513   0.100   0.053   4.908  0.1910  0.0588  0.0186
 5627SOL    HW128514   0.163   0.040   4.979  0.5419 -2.1488 -0.6757
 5627SOL    HW228515   0.039   4.719   4.923  1.3751 -0.2523  3.1744
 5628SOL     OW28516   0.296   3.204   6.437 -0.1440  0.5892  0.3797
 5628SOL    HW128517   0.201   3.191   6.433 -0.0593 -0.4664  1.8334
 5628SOL    HW228518   0.306   3.273   6.372 -0.4318 -2.5199 -2.9667
 5629SOL     OW28519   4.708   2.940   1.460 -0.0189 -0.2418 -0.0445
 5629SOL    HW128520   0.027   2.877   1.502  0.0133 -0.9323 -1.1150
 5629SOL    HW228521   0.031   2.997   1.414 -0.2833  0.2169  0.1674
 5630SOL     OW28522   2.363   2.198   3.958 -0.6276  0.2701 -0.0308
 5630SOL    HW128523   2.366   2.212   4.053  0.0012  0.9964 -0.1528
 5630SOL    HW228524   2.430   2.130   3.953 -1.0865 -0.2265  0.8043
 5631SOL     OW28525   2.256   0.219   5.083  0.3374  0.1238 -0.0077
 5631SOL    HW128526   2.315   0.288   5.051  0.4823 -0.6486 -1.4066
 5631SOL    HW228527   2.213   0.263   5.156 -1.7964  0.3394 -1.3942
 5632SOL     OW28528   0.348   2.536  16.333 -0.0030 -0.4928  0.5999
 5632SOL    HW128529   0.308   2.511  16.416  1.5956 -1.8831  0.9349
 5632SOL    HW228530   0.272   2.542  16.275  0.2881 -5.3387 -0.3024
 5633SOL     OW28531   1.456   2.841  17.413 -0.1268 -0.0512 -0.2949
 5633SOL    HW128532   1.440   2.868  17.323  0.3860  0.7558 -0.1462
 5633SOL    HW228533   1.550   2.823  17.408 -0.4841 -2.1215  0.2354
 5634SOL     OW28534   3.718   2.519   1.121  0.1607 -0.1276 -0.8691
 5634SOL    HW128535   3.807   2.501   1.151  0.3719 -0.2107 -1.5400
 5634SOL    HW228536   3.716   2.614   1.117  0.5255 -0.1580 -1.8005
 5635SOL     OW28537   2.347   2.150  13.258 -0.4911  0.8941  0.0963
 5635SOL    HW128538   2.368   2.240  13.235  0.4566  0.2388 -1.6079
 5635SOL    HW228539   2.260   2.167  13.293 -0.8993  0.6272 -0.7919
 5636SOL     OW28540   3.699   2.877   6.637  0.2190  0.7383 -0.2389
 5636SOL    HW128541   3.661   2.929   6.708 -0.0182 -0.4182  0.4872
 5636SOL    HW228542   3.662   2.791   6.657  0.1840  0.2604 -2.3130
 5637SOL     OW28543   1.286   3.174   7.907 -0.4768  0.0125  0.1497
 5637SOL    HW128544   1.219   3.110   7.885 -2.4746  2.0422  0.2834
 5637SOL    HW228545   1.341   3.122   7.966  2.6186  1.8370 -1.1834
 5638SOL     OW28546   3.136   0.690   5.418  0.0466  0.1532  0.2740
 5638SOL    HW128547   3.163   0.744   5.344 -0.4532 -0.1529 -0.1300
 5638SOL    HW228548   3.043   0.711   5.426  0.3296  0.9747  1.3362
 5639SOL     OW28549   3.683   3.267   6.458 -0.2741 -0.1021 -0.3301
 5639SOL    HW128550   3.618   3.197   6.467  1.0636 -1.3891 -0.5692
 5639SOL    HW228551   3.728   3.236   6.379 -0.9614 -0.5563 -0.5438
 5640SOL     OW28552   0.098   4.237   7.315 -0.6563 -0.0749  0.4469
 5640SOL    HW128553   0.079   4.323   7.354  1.0932  0.5274 -0.0470
 5640SOL    HW228554   0.100   4.259   7.222 -0.0939 -1.0592  0.2288
 5641SOL     OW28555   4.193   1.107   4.788  0.1716 -0.3020  0.4383
 5641SOL    HW128556   4.275   1.088   4.832  0.7075 -2.8940 -1.6566
 5641SOL    HW228557   4.124   1.082   4.849  0.2538 -0.3357  0.5175
 5642SOL     OW28558   3.909   0.567   8.559  0.1217  0.3989  0.1322
 5642SOL    HW128559   3.972   0.494   8.551 -0.6163 -0.3350  1.0640
 5642SOL    HW228560   3.892   0.580   8.652  3.1262 -1.2256  0.9093
 5643SOL     OW28561   1.190   3.660   9.137  0.0457  0.8764 -0.6185
 5643SOL    HW128562   1.160   3.596   9.200 -1.2295  1.4291 -0.6692
 5643SOL    HW228563   1.172   3.739   9.188 -0.6430 -0.5038  1.2642
 5644SOL     OW28564   4.365   2.678   0.284 -0.4569 -0.5113 -0.3193
 5644SOL    HW128565   4.320   2.744   0.231 -1.2195 -1.2150 -0.5413
 5644SOL    HW228566   4.327   2.674   0.372 -0.8582  0.9944 -0.4210
 5645SOL     OW28567   0.514   3.941   8.105 -0.5019  0.6616  0.4266
 5645SOL    HW128568   0.597   3.933   8.151  0.6154 -0.1530 -1.7010
 5645SOL    HW228569   0.450   3.948   8.176 -0.8836 -1.6622  0.3338
 5646SOL     OW28570   2.486   2.628   3.257 -0.8066 -0.2568 -0.6362
 5646SOL    HW128571   2.579   2.648   3.269 -1.4676  1.5041  1.5860
 5646SOL    HW228572   2.480   2.558   3.193 -0.9030  0.5294 -1.4905
 5647SOL     OW28573   1.836   0.026  11.583  0.4318 -0.5548 -0.1418
 5647SOL    HW128574   1.795   0.024  11.496 -0.9250  1.9494  0.4344
 5647SOL    HW228575   1.767   4.717  11.629 -0.6268  0.6199 -0.4773
 5648SOL     OW28576   3.953   1.460   4.579 -1.0388 -0.0103  0.3278
 5648SOL    HW128577   4.028   1.519   4.579  0.6581 -2.1460  2.0872
 5648SOL    HW228578   3.930   1.475   4.671  0.7874 -0.7651  0.9115
 5649SOL     OW28579   0.239   1.887   6.713 -0.0858 -0.7782 -0.0281
 5649SOL    HW128580   0.215   1.934   6.633 -0.2391 -0.4041  0.2332
 5649SOL    HW228581   0.239   1.796   6.686 -0.7497 -0.7598 -0.0929
 5650SOL     OW28582   2.351   1.410   9.234 -0.5298  0.1194  0.3347
 5650SOL    HW128583   2.347   1.435   9.326  1.4860  0.1646  0.4062
 5650SOL    HW228584   2.264   1.432   9.200 -0.9919 -0.9640  0.7865
 5651SOL     OW28585   3.658   1.172   8.209 -0.2079  0.2832  0.8111
 5651SOL    HW128586   3.651   1.108   8.279 -0.6337 -0.9292 -0.3389
 5651SOL    HW228587   3.672   1.253   8.258  1.2186  0.1322  0.6502
 5652SOL     OW28588   2.993   0.159   7.125 -0.0971 -0.7890 -0.9421
 5652SOL    HW128589   3.035   0.108   7.195 -0.5294  3.7215  2.5853
 5652SOL    HW228590   3.053   0.145   7.051  0.2266 -0.3502 -0.7620
 5653SOL     OW28591   1.710   3.069   6.304 -0.2858  0.0649 -0.5784
 5653SOL    HW128592   1.632   3.123   6.317 -0.8093 -0.8692  0.2022
 5653SOL    HW228593   1.693   3.030   6.390  0.5054 -1.0713 -0.9489
 5654SOL     OW28594   3.886   1.016   8.746 -0.3804  0.2861 -0.0848
 5654SOL    HW128595   3.802   0.971   8.749  0.4492 -1.1411  1.6666
 5654SOL    HW228596   3.874   1.077   8.673 -3.0004 -0.5108 -0.3282
 5655SOL     OW28597   3.794   2.914   5.526 -0.7521 -0.6668 -0.0559
 5655SOL    HW128598   3.710   2.945   5.561  0.4724  0.6497  1.7562
 5655SOL    HW228599   3.782   2.949   5.438 -0.6825 -0.8304 -0.1295
 5656SOL     OW28600   3.892   4.230  10.305  0.3751 -0.4663  0.3659
 5656SOL    HW128601   3.906   4.310  10.255 -0.2033 -1.5829 -1.6041
 5656SOL    HW228602   3.914   4.160  10.244  0.1087 -1.1308  1.0177
 5657SOL     OW28603   0.890   0.036   2.893  0.4643  0.1367 -0.0510
 5657SOL    HW128604   0.947   0.041   2.970 -1.4267 -1.7829  1.4837
 5657SOL    HW228605   0.944   0.075   2.824  0.7125  1.0810  0.6788
 5658SOL     OW28606   1.693   1.628   7.711  0.1136  0.0884  1.0710
 5658SOL    HW128607   1.658   1.715   7.692 -1.9786 -1.1456 -0.5837
 5658SOL    HW228608   1.784   1.635   7.680 -0.2922 -0.2292 -0.1571
 5659SOL     OW28609   4.688   4.555  10.881 -0.3050 -0.1086 -0.2283
 5659SOL    HW128610   4.669   4.649  10.872  0.3011 -0.2234 -2.6958
 5659SOL    HW228611   4.609   4.519  10.842 -0.0259 -0.8118 -0.1287
 5660SOL     OW28612   0.916   2.509  17.602 -0.1039  0.3298 -0.0174
 5660SOL    HW128613   1.005   2.543  17.588 -0.9324  3.0308  1.4656
 5660SOL    HW228614   0.927   2.422  17.563 -1.7630 -0.4981  1.3907
 5661SOL     OW28615   4.304   3.488   1.938  0.0357  0.0783 -0.5558
 5661SOL    HW128616   4.392   3.502   1.903  0.9603  0.6405  1.9886
 5661SOL    HW228617   4.283   3.404   1.898  0.2616 -0.3892  0.3026
 5662SOL     OW28618   4.281   1.755   7.120  0.4890  0.1384  0.0371
 5662SOL    HW128619   4.241   1.825   7.069 -0.8788 -1.4369 -1.0664
 5662SOL    HW228620   4.258   1.787   7.208 -0.7072  2.0605 -0.9762
 5663SOL     OW28621   3.665   1.001  11.787 -0.1187  0.0103  0.0703
 5663SOL    HW128622   3.620   0.917  11.799 -0.1103 -0.2170 -1.5934
 5663SOL    HW228623   3.754   0.966  11.785  0.1488  0.7180 -0.5383
 5664SOL     OW28624   1.290   0.444   5.397  0.0397  0.5337 -0.1907
 5664SOL    HW128625   1.320   0.418   5.484 -0.5598  0.9066  0.1292
 5664SOL    HW228626   1.334   0.381   5.340  0.7109  3.8913 -3.4050
 5665SOL     OW28627   2.436   2.697   5.988 -0.2781 -0.0267 -0.2267
 5665SOL    HW128628   2.385   2.777   5.979 -0.8179 -0.4675 -1.1053
 5665SOL    HW228629   2.437   2.690   6.083  2.3367  0.9479 -0.1778
 5666SOL     OW28630   2.283   1.259   1.472  0.3291 -0.0376  0.4828
 5666SOL    HW128631   2.241   1.331   1.425 -1.2148 -0.3974  1.3214
 5666SOL    HW228632   2.259   1.273   1.564  1.7879  2.2184  0.5357
 5667SOL     OW28633   1.032   0.275  10.430  0.1140  0.4858  0.5241
 5667SOL    HW128634   1.082   0.206  10.475 -1.4345 -0.4091  0.8567
 5667SOL    HW228635   1.046   0.252  10.338  0.9833  2.2017  0.2371
 5668SOL     OW28636   2.848   0.839   4.724  0.4611  0.2026 -0.1646
 5668SOL    HW128637   2.877   0.895   4.796  0.1765  0.9559 -0.6389
 5668SOL    HW228638   2.875   0.756   4.763 -0.8109 -0.3429 -0.4372
 5669SOL     OW28639   3.171   3.486   8.669  0.3984  0.0462 -0.5465
 5669SOL    HW128640   3.155   3.504   8.577 -1.4250  0.5498 -0.1311
 5669SOL    HW228641   3.125   3.405   8.692  0.7311 -0.2639 -0.9741
 5670SOL     OW28642   2.519   2.375   8.023  0.0672  0.0511  0.0170
 5670SOL    HW128643   2.515   2.286   8.059  1.1441  1.9114  4.8077
 5670SOL    HW228644   2.594   2.415   8.068 -1.0081  0.7017  1.2336
 5671SOL     OW28645   0.413   2.524   7.574  0.2389 -0.0641 -0.0100
 5671SOL    HW128646   0.463   2.471   7.636  1.9796 -0.9733 -2.2115
 5671SOL    HW228647   0.326   2.489   7.556 -0.6720  0.6462  2.9352
 5672SOL     OW28648   0.090   0.469   2.124  0.2710  0.2372 -0.4155
 5672SOL    HW128649   0.042   0.390   2.149  0.5591 -0.4458 -1.9933
 5672SOL    HW228650   0.177   0.435   2.101  1.1026  0.7345  2.0630
 5673SOL     OW28651   1.663   2.272  15.511  0.1612  0.2511 -0.3050
 5673SOL    HW128652   1.703   2.278  15.424  0.1295 -1.7600 -0.4582
 5673SOL    HW228653   1.572   2.261  15.483 -1.0429  3.0703  2.6257
 5674SOL     OW28654   1.808   2.462  14.296  0.8298 -0.5283  0.3595
 5674SOL    HW128655   1.787   2.553  14.274  0.8650 -0.3414  1.1109
 5674SOL    HW228656   1.904   2.457  14.296  0.8230 -0.7120 -0.1861
 5675SOL     OW28657   2.305   1.127   1.963  0.4384 -0.2980 -0.1435
 5675SOL    HW128658   2.237   1.064   1.938  2.6749 -2.4480 -0.7277
 5675SOL    HW228659   2.241   1.165   2.023 -1.5647 -3.3206 -0.3472
 5676SOL     OW28660   0.592   3.771   7.888 -0.1263 -0.5687 -0.7236
 5676SOL    HW128661   0.537   3.826   7.944 -4.5535 -2.1458 -3.4164
 5676SOL    HW228662   0.672   3.819   7.907  0.1209 -1.4458  0.4597
 5677SOL     OW28663   3.958   4.175   7.008  0.1481  0.3737 -0.1627
 5677SOL    HW128664   3.978   4.255   6.961  2.8101  0.7702  1.6695
 5677SOL    HW228665   4.037   4.152   7.057  0.5463  0.6275 -0.6867
 5678SOL     OW28666   4.164   3.626   5.426 -0.3312 -0.2882 -0.4518
 5678SOL    HW128667   4.161   3.721   5.434  0.0826 -0.3772  0.7623
 5678SOL    HW228668   4.170   3.618   5.331  0.1625  2.1690 -0.6210
 5679SOL     OW28669   0.392   1.361   4.939  0.6777 -0.7758 -0.2271
 5679SOL    HW128670   0.324   1.402   4.993 -0.9201 -2.8461 -0.6568
 5679SOL    HW228671   0.389   1.428   4.870 -1.5143 -0.6092  0.0138
 5680SOL     OW28672   0.454   0.621  10.109  0.0416 -0.1263  0.2798
 5680SOL    HW128673   0.514   0.546  10.103 -0.0723 -0.2258  0.3795
 5680SOL    HW228674   0.479   0.671  10.031  1.5390  0.8415  1.3833
 5681SOL     OW28675   1.214   2.099  14.205 -0.0401  0.0789 -0.4074
 5681SOL    HW128676   1.304   2.072  14.186 -0.8884 -2.1761 -1.2776
 5681SOL    HW228677   1.182   2.017  14.242  1.7024 -1.3503 -2.0336
 5682SOL     OW28678   0.689   3.887   3.966 -0.4383 -0.2640 -0.2143
 5682SOL    HW128679   0.692   3.864   3.873  2.0629 -0.3922 -0.0881
 5682SOL    HW228680   0.621   3.954   3.968 -0.2058 -0.0666  1.4021
 5683SOL     OW28681   0.301   3.715   8.999 -0.1137 -0.7954  0.6440
 5683SOL    HW128682   0.391   3.740   9.021 -0.3343  0.5832  0.0022
 5683SOL    HW228683   0.264   3.803   8.993  0.2899 -0.6073  0.8507
 5684SOL     OW28684   2.898   2.158   6.426  0.5756 -0.3252 -0.2579
 5684SOL    HW128685   2.860   2.106   6.497 -0.3411  0.8902  0.1495
 5684SOL    HW228686   2.838   2.130   6.356 -0.2366 -0.3290  0.4379
 5685SOL     OW28687   3.888   1.934   0.709 -0.1774 -0.3858 -0.5004
 5685SOL    HW128688   3.919   2.025   0.710  0.8693 -0.7519 -0.0705
 5685SOL    HW228689   3.934   1.902   0.787 -1.0888 -0.4368  0.0268
 5686SOL     OW28690   0.957   0.268   7.498  0.3129  0.2565 -0.6457
 5686SOL    HW128691   0.911   0.297   7.420  2.5616 -0.2654 -2.1894
 5686SOL    HW228692   1.043   0.310   7.502  0.2159  0.2445  1.2973
 5687SOL     OW28693   2.820   1.890   9.135  0.2517  0.1573  0.4918
 5687SOL    HW128694   2.818   1.822   9.067 -1.4766  3.5358 -2.8662
 5687SOL    HW228695   2.757   1.853   9.196 -0.3800  2.0726  0.9845
 5688SOL     OW28696   0.726   2.822   3.106 -0.0596 -0.2142 -0.5318
 5688SOL    HW128697   0.701   2.858   3.192  1.9848  1.8872 -0.8248
 5688SOL    HW228698   0.677   2.867   3.037  0.5662  4.1259  1.8887
 5689SOL     OW28699   0.048   0.314   4.908  0.6289  0.1186  0.3705
 5689SOL    HW128700   4.711   0.328   4.965  0.2454  0.9571 -0.3431
 5689SOL    HW228701   0.057   0.220   4.921  2.5862  0.0099 -1.8523
 5690SOL     OW28702   2.089   2.405   6.684 -0.0483 -0.1305 -0.5899
 5690SOL    HW128703   2.165   2.437   6.636  1.0195  0.0763  1.2322
 5690SOL    HW228704   2.124   2.324   6.722  1.9257 -0.7749 -3.8290
 5691SOL     OW28705   0.030   3.185   5.078  0.0349  0.5223  0.6665
 5691SOL    HW128706   4.685   3.226   5.100 -0.7100 -1.2975  1.1993
 5691SOL    HW228707   4.730   3.122   5.017 -0.2538  3.6516 -2.3763
 5692SOL     OW28708   1.391   1.351   5.021 -0.4304  0.6485 -0.3929
 5692SOL    HW128709   1.380   1.375   5.113  3.9778  0.3838  0.1721
 5692SOL    HW228710   1.388   1.434   4.972 -1.5725  0.8559  0.0238
 5693SOL     OW28711   1.658   2.606   4.744  0.5988 -0.7140 -0.6369
 5693SOL    HW128712   1.620   2.694   4.748 -0.5640 -1.0903 -3.5559
 5693SOL    HW228713   1.608   2.572   4.818 -1.4891  0.5622 -1.4709
 5694SOL     OW28714   4.152   1.760  15.155  0.3557  0.1351 -0.4437
 5694SOL    HW128715   4.113   1.687  15.202  1.1585 -1.8443 -2.8325
 5694SOL    HW228716   4.095   1.834  15.176  0.5088 -0.0758  0.7154
 5695SOL     OW28717   4.572   1.568   6.988  0.2866 -0.1416 -0.3656
 5695SOL    HW128718   4.650   1.517   7.007 -1.1990 -2.2329  0.0910
 5695SOL    HW228719   4.610   1.653   6.968 -2.2028  1.1631  0.4614
 5696SOL     OW28720   3.387   0.047   7.627 -0.3271 -0.0487  0.0874
 5696SOL    HW128721   3.423   0.027   7.714  3.1748 -0.7385 -1.5149
 5696SOL    HW228722   3.295   0.034   7.647 -0.3101  1.9240  1.4621
 5697SOL     OW28723   0.361   3.206   1.307 -0.4510 -0.1422  0.1379
 5697SOL    HW128724   0.381   3.132   1.250 -0.2178 -0.6506  0.8779
 5697SOL    HW228725   0.436   3.261   1.284 -0.7040 -0.3338 -1.1345
 5698SOL     OW28726   1.525   1.731   7.444 -0.3525 -0.1428  0.4783
 5698SOL    HW128727   1.452   1.673   7.424 -1.8932  1.6368  0.9798
 5698SOL    HW228728   1.489   1.798   7.502 -1.5796 -0.2875 -0.1213
 5699SOL     OW28729   3.141   3.983  13.135  0.1073 -0.0694  0.2030
 5699SOL    HW128730   3.224   3.998  13.090  0.2506 -1.8768 -0.1475
 5699SOL    HW228731   3.150   3.892  13.165 -1.9332 -0.3057  0.1009
 5700SOL     OW28732   2.851   4.072   3.281 -0.3542  0.1540  0.3814
 5700SOL    HW128733   2.931   4.101   3.326  1.2344 -2.2209 -0.9025
 5700SOL    HW228734   2.795   4.135   3.327  1.3028  0.3845  2.1210
 5701SOL     OW28735   2.714   0.189   1.749 -0.2867 -0.6158  0.1084
 5701SOL    HW128736   2.722   0.096   1.769  1.0706 -0.3332  0.8716
 5701SOL    HW228737   2.622   0.184   1.723 -1.0638  1.6808  2.4145
 5702SOL     OW28738   1.928   2.236   2.676 -0.7231  0.0539  0.1882
 5702SOL    HW128739   1.844   2.191   2.666 -1.5177  1.5391  0.2083
 5702SOL    HW228740   1.981   2.162   2.707 -1.8296 -1.3674 -1.2837
 5703SOL     OW28741   2.992   1.486   1.622 -0.3926  0.3651 -0.4144
 5703SOL    HW128742   2.948   1.441   1.550  0.4713  0.5073 -1.0303
 5703SOL    HW228743   2.959   1.440   1.699  0.8885 -1.2051 -0.8118
 5704SOL     OW28744   2.448   3.512   3.078 -0.3595  0.1483  0.1114
 5704SOL    HW128745   2.452   3.427   3.033  2.1038  0.5729 -0.4796
 5704SOL    HW228746   2.442   3.579   3.010 -1.6367  0.4725  0.5407
 5705SOL     OW28747   1.933   4.247   2.722  0.0880 -0.5380  0.8928
 5705SOL    HW128748   1.891   4.161   2.715 -0.0819 -0.3779 -0.1181
 5705SOL    HW228749   1.955   4.263   2.630 -3.1153 -2.3081 -0.1789
 5706SOL     OW28750   4.580   1.250   6.833  0.5455 -0.8755  0.8888
 5706SOL    HW128751   4.539   1.322   6.786  1.2150  0.2966  2.1243
 5706SOL    HW228752   4.670   1.282   6.842 -0.8943  2.9639  1.5086
 5707SOL     OW28753   3.285   1.409   3.473  0.2041  0.6198  0.3906
 5707SOL    HW128754   3.317   1.397   3.383 -1.7963  1.4273 -0.4334
 5707SOL    HW228755   3.191   1.413   3.455  0.6940  1.1113 -2.0158
 5708SOL     OW28756   2.239   3.560  10.115  0.5199 -0.2161 -0.5251
 5708SOL    HW128757   2.235   3.505  10.193 -1.3808 -0.0372 -0.5013
 5708SOL    HW228758   2.235   3.647  10.154 -3.8929 -0.6961  0.1410
 5709SOL     OW28759   2.157   1.879   4.889  0.4894  0.1106 -0.2711
 5709SOL    HW128760   2.160   1.910   4.798  0.3020 -0.5712 -0.5116
 5709SOL    HW228761   2.110   1.796   4.876  2.9977 -1.1948 -1.1161
 5710SOL     OW28762   2.734   1.584  14.006  0.3598 -0.1998 -0.9629
 5710SOL    HW128763   2.786   1.513  13.969  1.6518 -0.4702  1.3605
 5710SOL    HW228764   2.774   1.585  14.093 -0.3013  0.3755 -0.6584
 5711SOL     OW28765   3.818   4.106   4.828 -0.9168 -0.1606  0.6017
 5711SOL    HW128766   3.876   4.183   4.830  0.8556 -1.5221  1.2506
 5711SOL    HW228767   3.890   4.046   4.812 -1.0805  0.0507 -0.9402
 5712SOL     OW28768   3.127   2.324   6.496  0.1641  0.0155  0.3915
 5712SOL    HW128769   3.067   2.249   6.501  2.0795 -1.5360  0.0252
 5712SOL    HW228770   3.198   2.287   6.549  3.2459  0.6800 -3.3091
 5713SOL     OW28771   2.358   1.523   6.476  0.5658  0.6134 -0.0299
 5713SOL    HW128772   2.400   1.444   6.508 -1.1636 -0.3005 -0.0336
 5713SOL    HW228773   2.283   1.484   6.430  0.5376  1.4649 -0.7191
 5714SOL     OW28774   0.196   1.625   6.610  0.8012 -0.0466 -0.1816
 5714SOL    HW128775   0.156   1.539   6.625  0.8177 -0.0878 -0.3642
 5714SOL    HW228776   0.283   1.595   6.583 -0.2365  0.1999 -3.8198
 5715SOL     OW28777   2.320   2.157   1.807  0.1192  0.0417  0.1209
 5715SOL    HW128778   2.371   2.238   1.816  1.2551 -0.8007  1.3335
 5715SOL    HW228779   2.369   2.102   1.746  0.5294  1.6805 -1.0246
 5716SOL     OW28780   1.033   1.277   7.602  0.5844 -0.1453  0.2575
 5716SOL    HW128781   1.125   1.250   7.607  0.8741  0.5374 -1.7987
 5716SOL    HW228782   0.996   1.211   7.544 -1.2439  0.5059  0.6882
 5717SOL     OW28783   1.553   4.719  16.341 -0.5242 -0.3311 -0.4486
 5717SOL    HW128784   1.574   0.073  16.330 -0.2257 -0.4282 -0.7029
 5717SOL    HW228785   1.509   4.719  16.426  2.2586  0.9934  1.0016
 5718SOL     OW28786   1.238   0.178   4.434 -0.0405 -0.0141 -0.0858
 5718SOL    HW128787   1.205   0.260   4.398  0.4777 -0.0526 -0.6607
 5718SOL    HW228788   1.229   0.126   4.354 -0.1716 -0.1809  0.0393
 5719SOL     OW28789   1.712   1.096   8.604  0.2007 -0.4388 -0.3424
 5719SOL    HW128790   1.756   1.168   8.650 -0.4621  0.5545 -1.2513
 5719SOL    HW228791   1.715   1.134   8.516  2.7167  1.1483  0.4333
 5720SOL     OW28792   2.722   0.027   9.828  0.1851 -0.6946  0.5804
 5720SOL    HW128793   2.788   4.703   9.797  1.7507  1.5191 -0.5785
 5720SOL    HW228794   2.771   0.050   9.907  1.2358  1.5448 -0.7159
 5721SOL     OW28795   4.283   3.419  11.170  0.2630 -0.0938 -0.5144
 5721SOL    HW128796   4.277   3.331  11.206 -1.8357 -0.3292 -1.4223
 5721SOL    HW228797   4.241   3.470  11.239 -0.6481 -0.9477 -0.4397
 5722SOL     OW28798   0.727   2.289   0.331 -0.4255 -0.1853  0.4646
 5722SOL    HW128799   0.670   2.360   0.303  0.9793  0.5291 -0.5540
 5722SOL    HW228800   0.816   2.322   0.322 -1.0573  1.0913 -1.1463
 5723SOL     OW28801   0.982   3.904   2.203  0.1057  0.3698  0.5557
 5723SOL    HW128802   0.999   3.821   2.248  2.0480  0.3025 -0.2850
 5723SOL    HW228803   0.960   3.873   2.115 -2.9663  0.2606  1.3681
 5724SOL     OW28804   2.170   2.984   2.755  0.5275  0.4235  0.0314
 5724SOL    HW128805   2.200   2.961   2.667 -1.1021 -1.7670  0.0377
 5724SOL    HW228806   2.108   3.051   2.725  0.7301  1.1199  1.1831
 5725SOL     OW28807   2.002   4.299  16.126  0.7762  0.2254 -0.5075
 5725SOL    HW128808   1.942   4.362  16.085  1.1412  1.5786  1.0041
 5725SOL    HW228809   1.958   4.218  16.098 -1.0690  0.5841  1.3025
 5726SOL     OW28810   4.276   2.640   6.063  0.3533  0.2665 -0.2969
 5726SOL    HW128811   4.275   2.561   6.008  1.5103  0.1616 -0.1707
 5726SOL    HW228812   4.277   2.604   6.151 -0.2035 -0.7754 -0.7175
 5727SOL     OW28813   0.021   4.208   0.328 -0.0453  0.2162  0.2283
 5727SOL    HW128814   4.719   4.221   0.414  0.2036 -0.0077  0.3836
 5727SOL    HW228815   0.051   4.297   0.313  0.8837 -0.0837  0.2985
 5728SOL     OW28816   2.141   2.005   4.225 -0.1578 -0.0571  0.6279
 5728SOL    HW128817   2.093   2.066   4.170  1.1620 -0.5075 -1.0745
 5728SOL    HW228818   2.190   1.952   4.162 -0.8318 -1.5451  1.3583
 5729SOL     OW28819   3.207   1.341   2.992  0.4656  0.2709 -0.0821
 5729SOL    HW128820   3.132   1.398   3.012  0.0929  0.2900 -1.5519
 5729SOL    HW228821   3.166   1.258   2.966 -3.6434  2.2608  0.0643
 5730SOL     OW28822   1.628   3.944   3.927 -0.0715  0.0827 -0.5473
 5730SOL    HW128823   1.614   3.851   3.944 -0.2951 -0.0033 -1.1773
 5730SOL    HW228824   1.546   3.965   3.883 -0.8620  1.5194  1.6662
 5731SOL     OW28825   0.451   0.551   6.099  0.7008 -0.0790 -0.2484
 5731SOL    HW128826   0.405   0.532   6.181  0.2006  0.8288 -0.3195
 5731SOL    HW228827   0.452   0.646   6.103  4.1611 -0.0941 -0.8177
 5732SOL     OW28828   1.361   1.231   3.012 -0.1154 -0.0496 -0.5037
 5732SOL    HW128829   1.320   1.290   2.949 -0.9653 -0.1374 -0.0294
 5732SOL    HW228830   1.312   1.269   3.085 -0.1551 -2.5184  0.7515
 5733SOL     OW28831   3.888   2.651   4.086 -0.1281 -0.1988  0.0894
 5733SOL    HW128832   3.817   2.668   4.148  0.3859 -2.4780  1.2971
 5733SOL    HW228833   3.842   2.587   4.032 -1.1543 -0.6575  1.5016
 5734SOL     OW28834   0.766   4.390   8.410 -0.1604 -0.0848  0.9889
 5734SOL    HW128835   0.760   4.395   8.315 -0.3997 -0.6630  0.9734
 5734SOL    HW228836   0.687   4.436   8.439 -0.9908 -0.9783  0.1420
 5735SOL     OW28837   1.327   0.145   5.954 -0.4468 -0.5295  0.6142
 5735SOL    HW128838   1.396   0.152   6.020  0.2427 -0.0702 -0.1495
 5735SOL    HW228839   1.351   0.065   5.908  1.3242  0.1632  0.3144
 5736SOL     OW28840   4.208   2.799   5.443 -0.0023  0.6144  0.5580
 5736SOL    HW128841   4.144   2.861   5.477 -1.2640  0.8632 -2.2624
 5736SOL    HW228842   4.191   2.795   5.348 -0.6723 -1.6448  0.7511
 5737SOL     OW28843   1.765   1.629   0.753  0.1746 -0.0343 -0.4930
 5737SOL    HW128844   1.710   1.708   0.750 -0.9972 -0.9232 -2.3901
 5737SOL    HW228845   1.705   1.555   0.760 -2.8067  2.4031 -0.0928
 5738SOL     OW28846   0.305   0.432   8.969 -0.4137 -0.0016  0.2938
 5738SOL    HW128847   0.389   0.471   8.991  0.0766 -1.2946  0.7295
 5738SOL    HW228848   0.330   0.340   8.961  3.2036  0.8698  1.6239
 5739SOL     OW28849   1.142   0.742   2.668  0.0419  0.0194 -0.7376
 5739SOL    HW128850   1.082   0.794   2.614 -1.2282  0.2702  0.8927
 5739SOL    HW228851   1.202   0.804   2.710 -0.5704 -0.3715  0.7426
 5740SOL     OW28852   2.858   2.555   4.010 -0.3382 -0.5271 -0.2300
 5740SOL    HW128853   2.846   2.460   4.010  1.2078 -0.7167  0.5568
 5740SOL    HW228854   2.768   2.583   3.993  0.6368  1.3643 -2.2706
 5741SOL     OW28855   2.921   2.576   2.990 -0.7566  0.3455  0.1018
 5741SOL    HW128856   2.844   2.576   2.934  0.1682 -1.4225 -1.1608
 5741SOL    HW228857   2.981   2.641   2.951  0.8004 -1.6512 -0.8307
 5742SOL     OW28858   0.555   4.178   4.213  0.0986 -0.0919  0.6768
 5742SOL    HW128859   0.465   4.167   4.244 -0.0079  2.1383  1.2068
 5742SOL    HW228860   0.535   4.166   4.120 -1.4069 -0.6561  1.0787
 5743SOL     OW28861   0.807   3.649   1.249 -0.3758 -0.4083  0.4191
 5743SOL    HW128862   0.822   3.630   1.341 -3.4781 -1.6570  0.6517
 5743SOL    HW228863   0.811   3.745   1.249  0.6697 -0.4503 -1.1271
 5744SOL     OW28864   2.569   4.098  15.647 -0.4100  0.3088 -0.0124
 5744SOL    HW128865   2.629   4.156  15.599 -0.2709 -1.2695 -1.7451
 5744SOL    HW228866   2.536   4.152  15.718 -1.5785 -0.7820  0.2600
 5745SOL     OW28867   2.084   0.679   9.398 -0.1110 -0.0898  0.2759
 5745SOL    HW128868   2.033   0.619   9.452 -0.6008 -0.9731 -1.1940
 5745SOL    HW228869   2.020   0.746   9.375 -0.7025 -0.8645 -0.3038
 5746SOL     OW28870   2.229   1.234  17.621  0.0412  0.2633 -0.0342
 5746SOL    HW128871   2.138   1.244  17.648 -0.2297 -0.6168 -0.6442
 5746SOL    HW228872   2.201   1.222  17.530 -2.6235 -0.3321  0.8844
 5747SOL     OW28873   4.297   2.808  14.229  0.1019 -0.3916  0.4968
 5747SOL    HW128874   4.370   2.748  14.245 -0.4876 -1.2694 -0.1555
 5747SOL    HW228875   4.254   2.773  14.152 -0.6796 -0.9641  1.1992
 5748SOL     OW28876   0.258   4.692   5.136 -0.0804 -0.2783 -0.1453
 5748SOL    HW128877   0.335   4.696   5.192  1.5260 -0.8696 -2.3307
 5748SOL    HW228878   0.189   4.671   5.199  0.4510  0.2689  0.6150
 5749SOL     OW28879   1.304   0.415   9.140  0.0270  0.4657  0.0177
 5749SOL    HW128880   1.349   0.335   9.166 -0.8309  0.0607  0.2511
 5749SOL    HW228881   1.255   0.433   9.221 -2.0227 -3.1087 -0.4499
 5750SOL     OW28882   0.776   4.239  12.966 -0.1672  0.7033  0.1155
 5750SOL    HW128883   0.730   4.280  12.893  1.2714 -0.8102 -1.6269
 5750SOL    HW228884   0.700   4.195  13.005  0.1118  1.1030  1.1165
 5751SOL     OW28885   3.015   2.822   1.022  0.5650  0.1047 -0.5170
 5751SOL    HW128886   2.965   2.883   1.076  1.4187 -0.1482  0.5641
 5751SOL    HW228887   3.096   2.863   1.054  0.3495  1.5429 -1.8242
 5752SOL     OW28888   2.815   2.238  14.889  0.1262 -0.3073 -0.0983
 5752SOL    HW128889   2.845   2.147  14.885  0.6715 -0.1837  1.0542
 5752SOL    HW228890   2.733   2.227  14.939 -0.8276  1.7818 -1.1841
 5753SOL     OW28891   1.054   2.357   4.045 -0.6666  0.4971 -0.0981
 5753SOL    HW128892   0.972   2.346   4.093  0.7714 -0.4994  2.1406
 5753SOL    HW228893   1.095   2.414   4.110  0.3774  0.1027 -0.3996
 5754SOL     OW28894   4.334   3.397   4.912  0.1367  0.1847 -0.3144
 5754SOL    HW128895   4.252   3.348   4.906 -0.6897  1.7371 -1.7722
 5754SOL    HW228896   4.322   3.467   4.847  0.8269 -1.0203 -1.7364
 5755SOL     OW28897   1.576   0.838  15.979 -0.6392 -0.2232  0.1432
 5755SOL    HW128898   1.575   0.888  15.897 -2.8258 -0.1381  0.2252
 5755SOL    HW228899   1.639   0.893  16.025 -1.3508  0.1950  0.6054
 5756SOL     OW28900   2.864   3.050   2.364  0.0938  0.8961  0.2338
 5756SOL    HW128901   2.889   3.141   2.348  0.8720  0.4224 -1.2220
 5756SOL    HW228902   2.836   3.027   2.276  0.6383  0.4505  0.1733
 5757SOL     OW28903   1.831   1.868  16.923 -0.0072 -0.1363 -0.4290
 5757SOL    HW128904   1.786   1.953  16.926  0.0146 -0.2143  1.9961
 5757SOL    HW228905   1.858   1.853  17.014 -1.0554  3.0846  0.4189
 5758SOL     OW28906   4.647   1.838   6.271  0.5210 -0.4102  0.3692
 5758SOL    HW128907   4.618   1.928   6.287  0.0484 -0.1250 -1.9747
 5758SOL    HW228908   4.562   1.793   6.269  0.1423  0.1439  3.3863
 5759SOL     OW28909   0.323   0.160   4.385  0.2697 -0.9396 -0.5407
 5759SOL    HW128910   0.260   0.145   4.456  0.6520 -1.9754 -0.4248
 5759SOL    HW228911   0.261   0.140   4.315  1.0194 -1.2114 -1.1183
 5760SOL     OW28912   4.650   0.513   6.134 -0.6664  0.0254  0.2763
 5760SOL    HW128913   4.561   0.509   6.100  0.7507 -0.2479 -3.3554
 5760SOL    HW228914   4.629   0.468   6.216 -1.8489 -0.7321 -0.4459
 5761SOL     OW28915   0.608   2.222   0.586  0.2244  0.4429 -0.3650
 5761SOL    HW128916   0.685   2.234   0.642 -0.2701 -2.0385  0.8028
 5761SOL    HW228917   0.642   2.238   0.498 -0.0477  0.9079 -0.3889
 5762SOL     OW28918   2.471   3.001   8.681 -0.6257  0.5324 -0.3924
 5762SOL    HW128919   2.391   2.980   8.730  1.4986 -0.8303  2.5245
 5762SOL    HW228920   2.526   2.925   8.701 -0.8169 -0.1706 -2.5731
 5763SOL     OW28921   2.075   2.557   8.889  0.4816 -0.0286  0.1750
 5763SOL    HW128922   2.056   2.466   8.865 -1.1548  0.6490 -1.1203
 5763SOL    HW228923   2.166   2.572   8.864  0.5295 -2.2564 -1.0204
 5764SOL     OW28924   0.113   4.050   6.447 -0.4653  0.0813  0.2717
 5764SOL    HW128925   0.138   3.978   6.390 -1.5797  0.6869 -0.9713
 5764SOL    HW228926   0.171   4.121   6.419 -0.5615 -0.1508 -0.5097
 5765SOL     OW28927   1.596   1.166  16.121 -0.5934 -0.4666  0.4209
 5765SOL    HW128928   1.631   1.101  16.182  2.0990  1.9642  1.4460
 5765SOL    HW228929   1.529   1.218  16.165 -1.7000 -1.1947 -0.4004
 5766SOL     OW28930   2.744   3.642   2.882  0.4030 -0.1675  0.3068
 5766SOL    HW128931   2.765   3.676   2.795  1.8986 -1.5497  0.1358
 5766SOL    HW228932   2.726   3.727   2.924  1.6806 -0.1119  0.7518
 5767SOL     OW28933   4.278   2.470   3.307 -0.0085  0.0200  0.1965
 5767SOL    HW128934   4.336   2.542   3.331 -1.9874  0.9952  2.0709
 5767SOL    HW228935   4.353   2.412   3.295 -1.5633 -1.9796  0.1558
 5768SOL     OW28936   1.406   1.026   7.244  0.0952  0.0330  0.0244
 5768SOL    HW128937   1.330   0.968   7.243 -0.3628  0.6389 -1.0115
 5768SOL    HW228938   1.389   1.074   7.325 -0.1716 -0.6086  0.3432
 5769SOL     OW28939   0.657   1.976   4.748  0.2481  0.3141  0.2287
 5769SOL    HW128940   0.664   2.001   4.840  0.7997 -0.0242  0.2835
 5769SOL    HW228941   0.735   1.920   4.744 -0.0435  0.0199 -1.3304
 5770SOL     OW28942   4.194   4.235   8.721  0.3552 -0.0822 -0.2121
 5770SOL    HW128943   4.165   4.312   8.672  0.3942  0.1480  0.1256
 5770SOL    HW228944   4.278   4.272   8.747  0.9557 -0.5027 -1.5446
 5771SOL     OW28945   3.306   1.110   2.666  0.3512 -0.2961  0.3723
 5771SOL    HW128946   3.340   1.026   2.634  0.4801  0.3577 -1.2202
 5771SOL    HW228947   3.217   1.083   2.688  0.0119  1.4574  1.1279
 5772SOL     OW28948   0.720   0.129   7.328  0.5928 -0.3542  0.6604
 5772SOL    HW128949   0.648   0.158   7.383  1.2385 -0.3408  1.4924
 5772SOL    HW228950   0.755   0.214   7.302 -0.1990 -0.1950  0.1263
 5773SOL     OW28951   4.680   2.533  11.453  0.5244  0.0849 -0.0248
 5773SOL    HW128952   4.701   2.443  11.476  1.1594  0.6431  1.5516
 5773SOL    HW228953   4.608   2.549  11.514  0.2394 -0.8710 -0.1122
 5774SOL     OW28954   1.204   1.594   4.446  0.2928  0.0282  0.5302
 5774SOL    HW128955   1.216   1.586   4.541 -1.4920 -1.5967  0.6278
 5774SOL    HW228956   1.108   1.593   4.448  0.1877  1.9418 -3.1515
 5775SOL     OW28957   4.097   4.249  15.181  0.0054  0.0024  0.2094
 5775SOL    HW128958   4.126   4.233  15.091  0.9260 -1.4783  0.7816
 5775SOL    HW228959   4.066   4.340  15.174 -0.2302 -0.2467 -1.9044
 5776SOL     OW28960   1.451   2.191   5.080 -0.4641 -0.3090  0.4554
 5776SOL    HW128961   1.394   2.162   5.009  1.2393  0.7495 -1.3331
 5776SOL    HW228962   1.537   2.197   5.038 -1.7139  0.8021 -1.9406
 5777SOL     OW28963   2.758   3.386   2.959  0.5442 -0.0356  0.7448
 5777SOL    HW128964   2.663   3.376   2.960  0.3419  1.9008 -0.5696
 5777SOL    HW228965   2.769   3.474   2.924 -0.8706  0.2423  1.0292
 5778SOL     OW28966   0.403   4.601  17.332 -0.0564  0.4826 -0.0550
 5778SOL    HW128967   0.454   4.627  17.409 -1.3959  0.4836  0.8420
 5778SOL    HW228968   0.317   4.608  17.373 -0.1331 -0.1887 -0.0967
 5779SOL     OW28969   2.127   1.128  15.290  0.0163  0.0775 -0.1770
 5779SOL    HW128970   2.211   1.162  15.320 -1.0193  2.5075 -0.0539
 5779SOL    HW228971   2.141   1.126  15.196 -0.7709 -1.3919 -0.2554
 5780SOL     OW28972   0.901   1.226   7.852  0.4508  0.0157 -0.3800
 5780SOL    HW128973   0.970   1.179   7.899  1.1874  1.1586 -0.3166
 5780SOL    HW228974   0.949   1.244   7.771  1.6343  1.8821  0.7274
 5781SOL     OW28975   0.173   1.511  12.665 -0.0458  0.7120  0.0818
 5781SOL    HW128976   0.174   1.508  12.761  2.2228  2.0349  0.0881
 5781SOL    HW228977   0.246   1.452  12.648 -0.6887 -0.1900  0.4712
 5782SOL     OW28978   2.021   2.104   3.551  0.2202  0.1353 -0.3564
 5782SOL    HW128979   2.073   2.101   3.631  2.4315  0.7214 -1.7590
 5782SOL    HW228980   1.937   2.097   3.596  0.9548  0.6723  1.1180
 5783SOL     OW28981   0.396   1.082  11.168  0.6567 -0.1145 -0.0015
 5783SOL    HW128982   0.320   1.132  11.197  0.7875 -0.3568  0.7643
 5783SOL    HW228983   0.462   1.146  11.197  0.9965 -0.0674 -0.8984
 5784SOL     OW28984   0.636   2.153  13.853 -0.5191  0.1666 -0.0646
 5784SOL    HW128985   0.711   2.162  13.794  0.0123 -3.9366 -0.0545
 5784SOL    HW228986   0.589   2.236  13.844 -1.5826 -0.4844 -0.4854
 5785SOL     OW28987   0.869   3.496  11.613 -0.4569 -0.0174 -0.0948
 5785SOL    HW128988   0.845   3.406  11.590  1.6628 -0.8101  0.8052
 5785SOL    HW228989   0.827   3.548  11.544 -0.0551  2.3215  1.4419
 5786SOL     OW28990   2.885   2.275   0.164 -0.5205  0.1940  0.4911
 5786SOL    HW128991   2.806   2.318   0.131  0.3348  1.2054 -0.2186
 5786SOL    HW228992   2.846   2.189   0.184 -1.0083  0.3046  0.0276
 5787SOL     OW28993   2.132   2.109  11.202  0.6429  0.1167  0.4068
 5787SOL    HW128994   2.140   2.013  11.208 -2.9069 -0.1000  1.4550
 5787SOL    HW228995   2.163   2.122  11.112 -1.7841  1.2802 -0.2295
 5788SOL     OW28996   1.261   1.181   5.873  0.1144 -0.0836 -0.8644
 5788SOL    HW128997   1.351   1.205   5.895  0.4321 -3.0193  1.1140
 5788SOL    HW228998   1.263   1.189   5.778 -1.4948 -2.0167 -1.0719
 5789SOL     OW28999   1.213   0.078  17.278 -0.2289 -0.5495 -0.0624
 5789SOL    HW129000   1.119   0.099  17.274 -0.2920 -1.1307 -1.5105
 5789SOL    HW229001   1.242   0.164  17.309  0.1067 -0.0269 -1.8603
 5790SOL     OW29002   1.819   0.136   7.104  0.1034  0.0057  0.2926
 5790SOL    HW129003   1.732   0.149   7.066 -0.6222  0.9409  2.2183
 5790SOL    HW229004   1.800   0.069   7.169  1.6660  0.3381  1.1011
 5791SOL     OW29005   3.895   3.133  13.686  0.5296  0.0689  0.0814
 5791SOL    HW129006   3.943   3.202  13.641 -1.4954  1.3103 -0.2083
 5791SOL    HW229007   3.912   3.055  13.633 -0.9687 -0.9951  1.1565
 5792SOL     OW29008   4.477   3.671   3.700 -0.0389  0.2323 -0.4926
 5792SOL    HW129009   4.426   3.753   3.705  1.6046  1.3825 -2.7025
 5792SOL    HW229010   4.454   3.651   3.609  1.0396 -1.5471 -0.3600
 5793SOL     OW29011   1.466   3.535  10.973 -0.1548 -0.1725 -0.1652
 5793SOL    HW129012   1.557   3.548  11.001  1.0418 -3.0087 -2.8068
 5793SOL    HW229013   1.442   3.452  11.014  0.2437 -1.4617 -2.5381
 5794SOL     OW29014   1.224   4.737   3.258  0.7781 -0.0030 -0.1422
 5794SOL    HW129015   1.228   0.071   3.196  2.8900 -0.8082 -0.9178
 5794SOL    HW229016   1.142   0.024   3.301  0.5499 -0.5789 -0.2396
 5795SOL     OW29017   3.835   4.210   8.107  0.2189 -0.2243  0.0239
 5795SOL    HW129018   3.913   4.265   8.120 -0.1176  0.2877 -0.1189
 5795SOL    HW229019   3.795   4.240   8.026  0.6728 -0.6433 -0.3543
 5796SOL     OW29020   2.145   3.382  16.420  0.0924 -0.1347  0.7607
 5796SOL    HW129021   2.143   3.350  16.330  0.9036  1.2130  0.2589
 5796SOL    HW229022   2.073   3.445  16.409  0.9323  0.4811 -1.2368
 5797SOL     OW29023   3.433   0.348   7.313 -0.0668 -0.9816  0.0530
 5797SOL    HW129024   3.466   0.423   7.264 -0.7307 -0.2925  0.6684
 5797SOL    HW229025   3.481   0.362   7.394 -2.2744 -1.9102  1.4949
 5798SOL     OW29026   4.087   0.422   2.554  0.0697  0.0518 -0.3994
 5798SOL    HW129027   4.011   0.378   2.594 -1.1537  0.2913 -2.4715
 5798SOL    HW229028   4.064   0.434   2.462 -2.3750  0.7997  0.3157
 5799SOL     OW29029   3.646   0.033   6.444  0.2404  0.5056  0.0306
 5799SOL    HW129030   3.602   0.006   6.364 -4.0554  1.5627  2.0115
 5799SOL    HW229031   3.725   4.718   6.442 -0.6167 -0.6585 -1.5248
 5800SOL     OW29032   0.263   0.412   7.295 -0.3019 -0.2736 -0.0407
 5800SOL    HW129033   0.290   0.343   7.234  0.4039  0.2555 -0.3237
 5800SOL    HW229034   0.266   0.485   7.233  2.0125  0.0306  0.4398
 5801SOL     OW29035   3.341   3.741   2.935 -0.2569  0.2871  0.4066
 5801SOL    HW129036   3.252   3.708   2.922  0.5525 -2.3584  1.4708
 5801SOL    HW229037   3.341   3.745   3.031 -0.5476 -0.5337  0.4455
 5802SOL     OW29038   0.599   3.450   1.708 -0.1755  0.2461 -0.4029
 5802SOL    HW129039   0.537   3.384   1.676 -0.7289  0.5238  0.1109
 5802SOL    HW229040   0.641   3.395   1.775  2.4098  1.0972 -1.3143
 5803SOL     OW29041   2.257   1.783   7.932  0.0295 -0.2017 -0.5153
 5803SOL    HW129042   2.282   1.694   7.909  3.4353  0.9795 -1.4110
 5803SOL    HW229043   2.179   1.755   7.980 -0.0026 -1.5642 -1.3660
 5804SOL     OW29044   0.930   3.816   1.599 -0.5166 -0.0090 -0.1783
 5804SOL    HW129045   0.882   3.762   1.662  0.5863 -2.2167 -1.2137
 5804SOL    HW229046   0.858   3.846   1.544 -1.6118  1.2093  1.9044
 5805SOL     OW29047   3.127   1.993  10.949  0.7285 -0.4643  0.1945
 5805SOL    HW129048   3.093   1.921  10.895  3.1281 -2.0871  0.8179
 5805SOL    HW229049   3.157   1.941  11.024 -0.4129  2.0826  2.4059
 5806SOL     OW29050   3.486   0.051   7.902  0.0322  0.3240 -0.1964
 5806SOL    HW129051   3.473   0.137   7.942 -0.8144  0.5560 -0.9801
 5806SOL    HW229052   3.569   0.024   7.942 -1.4567 -1.0859  1.9567
 5807SOL     OW29053   3.973   1.141   8.225  0.2373  0.0616  0.1176
 5807SOL    HW129054   4.012   1.085   8.292 -0.1629 -1.2643 -0.7345
 5807SOL    HW229055   3.901   1.088   8.191  0.3910  1.3491 -2.2265
 5808SOL     OW29056   0.507   1.839   3.730 -0.0745 -0.0140 -0.0004
 5808SOL    HW129057   0.450   1.863   3.803  0.9610  0.3588  0.6751
 5808SOL    HW229058   0.505   1.926   3.691 -0.5467 -0.5591 -1.1828
 5809SOL     OW29059   4.451   2.884   5.723  0.0143  0.4983  0.3612
 5809SOL    HW129060   4.355   2.880   5.725  0.0551  0.0023  1.2076
 5809SOL    HW229061   4.461   2.954   5.788  1.8420 -2.3283  3.0939
 5810SOL     OW29062   2.662   2.313   3.881 -0.1198  0.3671 -0.2660
 5810SOL    HW129063   2.729   2.295   3.948 -0.2362 -2.2146 -0.8539
 5810SOL    HW229064   2.624   2.226   3.890 -1.4727  0.9914  0.0278
 5811SOL     OW29065   1.382   4.527   5.566 -0.0674 -0.2724  0.1366
 5811SOL    HW129066   1.347   4.508   5.653  1.1134 -0.9161  0.4862
 5811SOL    HW229067   1.379   4.622   5.559 -1.2187 -0.2678  0.6972
 5812SOL     OW29068   0.110   0.892   6.751  0.3870 -0.5631  0.2994
 5812SOL    HW129069   0.110   0.981   6.716 -0.4465 -0.2276  1.1415
 5812SOL    HW229070   0.015   0.885   6.743  0.1494  1.3498  1.3019
 5813SOL     OW29071   2.186   3.872   6.904 -0.3221  0.2470  0.0861
 5813SOL    HW129072   2.192   3.920   6.987  0.4325  3.1287 -1.6368
 5813SOL    HW229073   2.141   3.940   6.854 -1.6583 -1.2840 -0.7605
 5814SOL     OW29074   4.209   4.156   9.119 -0.5610 -0.1270 -0.3295
 5814SOL    HW129075   4.256   4.080   9.084 -1.2471 -0.7409  0.1064
 5814SOL    HW229076   4.233   4.158   9.211  1.5959 -0.7757 -0.8567
 5815SOL     OW29077   0.817   3.838   8.546  0.1423  0.3937 -0.0762
 5815SOL    HW129078   0.773   3.906   8.597  0.6212 -0.0114  0.8671
 5815SOL    HW229079   0.761   3.833   8.468  2.4537 -0.4574 -1.6753
 5816SOL     OW29080   1.453   1.785   2.088 -0.1672 -0.0695  0.6844
 5816SOL    HW129081   1.411   1.837   2.019 -1.1920  0.8600  2.0188
 5816SOL    HW229082   1.383   1.728   2.119 -1.2108  0.5754 -0.4952
 5817SOL     OW29083   1.989   0.207   2.895  0.1895  0.4163  0.1550
 5817SOL    HW129084   2.071   0.254   2.876 -1.1410  2.7254  0.1201
 5817SOL    HW229085   1.966   0.178   2.807  3.7569  0.1397 -0.6907
 5818SOL     OW29086   3.057   3.234  15.283  0.0403  0.1233  0.4297
 5818SOL    HW129087   3.039   3.244  15.376 -0.2817  1.0218  0.2696
 5818SOL    HW229088   3.094   3.146  15.281  1.2610  0.6019  1.4407
 5819SOL     OW29089   3.332   2.391   4.794  0.3344 -0.3685  0.7166
 5819SOL    HW129090   3.417   2.383   4.838  0.8475  0.0576 -0.1933
 5819SOL    HW229091   3.355   2.447   4.719  0.4578 -1.4000 -0.0210
 5820SOL     OW29092   2.147   4.107   6.221  0.3820  0.0738 -0.0276
 5820SOL    HW129093   2.178   4.032   6.171 -1.6404 -0.9500  0.2415
 5820SOL    HW229094   2.090   4.060   6.283 -0.7618  1.0512 -0.3278
 5821SOL     OW29095   1.244   1.474  12.387  0.2578  0.6907 -0.1857
 5821SOL    HW129096   1.177   1.485  12.319  0.3862  0.4123 -0.3586
 5821SOL    HW229097   1.205   1.513  12.465  1.2577 -1.0068  1.1583
 5822SOL     OW29098   4.029   4.665  10.583  0.4261 -0.0302  0.3772
 5822SOL    HW129099   3.943   4.648  10.544  0.2362 -0.3168  0.9145
 5822SOL    HW229100   4.007   4.730  10.651  1.2552  0.4155  0.2141
 5823SOL     OW29101   4.693   3.970   3.748  0.4175 -0.3678 -0.4257
 5823SOL    HW129102   4.709   3.982   3.654 -1.8442  0.6156 -0.6850
 5823SOL    HW229103   4.655   3.882   3.757 -0.0606  0.1026  2.2167
 5824SOL     OW29104   2.488   2.788   2.658  0.2556 -0.5378  0.6103
 5824SOL    HW129105   2.524   2.709   2.618  0.1458 -0.7812  1.0000
 5824SOL    HW229106   2.416   2.747   2.705 -1.6317  1.6311 -0.3955
 5825SOL     OW29107   0.814   1.828   7.800 -0.0341  0.7271  0.0837
 5825SOL    HW129108   0.742   1.779   7.840  0.0959 -0.0878 -0.6666
 5825SOL    HW229109   0.864   1.842   7.880  0.2507  4.2929 -0.7211
 5826SOL     OW29110   0.072   2.559  12.723 -0.4155  0.1407  0.4362
 5826SOL    HW129111   0.094   2.620  12.653 -0.6896 -0.1685  0.0786
 5826SOL    HW229112   0.153   2.512  12.740 -1.2828 -1.5913 -0.2017
 5827SOL     OW29113   4.511   2.227  15.573 -0.3575  0.1257  0.3789
 5827SOL    HW129114   4.524   2.158  15.638 -2.1891 -0.4995  0.0654
 5827SOL    HW229115   4.421   2.197  15.566  0.9676 -3.0242 -2.7216
 5828SOL     OW29116   1.714   1.707   5.773  0.0503  0.1705  0.1805
 5828SOL    HW129117   1.749   1.730   5.687 -0.7191 -3.3612 -1.0625
 5828SOL    HW229118   1.775   1.756   5.830  1.0409 -0.3513 -0.4288
 5829SOL     OW29119   2.558   2.658   8.961 -0.1166  0.2316  0.2134
 5829SOL    HW129120   2.561   2.593   9.031 -1.2318  1.6665  1.5902
 5829SOL    HW229121   2.623   2.717   8.999 -0.3979  0.3648  0.4856
 5830SOL     OW29122   1.388   4.737   3.931 -0.5722 -0.2553  0.0505
 5830SOL    HW129123   1.472   0.036   3.907  0.0777 -0.3281  2.2661
 5830SOL    HW229124   1.329   0.039   3.867 -0.9411 -1.0215 -0.0957
 5831SOL     OW29125   4.728   3.030   4.490  0.4096  0.2443 -0.1068
 5831SOL    HW129126   0.004   3.121   4.463 -0.3874  0.7989  1.2771
 5831SOL    HW229127   4.692   2.996   4.409 -1.5049 -0.8031  1.1910
 5832SOL     OW29128   0.204   2.628   7.789  0.3271 -0.2156 -0.3727
 5832SOL    HW129129   0.252   2.550   7.818  1.6404  0.7610  0.0704
 5832SOL    HW229130   0.230   2.617   7.698  1.8259  0.7868 -0.0519
 5833SOL     OW29131   3.840   4.313   5.093 -0.8135 -0.2257  0.6291
 5833SOL    HW129132   3.856   4.365   5.014  0.4700 -2.0973 -0.3378
 5833SOL    HW229133   3.766   4.360   5.133 -1.8038 -1.4313  0.2123
 5834SOL     OW29134   1.945   4.566   3.544  0.6457  0.3839  0.6264
 5834SOL    HW129135   2.024   4.599   3.501  0.8495  0.0616  0.7487
 5834SOL    HW229136   1.882   4.629   3.509 -0.5251  0.0624  2.1715
 5835SOL     OW29137   2.840   2.225  10.701  0.3341  0.3391 -0.5878
 5835SOL    HW129138   2.775   2.254  10.765  2.8424 -2.0845  3.0690
 5835SOL    HW229139   2.801   2.155  10.649  0.5003  1.1237 -1.7447
 5836SOL     OW29140   1.714   3.899  16.794  0.3057 -0.1738 -0.0879
 5836SOL    HW129141   1.745   3.862  16.876  0.0838  0.2430  0.1809
 5836SOL    HW229142   1.703   3.991  16.816  2.1699  0.0126  0.1104
 5837SOL     OW29143   4.427   3.700   0.682  0.3487  0.1076 -0.4896
 5837SOL    HW129144   4.367   3.735   0.616 -1.6917  0.9000  1.7614
 5837SOL    HW229145   4.374   3.636   0.730 -0.5182  0.4560 -0.9775
 5838SOL     OW29146   3.438   0.557   5.700  0.0098 -0.4050  0.0794
 5838SOL    HW129147   3.493   0.479   5.715  2.4453  1.3227  0.0444
 5838SOL    HW229148   3.364   0.525   5.649  0.4907  0.1338 -0.9493
 5839SOL     OW29149   2.508   1.588   1.509  0.5191  0.1330  0.0395
 5839SOL    HW129150   2.527   1.631   1.425  0.8387 -0.1693 -0.0415
 5839SOL    HW229151   2.478   1.499   1.495 -2.9406  1.2753  0.2489
 5840SOL     OW29152   0.842   0.447   8.493 -0.3745 -0.3862  0.3340
 5840SOL    HW129153   0.905   0.497   8.441  0.6212 -2.1606 -0.1711
 5840SOL    HW229154   0.900   0.395   8.549  1.3341  0.2953 -0.7909
 5841SOL     OW29155   4.498   3.379   5.535 -0.1324  0.1613  0.0016
 5841SOL    HW129156   4.521   3.363   5.626 -0.3976  0.8260  0.1849
 5841SOL    HW229157   4.581   3.400   5.493 -0.3288 -0.5554 -0.7366
 5842SOL     OW29158   2.912   0.925  13.795 -0.1788  0.2094 -0.2604
 5842SOL    HW129159   2.870   0.859  13.849  0.3821  1.1876  1.3711
 5842SOL    HW229160   2.852   0.996  13.819 -0.3731  0.6761 -2.0954
 5843SOL     OW29161   4.727   0.672   4.486 -0.5010 -0.4195 -0.9861
 5843SOL    HW129162   4.712   0.620   4.565  2.6396 -1.7835 -1.2786
 5843SOL    HW229163   0.049   0.736   4.523  0.7640 -1.5523 -1.1040
 5844SOL     OW29164   0.620   1.409   9.388  0.4642 -0.0078 -0.2329
 5844SOL    HW129165   0.712   1.431   9.370  1.0928 -0.8240  1.9942
 5844SOL    HW229166   0.609   1.463   9.466  0.9625 -1.0000  0.5217
 5845SOL     OW29167   3.465   0.011   8.707 -0.0657 -0.5422 -0.2748
 5845SOL    HW129168   3.464   4.715   8.618  0.3501 -2.3942  0.4306
 5845SOL    HW229169   3.397   0.077   8.706  0.1085 -0.3850 -3.0481
 5846SOL     OW29170   3.876   2.049   2.606  0.3697  0.2610  0.7392
 5846SOL    HW129171   3.915   2.112   2.666  1.7345 -0.3649  0.5126
 5846SOL    HW229172   3.955   2.022   2.558 -0.9715 -2.2270 -0.0707
 5847SOL     OW29173   2.358   3.889   4.441 -0.6505 -0.6418  0.4954
 5847SOL    HW129174   2.331   3.890   4.349  0.4899  2.3233  0.1759
 5847SOL    HW229175   2.380   3.798   4.460  0.4325 -0.1516  1.5714
 5848SOL     OW29176   2.788   0.269   2.432 -0.2877 -0.0402 -0.1343
 5848SOL    HW129177   2.864   0.287   2.488  0.3768 -1.6994 -0.5021
 5848SOL    HW229178   2.761   0.357   2.406  1.2200  0.4208 -0.0944
 5849SOL     OW29179   4.133   2.411   3.951  0.3002 -0.3644  0.3367
 5849SOL    HW129180   4.041   2.423   3.931  1.1585  1.7578 -2.3510
 5849SOL    HW229181   4.166   2.357   3.879 -2.6028  1.7641 -2.5826
 5850SOL     OW29182   2.336   3.942   7.214 -0.1949  0.1606  0.0636
 5850SOL    HW129183   2.315   3.976   7.301 -2.3534 -1.5879  0.2124
 5850SOL    HW229184   2.407   4.000   7.187 -1.0103  0.3407 -1.6811
 5851SOL     OW29185   3.023   4.217   2.959 -0.3820 -0.6869  0.2258
 5851SOL    HW129186   3.050   4.269   2.884 -0.6848 -0.9430 -0.0641
 5851SOL    HW229187   3.071   4.254   3.033 -0.2727 -1.0696  0.3463
 5852SOL     OW29188   4.351   0.016   9.422  0.3437  0.2771 -0.2663
 5852SOL    HW129189   4.399   0.062   9.353  2.4454 -0.1634  0.8989
 5852SOL    HW229190   4.368   0.078   9.493  0.1142 -0.2376  0.2440
 5853SOL     OW29191   0.617   2.849   2.043  0.3811  0.1503  0.3293
 5853SOL    HW129192   0.662   2.780   1.994  0.8767  0.5380  0.2372
 5853SOL    HW229193   0.695   2.897   2.073 -0.1376 -0.6679  2.9864
 5854SOL     OW29194   1.942   4.255  16.984  0.2238 -0.2651  0.0374
 5854SOL    HW129195   1.984   4.180  16.941 -0.2410 -0.5347  0.0568
 5854SOL    HW229196   1.906   4.213  17.062  2.0017 -1.1157  0.4023
 5855SOL     OW29197   3.787   4.103   2.394 -0.5863 -0.1647 -0.1708
 5855SOL    HW129198   3.695   4.132   2.389 -0.9934 -1.4642 -0.2388
 5855SOL    HW229199   3.791   4.034   2.329 -0.7486 -0.2628 -0.0780
 5856SOL     OW29200   4.058   2.869   0.881 -0.2824 -0.8589 -0.4959
 5856SOL    HW129201   4.012   2.933   0.935 -0.7957 -2.2941  0.7509
 5856SOL    HW229202   4.130   2.850   0.942 -0.5331  0.3543  0.1758
 5857SOL     OW29203   3.764   0.827   4.756  0.0470 -0.2449 -0.1345
 5857SOL    HW129204   3.698   0.811   4.689  0.1634  2.2474 -0.8505
 5857SOL    HW229205   3.707   0.825   4.834  0.4936  2.4440  0.2798
 5858SOL     OW29206   2.699   2.949   7.270  0.4863  0.3923 -0.3452
 5858SOL    HW129207   2.605   2.970   7.269  0.1239 -1.2779 -0.6694
 5858SOL    HW229208   2.710   2.917   7.181  2.1737 -0.4204  0.1549
 5859SOL     OW29209   3.208   2.786  16.141  0.3548  0.3109 -0.2527
 5859SOL    HW129210   3.211   2.754  16.231  0.7751  0.2079 -0.3022
 5859SOL    HW229211   3.185   2.711  16.087  1.6779 -1.2449  1.3397
 5860SOL     OW29212   3.993   2.020   7.268 -0.2648 -0.3170  0.2538
 5860SOL    HW129213   4.016   2.016   7.176  0.6743  0.5043  0.4473
 5860SOL    HW229214   4.025   2.107   7.291  0.2396  0.0961 -2.0304
 5861SOL     OW29215   4.635   3.773   8.336  0.1768  0.0927  0.1876
 5861SOL    HW129216   4.577   3.806   8.267  1.4551  3.4897  0.7572
 5861SOL    HW229217   4.688   3.713   8.283  1.4771  1.8372 -0.4601
 5862SOL     OW29218   1.730   4.332   4.037  0.1800 -0.3045  0.5527
 5862SOL    HW129219   1.673   4.328   4.114 -0.4325  0.4561  0.1396
 5862SOL    HW229220   1.675   4.374   3.971 -1.7660 -1.2995  1.5304
 5863SOL     OW29221   1.598   4.540  12.177 -0.6717 -0.0715 -0.3789
 5863SOL    HW129222   1.668   4.583  12.127 -1.2760  0.5407 -0.6934
 5863SOL    HW229223   1.539   4.612  12.199 -1.2283 -0.7122  0.2530
 5864SOL     OW29224   1.624   1.873   4.125 -0.0335 -0.2343  0.6066
 5864SOL    HW129225   1.666   1.853   4.209  0.5387 -0.8423  0.1710
 5864SOL    HW229226   1.534   1.890   4.151  0.0258 -1.2735  1.4872
 5865SOL     OW29227   1.488   3.793  17.037  0.3137  0.0114 -0.1606
 5865SOL    HW129228   1.510   3.707  17.073  4.4003  1.2301  0.3184
 5865SOL    HW229229   1.563   3.846  17.066 -0.2990  2.2150 -2.5860
 5866SOL     OW29230   0.769   4.429   5.097  0.2776 -0.2259  0.3018
 5866SOL    HW129231   0.852   4.452   5.139  0.3894 -1.4955  0.7564
 5866SOL    HW229232   0.761   4.338   5.125 -1.9981 -0.3036 -0.6401
 5867SOL     OW29233   4.390   0.138   6.764  0.1476  0.4238  0.3726
 5867SOL    HW129234   4.445   0.208   6.728  0.3734 -1.0224 -2.0789
 5867SOL    HW229235   4.374   0.095   6.680 -2.4346  0.5407  0.7756
 5868SOL     OW29236   2.693   1.263   8.626 -0.7162  0.3319 -0.6170
 5868SOL    HW129237   2.762   1.255   8.692 -2.0371 -2.3501  0.4483
 5868SOL    HW229238   2.728   1.196   8.569  0.8517  1.4118 -0.9122
 5869SOL     OW29239   2.638   1.379   7.029 -0.1859  0.0549 -0.0630
 5869SOL    HW129240   2.646   1.351   7.120  0.6304 -0.1017 -0.1873
 5869SOL    HW229241   2.553   1.337   7.015 -0.6107  0.7903  0.2832
 5870SOL     OW29242   1.010   4.087   3.375 -0.0793  0.0106  0.1952
 5870SOL    HW129243   0.932   4.139   3.356  1.5806  1.8528 -1.4690
 5870SOL    HW229244   0.980   4.033   3.448  0.4931  0.2585  0.6165
 5871SOL     OW29245   2.520   3.264  16.489  0.2840  0.3804  0.0907
 5871SOL    HW129246   2.577   3.313  16.429 -0.9295  0.5414 -0.9243
 5871SOL    HW229247   2.583   3.205  16.530  0.3449 -0.1193 -0.7322
 5872SOL     OW29248   0.138   2.022   4.053 -0.8111  0.3013  0.1813
 5872SOL    HW129249   0.051   1.990   4.029 -0.9330  1.3636 -0.7677
 5872SOL    HW229250   0.158   1.963   4.126  1.4690  0.1423 -0.5656
 5873SOL     OW29251   1.238   4.494   7.424 -0.0797  0.7391 -0.0448
 5873SOL    HW129252   1.225   4.454   7.510  2.5276 -0.5021 -0.2281
 5873SOL    HW229253   1.249   4.416   7.370 -0.5388 -0.0173  0.9726
 5874SOL     OW29254   0.362   4.031   5.277 -0.3389  0.2623  0.0144
 5874SOL    HW129255   0.367   4.085   5.357  1.3250 -0.6845  0.5510
 5874SOL    HW229256   0.323   4.100   5.223  1.8144  1.0123 -0.5868
 5875SOL     OW29257   3.397   2.550   9.365 -0.2526  0.6654  0.0843
 5875SOL    HW129258   3.344   2.480   9.327  0.8028 -0.0149 -0.1158
 5875SOL    HW229259   3.436   2.514   9.445 -0.4496  0.5092  0.1111
 5876SOL     OW29260   0.254   2.950  15.009  0.7430 -0.5502 -0.1214
 5876SOL    HW129261   0.339   2.963  14.968  0.7854 -1.5329 -0.3395
 5876SOL    HW229262   0.288   2.930  15.096  0.8955 -1.3144 -0.3602
 5877SOL     OW29263   3.637   1.371   7.566  0.0125 -0.0126  0.1855
 5877SOL    HW129264   3.659   1.459   7.536  1.8797 -0.6864 -0.4248
 5877SOL    HW229265   3.669   1.374   7.656 -1.4421  0.0202  0.6920
 5878SOL     OW29266   3.945   4.601  15.813  0.0054 -0.3252 -0.0650
 5878SOL    HW129267   3.946   4.673  15.877 -1.6001 -0.9280  0.6201
 5878SOL    HW229268   3.911   4.647  15.737 -0.0200  2.3353  1.5585
 5879SOL     OW29269   0.645   3.639   4.702  0.5102 -0.4468 -0.5051
 5879SOL    HW129270   0.658   3.577   4.773  0.3508  0.4665  0.3187
 5879SOL    HW229271   0.597   3.582   4.641  1.0946 -1.6029  0.1165
 5880SOL     OW29272   0.786   0.748   7.545  0.5143 -0.0438  1.0121
 5880SOL    HW129273   0.762   0.838   7.566  2.8075  1.0039 -0.8276
 5880SOL    HW229274   0.698   0.712   7.538  0.2969  0.5660  0.5511
 5881SOL     OW29275   1.825   3.600   2.214  0.2560  0.1390  0.3034
 5881SOL    HW129276   1.898   3.651   2.177  1.2561 -1.3262  0.2526
 5881SOL    HW229277   1.752   3.647   2.174 -1.0194 -1.8145  0.3410
 5882SOL     OW29278   3.338   1.329   6.594  0.5740  0.2138  0.9107
 5882SOL    HW129279   3.434   1.328   6.588  0.5011  1.7181 -0.5374
 5882SOL    HW229280   3.320   1.289   6.678  0.5256 -0.4425  0.5859
 5883SOL     OW29281   3.955   0.036   2.625 -0.1868 -0.2446 -0.1112
 5883SOL    HW129282   4.042   0.067   2.651 -0.8132 -0.3687  2.1545
 5883SOL    HW229283   3.971   0.015   2.533 -0.0554  0.1000 -0.1685
 5884SOL     OW29284   3.674   1.403   8.991  0.1522 -1.5281 -0.5649
 5884SOL    HW129285   3.679   1.469   9.060 -0.9036 -0.8541 -1.1384
 5884SOL    HW229286   3.711   1.329   9.039  1.7383 -1.0958 -1.1393
 5885SOL     OW29287   4.598   1.550  10.617 -0.0116  0.6748  0.2180
 5885SOL    HW129288   4.544   1.565  10.539 -1.3569 -0.4609  0.9427
 5885SOL    HW229289   4.606   1.640  10.649  0.0325  0.6012  0.4151
 5886SOL     OW29290   2.579   3.108  14.275  0.0190  0.1629 -0.3391
 5886SOL    HW129291   2.514   3.153  14.220 -0.1322 -0.5721 -0.7719
 5886SOL    HW229292   2.619   3.185  14.316 -1.6043 -0.5164  2.5197
 5887SOL     OW29293   3.273   1.206   5.833 -0.4489  0.0566  0.2461
 5887SOL    HW129294   3.301   1.186   5.922 -1.1252  2.8289  1.0979
 5887SOL    HW229295   3.254   1.299   5.846  0.1238  0.2002  0.0466
 5888SOL     OW29296   2.098   2.831   5.785 -0.1374 -0.0221  0.2087
 5888SOL    HW129297   2.113   2.877   5.702  0.6329 -1.5105 -0.4663
 5888SOL    HW229298   2.118   2.900   5.848 -0.9524 -0.6859  1.1893
 5889SOL     OW29299   2.569   1.706  10.251 -0.0739 -0.1607 -0.1263
 5889SOL    HW129300   2.551   1.709  10.345 -1.3323  0.7122 -0.3998
 5889SOL    HW229301   2.606   1.619  10.237 -0.6320 -0.2096 -1.2715
 5890SOL     OW29302   3.695   3.816   4.563 -0.4331 -0.1504 -0.3111
 5890SOL    HW129303   3.751   3.738   4.560 -1.6135 -1.0078  0.2421
 5890SOL    HW229304   3.758   3.878   4.525 -2.6899  1.1820 -1.8968
 5891SOL     OW29305   0.157   3.507   4.158  0.0585 -0.2457  0.0161
 5891SOL    HW129306   0.205   3.523   4.239  0.0238 -0.7635  0.1350
 5891SOL    HW229307   0.086   3.571   4.161  1.2839  0.9498  3.0783
 5892SOL     OW29308   4.603   1.486   4.424 -0.0083  0.2454  0.1457
 5892SOL    HW129309   4.611   1.549   4.495 -1.1087 -0.8281  1.2281
 5892SOL    HW229310   4.692   1.470   4.394 -0.3048 -1.5962  0.2225
 5893SOL     OW29311   1.860   1.354   5.056 -0.6978  0.5153  0.0610
 5893SOL    HW129312   1.943   1.373   5.100 -1.1234  1.2033  0.5613
 5893SOL    HW229313   1.828   1.440   5.031 -2.8090 -0.2009  0.3641
 5894SOL     OW29314   0.302   2.281   9.247 -0.2890  0.3726  0.0531
 5894SOL    HW129315   0.378   2.226   9.230  0.6829  1.5886  0.4818
 5894SOL    HW229316   0.272   2.252   9.334 -0.0536  0.8743  0.3005
 5895SOL     OW29317   1.703   0.346   5.601  0.3620 -0.6631 -0.0707
 5895SOL    HW129318   1.639   0.324   5.668  1.0943 -0.0993  0.8271
 5895SOL    HW229319   1.728   0.260   5.568  0.7973 -0.6423  0.1961
 5896SOL     OW29320   0.701   1.232   6.370 -0.1447 -0.3956  0.4984
 5896SOL    HW129321   0.646   1.193   6.304  0.3463  0.1239 -0.2228
 5896SOL    HW229322   0.641   1.293   6.414  1.2822  0.2817  1.5328
 5897SOL     OW29323   1.190   3.084   1.814  0.6236 -0.0858  0.0434
 5897SOL    HW129324   1.212   3.025   1.886 -1.8821 -1.6848 -0.4921
 5897SOL    HW229325   1.099   3.103   1.838  1.2798  1.1953  1.5400
 5898SOL     OW29326   0.397   1.011   6.514  0.2460 -0.6716 -0.5318
 5898SOL    HW129327   0.327   1.063   6.474  0.8984  1.8316  1.5862
 5898SOL    HW229328   0.340   0.936   6.528  1.6675 -1.2273  2.2336
 5899SOL     OW29329   2.404   2.863   5.743 -0.7711 -0.2585  0.4386
 5899SOL    HW129330   2.348   2.903   5.678 -3.3944 -0.2284  2.7185
 5899SOL    HW229331   2.393   2.770   5.722  1.0141  0.1069 -2.0356
 5900SOL     OW29332   3.656   0.041   6.968  0.7044 -0.1188  0.0474
 5900SOL    HW129333   3.702   0.073   7.045  2.3769 -0.6351 -0.7299
 5900SOL    HW229334   3.711   0.082   6.900  2.0770  2.4817  2.7530
 5901SOL     OW29335   0.926   4.158   1.538 -0.3064  0.1306  0.1369
 5901SOL    HW129336   0.985   4.125   1.606 -0.0100  0.5439  0.0812
 5901SOL    HW229337   0.987   4.176   1.467 -1.0516 -1.2533 -0.8317
 5902SOL     OW29338   1.604   2.477   3.261  0.2278 -0.3098  0.1935
 5902SOL    HW129339   1.514   2.472   3.230 -0.0108 -0.5550  0.9207
 5902SOL    HW229340   1.644   2.413   3.202  1.6237  0.3732  0.4079
 5903SOL     OW29341   0.127   1.748  16.397  0.1300  0.1058 -0.6288
 5903SOL    HW129342   0.142   1.778  16.308 -0.3831 -0.2323 -0.8278
 5903SOL    HW229343   0.208   1.776  16.441  0.1413 -0.1710 -0.4723
 5904SOL     OW29344   2.783   2.921   3.720 -0.0090  0.1634 -0.0377
 5904SOL    HW129345   2.821   2.992   3.668  1.0579 -0.7747 -0.5316
 5904SOL    HW229346   2.824   2.840   3.691 -0.7326 -0.0320 -0.5077
 5905SOL     OW29347   4.512   0.491   0.453  0.0879  1.0244  0.3957
 5905SOL    HW129348   4.449   0.547   0.408 -0.3267  0.0217 -0.2737
 5905SOL    HW229349   4.498   0.402   0.420  1.3844  1.4169 -1.1677
 5906SOL     OW29350   0.049   0.605   0.319  0.4139  0.3288  0.1126
 5906SOL    HW129351   4.708   0.626   0.272  0.9751  0.3415 -0.8363
 5906SOL    HW229352   0.074   0.694   0.345  0.9355  0.6801 -1.5629
 5907SOL     OW29353   0.482   0.032  11.392 -0.5494  0.0474 -0.3314
 5907SOL    HW129354   0.445   0.074  11.314  1.1480  0.1298 -1.0923
 5907SOL    HW229355   0.400   0.019  11.440  1.2447 -1.5096  2.2814
 5908SOL     OW29356   4.107   2.699   4.273  0.3328  0.1881  0.3105
 5908SOL    HW129357   4.148   2.681   4.189 -0.0557  0.1801  0.1245
 5908SOL    HW229358   4.061   2.621   4.301 -1.1005  0.7785 -0.4075
 5909SOL     OW29359   0.533   3.982  13.571  0.7115 -0.0316  0.1474
 5909SOL    HW129360   0.612   4.033  13.590  1.8852 -2.1751  1.0662
 5909SOL    HW229361   0.472   4.053  13.591  0.2570 -0.1883 -0.6717
 5910SOL     OW29362   3.604   0.625   2.860 -0.0596  0.0852 -0.3732
 5910SOL    HW129363   3.680   0.595   2.909 -1.6556 -2.4920  0.5085
 5910SOL    HW229364   3.571   0.553   2.807  5.0830 -2.4717 -0.1209
 5911SOL     OW29365   0.668   1.132   1.396  0.3364  0.1850  0.9683
 5911SOL    HW129366   0.661   1.082   1.478 -1.6220  0.7395  1.1584
 5911SOL    HW229367   0.740   1.084   1.356  0.4052  2.5535 -1.7968
 5912SOL     OW29368   0.063   1.928  12.405 -0.3908 -0.1100 -0.5725
 5912SOL    HW129369   0.128   1.975  12.458  0.0323  0.2715 -1.4118
 5912SOL    HW229370   0.016   1.873  12.468 -1.0809 -0.0645 -1.0512
 5913SOL     OW29371   4.465   4.722  17.189  0.1601 -0.6606 -0.0165
 5913SOL    HW129372   4.463   4.736  17.283  0.0479  1.9003 -0.4047
 5913SOL    HW229373   4.543   4.667  17.179  1.7020  1.5685 -0.4210
 5914SOL     OW29374   1.195   0.432   4.626  0.3604 -0.3068  0.2996
 5914SOL    HW129375   1.148   0.435   4.542 -1.8852  0.4042  1.5693
 5914SOL    HW229376   1.239   0.516   4.620 -0.9100  0.3416  0.1637
 5915SOL     OW29377   1.501   3.860   3.532  0.2621 -0.0448  0.3726
 5915SOL    HW129378   1.432   3.910   3.489 -1.4467 -0.0247  3.1104
 5915SOL    HW229379   1.577   3.919   3.531 -0.3973  0.8324  1.5196
 5916SOL     OW29380   0.193   2.914   8.234 -0.0683  0.6649  1.0893
 5916SOL    HW129381   0.168   2.895   8.144 -1.5021  1.9560  1.2209
 5916SOL    HW229382   0.260   2.849   8.254 -0.8872 -0.5323 -0.0530
 5917SOL     OW29383   1.579   2.481   1.284 -0.6200  0.1578 -0.0844
 5917SOL    HW129384   1.544   2.541   1.218 -0.9307  1.0049  0.8483
 5917SOL    HW229385   1.501   2.434   1.313 -2.3556  1.9830 -1.7695
 5918SOL     OW29386   4.114   4.292   4.127  0.4173  0.6375 -0.0095
 5918SOL    HW129387   4.200   4.280   4.088  0.5000 -0.5256  0.5274
 5918SOL    HW229388   4.125   4.228   4.197 -0.8940  0.8032  0.3465
 5919SOL     OW29389   1.309   1.458  17.160 -0.5046  0.3873  0.0843
 5919SOL    HW129390   1.221   1.437  17.131  1.3670 -3.6744 -2.8229
 5919SOL    HW229391   1.354   1.422  17.083 -1.5547  0.2693 -0.4744
 5920SOL     OW29392   3.684   2.546   4.523  0.3140 -0.2914  0.0662
 5920SOL    HW129393   3.701   2.465   4.474 -2.1124 -0.3664 -0.6517
 5920SOL    HW229394   3.731   2.613   4.473 -0.0744 -0.0773 -0.0131
 5921SOL     OW29395   0.526   3.532  12.500  0.2322  0.2269  0.2821
 5921SOL    HW129396   0.490   3.447  12.475  0.6598 -0.3273  1.5268
 5921SOL    HW229397   0.446   3.584  12.491  0.9900  1.3720  0.2515
 5922SOL     OW29398   0.956   1.418  15.661 -0.0090  0.1458  0.0230
 5922SOL    HW129399   0.884   1.398  15.721  0.3441 -1.1085  0.0091
 5922SOL    HW229400   1.029   1.395  15.718  0.4090  3.1235  0.7284
 5923SOL     OW29401   2.876   2.342   3.155 -0.2116  0.1053  0.0116
 5923SOL    HW129402   2.838   2.407   3.097 -0.3268 -0.4272 -0.5093
 5923SOL    HW229403   2.968   2.360   3.138 -0.2040  0.5136  0.4732
 5924SOL     OW29404   4.590   2.944  12.131  0.1928  0.3864  0.5271
 5924SOL    HW129405   4.571   2.992  12.050  1.2659 -0.9511 -0.5349
 5924SOL    HW229406   4.502   2.954  12.166  0.2797 -2.1809  1.4972
 5925SOL     OW29407   3.831   4.635   5.795 -0.3087 -0.1017  0.1353
 5925SOL    HW129408   3.886   4.710   5.817 -1.2448  0.6711 -0.1791
 5925SOL    HW229409   3.817   4.585   5.876 -0.0304  0.9391  0.8378
 5926SOL     OW29410   0.825   2.659   4.007  0.5252 -0.6977 -0.2175
 5926SOL    HW129411   0.751   2.599   4.016  1.0826 -1.1314  1.5880
 5926SOL    HW229412   0.805   2.700   3.923 -2.7866 -1.2815  0.3030
 5927SOL     OW29413   3.259   2.929   7.764  0.1267  0.1137 -0.0736
 5927SOL    HW129414   3.163   2.933   7.760  0.2318  1.1356 -1.5638
 5927SOL    HW229415   3.266   2.835   7.777  0.1384  0.0043 -0.8674
 5928SOL     OW29416   2.484   4.575   2.286 -0.1426  0.6730 -0.6284
 5928SOL    HW129417   2.574   4.582   2.256  0.2173 -1.1059  0.0518
 5928SOL    HW229418   2.491   4.635   2.360  1.0067 -1.2439  0.8053
 5929SOL     OW29419   1.199   0.905   5.728 -0.3367  0.0709  0.4378
 5929SOL    HW129420   1.189   0.816   5.763 -0.1276  0.3233  1.1278
 5929SOL    HW229421   1.291   0.908   5.702 -0.8534  1.4395 -1.2399
 5930SOL     OW29422   0.243   0.121   5.737  0.1527 -0.0311 -0.2894
 5930SOL    HW129423   0.330   0.101   5.703  0.5620 -0.6011  1.0709
 5930SOL    HW229424   0.221   0.038   5.780 -0.3104 -1.1266 -2.6635
 5931SOL     OW29425   1.989   0.581   8.529 -0.0857 -0.0458  0.2183
 5931SOL    HW129426   1.926   0.630   8.476  1.1162  0.9229 -0.3072
 5931SOL    HW229427   1.989   0.503   8.474  1.9691 -0.4969  0.8642
 5932SOL     OW29428   0.023   0.825   3.541 -0.5433 -0.4524 -0.6702
 5932SOL    HW129429   0.048   0.906   3.497 -1.1632 -0.7151 -1.5130
 5932SOL    HW229430   0.060   0.837   3.628  0.8849  0.5163 -1.4285
 5933SOL     OW29431   2.093   0.766  14.658 -0.7291 -0.4693 -0.5413
 5933SOL    HW129432   2.104   0.672  14.670 -1.9672 -0.3884  1.2058
 5933SOL    HW229433   2.008   0.767  14.613 -0.4409 -2.4418 -1.1373
 5934SOL     OW29434   1.244   3.230   9.114 -0.4514 -0.1424  0.0676
 5934SOL    HW129435   1.182   3.303   9.108  0.0128  0.2892  0.5753
 5934SOL    HW229436   1.282   3.257   9.198  3.1311 -0.3143 -1.5222
 5935SOL     OW29437   4.662   0.466   9.342 -0.0497 -0.2257  0.1456
 5935SOL    HW129438   4.572   0.488   9.318 -0.2025 -1.8629 -0.7425
 5935SOL    HW229439   4.696   0.527   9.276 -0.1186 -3.7044 -3.0911
 5936SOL     OW29440   4.596   0.747  13.006 -0.6182 -0.1695 -0.0521
 5936SOL    HW129441   4.604   0.757  12.912 -0.4963 -1.0062 -0.1314
 5936SOL    HW229442   4.508   0.782  13.020 -0.2660  0.1482  1.4637
 5937SOL     OW29443   0.054   2.932  10.567  0.2909 -0.0662 -0.0394
 5937SOL    HW129444   0.035   2.947  10.660 -1.8150 -0.0196 -0.4740
 5937SOL    HW229445   0.074   3.023  10.548  4.2689 -1.0907 -0.7389
 5938SOL     OW29446   0.131   0.637   4.025  0.4682 -0.3073  0.9015
 5938SOL    HW129447   0.171   0.603   4.105  1.8815  1.1956  0.8295
 5938SOL    HW229448   0.043   0.639   4.062  0.6240 -2.1553  1.4004
 5939SOL     OW29449   2.698   2.796   0.382  0.2742 -0.1326  0.1154
 5939SOL    HW129450   2.769   2.758   0.434 -0.4236 -0.0190  1.1573
 5939SOL    HW229451   2.669   2.868   0.439  1.8964 -0.7498  1.7266
 5940SOL     OW29452   1.092   4.523   5.451 -0.4265  0.6646 -0.1789
 5940SOL    HW129453   1.159   4.461   5.423 -1.7389 -0.4900 -0.7753
 5940SOL    HW229454   1.039   4.473   5.513 -0.4739  0.2443 -0.5616
 5941SOL     OW29455   0.976   2.677   0.767 -0.2528  0.8299 -0.1980
 5941SOL    HW129456   0.936   2.697   0.851 -1.3115 -2.0013 -0.0161
 5941SOL    HW229457   1.058   2.638   0.797 -0.0397  1.3557 -0.1030
 5942SOL     OW29458   1.487   2.598   9.481  0.1897  0.4853 -0.3426
 5942SOL    HW129459   1.435   2.677   9.492  1.8375  1.5770 -0.3787
 5942SOL    HW229460   1.486   2.553   9.566 -2.0355  1.3990  0.1143
 5943SOL     OW29461   4.177   1.604   1.837  0.3781  0.0413  0.0700
 5943SOL    HW129462   4.128   1.614   1.755 -0.4332 -0.0311  0.5461
 5943SOL    HW229463   4.263   1.582   1.803 -0.4087 -2.5002 -0.2426
 5944SOL     OW29464   2.293   1.462  17.025 -0.0681  0.6617 -0.0730
 5944SOL    HW129465   2.247   1.522  17.084  0.2232  2.8691 -2.1162
 5944SOL    HW229466   2.230   1.442  16.956  1.4330 -1.0555 -0.9492
 5945SOL     OW29467   1.476   1.053   4.318  0.6738  0.0945  0.4039
 5945SOL    HW129468   1.500   1.015   4.402  2.2848  0.4447  0.1156
 5945SOL    HW229469   1.433   0.979   4.275  0.6344 -1.2204  2.6981
 5946SOL     OW29470   4.343   0.694   0.340 -0.7619 -0.6170 -0.8246
 5946SOL    HW129471   4.413   0.751   0.308 -2.6047  1.8409 -0.4634
 5946SOL    HW229472   4.265   0.734   0.303  0.6245  3.9134  1.1752
 5947SOL     OW29473   2.740   0.027   2.602  0.0134  0.2011  0.2353
 5947SOL    HW129474   2.770   0.114   2.575  0.6870  0.2016  1.0110
 5947SOL    HW229475   2.823   4.730   2.631 -0.4273 -2.0890 -1.3570
 5948SOL     OW29476   0.300   0.061  15.106  0.1005 -0.0649 -0.0035
 5948SOL    HW129477   0.363   0.072  15.035 -2.3441  0.6290 -2.0982
 5948SOL    HW229478   0.306   0.144  15.154  0.9218  0.4713 -1.0403
 5949SOL     OW29479   1.623   1.244  10.926 -0.5205  0.2443 -0.1121
 5949SOL    HW129480   1.612   1.164  10.979 -1.5133  1.8172  2.0515
 5949SOL    HW229481   1.533   1.275  10.936 -0.4974  0.2614  0.0509
 5950SOL     OW29482   3.185   3.497  14.461 -0.2165  0.1512  0.0196
 5950SOL    HW129483   3.163   3.404  14.452 -1.1090  0.1945  1.7575
 5950SOL    HW229484   3.112   3.538  14.415  1.8120  0.1512 -3.1837
 5951SOL     OW29485   0.125   1.717   3.524 -0.1190 -0.0039 -0.2935
 5951SOL    HW129486   0.178   1.646   3.487  0.4992  0.1163  0.3624
 5951SOL    HW229487   0.040   1.673   3.531 -0.7581  1.2203 -0.4577
 5952SOL     OW29488   1.040   3.948   4.349  0.7878  0.1267  0.6208
 5952SOL    HW129489   1.104   4.019   4.346 -0.5762  1.2216 -2.1498
 5952SOL    HW229490   0.957   3.995   4.352  2.0642  2.3890 -0.2677
 5953SOL     OW29491   2.649   1.142   5.896 -0.0238  0.3372 -0.0724
 5953SOL    HW129492   2.611   1.200   5.830 -0.1741  0.8630  0.4758
 5953SOL    HW229493   2.738   1.126   5.866 -1.2368 -2.2671 -2.3499
 5954SOL     OW29494   0.174   1.760  11.755  0.4309 -0.1815 -0.6274
 5954SOL    HW129495   0.220   1.785  11.675 -0.6064  3.5889 -0.0477
 5954SOL    HW229496   0.181   1.830  11.819  0.4174  0.2227 -1.0624
 5955SOL     OW29497   1.296   4.015   3.425 -0.1845 -0.1631 -0.2915
 5955SOL    HW129498   1.203   4.006   3.404 -0.3518 -1.0258  0.8078
 5955SOL    HW229499   1.301   4.107   3.401  0.2106 -0.1254 -0.0518
 5956SOL     OW29500   1.376   2.047   7.102 -0.2157 -0.0485 -0.3417
 5956SOL    HW129501   1.435   2.071   7.032 -1.0226 -2.9273 -2.0130
 5956SOL    HW229502   1.436   1.996   7.157 -1.5299 -0.8108  0.4044
 5957SOL     OW29503   4.614   0.435   3.354  0.5723  0.7227 -0.1018
 5957SOL    HW129504   4.630   0.386   3.435 -0.2513 -0.7066 -0.7906
 5957SOL    HW229505   4.674   0.510   3.353  0.9158  0.4613  0.9158
 5958SOL     OW29506   1.105   4.183  10.464 -0.3556  0.7067  0.3241
 5958SOL    HW129507   1.126   4.271  10.493  1.6835  0.2371  0.2959
 5958SOL    HW229508   1.195   4.164  10.437 -0.8273 -2.4286  0.9348
 5959SOL     OW29509   2.097   3.968   2.761 -0.0374  0.2456  0.4834
 5959SOL    HW129510   2.004   3.959   2.740 -0.1698 -1.8251  1.9975
 5959SOL    HW229511   2.149   3.943   2.685 -2.4048 -2.2879 -0.3112
 5960SOL     OW29512   0.606   0.932  10.771 -0.0502  0.4834  0.3051
 5960SOL    HW129513   0.619   0.843  10.802 -2.2685  0.0332 -0.0343
 5960SOL    HW229514   0.522   0.938  10.816 -1.1661 -1.8102 -1.4485
 5961SOL     OW29515   1.870   1.537  15.405 -0.6878  0.5283  0.3844
 5961SOL    HW129516   1.902   1.615  15.450  0.8296 -1.2113  2.3319
 5961SOL    HW229517   1.775   1.544  15.404 -0.6987  0.7704  3.1612
 5962SOL     OW29518   0.742   2.333   6.159  0.6437  0.5586 -0.2781
 5962SOL    HW129519   0.677   2.377   6.214  0.6431  1.5703 -1.0878
 5962SOL    HW229520   0.803   2.294   6.222 -1.1256 -0.0059  1.0918
 5963SOL     OW29521   1.723   3.458   1.742 -0.2069 -0.5198 -0.2831
 5963SOL    HW129522   1.811   3.493   1.756 -0.8748  0.7315  0.8025
 5963SOL    HW229523   1.729   3.365   1.763  0.7680 -1.0867 -3.0419
 5964SOL     OW29524   3.974   0.428   6.821 -0.2561  0.0723 -0.6125
 5964SOL    HW129525   4.008   0.504   6.869 -2.9967  0.5530  0.6101
 5964SOL    HW229526   3.948   0.387   6.904  1.2164  1.4427  0.5252
 5965SOL     OW29527   1.657   1.468  16.613  0.2232  0.6342  0.3239
 5965SOL    HW129528   1.603   1.406  16.662  1.7556 -0.4475  0.6355
 5965SOL    HW229529   1.736   1.417  16.598 -0.4674 -0.0632 -0.8608
 5966SOL     OW29530   4.070   4.053   3.362  0.3357  0.3570 -0.0110
 5966SOL    HW129531   3.985   4.095   3.345  1.1540  2.0761  0.2120
 5966SOL    HW229532   4.061   4.038   3.456 -1.7098 -0.3903 -0.3071
 5967SOL     OW29533   3.383   0.085   7.353  0.3063  0.8168 -0.0186
 5967SOL    HW129534   3.395   0.180   7.352 -0.0989  0.8653 -0.5018
 5967SOL    HW229535   3.388   0.067   7.447  1.2391  0.8362 -0.0624
 5968SOL     OW29536   4.467   4.687   3.396 -0.2627  0.4962  0.5065
 5968SOL    HW129537   4.507   4.676   3.309 -3.6148 -0.9454 -0.8424
 5968SOL    HW229538   4.424   0.030   3.374  1.8720  1.5279  0.1124
 5969SOL     OW29539   4.372   2.798   1.655 -0.0338  0.3325  0.3899
 5969SOL    HW129540   4.387   2.881   1.700  1.1134  0.8662 -0.9818
 5969SOL    HW229541   4.395   2.739   1.727  0.7987 -1.8948 -1.7015
 5970SOL     OW29542   4.627   0.832   7.391 -0.8301 -0.3697  0.3102
 5970SOL    HW129543   4.660   0.917   7.421 -0.7268 -0.3380  0.1114
 5970SOL    HW229544   4.535   0.842   7.413 -0.4076  0.2463  1.8176
 5971SOL     OW29545   3.139   2.447   6.990  0.5059 -0.1424 -0.2949
 5971SOL    HW129546   3.190   2.369   6.968 -0.9026 -1.3836  0.7874
 5971SOL    HW229547   3.211   2.509   6.988 -0.2249  0.8195  2.3066
 5972SOL     OW29548   0.452   0.512   3.495  0.1211  0.8570  0.3257
 5972SOL    HW129549   0.424   0.579   3.432  1.4504 -0.1081 -1.2605
 5972SOL    HW229550   0.412   0.548   3.575 -0.6867  1.5993 -0.4050
 5973SOL     OW29551   1.657   3.733   2.774 -0.4088 -0.1579 -0.0881
 5973SOL    HW129552   1.625   3.684   2.698 -0.8611 -1.4588  0.9476
 5973SOL    HW229553   1.570   3.743   2.812  0.3952 -0.1314  1.7496
 5974SOL     OW29554   0.817   3.615   2.532  0.6084  0.1272 -0.2191
 5974SOL    HW129555   0.768   3.599   2.613 -2.4802 -1.4435 -2.4026
 5974SOL    HW229556   0.831   3.526   2.501  0.1345  0.0462 -0.2096
 5975SOL     OW29557   2.075   2.762  12.703 -0.2817 -0.1235  0.2706
 5975SOL    HW129558   2.154   2.785  12.655 -0.2151 -0.6660  0.1182
 5975SOL    HW229559   2.027   2.711  12.638  0.5084 -1.1343  0.4818
 5976SOL     OW29560   2.822   0.535   5.895  0.1340  0.0316  0.3022
 5976SOL    HW129561   2.757   0.522   5.964 -1.4790 -1.6267 -1.5204
 5976SOL    HW229562   2.897   0.549   5.953  0.0929  2.6873 -0.3068
 5977SOL     OW29563   1.332   2.377   7.654 -0.1882  0.6870  0.2783
 5977SOL    HW129564   1.373   2.442   7.598 -0.8233  1.6735  0.9486
 5977SOL    HW229565   1.334   2.301   7.597  0.4087  2.7269 -2.4394
 5978SOL     OW29566   2.117   2.045   2.661  0.0487 -0.5793 -0.0467
 5978SOL    HW129567   2.144   2.004   2.743 -0.9768 -2.4042 -0.6214
 5978SOL    HW229568   2.050   1.989   2.622  0.8462 -0.9255 -0.9107
 5979SOL     OW29569   4.662   2.054   5.005 -0.5821  0.4431 -0.1451
 5979SOL    HW129570   4.670   2.148   4.993 -1.4909  0.8567  2.3432
 5979SOL    HW229571   4.626   2.027   4.921 -0.2637 -1.1969  0.2373
 5980SOL     OW29572   0.932   0.846   2.532  0.4736 -0.4209  0.5706
 5980SOL    HW129573   0.875   0.854   2.608 -1.9389  1.5526 -1.4416
 5980SOL    HW229574   0.874   0.800   2.472  0.3798 -1.1821  1.2379
 5981SOL     OW29575   0.396   1.376   1.813 -0.4200 -0.2701 -0.4405
 5981SOL    HW129576   0.341   1.312   1.858 -0.7370  1.6454  1.9011
 5981SOL    HW229577   0.448   1.423   1.879 -0.1706  0.3997 -1.1247
 5982SOL     OW29578   3.799   4.728   4.617  0.2748 -0.1088 -0.5407
 5982SOL    HW129579   3.787   0.070   4.566  0.4390  1.6317  2.1862
 5982SOL    HW229580   3.782   4.668   4.544 -1.9221 -0.5490  0.3377
 5983SOL     OW29581   1.512   2.274  11.063 -0.4763 -0.0588 -1.0124
 5983SOL    HW129582   1.474   2.300  11.147  1.2577  1.1315 -0.5829
 5983SOL    HW229583   1.500   2.350  11.006  0.3421 -2.5665 -4.5466
 5984SOL     OW29584   0.840   0.218   6.611 -0.0608 -0.2813  0.6158
 5984SOL    HW129585   0.834   0.288   6.546  0.2531 -0.6468  0.1906
 5984SOL    HW229586   0.852   0.269   6.691  0.1226  2.6766 -1.3197
 5985SOL     OW29587   4.459   2.730   4.078  0.0432 -0.1411  0.0247
 5985SOL    HW129588   4.371   2.692   4.067  0.7977 -2.2631  1.1844
 5985SOL    HW229589   4.492   2.661   4.021  3.3257  1.6236 -0.1521
 5986SOL     OW29590   0.562   3.961   6.975  0.1490  0.5063  0.2884
 5986SOL    HW129591   0.575   3.874   6.936 -4.1469 -0.3682  0.8398
 5986SOL    HW229592   0.557   3.935   7.067 -1.2989  1.7047  0.5301
 5987SOL     OW29593   2.454   3.808   7.763  0.1090 -0.7337 -0.5846
 5987SOL    HW129594   2.473   3.755   7.686  0.6141 -0.5029 -0.6151
 5987SOL    HW229595   2.530   3.865   7.751 -0.6356  0.9992  2.7175
 5988SOL     OW29596   0.092   0.596   3.407 -0.7770  0.1149  0.2573
 5988SOL    HW129597   0.072   0.670   3.463 -0.5984  0.9725 -0.8011
 5988SOL    HW229598   0.070   0.530   3.473  1.1740 -1.3676 -0.5538
 5989SOL     OW29599   4.681   0.564   5.640  0.1221  0.3593 -0.4342
 5989SOL    HW129600   4.635   0.491   5.598  0.0002  0.9652 -1.3513
 5989SOL    HW229601   0.029   0.526   5.651  0.1595  0.3259 -0.8249
 5990SOL     OW29602   0.784   0.256   1.445  0.2499 -0.4914  0.0803
 5990SOL    HW129603   0.724   0.325   1.470 -0.3873 -1.2119  0.5533
 5990SOL    HW229604   0.800   0.215   1.531 -0.3570  0.5232  0.6684
 5991SOL     OW29605   0.834   0.358   7.273 -0.0247 -0.0788  0.3887
 5991SOL    HW129606   0.790   0.443   7.279 -1.4816 -0.7497 -0.9099
 5991SOL    HW229607   0.838   0.349   7.178 -2.3514 -0.4203  0.3238
 5992SOL     OW29608   4.208   0.810   3.863 -0.5922  0.0891 -0.6019
 5992SOL    HW129609   4.188   0.720   3.838 -1.1956 -0.1280  0.6746
 5992SOL    HW229610   4.238   0.846   3.780  0.1559  1.1126  0.1094
 5993SOL     OW29611   1.326   2.035   3.190  0.3387 -0.6485  0.3091
 5993SOL    HW129612   1.231   2.045   3.196  0.6488  2.7210 -0.4090
 5993SOL    HW229613   1.345   1.978   3.265  1.0063 -1.8223 -0.7424
 5994SOL     OW29614   1.424   3.341   1.862 -0.2439  0.0855  0.3373
 5994SOL    HW129615   1.377   3.328   1.780 -1.0053  0.1701  0.7616
 5994SOL    HW229616   1.462   3.428   1.849 -0.3880 -0.0206 -0.7678
 5995SOL     OW29617   1.513   1.839   8.832 -0.3334 -0.4329 -0.1403
 5995SOL    HW129618   1.426   1.872   8.852 -0.3846  0.4150 -1.8009
 5995SOL    HW229619   1.521   1.753   8.873  0.6703  0.9623  2.6207
 5996SOL     OW29620   1.489   4.733   4.977  0.3345  0.0944 -0.1468
 5996SOL    HW129621   1.480   0.087   4.953 -2.7700  0.4277  2.3735
 5996SOL    HW229622   1.409   4.701   4.936 -0.5595  1.4898  0.4954
 5997SOL     OW29623   3.921   2.312   5.918  0.2404  0.1797  0.1766
 5997SOL    HW129624   3.981   2.382   5.895 -0.7097  1.3834  1.3459
 5997SOL    HW229625   3.916   2.267   5.833  0.8191  1.2510 -0.4187
 5998SOL     OW29626   1.155   1.583   1.616 -0.2571  0.3493 -0.1930
 5998SOL    HW129627   1.136   1.490   1.605 -0.7234  0.5180 -0.8192
 5998SOL    HW229628   1.187   1.589   1.706  0.9245 -1.2892 -0.5119
 5999SOL     OW29629   3.402   1.202  15.628  0.0790  0.1970  0.3417
 5999SOL    HW129630   3.463   1.276  15.621 -0.5021  0.8906  2.6676
 5999SOL    HW229631   3.347   1.219  15.704 -0.8702  1.2290 -0.5670
 6000SOL     OW29632   1.109   0.513  16.009  0.2965 -0.1563 -0.1019
 6000SOL    HW129633   1.184   0.567  15.986  0.3327 -0.3015 -0.3205
 6000SOL    HW229634   1.040   0.566  15.968 -0.0278 -1.0785 -0.7641
 6001SOL     OW29635   4.483   1.153   9.398 -0.1094 -0.3182 -0.1317
 6001SOL    HW129636   4.431   1.076   9.377 -0.2378  0.2764 -1.9792
 6001SOL    HW229637   4.454   1.174   9.487  1.3154 -2.6377  0.8761
 6002SOL     OW29638   3.417   3.317   1.966 -0.1871 -0.3121 -0.7569
 6002SOL    HW129639   3.497   3.318   2.019  0.2856  1.4930 -1.5201
 6002SOL    HW229640   3.446   3.351   1.882 -1.4352 -1.1751 -1.5245
 6003SOL     OW29641   3.138   2.275  10.312 -0.2067 -0.5322  0.8448
 6003SOL    HW129642   3.067   2.297  10.253  1.1707  2.6436  0.3572
 6003SOL    HW229643   3.101   2.301  10.396 -2.3179  0.5892 -0.4482
 6004SOL     OW29644   1.735   2.826  12.730  0.0810  0.6914 -0.1996
 6004SOL    HW129645   1.711   2.907  12.684 -0.6460  0.5071 -0.1569
 6004SOL    HW229646   1.830   2.822  12.731  0.1687  2.6382 -0.3324
 6005SOL     OW29647   2.075   3.029   5.219 -0.4782  0.2365  0.2568
 6005SOL    HW129648   2.085   2.964   5.150  0.8127 -1.7161  2.2997
 6005SOL    HW229649   2.007   3.082   5.177 -0.0254 -0.9936 -2.0508
 6006SOL     OW29650   2.861   0.556  13.607  0.0554 -0.2851 -0.2115
 6006SOL    HW129651   2.901   0.628  13.558  0.0014  0.0846  0.2769
 6006SOL    HW229652   2.770   0.560  13.576  1.0626  3.1250 -2.7386
 6007SOL     OW29653   2.833   2.394   4.828 -0.5635  0.2983  0.3095
 6007SOL    HW129654   2.751   2.352   4.853 -0.7358  1.1112  1.0710
 6007SOL    HW229655   2.886   2.316   4.811 -0.7118  0.3100 -0.2269
 6008SOL     OW29656   2.945   1.062   0.543  0.3933 -0.6140 -0.3106
 6008SOL    HW129657   2.971   0.972   0.560  1.0213 -0.4442 -0.3916
 6008SOL    HW229658   2.962   1.069   0.449 -0.8245 -1.0840 -0.5684
 6009SOL     OW29659   2.524   0.657   3.093 -0.8131 -0.4260 -0.5373
 6009SOL    HW129660   2.458   0.722   3.115 -1.6450 -1.3856 -0.2231
 6009SOL    HW229661   2.593   0.713   3.058  1.3493 -1.7909  1.4808
 6010SOL     OW29662   1.788   3.904   6.941 -0.2445 -0.1259  0.3557
 6010SOL    HW129663   1.745   3.987   6.960 -0.0540 -0.6062  2.9724
 6010SOL    HW229664   1.849   3.914   7.014  1.2416  1.1504 -1.0866
 6011SOL     OW29665   3.110   0.423   6.828  0.3022  0.3252 -1.0361
 6011SOL    HW129666   3.088   0.474   6.749 -2.1049 -1.0023 -1.2327
 6011SOL    HW229667   3.029   0.417   6.878  0.4649  0.0721 -0.8067
 6012SOL     OW29668   1.055   2.872   0.184 -0.1387  0.0437 -0.1187
 6012SOL    HW129669   0.992   2.942   0.167  0.3488  0.0085 -2.0123
 6012SOL    HW229670   1.133   2.918   0.215  2.4569 -2.6860 -2.6262
 6013SOL     OW29671   4.204   2.388  13.326 -0.3419  0.0701 -0.7992
 6013SOL    HW129672   4.231   2.461  13.270 -0.2738  0.9832  0.4160
 6013SOL    HW229673   4.268   2.322  13.302 -0.3319 -0.4752  0.6812
 6014SOL     OW29674   1.057   2.323   7.497 -0.1077 -0.4400 -0.1834
 6014SOL    HW129675   1.002   2.275   7.435  0.5326  0.4048 -1.4304
 6014SOL    HW229676   1.124   2.356   7.437 -1.5945 -0.4946 -1.8885
 6015SOL     OW29677   1.933   2.462   3.520  0.2457 -0.4363 -0.2483
 6015SOL    HW129678   1.957   2.506   3.439 -0.8041  0.8308  0.1182
 6015SOL    HW229679   2.022   2.437   3.543  0.5483 -0.4149 -1.4336
 6016SOL     OW29680   4.237   0.456   4.154  0.0113  0.2666  0.1789
 6016SOL    HW129681   4.248   0.493   4.242 -3.0765 -3.4479  2.1421
 6016SOL    HW229682   4.279   0.525   4.102  1.4335 -0.5012  0.3244
 6017SOL     OW29683   4.602   3.958   6.257  0.2031 -0.4219 -0.4945
 6017SOL    HW129684   4.665   3.909   6.204 -0.0158 -2.2893  0.9960
 6017SOL    HW229685   4.638   4.047   6.260 -0.4635 -0.1618 -0.2619
 6018SOL     OW29686   2.349   0.747   0.468 -0.2378  0.5081  0.5493
 6018SOL    HW129687   2.295   0.681   0.512  0.4348 -2.1916 -2.6718
 6018SOL    HW229688   2.286   0.818   0.453  0.1692  0.4045 -1.7185
 6019SOL     OW29689   1.548   2.306   7.250 -0.7685  0.4585 -0.6088
 6019SOL    HW129690   1.583   2.395   7.253  2.0925 -0.7173  0.5375
 6019SOL    HW229691   1.459   2.319   7.282 -1.4632 -1.3805 -1.7816
 6020SOL     OW29692   3.754   2.777   5.087  0.0790  0.3280 -0.1054
 6020SOL    HW129693   3.821   2.751   5.024 -0.1328 -1.2781  0.3379
 6020SOL    HW229694   3.706   2.846   5.040 -0.3560  0.2922  0.2834
 6021SOL     OW29695   0.773   3.376   3.889 -0.1131 -0.2645  0.2800
 6021SOL    HW129696   0.848   3.369   3.830 -0.9932 -1.3782 -0.7312
 6021SOL    HW229697   0.805   3.359   3.977 -1.9225 -1.9671  0.6297
 6022SOL     OW29698   0.185   2.154  14.877  0.4968  0.4969  0.3207
 6022SOL    HW129699   0.248   2.226  14.884  0.7032  0.3533 -0.0525
 6022SOL    HW229700   0.219   2.107  14.801  1.2349  1.0947  0.2795
 6023SOL     OW29701   2.565   3.648   2.415 -0.4402 -0.6549 -0.1242
 6023SOL    HW129702   2.504   3.648   2.489 -0.9701  2.1176 -0.5813
 6023SOL    HW229703   2.639   3.692   2.456 -1.1736  0.9803 -0.5759
 6024SOL     OW29704   1.747   4.498   5.947 -0.0606  0.3826  0.2844
 6024SOL    HW129705   1.696   4.482   6.026  0.7095 -0.8842  0.5312
 6024SOL    HW229706   1.701   4.441   5.886  0.6459 -1.9704  1.9315
 6025SOL     OW29707   2.109   0.782   5.656  0.0804 -0.0767  0.1634
 6025SOL    HW129708   2.083   0.791   5.565  2.4119 -1.5377 -0.6469
 6025SOL    HW229709   2.107   0.688   5.676 -0.7310 -0.1189 -0.0930
 6026SOL     OW29710   0.756   1.505   3.124 -0.5501  0.1898  0.2719
 6026SOL    HW129711   0.768   1.447   3.199 -1.3727  2.1826  1.9319
 6026SOL    HW229712   0.707   1.582   3.152  0.6088  0.8226  0.5465
 6027SOL     OW29713   2.277   0.585   4.587 -0.7826  0.3838 -0.0861
 6027SOL    HW129714   2.245   0.583   4.677 -0.4157 -1.0344  0.0018
 6027SOL    HW229715   2.357   0.637   4.599 -0.6611  0.1070  0.3299
 6028SOL     OW29716   4.122   4.434   5.380 -0.1137  0.0208 -0.1544
 6028SOL    HW129717   4.202   4.488   5.377  1.2382 -1.9914 -0.6360
 6028SOL    HW229718   4.095   4.457   5.469 -0.2200 -0.5832 -0.0288
 6029SOL     OW29719   3.246   3.642   4.312  0.5643 -0.5409  0.7795
 6029SOL    HW129720   3.212   3.554   4.292  2.0462 -1.6643  3.2873
 6029SOL    HW229721   3.164   3.691   4.308  0.9925  0.0324 -0.8748
 6030SOL     OW29722   4.291   1.182   2.037  0.0018 -0.0673 -0.0577
 6030SOL    HW129723   4.223   1.141   2.091 -0.6386  0.5305 -0.4069
 6030SOL    HW229724   4.293   1.274   2.063 -1.2460 -0.7684  2.5149
 6031SOL     OW29725   2.772   2.248   6.000  0.1258  0.5119 -0.0098
 6031SOL    HW129726   2.842   2.313   5.994  1.0058 -0.3918  0.5013
 6031SOL    HW229727   2.691   2.298   6.002 -0.4470 -0.2681 -3.0148
 6032SOL     OW29728   2.435   4.069   2.692  0.2358 -0.0272 -0.3977
 6032SOL    HW129729   2.382   3.995   2.662  0.3726 -0.5794  0.7002
 6032SOL    HW229730   2.378   4.117   2.751 -0.9692  1.2136 -2.5660
 6033SOL     OW29731   4.103   3.376   7.836 -0.2302 -0.6899 -0.2545
 6033SOL    HW129732   4.089   3.286   7.865 -2.3462 -0.5675 -0.9007
 6033SOL    HW229733   4.069   3.371   7.746 -2.5338 -0.6408  0.6344
 6034SOL     OW29734   3.387   1.858   9.085 -0.1748 -0.3974  0.0621
 6034SOL    HW129735   3.353   1.786   9.137  0.3059 -0.3986  0.3778
 6034SOL    HW229736   3.327   1.852   9.011 -1.3938  0.4115  0.9812
 6035SOL     OW29737   0.099   0.138   0.280 -0.3728 -0.6018  0.1280
 6035SOL    HW129738   0.120   0.095   0.363  2.9678 -0.1494 -0.5021
 6035SOL    HW229739   0.164   0.108   0.217  0.2759  0.0897  0.4598
 6036SOL     OW29740   4.466   0.181   9.252  0.0161  1.0036  0.5368
 6036SOL    HW129741   4.494   0.258   9.301  1.8973  0.7550 -0.1686
 6036SOL    HW229742   4.410   0.223   9.186 -0.9944 -0.0563  0.7168
 6037SOL     OW29743   4.270   3.481   0.751  0.4759 -0.1617  0.2318
 6037SOL    HW129744   4.266   3.406   0.811  1.3885 -0.8430 -0.5506
 6037SOL    HW229745   4.201   3.466   0.686 -2.5437  0.3625  3.3320
 6038SOL     OW29746   3.768   2.114   6.981 -0.1347 -0.7492  0.1502
 6038SOL    HW129747   3.835   2.178   6.955  1.1891 -1.6497  1.2881
 6038SOL    HW229748   3.823   2.036   6.975 -0.2363 -0.6804 -1.7256
 6039SOL     OW29749   0.830   2.775   6.459 -0.1388 -0.6947  0.2545
 6039SOL    HW129750   0.901   2.750   6.399  0.7795  0.1701  0.9813
 6039SOL    HW229751   0.754   2.736   6.417  0.1648 -0.6915 -0.3063
 6040SOL     OW29752   4.065   1.325   1.560 -0.5125 -0.2941 -0.7406
 6040SOL    HW129753   3.970   1.337   1.573 -0.6479 -0.7303 -1.3804
 6040SOL    HW229754   4.094   1.410   1.527 -0.6926 -0.2112 -0.6898
 6041SOL     OW29755   0.825   4.163  11.805  0.0506  0.5907 -0.4392
 6041SOL    HW129756   0.796   4.115  11.883  1.3582 -0.9187 -0.8708
 6041SOL    HW229757   0.910   4.192  11.838 -1.4273  1.3628  2.6499
 6042SOL     OW29758   2.868   0.344   7.807  0.2508  0.3185 -1.0306
 6042SOL    HW129759   2.842   0.356   7.716 -0.8985  1.7195 -0.5138
 6042SOL    HW229760   2.786   0.368   7.851 -0.2187  0.7541 -2.1528
 6043SOL     OW29761   2.557   1.070  16.414 -0.4019  0.2592  0.1161
 6043SOL    HW129762   2.562   1.031  16.327 -0.0506  1.3157 -0.3397
 6043SOL    HW229763   2.631   1.029  16.459  1.4017  1.3886 -1.8415
 6044SOL     OW29764   1.069   0.340   3.231 -0.2534 -0.2514  0.2138
 6044SOL    HW129765   1.006   0.305   3.295 -1.0638  0.9564  0.0777
 6044SOL    HW229766   1.145   0.369   3.281  1.3485 -4.3302  0.1255
 6045SOL     OW29767   3.673   2.226   2.534 -0.4180  0.3188  0.3512
 6045SOL    HW129768   3.744   2.163   2.546  0.7565  1.5072 -0.4597
 6045SOL    HW229769   3.621   2.206   2.613 -1.9312 -3.4091 -1.5766
 6046SOL     OW29770   1.506   1.820   6.532  0.1117  0.4286 -0.0509
 6046SOL    HW129771   1.597   1.849   6.537 -0.2839  2.1101 -2.4534
 6046SOL    HW229772   1.488   1.802   6.624  1.4625  0.1207  0.1563
 6047SOL     OW29773   0.633   1.442   0.251  0.2215  0.0362  0.2628
 6047SOL    HW129774   0.620   1.536   0.259  2.4224  0.4115 -0.5853
 6047SOL    HW229775   0.714   1.425   0.300 -0.1025  1.3051  1.2251
 6048SOL     OW29776   2.993   1.482   4.519  0.8573 -0.3702 -0.2351
 6048SOL    HW129777   3.085   1.482   4.492  0.9652 -0.3346  0.1242
 6048SOL    HW229778   2.951   1.562   4.487  2.6937  0.9836  0.7350
 6049SOL     OW29779   0.233   3.125   4.343 -0.4184 -0.2850 -0.2559
 6049SOL    HW129780   0.220   3.030   4.340  1.0190 -0.5157  0.4305
 6049SOL    HW229781   0.166   3.149   4.407  0.8681  0.6262  0.7609
 6050SOL     OW29782   0.645   0.746  14.608  0.4798 -0.6616  0.1683
 6050SOL    HW129783   0.667   0.768  14.518 -0.8108 -2.0940 -0.4898
 6050SOL    HW229784   0.567   0.801  14.615  1.0961  0.2282  0.0442
 6051SOL     OW29785   3.558   4.230  16.905  0.2197 -0.0347  0.7484
 6051SOL    HW129786   3.464   4.219  16.893  0.5006 -0.7677 -0.7482
 6051SOL    HW229787   3.569   4.312  16.856  0.2807 -0.0088  0.8043
 6052SOL     OW29788   1.098   4.265   5.196  0.1052  0.2836 -0.5747
 6052SOL    HW129789   1.030   4.220   5.247 -0.5172  1.8629 -0.0338
 6052SOL    HW229790   1.150   4.306   5.265  0.9566  1.9835 -2.2312
 6053SOL     OW29791   2.714   2.155   7.409 -0.1670 -0.0005  0.2626
 6053SOL    HW129792   2.769   2.077   7.411  0.3077  0.3582  1.2749
 6053SOL    HW229793   2.780   2.224   7.411  0.0422 -0.1805 -0.3296
 6054SOL     OW29794   1.991   2.061   1.165  0.8012 -0.1062  0.3594
 6054SOL    HW129795   2.022   2.149   1.188 -0.9261  0.7791 -0.6434
 6054SOL    HW229796   2.047   2.038   1.091 -0.1626  0.8855 -0.6986
 6055SOL     OW29797   2.507   3.971   0.985  0.5171  0.7611 -0.1959
 6055SOL    HW129798   2.548   3.938   0.905  1.8210 -1.0907  1.2176
 6055SOL    HW229799   2.456   3.897   1.017 -1.7549  0.9496 -3.3953
 6056SOL     OW29800   1.122   2.446   8.466  0.1097  0.2204  0.1825
 6056SOL    HW129801   1.032   2.431   8.436 -0.0808 -0.1132  0.9168
 6056SOL    HW229802   1.112   2.508   8.539  0.6409  1.6749 -0.9857
 6057SOL     OW29803   4.430   2.676   3.411 -0.0496 -0.3576  0.3338
 6057SOL    HW129804   4.440   2.679   3.506  1.4526 -0.8713  0.1910
 6057SOL    HW229805   4.391   2.763   3.397  0.0046 -0.3149  0.4444
 6058SOL     OW29806   4.331   1.759  16.753  0.3540 -0.2732  0.0120
 6058SOL    HW129807   4.281   1.787  16.676 -0.3710 -0.4532  0.4162
 6058SOL    HW229808   4.336   1.844  16.798 -0.4463  0.7909 -1.9163
 6059SOL     OW29809   2.856   3.598   3.551  0.5908 -0.3946  0.4352
 6059SOL    HW129810   2.874   3.660   3.622  0.3660 -0.9296  0.9693
 6059SOL    HW229811   2.796   3.651   3.499  0.9059  0.1156  0.5899
 6060SOL     OW29812   0.606   3.989   5.968 -0.8286  0.5375  0.0945
 6060SOL    HW129813   0.695   3.963   5.993 -0.6226 -2.0595 -3.2740
 6060SOL    HW229814   0.595   3.925   5.898  0.9098 -1.3873  1.5889
 6061SOL     OW29815   3.474   1.331   6.923 -0.2389 -0.2911 -0.7226
 6061SOL    HW129816   3.457   1.328   7.017 -1.3694 -3.5028 -1.0466
 6061SOL    HW229817   3.409   1.265   6.898  0.6286 -1.7276  0.7857
 6062SOL     OW29818   1.792   2.699   6.320 -0.4945  0.3407 -0.3875
 6062SOL    HW129819   1.844   2.652   6.385 -1.2051  0.5667  0.3279
 6062SOL    HW229820   1.706   2.689   6.359 -0.1708 -0.9390  0.0054
 6063SOL     OW29821   3.895   1.205   8.531  0.4811 -0.6005 -0.3986
 6063SOL    HW129822   3.960   1.146   8.491  3.3703  1.2385  1.6009
 6063SOL    HW229823   3.947   1.285   8.528 -0.7011  0.1186 -2.2253
 6064SOL     OW29824   3.238   2.097   8.836  0.9110  0.1722 -0.1500
 6064SOL    HW129825   3.247   2.004   8.856  1.3691  0.8914  2.9308
 6064SOL    HW229826   3.147   2.102   8.807  0.9555  1.5282 -0.0591
 6065SOL     OW29827   0.775   0.526   7.890  0.6977  0.3687 -0.5293
 6065SOL    HW129828   0.857   0.574   7.881  1.0525 -0.2028 -0.3141
 6065SOL    HW229829   0.797   0.465   7.960 -0.9990 -2.2613 -2.2865
 6066SOL     OW29830   3.154   0.284  14.364  0.3197 -0.2330 -0.0932
 6066SOL    HW129831   3.088   0.218  14.382 -1.8373  1.9514  0.0074
 6066SOL    HW229832   3.200   0.238  14.293  0.2279  0.2581 -0.4677
 6067SOL     OW29833   0.741   3.176   6.267 -0.3655  0.4660  0.0153
 6067SOL    HW129834   0.720   3.132   6.185  1.2203  0.7560 -0.5519
 6067SOL    HW229835   0.680   3.139   6.331 -0.6658  0.6151 -0.1836
 6068SOL     OW29836   3.978   3.418   6.795  0.3809  0.0571  0.4857
 6068SOL    HW129837   3.941   3.441   6.881 -0.1447 -0.8182  0.5014
 6068SOL    HW229838   3.902   3.436   6.740 -0.0313  0.8316  1.2940
 6069SOL     OW29839   2.837   3.869   0.440  0.1000  0.0541 -0.1229
 6069SOL    HW129840   2.768   3.803   0.439  2.3598 -2.3787  1.7851
 6069SOL    HW229841   2.900   3.834   0.504 -1.7341 -2.2369  0.4240
 6070SOL     OW29842   0.547   4.426  10.508 -0.0480  0.0307 -0.1909
 6070SOL    HW129843   0.494   4.350  10.483  0.9583 -0.4142 -0.9901
 6070SOL    HW229844   0.577   4.403  10.596  0.7009  0.4404 -0.3354
 6071SOL     OW29845   1.661   2.102  11.981 -0.0308  0.0408 -0.1284
 6071SOL    HW129846   1.653   2.078  11.888  1.2089 -0.8360 -0.0182
 6071SOL    HW229847   1.712   2.182  11.969 -1.8557  0.6509 -3.7826
 6072SOL     OW29848   2.938   4.610   2.427 -0.4169  0.0845 -0.4221
 6072SOL    HW129849   2.998   4.684   2.436 -0.2825 -0.4790  3.1636
 6072SOL    HW229850   2.922   4.585   2.518 -0.9694 -2.0416 -1.0955
 6073SOL     OW29851   3.366   1.935   8.496 -0.1213  0.0646 -0.2483
 6073SOL    HW129852   3.422   1.914   8.571  1.3414  0.1469 -1.3102
 6073SOL    HW229853   3.325   2.019   8.518  0.5859  0.2741  0.2647
 6074SOL     OW29854   4.684   4.642   2.204  0.2102 -0.1141  0.2362
 6074SOL    HW129855   4.679   4.621   2.111  1.7317 -0.5948  0.2771
 6074SOL    HW229856   0.039   4.629   2.213  0.2402 -0.4583 -0.6080
 6075SOL     OW29857   2.007   2.028   7.486 -0.4786 -0.2778 -0.0230
 6075SOL    HW129858   2.010   2.084   7.563 -1.0942  0.2004 -0.3485
 6075SOL    HW229859   1.971   2.093   7.426 -1.8481  0.0021  1.0854
 6076SOL     OW29860   4.523   3.225   7.328 -0.3572 -0.3723  0.4515
 6076SOL    HW129861   4.479   3.248   7.245  0.4515  0.4861  0.2700
 6076SOL    HW229862   4.442   3.218   7.378 -0.2658  0.9205  0.7877
 6077SOL     OW29863   2.009   3.368  14.268 -0.0957 -0.4557  0.4894
 6077SOL    HW129864   2.075   3.362  14.337 -0.1840  1.1014  0.7274
 6077SOL    HW229865   2.054   3.428  14.208  1.7600 -1.4180  0.9456
 6078SOL     OW29866   0.144   0.001   7.858  0.0532  0.0613 -0.1842
 6078SOL    HW129867   0.095   4.659   7.875  2.3209 -0.8922  1.8536
 6078SOL    HW229868   0.168   4.726   7.766 -0.3512 -0.1420 -0.2572
 6079SOL     OW29869   2.747   0.258  10.724 -0.1603 -0.1211  0.0831
 6079SOL    HW129870   2.781   0.169  10.717 -2.9381 -1.0647 -1.1058
 6079SOL    HW229871   2.667   0.248  10.673  1.8529 -3.9350 -2.3364
 6080SOL     OW29872   4.528   3.312  11.147 -0.2780  0.0003 -0.1218
 6080SOL    HW129873   4.453   3.253  11.147 -0.2348 -0.0597  1.0183
 6080SOL    HW229874   4.496   3.402  11.152  0.8949  0.3227  1.6954
 6081SOL     OW29875   2.817   3.316  12.518 -0.1557 -0.5386  0.4826
 6081SOL    HW129876   2.833   3.378  12.589  0.1040 -1.4580  1.2225
 6081SOL    HW229877   2.841   3.237  12.566  0.9046 -1.0722 -0.9280
 6082SOL     OW29878   3.505   3.029   3.121  0.4750  0.0732  0.3080
 6082SOL    HW129879   3.537   3.117   3.139  1.1438 -0.6044  2.3472
 6082SOL    HW229880   3.565   2.977   3.173 -2.1910 -2.2582  1.0547
 6083SOL     OW29881   3.677   4.245   1.912 -0.5908  0.4404  0.4116
 6083SOL    HW129882   3.766   4.235   1.947 -1.4052  1.2908  2.6839
 6083SOL    HW229883   3.630   4.232   1.994 -0.5283 -0.0177  0.3746
 6084SOL     OW29884   2.355   2.759   4.202  0.0242 -0.3500  0.0971
 6084SOL    HW129885   2.293   2.788   4.135 -1.2679 -0.4296  1.2690
 6084SOL    HW229886   2.305   2.766   4.283  1.1859  0.8556  0.7090
 6085SOL     OW29887   1.108   2.155  13.623 -0.1258 -0.0084  0.2243
 6085SOL    HW129888   1.152   2.174  13.706  0.0686 -0.3383  0.1961
 6085SOL    HW229889   1.076   2.067  13.643 -0.2084  0.3110  1.5408
 6086SOL     OW29890   3.701   4.645  11.940 -0.2367 -0.5231 -0.8099
 6086SOL    HW129891   3.745   4.719  11.980  0.2161 -0.6622 -1.0508
 6086SOL    HW229892   3.730   4.568  11.990  1.0687  1.0943  0.8867
 6087SOL     OW29893   4.127   4.410   9.564 -0.3718 -0.2553  0.1849
 6087SOL    HW129894   4.197   4.423   9.500 -0.5362 -1.0431 -0.1514
 6087SOL    HW229895   4.059   4.382   9.502  0.1936  1.2118 -1.0887
 6088SOL     OW29896   1.469   0.293   5.233 -0.1610  0.5986 -0.3410
 6088SOL    HW129897   1.559   0.276   5.206  0.4646  1.6003  1.1338
 6088SOL    HW229898   1.449   0.366   5.175  0.4680  2.1667  1.4411
 6089SOL     OW29899   4.594   2.919  10.381 -0.0504  0.2454 -0.5751
 6089SOL    HW129900   4.655   2.908  10.455  0.2386 -0.2147 -0.8808
 6089SOL    HW229901   4.651   2.972  10.326  1.6038 -1.2630 -0.3196
 6090SOL     OW29902   3.761   1.852   5.904  0.1578 -0.1285  0.7951
 6090SOL    HW129903   3.694   1.815   5.848  2.0201  0.1489 -1.6033
 6090SOL    HW229904   3.830   1.785   5.904 -0.7176 -1.0232 -0.2342
 6091SOL     OW29905   0.895   1.794   8.922  0.2537  0.4473  0.4441
 6091SOL    HW129906   0.976   1.843   8.931  1.1438 -0.6309 -1.5445
 6091SOL    HW229907   0.876   1.805   8.828 -1.6141 -0.2428  0.7516
 6092SOL     OW29908   0.305   0.597   6.330 -0.4513  0.0821 -0.0161
 6092SOL    HW129909   0.219   0.622   6.296 -0.2661 -0.2171 -0.7033
 6092SOL    HW229910   0.315   0.672   6.388 -1.4804 -1.7539  2.4965
 6093SOL     OW29911   1.022   2.886   2.476 -0.0510  0.2407  0.3866
 6093SOL    HW129912   1.086   2.947   2.439 -1.6637  0.5075 -1.9701
 6093SOL    HW229913   1.059   2.880   2.564 -0.1733  0.4915  0.4544
 6094SOL     OW29914   0.316   1.669   6.081 -0.3029 -0.3112  0.7980
 6094SOL    HW129915   0.396   1.707   6.117 -0.3019 -2.1973  2.8002
 6094SOL    HW229916   0.312   1.587   6.131 -1.2852  0.1213  1.4189
 6095SOL     OW29917   1.729   3.554  11.352 -0.3172 -0.4636 -0.5653
 6095SOL    HW129918   1.750   3.500  11.429 -1.7068 -1.8545 -1.1782
 6095SOL    HW229919   1.645   3.516  11.326 -0.7306  1.1234 -1.5496
 6096SOL     OW29920   0.102   4.677   8.612  0.0640  0.4323  0.3781
 6096SOL    HW129921   0.008   4.672   8.626 -0.1793  1.1609 -1.0317
 6096SOL    HW229922   0.105   4.672   8.516 -0.4703 -1.7200  0.4688
 6097SOL     OW29923   1.928   4.123   3.744  0.4290 -0.2695 -0.1531
 6097SOL    HW129924   1.950   4.033   3.722  0.4711 -0.5574  1.0958
 6097SOL    HW229925   1.898   4.118   3.835  1.8694  0.2050  0.3432
 6098SOL     OW29926   2.050   3.722  17.432 -0.0357 -0.1632  0.3046
 6098SOL    HW129927   2.134   3.755  17.400 -0.6469  0.7109 -0.4312
 6098SOL    HW229928   2.067   3.710  17.525  0.7997  0.8351  0.2831
 6099SOL     OW29929   2.020   4.330   4.706  0.0476  0.0092 -0.2125
 6099SOL    HW129930   2.002   4.401   4.644  1.0527  0.0633 -0.4401
 6099SOL    HW229931   1.980   4.361   4.787  0.3298  0.4925 -0.2567
 6100SOL     OW29932   0.892   1.944  13.720  0.3087  0.4384 -0.5102
 6100SOL    HW129933   0.911   1.907  13.807 -0.0155  0.7238 -0.3160
 6100SOL    HW229934   0.972   1.910  13.679  0.1483 -1.9607  1.1409
 6101SOL     OW29935   4.636   1.541   8.017  0.3281 -1.0465 -0.3629
 6101SOL    HW129936   4.633   1.502   8.104  2.2712  2.2503  1.1740
 6101SOL    HW229937   4.667   1.631   8.032 -0.3135 -0.6397 -1.4608
 6102SOL     OW29938   1.054   3.938   3.149 -0.1459 -0.4452  0.0106
 6102SOL    HW129939   1.042   3.997   3.224  0.9657 -0.1559 -0.0287
 6102SOL    HW229940   1.109   3.988   3.088 -3.7400 -0.6111 -3.3455
 6103SOL     OW29941   0.446   2.988  14.692 -0.2600 -0.8432 -0.2808
 6103SOL    HW129942   0.403   3.042  14.625 -1.0243 -2.2170 -0.9051
 6103SOL    HW229943   0.452   3.038  14.773  0.5690  1.8418 -1.9636
 6104SOL     OW29944   4.667   0.478   9.990 -0.5299 -0.5429 -0.8555
 6104SOL    HW129945   0.015   0.509  10.017 -2.1065  1.5818  1.6958
 6104SOL    HW229946   4.614   0.528  10.051  0.3513  0.8604 -1.2251
 6105SOL     OW29947   2.388   2.475   3.877 -0.1085  0.5322 -0.2288
 6105SOL    HW129948   2.325   2.443   3.941 -0.6848  1.8556 -0.1477
 6105SOL    HW229949   2.459   2.411   3.875  0.3188  0.9349  2.3094
 6106SOL     OW29950   1.390   4.164   0.164  1.1093  0.2253  0.3107
 6106SOL    HW129951   1.413   4.256   0.149 -0.9569  0.9691  1.6264
 6106SOL    HW229952   1.355   4.132   0.080 -1.4934  1.6581  0.8385
 6107SOL     OW29953   0.420   4.111  11.084  0.5438 -0.4031 -0.0553
 6107SOL    HW129954   0.333   4.090  11.052  0.1322  3.4857 -1.4536
 6107SOL    HW229955   0.430   4.047  11.155  0.2936 -3.0411 -2.3949
 6108SOL     OW29956   4.449   3.281   2.259 -0.0221 -0.2541 -0.0664
 6108SOL    HW129957   4.421   3.198   2.220 -2.4956 -0.1162  1.4289
 6108SOL    HW229958   4.367   3.319   2.289 -0.1266  0.5833 -1.3898
 6109SOL     OW29959   3.311   2.795   8.782 -0.7738 -0.3856 -0.7130
 6109SOL    HW129960   3.275   2.819   8.867  0.0893  0.9514 -0.7229
 6109SOL    HW229961   3.384   2.856   8.777 -0.7271 -0.3958 -0.1437
 6110SOL     OW29962   1.871   0.426   4.417 -0.0820  0.3429 -0.1179
 6110SOL    HW129963   1.925   0.479   4.359 -0.6857  0.0878 -0.9074
 6110SOL    HW229964   1.787   0.438   4.373 -1.2216 -0.0954  1.9238
 6111SOL     OW29965   1.428   1.676  17.285 -0.4362  0.1464 -0.0695
 6111SOL    HW129966   1.367   1.616  17.242  0.2841  0.1217 -1.0553
 6111SOL    HW229967   1.366   1.733  17.330 -0.5387 -1.3909  1.7175
 6112SOL     OW29968   0.361   0.898   3.906  0.0205  0.1648  0.0205
 6112SOL    HW129969   0.289   0.885   3.845  0.0601 -0.2671  0.0683
 6112SOL    HW229970   0.343   0.985   3.942 -1.9654  0.0166 -0.6318
 6113SOL     OW29971   2.068   2.607   5.145 -0.9445 -0.1850 -0.1410
 6113SOL    HW129972   2.051   2.676   5.081 -1.2650 -1.1803 -1.1264
 6113SOL    HW229973   2.164   2.607   5.148 -0.9489  0.7375  0.0701
 6114SOL     OW29974   4.223   3.037   7.275  0.1697  0.1037  0.4464
 6114SOL    HW129975   4.258   3.093   7.344 -0.3114  0.7492  0.1665
 6114SOL    HW229976   4.306   2.998   7.247  1.0244  1.9620  0.3710
 6115SOL     OW29977   0.998   0.021   3.461  0.1177 -0.0369 -0.1131
 6115SOL    HW129978   0.966   0.106   3.491 -1.4172 -0.1903 -1.3174
 6115SOL    HW229979   1.018   4.719   3.545  0.9012  0.9330  0.1727
 6116SOL     OW29980   0.909   1.638   5.975 -0.2629 -0.2584 -0.2858
 6116SOL    HW129981   0.961   1.714   6.002 -0.5874  0.3751 -1.4724
 6116SOL    HW229982   0.962   1.565   6.007 -2.0290 -0.7259  1.5486
 6117SOL     OW29983   2.795   1.790   1.860 -0.5389  0.2626  0.1210
 6117SOL    HW129984   2.710   1.768   1.899 -0.2444 -1.8789 -0.4863
 6117SOL    HW229985   2.783   1.733   1.784  2.2686 -0.7233  0.4415
 6118SOL     OW29986   1.900   2.637   5.424  0.2583  0.5854 -0.2484
 6118SOL    HW129987   1.954   2.627   5.345  3.7483 -1.1169  2.3480
 6118SOL    HW229988   1.821   2.679   5.391 -0.5607 -1.7676 -1.2860
 6119SOL     OW29989   2.131   2.334   3.259 -0.7265 -0.8388  0.4325
 6119SOL    HW129990   2.045   2.309   3.293 -1.9111  0.5388 -1.5695
 6119SOL    HW229991   2.119   2.363   3.168  0.2496 -0.0312  0.5675
 6120SOL     OW29992   3.124   3.503   3.116 -0.4947 -0.0328  0.3891
 6120SOL    HW129993   3.029   3.513   3.125 -0.5779  0.3814 -0.9885
 6120SOL    HW229994   3.124   3.424   3.170 -4.4819  1.0186  1.9078
 6121SOL     OW29995   3.536   1.618   6.901 -0.1431  0.4509 -0.0176
 6121SOL    HW129996   3.535   1.609   6.997 -0.0333 -0.2881 -0.0888
 6121SOL    HW229997   3.533   1.527   6.873 -0.0577  0.5333 -0.2919
 6122SOL     OW29998   3.859   2.689   0.895  0.3622 -0.1546 -0.0117
 6122SOL    HW129999   3.924   2.757   0.881 -1.3171  1.9833  2.6208
 6122SOL    HW230000   3.808   2.720   0.970  0.2415 -2.2711  0.7709
 6123SOL     OW30001   4.499   4.213   6.836  0.2748 -0.0910 -0.5540
 6123SOL    HW130002   4.436   4.184   6.770  2.1888 -1.3034 -1.8682
 6123SOL    HW230003   4.571   4.153   6.814  0.0361 -0.7684  0.5515
 6124SOL     OW30004   1.521   4.419   6.435  0.5024  0.8939  0.0732
 6124SOL    HW130005   1.541   4.471   6.513  0.7414 -0.3751  0.8606
 6124SOL    HW230006   1.475   4.341   6.464  1.6834  0.0807 -0.2288
 6125SOL     OW30007   4.488   3.058   2.624  0.3139 -0.4549  0.3707
 6125SOL    HW130008   4.491   3.153   2.611  0.6074 -0.3522  1.1480
 6125SOL    HW230009   4.432   3.056   2.701 -0.1128 -0.6326  0.0536
 6126SOL     OW30010   2.135   2.117   5.870 -0.2196 -0.3964  0.1091
 6126SOL    HW130011   2.225   2.137   5.843 -0.5867  0.4028 -0.5225
 6126SOL    HW230012   2.100   2.202   5.843  0.1369 -0.3621 -0.2477
 6127SOL     OW30013   0.298   1.718   8.005  0.1273  0.0498  0.0550
 6127SOL    HW130014   0.324   1.787   8.065  0.6885 -0.4834  0.4250
 6127SOL    HW230015   0.336   1.641   8.047 -0.4666  0.1544  0.7730
 6128SOL     OW30016   0.028   1.581   0.959 -0.2283  0.6327 -0.3443
 6128SOL    HW130017   4.729   1.497   0.936 -0.2526  0.3465  0.7200
 6128SOL    HW230018   0.007   1.566   1.051  1.3714  1.1688  0.1161
 6129SOL     OW30019   3.124   3.712   4.618 -0.2366 -0.3140  0.0393
 6129SOL    HW130020   3.062   3.761   4.671 -1.9243 -3.2995  0.8491
 6129SOL    HW230021   3.084   3.702   4.531  2.9095  2.7527 -1.7627
 6130SOL     OW30022   1.741   3.456  14.256 -0.4051  0.0474 -0.7313
 6130SOL    HW130023   1.724   3.519  14.325  0.5035  0.3668 -0.7965
 6130SOL    HW230024   1.836   3.449  14.269 -0.2552  3.1054 -0.2084
 6131SOL     OW30025   2.288   4.139   3.012  0.6671  0.2409 -0.3868
 6131SOL    HW130026   2.380   4.116   3.004  0.8396  0.8415 -0.1109
 6131SOL    HW230027   2.255   4.051   3.034  1.5491  0.6134  2.4270
 6132SOL     OW30028   2.246   0.724   6.984  0.0668  0.0268 -0.3793
 6132SOL    HW130029   2.231   0.630   6.990  0.7891 -0.1993 -2.1084
 6132SOL    HW230030   2.189   0.745   6.910 -0.3250  0.7384  0.1241
 6133SOL     OW30031   2.951   0.825   6.038 -0.0104 -0.6987 -0.3219
 6133SOL    HW130032   3.008   0.856   6.108 -1.9505 -2.2532  1.9469
 6133SOL    HW230033   2.959   0.732   6.058 -0.3210 -0.3948  1.2527
 6134SOL     OW30034   4.427   1.554   1.735 -0.0670 -0.1358  0.2632
 6134SOL    HW130035   4.473   1.579   1.816  0.0074  1.4114 -0.2498
 6134SOL    HW230036   4.443   1.461   1.723 -0.9843 -0.3003  0.3184
 6135SOL     OW30037   2.331   0.037   5.265 -0.2865 -0.4731 -0.3864
 6135SOL    HW130038   2.405   4.724   5.231  1.2005  1.0898  0.4918
 6135SOL    HW230039   2.304   0.087   5.188 -2.3582  0.0104  0.6599
 6136SOL     OW30040   3.554   4.592   3.005 -0.2550 -0.0272  0.6189
 6136SOL    HW130041   3.507   4.565   3.084 -1.5928 -0.4047 -0.3184
 6136SOL    HW230042   3.645   4.580   3.032 -0.0312  2.5925  1.1163
 6137SOL     OW30043   3.822   1.832   1.440  0.4442  0.3513  0.0031
 6137SOL    HW130044   3.828   1.888   1.363  1.7622 -0.4344 -0.4658
 6137SOL    HW230045   3.738   1.854   1.480 -1.7685 -0.1338 -4.4929
 6138SOL     OW30046   1.960   0.377   1.787 -0.5792  0.2430 -0.1270
 6138SOL    HW130047   2.030   0.324   1.826 -1.5220 -2.5492 -2.2491
 6138SOL    HW230048   1.890   0.364   1.851 -1.1146  5.0243  0.2292
 6139SOL     OW30049   1.020   2.613   3.564  0.3526 -0.4685  0.2160
 6139SOL    HW130050   1.014   2.551   3.637  1.8403  0.6321  1.2829
 6139SOL    HW230051   1.024   2.693   3.617 -0.7912 -1.1079  1.2922
 6140SOL     OW30052   4.234   1.419   5.718  0.2115  0.0453 -0.7031
 6140SOL    HW130053   4.162   1.470   5.682  1.1429  0.7714 -1.5681
 6140SOL    HW230054   4.200   1.348   5.771  1.8327 -0.3949 -0.2555
 6141SOL     OW30055   3.995   3.036   6.946 -0.5556  0.6533 -0.2485
 6141SOL    HW130056   3.918   3.051   6.891  0.6388  0.2690 -2.0249
 6141SOL    HW230057   4.059   3.056   6.878 -1.8621 -0.2878 -1.7915
 6142SOL     OW30058   1.495   3.744  16.219 -0.3666 -0.0974 -0.2281
 6142SOL    HW130059   1.566   3.795  16.258 -0.2911  0.2035 -0.7586
 6142SOL    HW230060   1.415   3.794  16.233  0.7664  1.7050 -0.2361
 6143SOL     OW30061   4.265   4.127   9.385  0.1318 -0.3070  0.2189
 6143SOL    HW130062   4.277   4.158   9.475 -0.4041 -2.3055  0.9914
 6143SOL    HW230063   4.179   4.090   9.404 -0.2611 -0.0289 -1.0131
 6144SOL     OW30064   2.320   3.486   7.337 -0.3319 -0.4088  0.0781
 6144SOL    HW130065   2.231   3.458   7.317 -0.7517  0.0474  1.3023
 6144SOL    HW230066   2.363   3.520   7.258  0.0619 -1.3912 -0.1281
 6145SOL     OW30067   3.574   1.378   2.141 -0.0548  0.8468  0.3713
 6145SOL    HW130068   3.544   1.346   2.056 -1.4734  2.4472  0.2772
 6145SOL    HW230069   3.518   1.453   2.160  0.4256  1.0824  0.8573
 6146SOL     OW30070   3.098   0.751  15.299  0.1658  0.2985 -0.0183
 6146SOL    HW130071   3.103   0.837  15.340 -3.4838 -0.4142  1.9496
 6146SOL    HW230072   3.113   0.679  15.361 -1.5628 -0.9106 -0.9800
 6147SOL     OW30073   1.845   1.262   3.696 -0.3332  0.0523 -0.5074
 6147SOL    HW130074   1.768   1.246   3.641 -0.3460  0.9775 -0.7601
 6147SOL    HW230075   1.826   1.354   3.716 -1.6570  0.0510 -1.7916
 6148SOL     OW30076   3.435   4.393   3.587 -0.0662 -0.8832 -0.4799
 6148SOL    HW130077   3.344   4.415   3.605  0.4637  3.2035 -2.8982
 6148SOL    HW230078   3.492   4.469   3.575 -0.1815 -0.6884  0.2040
 6149SOL     OW30079   1.878   0.085   7.736 -0.8716  0.3875 -0.2777
 6149SOL    HW130080   1.851   0.015   7.795  1.5153 -0.1391  0.1784
 6149SOL    HW230081   1.941   0.040   7.680 -0.3425  1.7934 -0.8061
 6150SOL     OW30082   2.573   1.309   8.006  0.1074  0.1455 -0.0236
 6150SOL    HW130083   2.621   1.310   7.923  0.3326  0.3652  0.1078
 6150SOL    HW230084   2.644   1.335   8.065  0.5631 -2.6233  0.6459
 6151SOL     OW30085   3.435   0.218   8.161 -0.1417 -0.4013  0.3438
 6151SOL    HW130086   3.437   0.215   8.257  1.4845 -1.3514  0.2828
 6151SOL    HW230087   3.340   0.218   8.149  0.2417 -3.4122 -2.6535
 6152SOL     OW30088   3.130   1.432  11.226 -0.5438  0.2135 -0.3894
 6152SOL    HW130089   3.189   1.470  11.291  0.1013 -0.0784 -0.7947
 6152SOL    HW230090   3.128   1.341  11.252  2.2045  0.4529  0.6478
 6153SOL     OW30091   4.474   3.672   4.779 -0.2582  0.1336  0.0707
 6153SOL    HW130092   4.519   3.756   4.792  1.3869 -0.7113 -0.1057
 6153SOL    HW230093   4.516   3.622   4.849 -0.9928  0.5432  0.8042
 6154SOL     OW30094   0.292   3.652  12.508  0.3501 -0.2218  0.1316
 6154SOL    HW130095   0.221   3.613  12.560  0.2622 -0.1299  0.0793
 6154SOL    HW230096   0.265   3.742  12.494  1.8103  0.4879  1.7951
 6155SOL     OW30097   4.206   4.148   2.849  0.0473 -0.6127 -0.0117
 6155SOL    HW130098   4.175   4.060   2.829 -0.5713 -0.4779  0.3580
 6155SOL    HW230099   4.168   4.167   2.935 -1.4351 -0.1353 -0.7640
 6156SOL     OW30100   1.461   4.461   3.649  0.2096 -1.0180  0.4265
 6156SOL    HW130101   1.540   4.425   3.607  1.1271  0.9615  0.4280
 6156SOL    HW230102   1.481   4.437   3.739 -0.9111 -1.3152  0.5941
 6157SOL     OW30103   2.492   1.822   2.821  0.2050  0.4940  0.2609
 6157SOL    HW130104   2.585   1.843   2.818  0.0507  0.9852 -0.9669
 6157SOL    HW230105   2.460   1.907   2.790  0.9465  0.7212  0.1228
 6158SOL     OW30106   2.847   0.978  17.219  0.1274 -0.5203 -0.4707
 6158SOL    HW130107   2.828   0.920  17.292  0.7363 -0.2670 -0.1120
 6158SOL    HW230108   2.940   1.002  17.221 -0.2973  0.8363  3.5793
 6159SOL     OW30109   3.647   3.596  15.901  0.6191 -0.0917 -0.6487
 6159SOL    HW130110   3.705   3.528  15.934  1.5983  1.6025  1.1101
 6159SOL    HW230111   3.705   3.672  15.893  1.2040 -0.5753 -1.0116
 6160SOL     OW30112   4.373   0.180   9.620  0.1400 -0.3574  0.2397
 6160SOL    HW130113   4.453   0.230   9.635  0.3464 -0.2010 -1.3776
 6160SOL    HW230114   4.304   0.246   9.612 -0.0673 -0.4452  1.3132
 6161SOL     OW30115   0.581   2.260  14.646 -0.5321  0.0609  0.2589
 6161SOL    HW130116   0.523   2.272  14.721 -0.8368  1.9470 -0.2871
 6161SOL    HW230117   0.619   2.179  14.680 -1.0110 -0.8654 -1.4159
 6162SOL     OW30118   0.712   3.085   8.952 -0.2752  0.5659  0.1175
 6162SOL    HW130119   0.805   3.084   8.972 -0.1100  0.2045 -0.6459
 6162SOL    HW230120   0.696   3.179   8.961  0.6151  1.1253 -3.9978
 6163SOL     OW30121   4.670   0.852   4.773 -0.1965  0.0089 -0.1856
 6163SOL    HW130122   4.625   0.881   4.694  0.9329  1.4692 -0.3042
 6163SOL    HW230123   4.649   0.926   4.830 -0.9243  0.1253 -0.6041
 6164SOL     OW30124   2.487   1.442  15.019  0.1190  0.3910 -0.5387
 6164SOL    HW130125   2.428   1.483  15.082 -1.0455 -1.7873 -0.1984
 6164SOL    HW230126   2.456   1.482  14.938  1.2791 -0.3398 -1.3553
 6165SOL     OW30127   3.247   2.268   2.677 -0.3160  0.4887 -0.5954
 6165SOL    HW130128   3.343   2.260   2.679 -0.2556  1.0057 -1.5671
 6165SOL    HW230129   3.237   2.362   2.664  2.2607  1.1470  1.9167
 6166SOL     OW30130   0.577   0.047   6.445 -0.2714  0.4581  0.0301
 6166SOL    HW130131   0.614   4.700   6.465 -1.7785 -0.2472 -0.2453
 6166SOL    HW230132   0.568   0.043   6.350  0.0978 -0.5686  0.0427
 6167SOL     OW30133   0.607   0.711   5.799 -0.1223  0.9313  0.4621
 6167SOL    HW130134   0.626   0.680   5.711 -2.0524  1.2252 -0.0659
 6167SOL    HW230135   0.565   0.639   5.847  1.3259 -0.3288 -0.1700
 6168SOL     OW30136   4.010   2.428   3.173  0.3504  0.1532  0.1695
 6168SOL    HW130137   4.005   2.361   3.242  0.6289 -1.8104 -1.7351
 6168SOL    HW230138   4.041   2.505   3.221  2.7001 -1.0252  0.5423
 6169SOL     OW30139   0.699   1.702   0.539  0.2168 -0.2833  0.4040
 6169SOL    HW130140   0.648   1.760   0.595 -1.5211 -1.1127 -0.3194
 6169SOL    HW230141   0.694   1.615   0.579 -0.4705  0.1164  1.1705
 6170SOL     OW30142   1.399   1.500   9.610 -0.0553  0.3734 -0.0821
 6170SOL    HW130143   1.475   1.494   9.553  0.5417  1.5700  0.5833
 6170SOL    HW230144   1.436   1.439   9.673 -1.2459 -0.0135  0.2409
 6171SOL     OW30145   0.603   4.231   8.898 -0.0953  0.2514  0.3660
 6171SOL    HW130146   0.632   4.234   8.989 -0.3210  0.1891  0.4388
 6171SOL    HW230147   0.643   4.311   8.862  1.6652 -1.2082 -0.9502
 6172SOL     OW30148   4.714   2.494   4.149  0.1145  0.0379 -0.5524
 6172SOL    HW130149   4.692   2.405   4.120  2.1055 -1.3218  2.1180
 6172SOL    HW230150   4.664   2.540   4.082 -0.0586  1.8542  0.8195
 6173SOL     OW30151   1.255   0.093   8.942  0.5124  0.6460  0.6652
 6173SOL    HW130152   1.238   0.184   8.916 -1.2393  0.2842  0.5326
 6173SOL    HW230153   1.169   0.073   8.979  0.8620 -0.1637  1.0311
 6174SOL     OW30154   1.955   4.713   4.191  0.1707  0.7121  0.5692
 6174SOL    HW130155   2.016   0.028   4.242 -1.3737  1.8759  1.2149
 6174SOL    HW230156   1.882   0.035   4.177 -0.8659 -0.2915  1.5551
 6175SOL     OW30157   2.789   1.685   5.707 -0.0653 -0.2786 -0.1228
 6175SOL    HW130158   2.828   1.687   5.619 -1.8068 -0.1426 -0.8918
 6175SOL    HW230159   2.846   1.748   5.750 -1.4381 -0.7681  2.4038
 6176SOL     OW30160   0.381   4.185  14.100  0.7143 -0.3545  0.8820
 6176SOL    HW130161   0.322   4.129  14.151  2.5862 -2.6049  0.5967
 6176SOL    HW230162   0.440   4.226  14.163 -4.1564  1.9324  3.8784
 6177SOL     OW30163   3.228   3.700   7.159 -0.3306 -0.0237  0.1675
 6177SOL    HW130164   3.199   3.615   7.124 -1.4529  0.3380  0.2128
 6177SOL    HW230165   3.171   3.767   7.120  0.9946  0.4368 -0.9757
 6178SOL     OW30166   3.303   3.717  15.274  0.4688  0.0187 -0.0481
 6178SOL    HW130167   3.334   3.726  15.183 -0.8484  0.4910 -0.4509
 6178SOL    HW230168   3.387   3.688  15.309  1.2759  0.2747 -1.7519
 6179SOL     OW30169   3.094   1.154   8.503  0.1807 -0.0739 -0.1770
 6179SOL    HW130170   3.154   1.182   8.434  0.2759  2.2490  0.8744
 6179SOL    HW230171   3.140   1.171   8.585  0.8440 -0.1802 -0.5316
 6180SOL     OW30172   1.239   1.915   7.656 -0.2802  0.1865  0.2034
 6180SOL    HW130173   1.223   1.925   7.562 -2.6258 -1.2728  0.4600
 6180SOL    HW230174   1.207   1.826   7.665 -0.3846 -0.1598 -3.6913
 6181SOL     OW30175   1.858   1.511   1.370 -0.4524 -0.6821  0.4771
 6181SOL    HW130176   1.883   1.579   1.433 -0.3554  0.0876 -0.4013
 6181SOL    HW230177   1.929   1.516   1.307  0.4299 -1.1256  1.4339
 6182SOL     OW30178   3.837   3.027   2.369  0.2481  0.2418 -0.2193
 6182SOL    HW130179   3.760   3.084   2.367 -1.2919 -1.8266 -0.4218
 6182SOL    HW230180   3.809   2.974   2.294  1.4436 -2.1671  1.0256
 6183SOL     OW30181   0.683   3.365   9.075  0.2532 -0.3993 -0.1426
 6183SOL    HW130182   0.707   3.456   9.058  1.2609 -0.3734  1.3398
 6183SOL    HW230183   0.692   3.371   9.171  2.8758  0.7295 -0.4685
 6184SOL     OW30184   0.374   4.421  15.116  0.4646 -0.2367  0.7744
 6184SOL    HW130185   0.317   4.352  15.149 -2.1018  1.1375 -0.8414
 6184SOL    HW230186   0.439   4.416  15.187 -0.4632 -0.6276  1.5978
 6185SOL     OW30187   3.263   3.158   4.162 -0.4536  0.6244 -0.0538
 6185SOL    HW130188   3.202   3.197   4.224  0.3913  1.8720 -0.0175
 6185SOL    HW230189   3.346   3.189   4.199  0.4039 -1.0527 -0.5341
 6186SOL     OW30190   2.054   0.298   2.494  0.2306  0.2904 -0.4208
 6186SOL    HW130191   2.143   0.269   2.516 -0.1366  0.5087  1.3609
 6186SOL    HW230192   2.062   0.297   2.399  1.9896 -2.4362 -0.2340
 6187SOL     OW30193   2.402   3.488   6.900  0.0572 -0.0183 -0.5897
 6187SOL    HW130194   2.471   3.542   6.862 -2.9659  1.9520 -3.2716
 6187SOL    HW230195   2.393   3.544   6.978  0.4457  1.6254 -1.7389
 6188SOL     OW30196   2.838   4.447   1.399  0.5885 -0.2211  0.3667
 6188SOL    HW130197   2.779   4.409   1.334 -2.6364 -0.0718  3.2229
 6188SOL    HW230198   2.890   4.371   1.424  0.8260  0.2059  1.1722
 6189SOL     OW30199   0.708   0.976   6.524 -0.1474 -0.2800  0.4849
 6189SOL    HW130200   0.614   0.966   6.514  0.3108 -2.5580 -1.6382
 6189SOL    HW230201   0.730   1.042   6.458  2.0709  0.6636  2.1389
 6190SOL     OW30202   2.438   1.395   2.810  0.7988  0.0672 -0.5939
 6190SOL    HW130203   2.521   1.422   2.849  0.9297  0.9040 -1.4473
 6190SOL    HW230204   2.453   1.370   2.719 -0.7489  0.5133 -0.9706
 6191SOL     OW30205   1.323   1.736   1.118  0.1001 -0.9047 -0.3147
 6191SOL    HW130206   1.229   1.749   1.103 -0.0824 -0.3094  1.3418
 6191SOL    HW230207   1.350   1.727   1.027 -0.5279 -1.9637 -0.4051
 6192SOL     OW30208   0.157   2.238   7.398  0.7574 -0.0103 -0.1690
 6192SOL    HW130209   0.245   2.206   7.377  0.5348 -0.1466 -0.8763
 6192SOL    HW230210   0.095   2.166   7.383  0.1306  0.1649  1.5579
 6193SOL     OW30211   1.864   4.082   1.333 -0.2325  0.3951 -0.1325
 6193SOL    HW130212   1.828   4.111   1.249 -0.7950 -1.7239 -0.6238
 6193SOL    HW230213   1.823   4.149   1.388 -0.6119 -2.5494  3.1945
 6194SOL     OW30214   4.254   0.297   2.244 -0.2974 -0.0437  0.2177
 6194SOL    HW130215   4.271   0.354   2.169 -1.3049  1.1683  0.9218
 6194SOL    HW230216   4.169   0.331   2.272  0.8425  1.7853  1.4806
 6195SOL     OW30217   1.539   4.087  14.501 -0.3109 -0.4865 -0.5425
 6195SOL    HW130218   1.451   4.079  14.537 -0.1363 -1.6992 -0.3851
 6195SOL    HW230219   1.581   4.003  14.520  0.2777 -0.0716 -0.0325
 6196SOL     OW30220   2.262   3.880   6.117 -0.8340 -0.2394  0.1894
 6196SOL    HW130221   2.198   3.813   6.138 -1.3845 -0.2004 -1.3876
 6196SOL    HW230222   2.310   3.842   6.043 -0.4007  0.5131  0.0738
 6197SOL     OW30223   3.713   1.461   5.399 -0.1406  1.1568  0.1718
 6197SOL    HW130224   3.655   1.437   5.471  1.4145 -0.3640  0.9196
 6197SOL    HW230225   3.782   1.396   5.411  1.2523  2.6273  0.0984
 6198SOL     OW30226   4.046   3.134   9.848  0.0041 -0.0205 -0.0354
 6198SOL    HW130227   4.074   3.116   9.758 -0.0154 -0.9089  0.1343
 6198SOL    HW230228   4.013   3.222   9.836  0.4218  0.2655  0.8976
 6199SOL     OW30229   4.067   3.380   7.305  0.2822  0.0683  0.1346
 6199SOL    HW130230   4.007   3.430   7.249 -0.8194 -1.5652 -0.1614
 6199SOL    HW230231   4.009   3.308   7.333 -0.9393  1.4514  1.1374
 6200SOL     OW30232   4.629   4.360  16.589  0.4222  0.6402  0.1720
 6200SOL    HW130233   4.540   4.326  16.581  0.4168  0.5795  0.5179
 6200SOL    HW230234   4.682   4.281  16.591 -0.8800 -0.2183  0.4580
 6201SOL     OW30235   3.580   3.640  17.261  0.0012  0.4182 -0.3768
 6201SOL    HW130236   3.616   3.665  17.175  2.5333 -0.2826  0.4805
 6201SOL    HW230237   3.620   3.712  17.310 -1.4976  2.3516 -1.9675
 6202SOL     OW30238   4.544   0.485   8.447  0.3340  0.8306 -0.0007
 6202SOL    HW130239   4.584   0.481   8.360 -0.5695 -0.4097 -0.3593
 6202SOL    HW230240   4.536   0.579   8.460  0.8327  0.6687  1.5106
 6203SOL     OW30241   0.300   0.589   7.092  0.2963 -0.3775  0.0488
 6203SOL    HW130242   0.250   0.554   7.019 -0.1272  0.1888  0.0695
 6203SOL    HW230243   0.370   0.631   7.043  1.1209 -1.1487  0.5730
 6204SOL     OW30244   4.336   2.117  12.817  0.5098 -0.4002 -0.3802
 6204SOL    HW130245   4.369   2.062  12.746  2.0287  0.1602 -0.0962
 6204SOL    HW230246   4.244   2.098  12.799 -0.2890  1.5793  1.5996
 6205SOL     OW30247   1.387   2.617   4.038  0.0164 -0.4172  0.2523
 6205SOL    HW130248   1.419   2.609   4.128  2.3970  3.2510 -0.2694
 6205SOL    HW230249   1.325   2.690   4.040  2.1562  1.3994  0.6319
 6206SOL     OW30250   2.321   2.638  11.433 -0.5647 -0.1439 -0.2070
 6206SOL    HW130251   2.376   2.620  11.357  1.9856  0.7393  1.4133
 6206SOL    HW230252   2.384   2.630  11.505 -0.2092 -1.5945 -0.6903
 6207SOL     OW30253   0.834   2.321   4.199 -0.1416  0.4253  0.1348
 6207SOL    HW130254   0.755   2.270   4.219  0.4550  0.3627  2.4197
 6207SOL    HW230255   0.896   2.294   4.267  0.9554 -0.1762 -1.0990
 6208SOL     OW30256   0.012   2.829   3.888  0.0258  0.1020 -0.2341
 6208SOL    HW130257   4.711   2.915   3.900  1.9811  1.0665 -0.6529
 6208SOL    HW230258   0.098   2.844   3.926  0.0437 -0.3881 -0.0808
 6209SOL     OW30259   2.041   3.688  14.368 -0.1178  0.6104 -0.9950
 6209SOL    HW130260   1.967   3.749  14.373 -0.1680  0.4886 -0.2725
 6209SOL    HW230261   2.051   3.672  14.274 -2.4912  0.2110 -1.1914
 6210SOL     OW30262   0.500   3.714   4.131  0.4903 -0.2029 -0.3402
 6210SOL    HW130263   0.530   3.626   4.108  2.3125 -0.4337  2.9006
 6210SOL    HW230264   0.550   3.768   4.069  1.8331  0.2667  1.1505
 6211SOL     OW30265   0.490   3.866   7.259  0.0903 -0.1724  0.5598
 6211SOL    HW130266   0.420   3.901   7.315 -0.7418 -1.0404  0.0440
 6211SOL    HW230267   0.500   3.779   7.297  1.6234  0.7231  2.2600
 6212SOL     OW30268   2.350   3.820  16.403  0.8191 -0.1911  0.0635
 6212SOL    HW130269   2.415   3.807  16.334 -1.0081  0.2108 -1.7355
 6212SOL    HW230270   2.279   3.852  16.348 -1.7874 -3.8829  1.2855
 6213SOL     OW30271   4.724   0.708   2.339  0.4474 -0.0425  0.0263
 6213SOL    HW130272   0.057   0.654   2.371  1.8607  0.0179 -2.9831
 6213SOL    HW230273   4.653   0.651   2.368  0.9967 -1.0316 -0.5470
 6214SOL     OW30274   0.608   4.285   9.192  0.2735  0.0478 -0.7210
 6214SOL    HW130275   0.523   4.317   9.162  0.0107 -0.4330 -0.5012
 6214SOL    HW230276   0.592   4.262   9.284  3.6688 -1.0017 -0.3908
 6215SOL     OW30277   4.288   4.024   7.623 -0.5466  0.1590  0.3446
 6215SOL    HW130278   4.329   4.035   7.708  0.9314 -2.1910 -0.0707
 6215SOL    HW230279   4.218   4.089   7.626 -0.9710 -0.3413  1.1460
 6216SOL     OW30280   1.038   0.170   6.014 -0.1629  0.1051 -0.3247
 6216SOL    HW130281   1.043   0.099   6.079 -0.7290 -0.7335 -1.1872
 6216SOL    HW230282   1.123   0.162   5.971 -0.0080 -1.9273  0.3543
 6217SOL     OW30283   3.562   1.484   3.023  0.5362 -0.0580  0.5952
 6217SOL    HW130284   3.567   1.402   3.074  0.8348  0.5183  1.4983
 6217SOL    HW230285   3.623   1.456   2.955  0.5368  1.4317 -0.0072
 6218SOL     OW30286   4.312   4.625   5.339 -0.4605  0.0273 -0.3813
 6218SOL    HW130287   4.355   4.666   5.265 -1.8578  1.7720 -0.2122
 6218SOL    HW230288   4.250   4.695   5.359 -2.2739 -1.9381  0.9199
 6219SOL     OW30289   3.896   4.445   3.781 -0.4107 -0.2061 -0.1606
 6219SOL    HW130290   3.803   4.465   3.773 -0.4505  0.2076  1.3650
 6219SOL    HW230291   3.908   4.498   3.860 -1.3581  3.2143 -2.2693
 6220SOL     OW30292   0.574   1.736   0.246 -0.7874  0.2170  0.2183
 6220SOL    HW130293   0.534   1.745   0.332 -2.0293 -1.8394 -0.1363
 6220SOL    HW230294   0.568   1.821   0.203 -1.2463  0.0835  0.0119
 6221SOL     OW30295   4.449   1.158   5.912  0.0555  0.0988  0.2821
 6221SOL    HW130296   4.385   1.147   5.842 -1.7862 -1.3682  2.2138
 6221SOL    HW230297   4.482   1.247   5.896 -2.1104  1.0192  0.8552
 6222SOL     OW30298   0.829   4.395   1.542  0.0738 -1.2946  0.1011
 6222SOL    HW130299   0.878   4.313   1.541  0.3937 -1.1152  2.0498
 6222SOL    HW230300   0.856   4.436   1.624  1.3497 -0.7821 -0.5774
 6223SOL     OW30301   1.850   1.815   7.951  0.2534  0.4025  0.5800
 6223SOL    HW130302   1.836   1.909   7.962  1.9423  0.7633 -0.3273
 6223SOL    HW230303   1.845   1.799   7.857  0.7907  0.0987  0.6020
 6224SOL     OW30304   0.782   0.395   2.189  0.3204 -0.1159 -0.6155
 6224SOL    HW130305   0.756   0.359   2.273 -0.6254  0.7730 -0.5269
 6224SOL    HW230306   0.870   0.357   2.189  0.2397 -0.3368 -2.9915
 6225SOL     OW30307   0.033   3.747   0.522 -0.1698 -0.0475 -0.2059
 6225SOL    HW130308   4.724   3.806   0.580  3.0216  2.1770  0.1577
 6225SOL    HW230309   4.707   3.679   0.504  0.6471 -0.7085 -0.6433
 6226SOL     OW30310   3.059   0.653   7.903 -0.0072 -0.6324 -0.0730
 6226SOL    HW130311   3.127   0.588   7.922 -0.5439 -1.1746 -0.0110
 6226SOL    HW230312   3.082   0.668   7.812 -3.2928  1.3804 -0.5902
 6227SOL     OW30313   4.268   2.050   7.012  0.0299  0.3807 -0.1364
 6227SOL    HW130314   4.344   2.053   6.955  0.4309  0.5879  0.4115
 6227SOL    HW230315   4.308   2.116   7.068  2.0944 -2.1774  1.3815
 6228SOL     OW30316   1.122   1.821   3.791 -0.1131  1.0378 -0.5249
 6228SOL    HW130317   1.176   1.899   3.798 -0.0229  1.0653 -1.5430
 6228SOL    HW230318   1.188   1.752   3.798 -0.1662  0.9818 -0.5756
 6229SOL     OW30319   0.482   4.204   2.878  0.4846  0.2541 -0.2886
 6229SOL    HW130320   0.488   4.299   2.892  1.2852 -0.0284  1.2737
 6229SOL    HW230321   0.389   4.201   2.901  0.6224  1.1777  0.3997
 6230SOL     OW30322   2.817   3.754   8.127  0.6117  0.2879 -0.3653
 6230SOL    HW130323   2.853   3.677   8.083 -0.1441 -0.3913  0.1998
 6230SOL    HW230324   2.723   3.743   8.117  0.4537  1.5668 -0.2904
 6231SOL     OW30325   1.205   3.349  10.953 -0.1310 -0.3416 -0.7485
 6231SOL    HW130326   1.202   3.433  11.000  1.2142 -1.9547  2.1951
 6231SOL    HW230327   1.240   3.372  10.867  2.0919  2.0896  0.7895
 6232SOL     OW30328   4.018   0.425   2.294 -0.1534 -0.3739 -0.1915
 6232SOL    HW130329   4.014   0.482   2.217  0.8161 -0.6104 -0.4196
 6232SOL    HW230330   3.943   0.368   2.279  0.7106 -1.9518  1.4135
 6233SOL     OW30331   1.273   1.442   9.218 -0.1125  0.7347  0.2297
 6233SOL    HW130332   1.298   1.358   9.257 -0.5123  0.3372 -0.3520
 6233SOL    HW230333   1.177   1.444   9.223 -0.2688 -2.7028 -0.9297
 6234SOL     OW30334   4.667   0.457   6.991 -0.7328  0.6102  0.0822
 6234SOL    HW130335   4.595   0.503   7.033  0.8209  1.4939  1.7604
 6234SOL    HW230336   4.726   0.530   6.973 -0.5361  0.7586  1.3536
 6235SOL     OW30337   1.273   2.201  12.290  0.5053 -0.1397 -0.5317
 6235SOL    HW130338   1.208   2.137  12.317  1.5578 -1.1718 -0.4239
 6235SOL    HW230339   1.338   2.154  12.236  0.4861 -0.6516 -0.1055
 6236SOL     OW30340   1.104   2.924  14.700 -0.3435  0.1644 -0.6588
 6236SOL    HW130341   1.028   2.875  14.731  0.5231 -1.7983 -1.6322
 6236SOL    HW230342   1.056   3.004  14.679  0.2465  0.4152 -1.0575
 6237SOL     OW30343   1.607   1.504   4.089  0.3899 -0.1185 -0.2124
 6237SOL    HW130344   1.523   1.481   4.050  0.5486  2.3216 -2.0266
 6237SOL    HW230345   1.635   1.578   4.034  1.2265 -0.5133 -0.3163
 6238SOL     OW30346   3.920   0.293   4.537  0.4887 -0.2576  0.6183
 6238SOL    HW130347   3.938   0.371   4.484 -0.9685 -0.1571  0.2779
 6238SOL    HW230348   3.845   0.259   4.487  0.7784 -1.3577  0.9314
 6239SOL     OW30349   4.699   3.519  14.374  0.2319 -0.1568 -0.2509
 6239SOL    HW130350   0.047   3.483  14.361  0.7602  0.1289  2.5320
 6239SOL    HW230351   4.649   3.441  14.348  0.7325 -0.0941 -1.4047
 6240SOL     OW30352   0.101   1.890  15.965 -0.1750 -0.0763  0.3899
 6240SOL    HW130353   0.174   1.943  15.995  1.2607 -3.1387  2.3396
 6240SOL    HW230354   0.080   1.941  15.887  3.3636 -0.4238 -0.7931
 6241SOL     OW30355   3.746   0.025   9.107 -0.2190  0.4497  0.5160
 6241SOL    HW130356   3.806   4.716   9.050 -0.5647  1.9627 -1.1329
 6241SOL    HW230357   3.796   0.037   9.187  1.3445 -3.0761  0.0994
 6242SOL     OW30358   1.634   4.592   7.055  0.1786 -0.0914 -0.0159
 6242SOL    HW130359   1.611   4.501   7.074  1.8316 -0.4462  0.3371
 6242SOL    HW230360   1.572   4.647   7.103 -2.0573 -0.4253 -2.5540
 6243SOL     OW30361   3.959   2.754   8.405  0.6889 -0.1460  0.2246
 6243SOL    HW130362   4.054   2.751   8.393  0.3551 -2.2948 -1.8193
 6243SOL    HW230363   3.958   2.813   8.480  2.0804 -2.9803  2.4811
 6244SOL     OW30364   3.801   1.273  15.920  0.6007 -0.1073 -0.2615
 6244SOL    HW130365   3.791   1.281  15.825  2.8825 -3.4560 -0.8002
 6244SOL    HW230366   3.711   1.245  15.938  0.9214 -2.9349 -2.8673
 6245SOL     OW30367   0.479   1.186   5.404 -0.5894 -0.6930  0.1163
 6245SOL    HW130368   0.509   1.245   5.334 -3.6473 -0.0550 -0.6643
 6245SOL    HW230369   0.395   1.225   5.430 -1.5675 -0.5277 -3.2637
 6246SOL     OW30370   4.489   3.387   6.605  0.9362  0.0906 -0.0934
 6246SOL    HW130371   4.436   3.336   6.666  0.0006  0.8186 -0.3096
 6246SOL    HW230372   4.553   3.435   6.658 -2.9886  2.6871  2.2402
 6247SOL     OW30373   0.807   0.707   5.095  0.0994 -0.9687  0.6407
 6247SOL    HW130374   0.756   0.636   5.134  1.0219 -2.3145 -0.6167
 6247SOL    HW230375   0.752   0.782   5.117  0.0238 -0.3967 -1.4723
 6248SOL     OW30376   4.409   2.836  11.882  0.2797  0.0374 -0.1080
 6248SOL    HW130377   4.435   2.928  11.871  1.2334 -0.3493 -1.1032
 6248SOL    HW230378   4.314   2.833  11.875  0.1865 -2.3941  2.1725
 6249SOL     OW30379   1.553   3.998  15.999 -0.2179 -0.0970 -0.0405
 6249SOL    HW130380   1.483   4.010  16.064 -0.0948  0.4751 -0.0101
 6249SOL    HW230381   1.579   4.091  15.995 -1.0871 -0.0559 -4.3291
 6250SOL     OW30382   1.599   2.021   5.223 -0.3405  0.0135 -0.3298
 6250SOL    HW130383   1.536   2.082   5.186 -0.7544  0.6775  1.4997
 6250SOL    HW230384   1.573   2.023   5.315 -1.0620  2.5593 -0.5826
 6251SOL     OW30385   3.300   1.669   7.721 -0.4758  0.6928 -0.1498
 6251SOL    HW130386   3.316   1.582   7.686  0.6849  1.3648 -1.2958
 6251SOL    HW230387   3.279   1.655   7.813 -1.0524  2.1977 -0.0443
 6252SOL     OW30388   1.732   2.970   6.569  0.1548  0.4058 -0.0547
 6252SOL    HW130389   1.670   3.022   6.621  0.0033 -1.6480  1.7996
 6252SOL    HW230390   1.707   2.881   6.592 -0.5422  0.6130  0.0033
 6253SOL     OW30391   1.325   0.635   6.468  0.5669  0.5287  0.0582
 6253SOL    HW130392   1.252   0.593   6.514  0.8335 -1.6202 -1.5263
 6253SOL    HW230393   1.283   0.672   6.390 -1.1337 -1.1189  0.1982
 6254SOL     OW30394   0.581   2.856   7.591 -0.3368  0.0215 -0.3054
 6254SOL    HW130395   0.600   2.950   7.587  0.9198 -0.2697 -1.3975
 6254SOL    HW230396   0.518   2.843   7.520 -0.7862 -2.8145  0.6292
 6255SOL     OW30397   3.602   3.002   7.415 -0.0450 -0.2617 -0.3524
 6255SOL    HW130398   3.516   3.020   7.452  0.7452 -1.9979  2.4014
 6255SOL    HW230399   3.588   3.017   7.322 -1.1585  2.2493  0.2321
 6256SOL     OW30400   3.530   1.024  15.466  0.2025 -0.0899 -0.2113
 6256SOL    HW130401   3.621   1.053  15.473  0.5074 -0.2982 -3.1602
 6256SOL    HW230402   3.485   1.088  15.521 -0.4846 -1.9190  1.3409
 6257SOL     OW30403   1.520   2.948   5.179  0.0361  0.2634  0.2538
 6257SOL    HW130404   1.596   2.980   5.227 -0.2165  0.5995  0.4240
 6257SOL    HW230405   1.521   3.017   5.113  0.2626  0.3641  0.3662
 6258SOL     OW30406   0.731   2.017  15.848 -0.0710  0.1144  0.0665
 6258SOL    HW130407   0.821   1.987  15.838  0.1303  0.3226  1.3333
 6258SOL    HW230408   0.716   2.007  15.942 -1.5682 -0.3435 -0.2121
 6259SOL     OW30409   1.786   2.832   7.436  0.1247  0.1071 -0.6410
 6259SOL    HW130410   1.857   2.848   7.373  0.1275  0.6744 -0.4942
 6259SOL    HW230411   1.839   2.855   7.513  0.0096  0.0589 -0.5476
 6260SOL     OW30412   0.610   3.977   9.629 -0.0952 -0.4122 -0.6539
 6260SOL    HW130413   0.703   3.957   9.620 -0.0147 -0.6510  0.8338
 6260SOL    HW230414   0.612   4.025   9.711 -1.5273 -0.6701 -0.4678
 6261SOL     OW30415   2.699   4.607   0.860  0.0454 -0.1398 -0.1958
 6261SOL    HW130416   2.762   4.611   0.787  0.3898 -1.4532  0.0361
 6261SOL    HW230417   2.616   4.581   0.822 -0.7815 -0.3291  1.7366
 6262SOL     OW30418   3.019   4.389   6.453  0.1072 -0.3927  0.4306
 6262SOL    HW130419   2.980   4.302   6.455  0.4411 -0.5813 -1.1166
 6262SOL    HW230420   3.112   4.373   6.440  0.5662  2.4550  0.1503
 6263SOL     OW30421   3.875   2.823   4.695  0.3249  0.2072 -0.0210
 6263SOL    HW130422   3.827   2.769   4.758 -0.3816  1.5810  0.6165
 6263SOL    HW230423   3.969   2.807   4.708 -0.1162 -2.1251  0.4581
 6264SOL     OW30424   1.439   1.403  11.189  0.1263  0.2936  0.2727
 6264SOL    HW130425   1.413   1.452  11.267 -1.6837  1.3367 -0.9948
 6264SOL    HW230426   1.491   1.344  11.243 -0.2059 -0.6907 -0.4764
 6265SOL     OW30427   3.596   2.925  17.219  0.2989 -0.1783  0.2770
 6265SOL    HW130428   3.573   3.001  17.274  3.5227  1.3330 -0.5032
 6265SOL    HW230429   3.508   2.890  17.204  0.3759  0.3691 -1.4140
 6266SOL     OW30430   3.673   1.871   2.740  0.4483  0.1738 -0.5683
 6266SOL    HW130431   3.715   1.951   2.707 -2.1465  1.7579 -0.0838
 6266SOL    HW230432   3.743   1.836   2.796 -0.9821 -0.5378  0.7835
 6267SOL     OW30433   2.644   0.434   7.114  0.3585 -0.6121 -0.2208
 6267SOL    HW130434   2.561   0.417   7.158  1.2705  1.2934  2.2217
 6267SOL    HW230435   2.609   0.448   7.025  0.3434 -1.3217 -0.3258
 6268SOL     OW30436   1.679   3.113   4.774 -0.1522  0.1805  0.0672
 6268SOL    HW130437   1.735   3.036   4.762  1.5130  1.2718  0.8244
 6268SOL    HW230438   1.649   3.132   4.685 -4.0542 -0.7524  1.1752
 6269SOL     OW30439   2.994   0.867   4.949 -0.3646 -0.1343  0.7706
 6269SOL    HW130440   3.090   0.866   4.938 -0.6311  0.7943 -1.6628
 6269SOL    HW230441   2.990   0.950   4.996  1.9217  0.7699 -0.6232
 6270SOL     OW30442   0.827   2.935   6.881 -0.1495  0.0130 -0.2594
 6270SOL    HW130443   0.751   2.878   6.878  0.3362 -0.6636  0.1866
 6270SOL    HW230444   0.850   2.945   6.789  2.3055 -1.1006  0.2124
 6271SOL     OW30445   1.848   2.984  10.261 -0.3937 -0.2180  0.0950
 6271SOL    HW130446   1.786   3.008  10.330 -0.8914 -1.8056  0.1925
 6271SOL    HW230447   1.918   3.049  10.271 -1.3913  0.9334 -0.5043
 6272SOL     OW30448   1.676   2.031   1.304  0.1979 -0.2098 -0.2012
 6272SOL    HW130449   1.646   1.944   1.276  0.2645 -0.3768  0.2432
 6272SOL    HW230450   1.624   2.079   1.240  1.6947  0.5459 -0.8467
 6273SOL     OW30451   0.223   0.232  11.372  0.5693  0.0463  0.0138
 6273SOL    HW130452   0.283   0.218  11.298  1.9154  0.6054  1.0026
 6273SOL    HW230453   0.214   0.144  11.408 -1.0884  0.1931 -0.0536
 6274SOL     OW30454   0.398   4.196  13.501 -0.1902 -0.0514  0.5942
 6274SOL    HW130455   0.369   4.264  13.561 -2.6166 -0.8393  0.3168
 6274SOL    HW230456   0.433   4.249  13.430 -0.1270  0.7366  1.2147
 6275SOL     OW30457   1.622   0.251  16.307 -0.0501  0.3034  0.2182
 6275SOL    HW130458   1.542   0.298  16.327 -1.1190 -1.9757  1.3084
 6275SOL    HW230459   1.648   0.291  16.224 -0.3381  0.9812  0.4557
 6276SOL     OW30460   4.307   3.289   1.217 -0.2414  0.1839  0.2162
 6276SOL    HW130461   4.245   3.336   1.272  0.4451  2.0633 -0.6298
 6276SOL    HW230462   4.389   3.325   1.250  0.3153 -1.4844  0.6565
 6277SOL     OW30463   2.373   2.693   7.457 -0.3980  0.0053 -0.1582
 6277SOL    HW130464   2.293   2.745   7.464  0.3562  0.9885  1.2445
 6277SOL    HW230465   2.407   2.660   7.540 -1.2529  2.0966  1.0249
 6278SOL     OW30466   3.553   1.954   7.668  0.0636  0.0118  0.6244
 6278SOL    HW130467   3.553   2.026   7.732  1.0171 -0.0166  0.6596
 6278SOL    HW230468   3.554   1.994   7.581  0.3721  0.1722  0.7011
 6279SOL     OW30469   3.202   1.654  16.267 -0.2408  0.1202 -0.1120
 6279SOL    HW130470   3.200   1.743  16.232  1.3461  1.1303  2.4008
 6279SOL    HW230471   3.177   1.669  16.358  0.7854 -2.2742  0.5665
 6280SOL     OW30472   2.417   3.484  16.272  0.3586  0.3125  0.2877
 6280SOL    HW130473   2.346   3.458  16.330  0.0288  2.5184  0.8736
 6280SOL    HW230474   2.428   3.572  16.308  0.3383  0.3392  0.2286
 6281SOL     OW30475   0.252   3.211   6.870 -0.2329  0.0531  0.0592
 6281SOL    HW130476   0.236   3.268   6.944  1.1356 -1.0163  1.1771
 6281SOL    HW230477   0.307   3.263   6.812 -0.9087 -0.0308 -0.6567
 6282SOL     OW30478   1.814   1.632   4.421 -0.2003 -0.2218  0.3778
 6282SOL    HW130479   1.747   1.699   4.414  1.3444  1.3899  0.8182
 6282SOL    HW230480   1.883   1.676   4.471 -0.6419  0.8138  0.0588
 6283SOL     OW30481   1.439   1.382   4.694 -1.1484 -0.3380  0.4991
 6283SOL    HW130482   1.344   1.383   4.702 -0.9634 -0.5497  2.7645
 6283SOL    HW230483   1.452   1.464   4.742 -0.6733  1.5641 -2.8800
 6284SOL     OW30484   3.544   1.955  15.691  0.3058 -0.2837  0.0495
 6284SOL    HW130485   3.528   1.971  15.598 -0.6669 -0.2536  0.2189
 6284SOL    HW230486   3.519   2.041  15.726  0.0567 -0.0963 -0.5965
 6285SOL     OW30487   0.833   3.600   0.785  0.2570 -0.3247 -0.1948
 6285SOL    HW130488   0.799   3.601   0.874  0.7944  1.5101 -0.0072
 6285SOL    HW230489   0.865   3.690   0.786 -3.9528  1.0918  2.4088
 6286SOL     OW30490   2.646   2.394   7.033 -0.4322 -0.3439 -0.4915
 6286SOL    HW130491   2.589   2.323   7.002 -0.0698 -0.3089 -1.2379
 6286SOL    HW230492   2.731   2.373   6.994 -0.7374  0.2281 -1.4663
 6287SOL     OW30493   2.317   1.470   0.026 -0.3706 -0.1385 -0.5282
 6287SOL    HW130494   2.309   1.394  17.722  2.8585 -0.3267 -0.6930
 6287SOL    HW230495   2.276   1.428   0.101  0.2372 -0.8168 -0.5816
 6288SOL     OW30496   1.427   0.030  12.236  0.3491 -0.3492 -0.0977
 6288SOL    HW130497   1.353   0.064  12.186 -1.7927 -1.5861  2.2323
 6288SOL    HW230498   1.471   0.112  12.258  3.6349 -2.2371  0.4694
 6289SOL     OW30499   3.522   3.058   5.199 -0.1599  0.1782 -0.3289
 6289SOL    HW130500   3.453   3.072   5.264  1.0580 -0.4208  1.1059
 6289SOL    HW230501   3.601   3.038   5.250  0.0422 -0.6912 -0.9968
 6290SOL     OW30502   1.402   2.193   6.119  0.2826  0.6410  0.8538
 6290SOL    HW130503   1.496   2.185   6.103 -0.2035 -1.0822 -1.2722
 6290SOL    HW230504   1.389   2.220   6.210 -1.0800  0.7242  0.6409
 6291SOL     OW30505   4.539   3.673   9.090 -0.0638 -0.0526 -0.0033
 6291SOL    HW130506   4.458   3.662   9.039 -0.6541  0.0900  0.9168
 6291SOL    HW230507   4.598   3.699   9.018  1.0335 -1.0774  0.5221
 6292SOL     OW30508   3.605   2.791   8.916  0.0677 -0.5060  0.0956
 6292SOL    HW130509   3.690   2.814   8.953  0.2923 -0.2646 -0.5667
 6292SOL    HW230510   3.566   2.754   8.994  2.4889 -1.1443  1.0220
 6293SOL     OW30511   1.432   0.914   9.117  0.3386  0.2104 -0.0951
 6293SOL    HW130512   1.432   1.006   9.091 -0.5607 -0.0866 -1.1816
 6293SOL    HW230513   1.360   0.881   9.062  0.6367  0.3769 -0.5786
 6294SOL     OW30514   0.712   1.040   5.454 -0.0534 -0.3016 -0.3082
 6294SOL    HW130515   0.637   1.098   5.441 -1.1818 -2.0792 -1.6682
 6294SOL    HW230516   0.759   1.037   5.371  0.0895 -1.0177 -0.2059
 6295SOL     OW30517   3.592   3.153   7.729  0.0276 -0.2385 -0.2770
 6295SOL    HW130518   3.551   3.239   7.721  2.0805  0.6880 -0.9661
 6295SOL    HW230519   3.675   3.181   7.690 -1.3248  2.0380 -1.5181
 6296SOL     OW30520   2.100   2.548  11.204  0.2753 -0.0627  0.3284
 6296SOL    HW130521   2.191   2.575  11.212  0.5980 -0.9306 -0.3713
 6296SOL    HW230522   2.066   2.541  11.293 -1.7377  1.3036 -0.3415
 6297SOL     OW30523   1.579   0.358   7.554  0.1470  0.1103 -0.4856
 6297SOL    HW130524   1.605   0.266   7.553 -0.5266 -0.0683 -1.2102
 6297SOL    HW230525   1.499   0.356   7.606  0.0400 -2.7023 -0.7374
 6298SOL     OW30526   3.335   1.244   0.651 -0.1212 -0.2294 -0.8823
 6298SOL    HW130527   3.396   1.260   0.723 -1.0427 -3.9868  0.7265
 6298SOL    HW230528   3.340   1.332   0.612  0.1971 -0.1197 -0.5972
 6299SOL     OW30529   4.690   3.483   6.082 -0.1974  0.1109 -0.4329
 6299SOL    HW130530   4.603   3.472   6.120  0.6265  0.0320  1.4403
 6299SOL    HW230531   4.725   3.394   6.091 -0.0437  0.4793  2.6375
 6300SOL     OW30532   2.792   3.782  10.974  0.8426  0.2566  0.3021
 6300SOL    HW130533   2.770   3.808  11.064  0.8470  1.2665  0.0166
 6300SOL    HW230534   2.710   3.801  10.929  0.5861 -2.3679 -0.3440
 6301SOL     OW30535   0.198   3.680   3.926 -0.5619  0.0471 -0.0986
 6301SOL    HW130536   0.128   3.661   3.863 -0.0082 -2.2439  0.0033
 6301SOL    HW230537   0.192   3.607   3.987 -0.7621  0.4728  0.3959
 6302SOL     OW30538   1.342   3.303   5.326  0.1024 -0.5857 -0.2075
 6302SOL    HW130539   1.293   3.223   5.346  0.6964 -0.5792  1.2714
 6302SOL    HW230540   1.425   3.256   5.332  1.3081  1.5926  0.2263
 6303SOL     OW30541   4.418   0.942   9.997 -0.4534  0.3262  0.7630
 6303SOL    HW130542   4.365   0.942   9.918  1.9728 -0.6639 -0.8615
 6303SOL    HW230543   4.506   0.957   9.964  0.0502 -0.5802  1.7032
 6304SOL     OW30544   2.411   0.742   7.934 -0.2917 -0.0698 -0.5801
 6304SOL    HW130545   2.415   0.707   8.024  1.4462 -1.8491 -1.3466
 6304SOL    HW230546   2.491   0.793   7.939 -0.1284 -0.5216  1.4417
 6305SOL     OW30547   3.255   1.161   2.258 -0.1399  0.1641 -0.0322
 6305SOL    HW130548   3.334   1.159   2.312  0.2688 -1.6367 -0.6809
 6305SOL    HW230549   3.281   1.146   2.167 -2.2796 -4.1747  0.0532
 6306SOL     OW30550   2.216   1.341   7.034  0.3600  0.2735 -0.4155
 6306SOL    HW130551   2.218   1.393   7.114  0.4981  1.7342 -1.3738
 6306SOL    HW230552   2.160   1.398   6.982  0.8553 -1.0812 -2.4368
 6307SOL     OW30553   2.099   1.413  16.858 -0.1436 -0.2803 -0.2664
 6307SOL    HW130554   2.012   1.452  16.861  0.9986  2.2777 -1.0320
 6307SOL    HW230555   2.105   1.375  16.770  0.3098  1.4689 -0.9897
 6308SOL     OW30556   2.179   0.479  10.449 -0.1987  0.3481 -0.3511
 6308SOL    HW130557   2.132   0.555  10.484  0.7081  0.6994  0.1006
 6308SOL    HW230558   2.264   0.478  10.493 -0.5507  1.5600  0.3517
 6309SOL     OW30559   3.324   0.423   9.646 -0.0475 -0.1606  0.0484
 6309SOL    HW130560   3.340   0.346   9.591 -1.8466 -0.9114  0.5799
 6309SOL    HW230561   3.321   0.486   9.574 -3.3437  0.7145  0.9361
 6310SOL     OW30562   4.272   4.516  13.084  0.4743  0.0271  0.6080
 6310SOL    HW130563   4.205   4.459  13.123  1.1452 -0.8728  0.4261
 6310SOL    HW230564   4.294   4.461  13.009 -1.6906  0.8623 -0.6498
 6311SOL     OW30565   2.465   3.325  14.122  0.8179  0.0576 -0.2885
 6311SOL    HW130566   2.487   3.395  14.184  1.7771 -1.4561  1.0694
 6311SOL    HW230567   2.415   3.378  14.061  3.9559  1.8480 -1.3149
 6312SOL     OW30568   0.626   1.517   5.415 -0.5930  0.2626  0.9937
 6312SOL    HW130569   0.669   1.461   5.480  1.1323 -0.1968 -0.5279
 6312SOL    HW230570   0.596   1.453   5.351 -0.0329  1.2043 -0.2248
 6313SOL     OW30571   0.644   0.390  10.786  0.2675  0.1754 -0.4549
 6313SOL    HW130572   0.704   0.319  10.764  0.0007  0.0513 -0.7710
 6313SOL    HW230573   0.651   0.434  10.701  2.1305 -2.4897 -1.7057
 6314SOL     OW30574   2.443   1.789   3.829  0.9033  0.3451 -0.6550
 6314SOL    HW130575   2.375   1.739   3.784  1.1204 -1.8252  1.3799
 6314SOL    HW230576   2.519   1.777   3.772  0.4329 -0.6919 -1.0617
 6315SOL     OW30577   2.461   2.957   5.195  0.3985 -0.2425 -0.0192
 6315SOL    HW130578   2.557   2.964   5.189  0.4159 -1.0748 -0.7056
 6315SOL    HW230579   2.435   3.023   5.130  1.6281 -0.1913 -0.4730
 6316SOL     OW30580   2.085   0.085  14.730 -0.2596  0.4607  0.0575
 6316SOL    HW130581   2.043   0.012  14.775 -3.2722  0.9421 -1.9092
 6316SOL    HW230582   2.049   0.163  14.772  0.2982 -1.1070  3.4665
 6317SOL     OW30583   0.303   2.993   7.732 -0.4029  0.3772  0.0274
 6317SOL    HW130584   0.292   2.995   7.637 -1.6691  0.4548  0.1742
 6317SOL    HW230585   0.248   3.064   7.766  0.8467  1.1280  0.4507
 6318SOL     OW30586   3.179   1.749   8.558 -0.0008 -0.1582 -0.5945
 6318SOL    HW130587   3.242   1.798   8.505  1.1879  0.2172  1.1783
 6318SOL    HW230588   3.104   1.807   8.561  0.3849  0.3257 -0.3377
 6319SOL     OW30589   0.807   3.343   2.485 -0.0601 -0.1806 -0.1378
 6319SOL    HW130590   0.718   3.328   2.455  0.5762 -0.6026 -1.8476
 6319SOL    HW230591   0.862   3.306   2.416  0.0428 -0.1466 -0.0746
 6320SOL     OW30592   4.045   1.184   3.444  0.3331  0.6516 -0.1781
 6320SOL    HW130593   3.990   1.169   3.521  0.1662 -0.5880 -0.5362
 6320SOL    HW230594   4.107   1.246   3.482  0.7316  0.4636 -0.5211
 6321SOL     OW30595   3.297   0.756   3.325 -0.0078  0.0472 -0.0435
 6321SOL    HW130596   3.331   0.667   3.330  2.0335  0.9187  1.3144
 6321SOL    HW230597   3.243   0.770   3.403  0.2691  1.5807 -0.1301
 6322SOL     OW30598   3.009   2.056   4.093  0.0633  0.3905  0.6637
 6322SOL    HW130599   3.063   2.091   4.164 -0.4571  0.8925  0.8077
 6322SOL    HW230600   3.069   1.997   4.047 -0.0575  0.3357  0.5762
 6323SOL     OW30601   3.851   0.174   5.242 -0.6597 -0.2187 -0.2476
 6323SOL    HW130602   3.812   0.181   5.329 -0.3262  0.2813 -0.1402
 6323SOL    HW230603   3.928   0.229   5.254 -0.1789 -0.6628 -1.3714
 6324SOL     OW30604   4.568   3.379   4.134 -0.5645  0.1678  0.0486
 6324SOL    HW130605   4.642   3.427   4.097  0.0148 -1.4351 -0.8733
 6324SOL    HW230606   4.586   3.393   4.227 -2.0244 -1.5854  0.6020
 6325SOL     OW30607   1.247   0.251   0.602  0.3257  0.6529  0.1888
 6325SOL    HW130608   1.333   0.280   0.632 -0.4262  1.6900  1.3399
 6325SOL    HW230609   1.194   0.322   0.638  0.3659 -0.6901  2.9425
 6326SOL     OW30610   3.321   1.704   4.840  0.6633  0.0142  0.2292
 6326SOL    HW130611   3.348   1.758   4.767 -0.6235  1.3200  0.7238
 6326SOL    HW230612   3.231   1.682   4.815  0.4120  0.9852  0.2987
 6327SOL     OW30613   0.686   1.068  12.240 -0.0695  0.3937 -0.2583
 6327SOL    HW130614   0.647   1.030  12.318  2.4617 -0.0724  0.7650
 6327SOL    HW230615   0.623   1.134  12.208 -0.3957  0.0835 -0.2608
 6328SOL     OW30616   1.683   2.907   7.992 -0.2218 -0.4733 -0.1644
 6328SOL    HW130617   1.768   2.932   8.030  1.1865 -0.4807 -3.3321
 6328SOL    HW230618   1.676   2.974   7.924  3.0126  0.6725  0.5998
 6329SOL     OW30619   3.983   2.951   7.217  0.1371 -0.3263 -0.1341
 6329SOL    HW130620   3.985   2.969   7.123 -1.1759  0.9869  0.0874
 6329SOL    HW230621   4.067   2.989   7.242 -0.6530  1.0269  0.4549
 6330SOL     OW30622   1.861   2.774   4.494 -0.1266  0.0904 -0.5132
 6330SOL    HW130623   1.925   2.841   4.467  2.1100 -2.4854 -1.5910
 6330SOL    HW230624   1.905   2.749   4.575 -0.0738  0.4739 -0.4204
 6331SOL     OW30625   1.682   2.816   5.501 -0.5038  0.1832 -0.4819
 6331SOL    HW130626   1.702   2.777   5.586  1.0527  2.2376  0.0810
 6331SOL    HW230627   1.728   2.899   5.511 -3.1741  1.4904  1.1927
 6332SOL     OW30628   1.000   1.506   7.464  0.3543 -0.2966  1.0355
 6332SOL    HW130629   0.931   1.567   7.489 -1.8246 -2.3633  0.0769
 6332SOL    HW230630   1.010   1.432   7.524 -1.9415 -0.8792  0.7067
 6333SOL     OW30631   1.593   1.537   1.949 -0.0773 -0.2056 -0.0241
 6333SOL    HW130632   1.512   1.540   1.898  0.0755  1.8124 -0.1743
 6333SOL    HW230633   1.552   1.548   2.035 -2.1128  1.8731 -1.2372
 6334SOL     OW30634   2.295   0.524  17.221  0.2981  0.4231  0.2693
 6334SOL    HW130635   2.208   0.483  17.227  0.4035 -0.1843 -2.6275
 6334SOL    HW230636   2.281   0.618  17.231 -1.7579  0.2972 -1.3687
 6335SOL     OW30637   0.062   0.741  13.561 -0.0221  0.2946 -0.6782
 6335SOL    HW130638   4.716   0.697  13.563  0.1120  0.0896  0.4350
 6335SOL    HW230639   0.097   0.739  13.650  0.2263 -1.3582 -0.8079
 6336SOL     OW30640   1.455   1.412   2.311  0.0943  0.3329 -0.9884
 6336SOL    HW130641   1.387   1.466   2.271  0.3802  0.8780 -0.7512
 6336SOL    HW230642   1.532   1.468   2.297  0.9779 -0.2481  1.4791
 6337SOL     OW30643   3.220   2.372   9.325  0.6916 -0.5413 -0.0811
 6337SOL    HW130644   3.148   2.337   9.379  0.8845  1.3279  1.4055
 6337SOL    HW230645   3.196   2.328   9.243  1.5498 -1.0600 -0.0573
 6338SOL     OW30646   1.652   1.869   5.016  0.7790  0.9802 -0.2365
 6338SOL    HW130647   1.622   1.927   5.085  0.6476 -0.0093  0.5290
 6338SOL    HW230648   1.615   1.928   4.950 -0.7771  0.8781  0.5493
 6339SOL     OW30649   0.764   2.519   4.651  0.4575  0.1574  0.3851
 6339SOL    HW130650   0.779   2.432   4.688 -1.1489 -0.7195 -1.0679
 6339SOL    HW230651   0.845   2.568   4.668  1.2653 -0.9702 -0.1917
 6340SOL     OW30652   0.258   1.792   4.658  0.0369 -0.0527  0.4131
 6340SOL    HW130653   0.336   1.802   4.604 -1.2858 -2.0488 -1.9100
 6340SOL    HW230654   0.181   1.777   4.603  0.7729 -0.5783 -0.4652
 6341SOL     OW30655   4.611   2.272   3.981 -0.7360 -0.0490 -0.3499
 6341SOL    HW130656   4.527   2.243   3.945  0.8537 -1.9236 -2.5356
 6341SOL    HW230657   4.643   2.332   3.914 -0.0579 -1.9034 -1.6920
 6342SOL     OW30658   2.190   2.718   6.905 -0.5179 -0.0045 -0.2318
 6342SOL    HW130659   2.175   2.810   6.929  1.7460  0.4188 -0.4675
 6342SOL    HW230660   2.098   2.690   6.912 -0.5865 -0.0507 -1.4055
 6343SOL     OW30661   2.671   3.966   4.531  1.0676 -0.1406  0.2183
 6343SOL    HW130662   2.658   3.993   4.621  0.5056  0.6681 -0.1034
 6343SOL    HW230663   2.624   3.882   4.522  0.2453  0.3110  0.2917
 6344SOL     OW30664   2.069   3.204   8.015  0.1172  0.0392  0.0984
 6344SOL    HW130665   2.050   3.189   7.923 -1.5381  0.6077  0.3413
 6344SOL    HW230666   2.004   3.150   8.060  0.2786  0.1586  0.4776
 6345SOL     OW30667   3.339   2.198   5.609  0.1723 -0.5700  0.1994
 6345SOL    HW130668   3.354   2.291   5.596 -0.7930 -0.1737  1.9244
 6345SOL    HW230669   3.409   2.181   5.671  1.7867 -1.6445 -1.9119
 6346SOL     OW30670   3.457   0.889   2.578 -0.3991 -0.1283 -0.4813
 6346SOL    HW130671   3.530   0.911   2.636 -1.3510 -1.6321  1.2574
 6346SOL    HW230672   3.480   0.951   2.509 -2.5645  1.3263  0.1051
 6347SOL     OW30673   2.249   2.647   3.694 -0.1497 -0.5864 -0.2169
 6347SOL    HW130674   2.265   2.577   3.757  0.9514  0.7220  0.9489
 6347SOL    HW230675   2.228   2.607   3.609 -1.8322  1.1106 -0.5933
 6348SOL     OW30676   3.229   4.705   9.428  0.1756 -0.1299 -0.2498
 6348SOL    HW130677   3.188   4.658   9.355  1.8473 -2.6821  0.4481
 6348SOL    HW230678   3.290   0.025   9.385 -0.4310  1.1384  0.6182
 6349SOL     OW30679   0.628   3.103   7.640 -0.5733 -0.0915  0.0964
 6349SOL    HW130680   0.717   3.134   7.656 -0.8329  0.1605  1.0547
 6349SOL    HW230681   0.570   3.150   7.699  0.5359  1.3468  0.0327
 6350SOL     OW30682   3.893   3.611   7.465 -0.6207  0.2808  0.0089
 6350SOL    HW130683   3.803   3.588   7.443 -0.7277  0.0976  0.6311
 6350SOL    HW230684   3.918   3.645   7.379  0.3726 -2.0761 -0.6363
 6351SOL     OW30685   2.766   4.410   4.185  0.5737  0.6550  0.0978
 6351SOL    HW130686   2.693   4.464   4.155  2.4995  4.8700  3.0394
 6351SOL    HW230687   2.733   4.330   4.143  0.0909  0.7074  0.3689
 6352SOL     OW30688   1.095   3.624   7.066 -0.0400 -0.1457 -0.0211
 6352SOL    HW130689   1.152   3.648   6.993 -0.4608 -3.8356 -1.5213
 6352SOL    HW230690   1.081   3.531   7.050  1.5163 -0.3981  0.1375
 6353SOL     OW30691   1.083   3.915   8.374  0.0357 -0.0356 -0.0529
 6353SOL    HW130692   1.049   3.862   8.446 -1.6098  1.4328  0.2623
 6353SOL    HW230693   1.061   3.867   8.295 -3.7885  0.3225  0.7681
 6354SOL     OW30694   1.084   4.272   0.777  0.7099 -0.7915  0.4579
 6354SOL    HW130695   1.039   4.356   0.782  0.5459 -0.7981 -0.8754
 6354SOL    HW230696   1.162   4.293   0.827  0.3165  0.7686  0.4169
 6355SOL     OW30697   2.494   4.318  15.763  0.2389  0.1888  0.0019
 6355SOL    HW130698   2.438   4.324  15.686  1.2004  0.3913 -0.6746
 6355SOL    HW230699   2.539   4.402  15.765 -1.0522  0.8377  1.9568
 6356SOL     OW30700   3.395   0.130   5.618 -0.5900  0.2084  0.5313
 6356SOL    HW130701   3.379   0.150   5.526  2.0149  0.6940  0.1641
 6356SOL    HW230702   3.350   0.046   5.625 -1.0046  0.4527  0.7399
 6357SOL     OW30703   1.368   0.911  12.410  0.2409  0.0517  0.0758
 6357SOL    HW130704   1.334   0.877  12.493  2.6148  2.3009  1.9789
 6357SOL    HW230705   1.460   0.936  12.424  1.6228 -3.5038 -2.6400
 6358SOL     OW30706   0.047   2.495   2.079 -0.4301 -0.2681  0.0393
 6358SOL    HW130707   4.737   2.542   2.011 -0.5052  0.9268  0.9184
 6358SOL    HW230708   0.056   2.414   2.029  0.1425 -0.1118 -0.1176
 6359SOL     OW30709   2.658   4.028   3.767 -0.0400  0.4017  0.0202
 6359SOL    HW130710   2.690   3.940   3.751 -1.6120 -0.3254  0.8530
 6359SOL    HW230711   2.592   4.034   3.697  1.4382 -1.0922 -1.4886
 6360SOL     OW30712   1.531   3.145   5.002  0.4927  0.4535 -0.6394
 6360SOL    HW130713   1.448   3.192   4.996  1.0694  1.3479 -1.5248
 6360SOL    HW230714   1.569   3.140   4.914 -2.6466  0.5469 -1.9939
 6361SOL     OW30715   1.042   1.205  16.817 -0.0593 -0.2110 -0.3509
 6361SOL    HW130716   0.948   1.217  16.831 -0.3566 -3.1765  0.2525
 6361SOL    HW230717   1.048   1.109  16.819  3.0594 -0.0172  0.1034
 6362SOL     OW30718   2.786   2.674   4.895  0.1623  0.1525  0.3147
 6362SOL    HW130719   2.691   2.674   4.906  0.2337  3.1913  0.8713
 6362SOL    HW230720   2.802   2.580   4.903 -1.3888 -0.1108  0.3512
 6363SOL     OW30721   1.700   1.768   2.442 -0.1633  0.3213  0.4048
 6363SOL    HW130722   1.684   1.718   2.522  0.2886 -2.6060 -1.3162
 6363SOL    HW230723   1.795   1.778   2.453 -0.3663  0.0482  2.4593
 6364SOL     OW30724   2.775   0.959  16.924 -0.0917  0.4305 -0.6538
 6364SOL    HW130725   2.811   0.957  17.012  1.7507  1.3072 -1.3918
 6364SOL    HW230726   2.855   0.925  16.885 -0.6315  0.1918 -1.5634
 6365SOL     OW30727   0.878   3.746   4.618  0.5754 -0.4324  0.2271
 6365SOL    HW130728   0.914   3.702   4.694  0.6879 -0.2693  0.2677
 6365SOL    HW230729   0.788   3.719   4.637  0.4361 -0.2183 -0.1134
 6366SOL     OW30730   3.729   1.987   0.004 -0.0768 -0.2752  0.7447
 6366SOL    HW130731   3.813   2.023   0.032  0.5063 -0.4403 -0.7919
 6366SOL    HW230732   3.676   2.008   0.081 -1.0620 -0.7520  0.1934
 6367SOL     OW30733   2.425   0.758   2.799  0.2848 -0.1445 -0.3622
 6367SOL    HW130734   2.356   0.695   2.783  1.3312 -0.8541 -2.0790
 6367SOL    HW230735   2.385   0.810   2.869 -1.2057  0.2406 -1.5246
 6368SOL     OW30736   0.559   0.943   7.039  0.7309  0.3634  0.0214
 6368SOL    HW130737   0.531   0.915   7.126 -0.8071  1.9090  0.0131
 6368SOL    HW230738   0.481   0.918   6.989  1.9800 -2.2201 -0.6553
 6369SOL     OW30739   4.546   1.767  16.310 -0.0117 -0.4416  0.2358
 6369SOL    HW130740   4.455   1.745  16.290  0.3105 -1.3304 -0.2251
 6369SOL    HW230741   4.566   1.714  16.388 -1.3117 -0.7242  0.3785
 6370SOL     OW30742   4.213   3.831  11.104  0.3866 -0.1380  0.3135
 6370SOL    HW130743   4.273   3.792  11.168  1.2195  0.6920  0.0292
 6370SOL    HW230744   4.141   3.847  11.166  0.4146 -0.5397  0.4504
 6371SOL     OW30745   3.765   4.396   6.569  0.4038 -0.5909 -0.0042
 6371SOL    HW130746   3.772   4.388   6.664 -1.3087  0.2323  0.1951
 6371SOL    HW230747   3.815   4.318   6.545  1.8097 -0.0460  1.1866
 6372SOL     OW30748   3.592   4.683   9.657  0.7723 -0.4505 -0.1790
 6372SOL    HW130749   3.574   4.696   9.750  0.6698  1.4831 -0.4631
 6372SOL    HW230750   3.622   4.594   9.670  1.4300  0.2355  2.9817
 6373SOL     OW30751   3.565   3.611  13.851  0.0382  0.4019 -0.6950
 6373SOL    HW130752   3.534   3.526  13.879  2.8963 -0.5473 -0.3611
 6373SOL    HW230753   3.516   3.658  13.918 -0.5884 -1.6439  0.2545
 6374SOL     OW30754   0.644   0.394  15.069  0.0010 -0.5954 -0.0798
 6374SOL    HW130755   0.597   0.325  15.116  1.8255 -0.6258  1.6974
 6374SOL    HW230756   0.595   0.405  14.987  1.7544 -2.1899 -1.3561
 6375SOL     OW30757   2.875   2.879   7.461 -0.9299  0.3830  0.3107
 6375SOL    HW130758   2.832   2.798   7.487  0.2047 -0.1936  0.3736
 6375SOL    HW230759   2.816   2.897   7.388  1.5590  2.3969 -1.2099
 6376SOL     OW30760   0.654   0.501   5.194 -0.2795 -0.6197 -0.6820
 6376SOL    HW130761   0.627   0.424   5.244 -1.7423  0.7382  0.5882
 6376SOL    HW230762   0.666   0.465   5.107  0.1050 -3.6302  0.6146
 6377SOL     OW30763   1.320   1.729   2.857  0.4723 -0.0846 -0.2433
 6377SOL    HW130764   1.245   1.783   2.883  1.6467  0.4860  1.9184
 6377SOL    HW230765   1.394   1.788   2.862 -2.0574  3.0066  0.5266
 6378SOL     OW30766   1.098   2.923   3.462  0.4750 -0.0406 -0.2048
 6378SOL    HW130767   1.190   2.949   3.470  0.0925  1.2102  0.2138
 6378SOL    HW230768   1.042   2.997   3.488  3.0746  2.5870 -2.1138
 6379SOL     OW30769   2.343   2.049   1.531  0.4483 -0.4080  0.0774
 6379SOL    HW130770   2.320   2.026   1.441  3.0172  0.6178 -0.8374
 6379SOL    HW230771   2.366   1.966   1.573  3.0400 -0.4159 -1.3805
 6380SOL     OW30772   3.657   4.304   3.294  0.6834 -0.2252  0.9764
 6380SOL    HW130773   3.732   4.262   3.252 -2.3098 -1.4208 -3.0439
 6380SOL    HW230774   3.639   4.252   3.372 -1.6514 -1.4459 -0.3799
 6381SOL     OW30775   2.199   3.356  14.466  0.2465 -0.1771 -0.6286
 6381SOL    HW130776   2.146   3.337  14.543 -0.5648  0.5586 -1.0064
 6381SOL    HW230777   2.273   3.297  14.478 -0.2969 -0.5194  0.9823
 6382SOL     OW30778   0.163   3.682  14.794  0.1588 -0.0592 -0.3876
 6382SOL    HW130779   0.234   3.674  14.730 -0.1357 -2.3434 -0.4181
 6382SOL    HW230780   0.113   3.614  14.750  0.4846  0.6363 -1.8254
 6383SOL     OW30781   2.960   0.794  13.237 -0.0222  0.4797  0.3408
 6383SOL    HW130782   2.971   0.831  13.325 -1.0754 -2.1246  1.5651
 6383SOL    HW230783   3.037   0.829  13.192  0.3910 -1.0246 -0.1261
 6384SOL     OW30784   1.191   1.805   6.109 -0.8187 -0.2911  0.0619
 6384SOL    HW130785   1.142   1.850   6.040 -1.6478 -0.8450  0.2887
 6384SOL    HW230786   1.210   1.719   6.069  1.1393 -0.5388  1.5535
 6385SOL     OW30787   4.635   4.604   1.604  0.0542 -0.2708 -0.1031
 6385SOL    HW130788   4.603   4.538   1.665 -0.5456  0.2142  0.1086
 6385SOL    HW230789   4.683   4.658   1.666 -1.1615 -0.6455  1.1682
 6386SOL     OW30790   0.998   3.415   2.909  0.3309 -0.2296  0.2443
 6386SOL    HW130791   0.990   3.383   2.998 -1.7829  0.8888  0.4527
 6386SOL    HW230792   1.009   3.509   2.923 -1.2088  0.1838 -1.2965
 6387SOL     OW30793   4.629   3.523   8.750 -0.1218  0.0082  0.2781
 6387SOL    HW130794   4.713   3.520   8.795 -1.2085  0.5328  2.3566
 6387SOL    HW230795   4.622   3.611   8.712 -1.6466 -0.2438 -0.0091
 6388SOL     OW30796   4.674   4.128   0.620  0.2271 -0.4771 -0.1384
 6388SOL    HW130797   4.646   4.038   0.639 -1.3491  0.2281  0.9188
 6388SOL    HW230798   0.015   4.142   0.671  0.5631  1.9067 -1.3367
 6389SOL     OW30799   4.654   0.136   3.455  0.3843 -0.0931  0.4288
 6389SOL    HW130800   0.003   0.110   3.482 -0.7045 -1.8512  2.3012
 6389SOL    HW230801   4.615   0.050   3.438 -0.3233  0.7706 -2.2920
 6390SOL     OW30802   2.109   0.226  13.028 -0.0679  0.0715  0.4212
 6390SOL    HW130803   2.124   0.155  12.965  1.8225 -1.2478  2.3227
 6390SOL    HW230804   2.142   0.302  12.981  0.4786 -0.4509 -0.0386
 6391SOL     OW30805   3.866   4.479   6.207 -0.3485 -0.0577  0.0589
 6391SOL    HW130806   3.937   4.423   6.239 -0.6048 -0.1767  0.4159
 6391SOL    HW230807   3.807   4.407   6.187 -1.3293  0.4057  1.3740
 6392SOL     OW30808   4.009   2.354   4.619 -0.4370 -0.4184 -0.6845
 6392SOL    HW130809   4.032   2.444   4.642  2.0944 -0.4900 -2.8338
 6392SOL    HW230810   3.985   2.314   4.702  1.2516  2.0467  0.9800
 6393SOL     OW30811   3.203   2.726   4.309  0.1787 -0.2019  0.3429
 6393SOL    HW130812   3.167   2.807   4.274 -0.5884  1.3694  4.8594
 6393SOL    HW230813   3.294   2.745   4.284 -0.4385  2.1865 -0.0774
 6394SOL     OW30814   1.538   0.270   4.875 -0.6517 -0.0937 -0.9587
 6394SOL    HW130815   1.613   0.248   4.930 -0.8123 -3.2816 -2.0060
 6394SOL    HW230816   1.579   0.269   4.788  0.0563 -1.0156 -0.6130
 6395SOL     OW30817   1.961   1.216  11.471 -0.1285  0.0396 -0.4219
 6395SOL    HW130818   1.894   1.170  11.421 -1.2060  0.8341  0.3196
 6395SOL    HW230819   1.946   1.162  11.549  2.6119  2.2395  1.6310
 6396SOL     OW30820   3.765   0.544   0.711 -0.2242 -0.4449  0.4162
 6396SOL    HW130821   3.799   0.461   0.744  2.5301  0.5111  0.0006
 6396SOL    HW230822   3.844   0.572   0.665  0.6635 -1.6218  1.2163
 6397SOL     OW30823   4.652   3.041   6.272 -0.1981 -0.0165  0.1763
 6397SOL    HW130824   4.626   3.033   6.180 -0.3518 -1.4613  0.3452
 6397SOL    HW230825   4.664   2.949   6.295 -1.2720  0.1353  1.3599
 6398SOL     OW30826   2.517   2.615   7.735  0.4343 -0.0259 -0.1845
 6398SOL    HW130827   2.481   2.637   7.821  0.4303 -1.7614  0.2731
 6398SOL    HW230828   2.522   2.519   7.740  0.3092 -0.1358 -2.3915
 6399SOL     OW30829   2.574   2.642   4.052  0.3386  0.0052 -0.2850
 6399SOL    HW130830   2.513   2.698   4.099  2.2287  2.5614 -0.8585
 6399SOL    HW230831   2.535   2.647   3.965 -1.2963 -2.6843  0.2949
 6400SOL     OW30832   0.916   1.850   3.971 -0.0961  0.1379 -0.5919
 6400SOL    HW130833   0.990   1.868   3.912  0.5124  0.6317  0.3224
 6400SOL    HW230834   0.847   1.879   3.912 -0.3811 -0.0920 -0.3684
 6401SOL     OW30835   4.042   3.831   8.238  0.4017  0.4445  0.2775
 6401SOL    HW130836   4.126   3.876   8.247  0.4064  0.5582 -0.3396
 6401SOL    HW230837   3.990   3.903   8.272 -0.3365 -0.5468  1.2434
 6402SOL     OW30838   0.516   0.403   1.132 -0.6565  0.0293 -0.6147
 6402SOL    HW130839   0.442   0.427   1.076 -0.5388  2.0018  0.0430
 6402SOL    HW230840   0.465   0.393   1.212 -0.2609  0.2300 -0.3367
 6403SOL     OW30841   0.856   2.042  17.675 -0.0979  0.1930  0.2491
 6403SOL    HW130842   0.893   2.090  17.749  0.8430  0.9957 -0.7443
 6403SOL    HW230843   0.815   1.974  17.729 -1.9132  1.1231  0.0359
 6404SOL     OW30844   2.808   0.803   2.335  0.2776 -0.2783  0.2031
 6404SOL    HW130845   2.802   0.898   2.341  0.0834 -0.4421  2.4682
 6404SOL    HW230846   2.725   0.794   2.383  0.1931 -0.9656 -0.0713
 6405SOL     OW30847   3.775   2.124   7.522 -0.0298  0.0751  0.3384
 6405SOL    HW130848   3.785   2.043   7.472  0.9984 -0.9111  2.1108
 6405SOL    HW230849   3.687   2.158   7.505 -0.2480 -1.0815 -0.8369
 6406SOL     OW30850   2.097   1.363  14.931 -0.4066 -0.5222 -0.2257
 6406SOL    HW130851   2.135   1.354  14.844 -1.8737 -1.6959 -0.7384
 6406SOL    HW230852   2.124   1.279  14.969  0.6283 -0.3673 -0.6183
 6407SOL     OW30853   3.827   0.789  12.521  0.7180  0.4704  0.2161
 6407SOL    HW130854   3.858   0.844  12.593  0.2952  0.7417  0.1933
 6407SOL    HW230855   3.733   0.795  12.542  0.1880 -2.3138 -1.4468
 6408SOL     OW30856   4.487   1.432   5.958 -0.4766 -0.1297 -0.0282
 6408SOL    HW130857   4.409   1.474   5.995 -1.6905 -4.0595  1.8973
 6408SOL    HW230858   4.540   1.501   5.917  1.4514 -0.6230  1.6495
 6409SOL     OW30859   3.391   1.771   8.247  0.7181 -0.5148 -0.4754
 6409SOL    HW130860   3.453   1.720   8.298  2.7752  3.7442  1.2570
 6409SOL    HW230861   3.353   1.826   8.315 -3.4888  0.5031 -3.6072
 6410SOL     OW30862   1.253   3.168   9.690  0.3477  0.4063 -0.6402
 6410SOL    HW130863   1.348   3.161   9.699  0.5490  0.5688 -2.5463
 6410SOL    HW230864   1.249   3.263   9.687 -4.0988  0.2679  0.8136
 6411SOL     OW30865   2.859   4.368   5.387 -0.7005  0.3472  0.0727
 6411SOL    HW130866   2.874   4.446   5.334 -2.5817  2.2725  2.3839
 6411SOL    HW230867   2.766   4.347   5.379 -0.3248  0.5661 -5.2704
 6412SOL     OW30868   4.461   1.413   7.182 -0.4761 -0.6499  0.3489
 6412SOL    HW130869   4.514   1.413   7.262 -0.4115 -1.0667  0.3011
 6412SOL    HW230870   4.487   1.489   7.130  0.4446 -1.5790 -0.5445
 6413SOL     OW30871   1.960   2.614  16.720  0.1897  0.3309 -0.2155
 6413SOL    HW130872   2.011   2.680  16.672  0.3421 -0.1130 -0.6618
 6413SOL    HW230873   1.874   2.631  16.680  0.1764  0.4746 -0.1286
 6414SOL     OW30874   0.167   1.119   3.079  0.2475  0.0430  0.1801
 6414SOL    HW130875   0.171   1.094   2.987 -1.1801 -1.1115  0.4392
 6414SOL    HW230876   0.088   1.171   3.066 -0.9886 -1.6474  0.9401
 6415SOL     OW30877   1.340   3.963  14.644  0.3739 -0.1651 -0.4925
 6415SOL    HW130878   1.284   4.021  14.594 -0.4635 -0.3293  0.2662
 6415SOL    HW230879   1.355   4.011  14.726 -2.3673 -0.8730  0.4232
 6416SOL     OW30880   0.582   0.476  15.382 -0.1016 -0.3350 -0.2850
 6416SOL    HW130881   0.638   0.429  15.320  0.6221  0.9445 -0.6057
 6416SOL    HW230882   0.629   0.559  15.387 -1.6417  0.6089 -1.3475
 6417SOL     OW30883   3.943   0.506   4.116 -0.0111  0.8153 -0.6819
 6417SOL    HW130884   3.983   0.593   4.110 -1.2855  1.5624  1.3363
 6417SOL    HW230885   4.021   0.451   4.115 -0.3476  0.3025  0.6231
 6418SOL     OW30886   1.651   0.052   3.890  0.2096  0.1634 -0.5683
 6418SOL    HW130887   1.743   0.025   3.886 -0.4193 -2.2474  1.0674
 6418SOL    HW230888   1.658   0.146   3.874  2.3230 -0.4249 -3.1706
 6419SOL     OW30889   4.307   1.979   8.353 -0.0786  0.6843  0.2043
 6419SOL    HW130890   4.352   2.045   8.405  1.9433  0.5382 -1.3964
 6419SOL    HW230891   4.379   1.918   8.339  0.7103  1.3538  1.3641
 6420SOL     OW30892   4.486   2.573   2.814  0.0291  0.2037 -0.5684
 6420SOL    HW130893   4.437   2.633   2.869 -2.3559 -1.2486 -1.1404
 6420SOL    HW230894   4.569   2.618   2.797  1.3018 -1.4973  1.1863
 6421SOL     OW30895   1.637   1.628   3.079 -0.2279 -0.1508 -0.6174
 6421SOL    HW130896   1.681   1.681   3.146  0.4135  0.0478 -1.1971
 6421SOL    HW230897   1.561   1.590   3.122 -0.5570 -1.8534 -2.6981
 6422SOL     OW30898   4.208   0.213   4.485 -0.1872 -0.4653 -0.4743
 6422SOL    HW130899   4.119   0.245   4.502 -0.1727 -0.1539 -0.9784
 6422SOL    HW230900   4.214   0.124   4.519 -0.4658 -0.2107  0.2467
 6423SOL     OW30901   0.744   4.691   1.363 -0.3290 -0.1640  0.2829
 6423SOL    HW130902   0.794   0.034   1.372 -1.5668  0.5954  0.2590
 6423SOL    HW230903   0.683   4.733   1.302  1.9908  1.1421 -1.1512
 6424SOL     OW30904   4.732   2.600  17.662 -0.7019  0.2126 -0.8034
 6424SOL    HW130905   0.026   2.530  17.605 -2.0005 -0.9777 -0.0597
 6424SOL    HW230906   4.682   2.649  17.597 -0.0324 -2.4156 -3.3496
 6425SOL     OW30907   3.660   3.138   4.226  0.2243 -0.1045  0.2435
 6425SOL    HW130908   3.620   3.153   4.140 -1.0139 -0.4854  0.7516
 6425SOL    HW230909   3.602   3.185   4.287 -1.1678 -0.3416 -0.9015
 6426SOL     OW30910   0.707   3.287   8.060  0.5451  0.7399 -0.2529
 6426SOL    HW130911   0.756   3.366   8.082 -0.9835  1.8958 -1.0339
 6426SOL    HW230912   0.779   3.241   8.017 -0.2384 -0.1332 -0.6261
 6427SOL     OW30913   1.604   2.664   2.366 -0.3630 -0.2610 -0.0198
 6427SOL    HW130914   1.511   2.650   2.347 -0.6377  0.2328  0.9630
 6427SOL    HW230915   1.626   2.746   2.320  2.7989  0.9499  3.7198
 6428SOL     OW30916   0.956   1.478   3.947  0.0688 -0.4330  0.0234
 6428SOL    HW130917   0.890   1.483   3.878  0.7619  0.3845 -0.5952
 6428SOL    HW230918   0.966   1.573   3.959  0.7389 -0.6294  0.9782
 6429SOL     OW30919   1.743   4.149   9.568 -0.0604 -0.2935  0.5931
 6429SOL    HW130920   1.691   4.119   9.493 -0.0203 -1.7111  1.1470
 6429SOL    HW230921   1.702   4.224   9.611  1.2757  0.1046  1.1645
 6430SOL     OW30922   3.192   0.558  15.456  0.3488  0.1903  0.0394
 6430SOL    HW130923   3.249   0.545  15.380 -0.4084 -1.0278 -0.3156
 6430SOL    HW230924   3.240   0.562  15.538  0.1448  1.1280  0.1193
 6431SOL     OW30925   2.841   1.417   7.445  0.1498 -0.0939 -0.5145
 6431SOL    HW130926   2.832   1.477   7.370 -1.5280  1.7378  1.1541
 6431SOL    HW230927   2.750   1.388   7.437 -0.5644  2.1291 -0.6411
 6432SOL     OW30928   3.126   4.354  17.245 -0.0479 -0.1667  0.1243
 6432SOL    HW130929   3.113   4.264  17.213  1.2359 -1.1755  2.4449
 6432SOL    HW230930   3.215   4.351  17.281 -0.2167 -2.0604  0.3937
 6433SOL     OW30931   3.901   3.986   8.403 -0.2074  0.1735  0.2043
 6433SOL    HW130932   3.808   3.982   8.425  0.6728  3.2403  4.4443
 6433SOL    HW230933   3.922   4.070   8.443  1.8948 -0.5648  0.6637
 6434SOL     OW30934   2.505   2.319   1.252 -0.4128  0.0280 -0.0550
 6434SOL    HW130935   2.472   2.253   1.190 -1.9956 -1.0239  1.9294
 6434SOL    HW230936   2.583   2.351   1.207  0.9359 -1.0819  1.4892
 6435SOL     OW30937   1.434   4.641   9.713  0.3168 -0.3963 -0.1399
 6435SOL    HW130938   1.386   4.601   9.786  0.9475 -3.0920 -1.1986
 6435SOL    HW230939   1.468   4.715   9.763 -1.1477  0.6755 -0.7513
 6436SOL     OW30940   1.199   1.271  14.759  0.2061  0.0058 -0.0099
 6436SOL    HW130941   1.294   1.279  14.767  0.2694 -1.3280  0.4698
 6436SOL    HW230942   1.195   1.208  14.687  1.0383 -0.0341 -0.0154
 6437SOL     OW30943   0.264   1.313  16.577  0.3860  0.3175  0.2281
 6437SOL    HW130944   0.240   1.349  16.662  0.1042  0.7859 -0.0477
 6437SOL    HW230945   0.180   1.305  16.531  0.5481 -1.5217  0.2642
 6438SOL     OW30946   2.647   2.938   4.144 -0.0837 -0.1768  0.2539
 6438SOL    HW130947   2.573   2.913   4.199  0.1748  2.2034  1.6966
 6438SOL    HW230948   2.676   3.024   4.173 -0.1685  0.2955 -1.0784
 6439SOL     OW30949   0.005   0.531   0.632  0.5515  0.2232 -0.2595
 6439SOL    HW130950   4.673   0.559   0.575  1.3564  0.2547 -1.2423
 6439SOL    HW230951   0.045   0.475   0.566 -1.1284  1.4990 -2.3788
 6440SOL     OW30952   0.667   3.899   3.342 -0.6154  0.1119  0.3188
 6440SOL    HW130953   0.605   3.874   3.410  0.6066 -0.3845  1.2369
 6440SOL    HW230954   0.706   3.978   3.381 -1.9576  1.7497 -1.6214
 6441SOL     OW30955   3.197   1.086   9.652  0.0043 -0.0207  0.7702
 6441SOL    HW130956   3.119   1.142   9.657  1.0291  1.5522 -0.7929
 6441SOL    HW230957   3.212   1.080   9.558  0.5577 -1.1605  0.9344
 6442SOL     OW30958   2.082   2.600   2.595  0.2476  0.9853  0.5237
 6442SOL    HW130959   2.001   2.565   2.557  2.5661  0.7369 -4.2412
 6442SOL    HW230960   2.045   2.670   2.648 -0.3202 -1.2052  2.9932
 6443SOL     OW30961   3.434   3.428  10.929 -0.4842  0.0994 -0.4690
 6443SOL    HW130962   3.374   3.355  10.942  0.5890 -1.1156 -2.2249
 6443SOL    HW230963   3.439   3.454  11.021  1.0395  0.1734 -0.5660
 6444SOL     OW30964   0.354   2.158   2.514  0.2948  0.7159  0.2008
 6444SOL    HW130965   0.413   2.226   2.481  0.4933  1.2859  1.7182
 6444SOL    HW230966   0.420   2.100   2.552 -1.6765 -1.5852  0.0693
 6445SOL     OW30967   0.442   2.167   8.347  0.6423 -0.2625 -0.5112
 6445SOL    HW130968   0.516   2.135   8.295  0.7709  0.3388 -0.6944
 6445SOL    HW230969   0.468   2.150   8.438 -0.4836  0.8042  0.0051
 6446SOL     OW30970   1.232   0.189  12.125 -0.3936 -0.2180  0.5298
 6446SOL    HW130971   1.183   0.239  12.190  0.9545  2.7633 -0.7318
 6446SOL    HW230972   1.156   0.153  12.079 -0.4104  0.4739  0.0223
 6447SOL     OW30973   1.271   3.058   7.290  0.0402  0.4855 -0.2520
 6447SOL    HW130974   1.260   3.150   7.265  0.1160  0.4352 -0.4770
 6447SOL    HW230975   1.360   3.052   7.325  0.6941  3.0639 -1.4567
 6448SOL     OW30976   1.547   3.790   6.762 -0.2824 -0.0607  0.4831
 6448SOL    HW130977   1.578   3.813   6.849 -0.5916 -0.2420  0.6405
 6448SOL    HW230978   1.604   3.842   6.705  0.4284 -1.2325  0.1146
 6449SOL     OW30979   3.575   0.740  16.922  0.6756  0.2202  0.4136
 6449SOL    HW130980   3.649   0.761  16.866 -0.0666 -1.1061 -1.0574
 6449SOL    HW230981   3.573   0.645  16.930 -2.8635  0.2021 -0.3617
 6450SOL     OW30982   2.211   2.147  11.475 -0.1214  0.4249 -0.2623
 6450SOL    HW130983   2.156   2.200  11.533 -0.5373 -0.7528  0.4004
 6450SOL    HW230984   2.193   2.173  11.384 -0.0517 -2.6535 -1.1511
 6451SOL     OW30985   4.471   3.237  15.948 -0.1353 -0.3096 -0.2785
 6451SOL    HW130986   4.435   3.271  15.866 -1.4537 -1.7158 -0.2836
 6451SOL    HW230987   4.537   3.173  15.919 -1.0402 -0.0049 -2.9355
 6452SOL     OW30988   2.951   0.207   6.655  0.0573  0.5127  0.7758
 6452SOL    HW130989   3.008   0.204   6.578 -1.0382  2.5778 -0.1013
 6452SOL    HW230990   2.971   0.289   6.699  0.8965  1.3495 -1.1875
 6453SOL     OW30991   2.575   3.661   6.780  0.0003  0.1519 -0.0199
 6453SOL    HW130992   2.525   3.742   6.776  0.8076  0.6664  0.5015
 6453SOL    HW230993   2.631   3.677   6.704 -0.7385 -0.8306 -0.7787
 6454SOL     OW30994   3.423   1.106  14.965 -0.1317 -0.0813  0.3709
 6454SOL    HW130995   3.486   1.079  15.032 -1.0457 -0.7624  0.9524
 6454SOL    HW230996   3.451   1.045  14.897 -0.3167  1.0931 -0.7476
 6455SOL     OW30997   0.175   0.793  10.114 -0.1726 -0.0193  0.0695
 6455SOL    HW130998   0.204   0.702  10.115  3.4837  1.1195 -0.1273
 6455SOL    HW230999   0.254   0.839  10.144  1.6295 -2.9763 -0.1874
 6456SOL     OW31000   4.362   3.060   3.018 -0.0261  0.1899  0.0903
 6456SOL    HW131001   4.350   3.121   2.946 -1.6969  1.3840  1.3815
 6456SOL    HW231002   4.424   3.109   3.072  0.5111  1.5488 -1.7695
 6457SOL     OW31003   1.612   3.807   4.718 -0.1666  0.4042  0.1843
 6457SOL    HW131004   1.573   3.854   4.792  3.1266  1.7284  1.1127
 6457SOL    HW231005   1.678   3.872   4.694  0.8653 -0.8568 -0.4040
 6458SOL     OW31006   2.823   1.584   2.226 -0.5739 -0.3596 -0.1611
 6458SOL    HW131007   2.734   1.573   2.259 -0.9478  1.9154 -0.4578
 6458SOL    HW231008   2.856   1.495   2.213 -0.0795 -0.2610  0.4353
 6459SOL     OW31009   1.092   3.251   0.692 -0.5327  0.0547 -0.4590
 6459SOL    HW131010   1.031   3.241   0.618  0.9007 -1.8039 -1.3998
 6459SOL    HW231011   1.148   3.319   0.655 -0.0558  0.3456  0.8251
 6460SOL     OW31012   1.095   2.894   7.153  0.2977 -0.1062  0.0065
 6460SOL    HW131013   1.174   2.949   7.159 -0.8777  1.4321  1.5176
 6460SOL    HW231014   1.082   2.891   7.248 -0.0660  0.8333 -0.0159
 6461SOL     OW31015   2.780   3.448  15.114 -0.5679 -0.2845  0.6102
 6461SOL    HW131016   2.699   3.491  15.141 -0.6458 -1.4807  2.3352
 6461SOL    HW231017   2.814   3.496  15.039 -1.7179 -0.6919 -0.1681
 6462SOL     OW31018   1.336   1.401   4.010 -0.1186  0.4468  0.2787
 6462SOL    HW131019   1.285   1.381   4.088 -0.3484  3.4708  0.9041
 6462SOL    HW231020   1.378   1.319   3.984 -0.5957 -0.1240  1.3023
 6463SOL     OW31021   1.043   1.048   5.956 -0.0466  0.3344 -0.3725
 6463SOL    HW131022   1.024   1.141   5.944 -1.3663  0.0058 -0.8290
 6463SOL    HW231023   1.122   1.046   5.901 -0.1733  2.2223 -0.6368
 6464SOL     OW31024   1.204   1.507   3.476 -0.0264  0.0898 -0.2983
 6464SOL    HW131025   1.273   1.510   3.542  0.7694 -1.6492 -1.0472
 6464SOL    HW231026   1.249   1.547   3.402  0.3404 -0.7128 -0.5054
 6465SOL     OW31027   4.070   2.064   3.782  0.7016  0.2606 -0.6474
 6465SOL    HW131028   4.121   2.102   3.853  2.4872  0.0679 -1.8292
 6465SOL    HW231029   4.110   1.979   3.763  0.5633 -0.2534  1.3222
 6466SOL     OW31030   2.037   1.184   9.563 -0.9413 -0.2268 -0.1220
 6466SOL    HW131031   1.966   1.173   9.501 -1.6233  2.5070  0.1513
 6466SOL    HW231032   2.074   1.098   9.583  1.4816  1.5186  2.9991
 6467SOL     OW31033   1.117   1.454  14.560  0.3049  0.0625 -0.3777
 6467SOL    HW131034   1.129   1.427  14.652 -0.7565 -0.9161 -0.5264
 6467SOL    HW231035   1.206   1.462  14.526  0.4322 -2.6375 -0.6464
 6468SOL     OW31036   4.422   2.958   6.840  0.0120  0.4639  0.0849
 6468SOL    HW131037   4.333   2.959   6.804 -0.2642  0.8538  0.7656
 6468SOL    HW231038   4.484   2.949   6.768 -0.8435  3.1154 -0.9495
 6469SOL     OW31039   2.762   0.296   8.116  0.0556 -0.0885 -0.3399
 6469SOL    HW131040   2.834   0.357   8.129 -0.0984 -0.2536  1.2581
 6469SOL    HW231041   2.717   0.324   8.037 -0.1834 -1.8768 -0.8477
 6470SOL     OW31042   4.301   2.413   2.705 -0.0974 -0.0221  0.5335
 6470SOL    HW131043   4.372   2.474   2.725 -0.0689  0.1637 -0.1651
 6470SOL    HW231044   4.250   2.414   2.786  1.4003  2.6120  1.4399
 6471SOL     OW31045   0.670   2.133  16.391  0.2186  0.3238  0.1282
 6471SOL    HW131046   0.746   2.177  16.354  0.7220 -1.1435 -0.5833
 6471SOL    HW231047   0.607   2.205  16.385  2.2110  2.1236  0.9121
 6472SOL     OW31048   1.413   1.155   6.169 -0.2563  0.0758 -0.1241
 6472SOL    HW131049   1.326   1.191   6.183 -0.8612 -1.6426  0.5547
 6472SOL    HW231050   1.434   1.186   6.081 -0.9065 -0.6530 -0.5369
 6473SOL     OW31051   0.709   4.203  11.573 -0.0667  0.1490  0.1772
 6473SOL    HW131052   0.719   4.298  11.564 -0.9701  0.1404 -0.8201
 6473SOL    HW231053   0.742   4.192  11.662 -1.1534 -2.2553  0.2870
 6474SOL     OW31054   2.242   0.546   5.779  0.3369 -0.1707  0.6409
 6474SOL    HW131055   2.304   0.473   5.774  0.2578 -0.1849 -0.1055
 6474SOL    HW231056   2.285   0.619   5.822  0.6826 -0.1699  0.2872
 6475SOL     OW31057   1.615   1.446  16.344  0.7207  0.0151  0.2424
 6475SOL    HW131058   1.526   1.417  16.365  0.0325  1.5937 -0.4481
 6475SOL    HW231059   1.651   1.438  16.432 -0.6583  1.5273  0.9591
 6476SOL     OW31060   1.850   1.088   6.430 -0.2429 -0.6467 -0.0441
 6476SOL    HW131061   1.798   1.169   6.434 -0.8325 -1.0338  0.0248
 6476SOL    HW231062   1.818   1.058   6.345 -1.5973 -0.3885  0.3649
 6477SOL     OW31063   2.636   2.176   3.026  0.4190 -0.4739 -0.3352
 6477SOL    HW131064   2.586   2.152   3.104 -0.5299  0.3898 -0.6779
 6477SOL    HW231065   2.707   2.226   3.066 -0.7508  0.4924  0.5305
 6478SOL     OW31066   0.083   2.852   2.957 -0.5399  0.0744  0.3502
 6478SOL    HW131067   0.117   2.894   3.035 -1.4813 -1.2417  1.4663
 6478SOL    HW231068   4.727   2.868   2.957 -0.6143 -0.3545 -0.0675
 6479SOL     OW31069   2.750   2.563   6.763  0.3348  0.1423 -0.3748
 6479SOL    HW131070   2.690   2.599   6.828  2.0121 -1.1665  1.8960
 6479SOL    HW231071   2.784   2.487   6.809 -1.1297 -0.2540  0.0468
 6480SOL     OW31072   1.847   1.136   9.357  0.6143 -0.2710 -0.0097
 6480SOL    HW131073   1.830   1.058   9.410 -0.2869 -0.0611  0.0135
 6480SOL    HW231074   1.789   1.124   9.282 -1.0283 -2.2173  1.5676
 6481SOL     OW31075   0.954   2.267   1.976 -0.2116 -0.0399 -0.1483
 6481SOL    HW131076   1.041   2.305   1.990  0.3277 -0.6571 -1.8758
 6481SOL    HW231077   0.964   2.178   2.011  1.5095 -0.4097 -1.6131
 6482SOL     OW31078   0.057   3.887  10.499 -0.0229  0.5458 -0.0099
 6482SOL    HW131079   0.085   3.796  10.513 -1.8832  0.0244  0.3456
 6482SOL    HW231080   4.708   3.876  10.461 -0.7118 -0.1067  1.7500
 6483SOL     OW31081   1.242   1.853   6.785 -0.2159  0.0970 -0.5723
 6483SOL    HW131082   1.270   1.769   6.822  1.7710  1.2828  0.6502
 6483SOL    HW231083   1.328   1.886   6.759 -0.1956 -1.0617 -1.9956
 6484SOL     OW31084   3.045   3.374   6.649  0.2067 -0.2578  0.4215
 6484SOL    HW131085   3.082   3.299   6.603  1.8738  0.5271  0.4591
 6484SOL    HW231086   3.002   3.335   6.725 -1.8899  1.2430 -0.0055
 6485SOL     OW31087   0.451   4.694   5.362  0.2493 -0.7046 -0.5375
 6485SOL    HW131088   0.542   4.682   5.336 -0.1863 -2.5371 -1.2260
 6485SOL    HW231089   0.450   0.050   5.374  0.2090 -0.6129 -1.2583
 6486SOL     OW31090   3.547   2.659  14.253 -0.3454 -0.2363  0.2016
 6486SOL    HW131091   3.452   2.659  14.242 -0.5240  0.3195  1.7224
 6486SOL    HW231092   3.568   2.699  14.337  2.6529  0.6859 -0.9606
 6487SOL     OW31093   0.677   1.409   3.394 -0.2307  0.2320  0.4500
 6487SOL    HW131094   0.672   1.316   3.372 -0.9734  0.5796 -0.7848
 6487SOL    HW231095   0.772   1.419   3.387 -0.4337  1.9835  0.2730
 6488SOL     OW31096   0.311   4.659   1.264 -0.4829 -0.2235  0.0099
 6488SOL    HW131097   0.363   4.715   1.322 -2.3230  2.8335 -1.2647
 6488SOL    HW231098   0.253   4.625   1.332 -1.6967  0.4421 -0.6931
 6489SOL     OW31099   4.575   4.236   7.991 -0.4532  0.0427  0.6425
 6489SOL    HW131100   4.580   4.280   7.906 -0.6172  0.1310  0.6777
 6489SOL    HW231101   4.668   4.248   8.010 -0.1774 -0.2922 -0.5303
 6490SOL     OW31102   0.438   4.164  10.464  0.0827 -0.3848  0.5169
 6490SOL    HW131103   0.406   4.136  10.379 -2.0399 -1.0518  1.5537
 6490SOL    HW231104   0.516   4.109  10.472 -0.1705 -0.8806 -0.4016
 6491SOL     OW31105   1.274   2.409   1.107  0.1708  0.5181 -0.1642
 6491SOL    HW131106   1.348   2.399   1.047 -0.7371  1.7854 -1.4838
 6491SOL    HW231107   1.226   2.481   1.067  2.0609  0.1799 -3.0536
 6492SOL     OW31108   0.873   0.892   6.717 -0.2818 -0.1086 -0.3689
 6492SOL    HW131109   0.907   0.818   6.666  2.7678  2.3299 -1.8092
 6492SOL    HW231110   0.833   0.948   6.651 -0.8601 -0.7253 -0.5461
 6493SOL     OW31111   0.747   0.098   9.381  0.3684 -0.4249 -0.1949
 6493SOL    HW131112   0.694   0.096   9.460 -0.2663 -0.5813 -0.6239
 6493SOL    HW231113   0.704   0.162   9.325  1.3358  1.2950  1.0153
 6494SOL     OW31114   3.704   2.361   2.295  0.4541  0.5881  0.2909
 6494SOL    HW131115   3.726   2.345   2.387 -0.4622  0.5521  0.4987
 6494SOL    HW231116   3.703   2.456   2.284  0.0436  0.5240 -0.2682
 6495SOL     OW31117   4.683   2.215   3.545 -0.1831 -0.5667 -0.1725
 6495SOL    HW131118   4.722   2.143   3.594  1.9407  0.5427 -0.2569
 6495SOL    HW231119   4.725   2.197   3.461  0.2011 -1.1780  0.1533
 6496SOL     OW31120   1.498   0.656   8.248  0.0065 -0.0429  0.0193
 6496SOL    HW131121   1.536   0.580   8.292  1.3368  2.0122  2.4028
 6496SOL    HW231122   1.440   0.623   8.180  0.6355  2.9313 -1.9405
 6497SOL     OW31123   2.836   3.328   6.839  0.6262  0.0544 -0.4116
 6497SOL    HW131124   2.811   3.404   6.891 -1.1246  1.2094 -2.9200
 6497SOL    HW231125   2.800   3.258   6.892 -1.4390  1.3818 -0.0721
 6498SOL     OW31126   3.725   1.221  15.655 -0.3023  0.2225 -0.2771
 6498SOL    HW131127   3.650   1.276  15.677  1.2140  2.1303  0.1505
 6498SOL    HW231128   3.688   1.137  15.682 -1.7937  1.1525  0.5678
 6499SOL     OW31129   4.094   0.281   5.284 -0.5717 -0.7822 -0.0103
 6499SOL    HW131130   4.138   0.258   5.202 -1.1893  0.0530 -0.5764
 6499SOL    HW231131   4.139   0.363   5.305  0.1705 -1.7375  2.0780
 6500SOL     OW31132   3.316   2.320   9.912 -0.1507  0.0449 -0.1471
 6500SOL    HW131133   3.309   2.246   9.973 -2.1921  0.5660  0.2508
 6500SOL    HW231134   3.319   2.387   9.981  0.6480  1.6874 -1.7804
 6501SOL     OW31135   1.102   1.948   4.195 -0.1373  0.1161  0.1852
 6501SOL    HW131136   1.135   1.859   4.206 -2.9160 -0.9152  0.0751
 6501SOL    HW231137   1.036   1.914   4.135 -1.4935 -1.0166  2.3261
 6502SOL     OW31138   1.404   0.891   6.538 -0.3080  0.3204  0.1277
 6502SOL    HW131139   1.433   0.919   6.451  0.6762 -2.8138 -0.5629
 6502SOL    HW231140   1.357   0.812   6.512 -0.3086  0.9056 -1.6493
 6503SOL     OW31141   2.775   3.202   5.677 -0.5231  0.0260 -0.5775
 6503SOL    HW131142   2.705   3.265   5.691 -0.5140 -0.3113  0.9917
 6503SOL    HW231143   2.742   3.116   5.653  0.4015 -0.5048  0.0395
 6504SOL     OW31144   2.287   4.329   7.324  0.8908 -0.3193 -0.3369
 6504SOL    HW131145   2.236   4.408   7.305  0.3930 -0.3640  0.8006
 6504SOL    HW231146   2.280   4.287   7.239  0.0507  0.2106 -0.5316
 6505SOL     OW31147   0.051   0.797   2.799  0.1066 -0.0822 -0.3293
 6505SOL    HW131148   0.071   0.890   2.791  2.3626 -0.6971 -1.8470
 6505SOL    HW231149   4.695   0.800   2.790  0.2135  2.7539 -0.6009
 6506SOL     OW31150   2.096   1.677  11.832 -0.1148  0.3550  0.4466
 6506SOL    HW131151   2.185   1.646  11.851  0.6526  0.9550 -2.1482
 6506SOL    HW231152   2.050   1.594  11.826  1.8173 -0.7193  0.5173
 6507SOL     OW31153   1.529   1.197   5.600 -0.8381  0.4431  0.1241
 6507SOL    HW131154   1.487   1.259   5.541 -1.0840  0.2745  0.1238
 6507SOL    HW231155   1.620   1.222   5.583 -0.9090  0.2923 -0.4677
 6508SOL     OW31156   4.359   3.935   3.792 -0.1315  0.1946  0.1025
 6508SOL    HW131157   4.297   3.934   3.865  0.4687  0.3859  0.6065
 6508SOL    HW231158   4.316   3.992   3.728 -1.6838 -1.4742 -0.3417
 6509SOL     OW31159   3.625   0.046   9.406  0.7733  0.2138  1.0168
 6509SOL    HW131160   3.713   0.081   9.391 -0.2272  0.6761 -3.8155
 6509SOL    HW231161   3.620   0.028   9.500 -1.7120  1.3484  1.1024
 6510SOL     OW31162   4.448   3.071  12.489  0.1396 -0.8180  0.7891
 6510SOL    HW131163   4.494   3.143  12.531 -1.7050  0.0280  1.3456
 6510SOL    HW231164   4.361   3.076  12.529  1.1536 -0.6620  2.9994
 6511SOL     OW31165   3.478   4.473   5.881 -0.1209  0.2328  0.2209
 6511SOL    HW131166   3.490   4.567   5.886  1.1495  0.0983 -0.4573
 6511SOL    HW231167   3.383   4.461   5.892 -0.4423  0.6282 -2.0907
 6512SOL     OW31168   1.976   0.324   7.678 -0.1328  0.4812  0.3725
 6512SOL    HW131169   1.948   0.238   7.709 -0.9014  0.5205 -0.2291
 6512SOL    HW231170   2.013   0.366   7.756  0.6274 -1.2925  0.9681
 6513SOL     OW31171   3.249   4.612   4.080  0.0832 -0.3427  0.2614
 6513SOL    HW131172   3.313   4.556   4.037 -0.4399 -1.1954  0.5904
 6513SOL    HW231173   3.227   4.674   4.010  0.7534 -0.2174  0.1634
 6514SOL     OW31174   2.468   1.933   4.842 -0.7895  0.0881  0.0254
 6514SOL    HW131175   2.446   1.912   4.752 -0.5654 -0.1944  0.0373
 6514SOL    HW231176   2.448   2.027   4.850  1.6157  0.4944  1.1960
 6515SOL     OW31177   0.983   3.637  13.001 -0.1848 -0.0345  0.1906
 6515SOL    HW131178   1.011   3.549  13.028 -0.2262  0.0215  0.4207
 6515SOL    HW231179   1.009   3.688  13.078 -1.1595  0.2459  0.3408
 6516SOL     OW31180   2.016   2.262   4.327  0.1233  0.2009  0.2721
 6516SOL    HW131181   2.025   2.196   4.396 -0.7654 -0.9389 -0.7102
 6516SOL    HW231182   1.937   2.230   4.283  0.7899 -0.8335 -0.1579
 6517SOL     OW31183   0.516   0.230   8.943  0.1766 -0.3244 -0.6128
 6517SOL    HW131184   0.587   0.252   8.883  0.8846  1.4800  0.8883
 6517SOL    HW231185   0.478   0.153   8.900 -2.0192  0.8008 -0.6762
 6518SOL     OW31186   3.873   2.054   3.161  0.2807 -0.4505  0.8568
 6518SOL    HW131187   3.893   2.034   3.252  1.6584  0.2285  0.6858
 6518SOL    HW231188   3.947   2.105   3.131 -1.2206  1.9155  1.2028
 6519SOL     OW31189   2.336   3.034  16.103  0.5348  0.4514 -0.4433
 6519SOL    HW131190   2.422   3.023  16.145  0.5509 -1.5197 -1.0005
 6519SOL    HW231191   2.350   3.127  16.087 -0.9805  1.1116  2.0442
 6520SOL     OW31192   2.431   1.615   2.618  0.2915 -0.5332  0.2914
 6520SOL    HW131193   2.440   1.690   2.677 -1.3150 -1.0038  1.1397
 6520SOL    HW231194   2.437   1.664   2.536 -0.3343 -0.2803  0.3970
 6521SOL     OW31195   1.272   3.334  10.061  0.6616 -0.5842 -0.4650
 6521SOL    HW131196   1.318   3.282  10.127  0.1548 -0.7892 -0.2746
 6521SOL    HW231197   1.184   3.302  10.079  0.5441  1.3399  2.5358
 6522SOL     OW31198   2.467   2.157   3.517  0.3647 -0.4498  0.3290
 6522SOL    HW131199   2.422   2.230   3.560  0.4727  0.0178 -0.3360
 6522SOL    HW231200   2.559   2.174   3.538  0.3036 -1.3117  1.2488
 6523SOL     OW31201   3.128   2.049  15.409  0.2805  0.0289  0.1869
 6523SOL    HW131202   3.128   2.129  15.463  1.8193  0.8118 -0.9893
 6523SOL    HW231203   3.170   2.086  15.331 -1.7513  1.4365 -0.2408
 6524SOL     OW31204   3.310   4.503   5.118  0.6210 -0.2087  0.0808
 6524SOL    HW131205   3.313   4.408   5.122 -1.1447 -0.3278 -1.1357
 6524SOL    HW231206   3.392   4.514   5.071 -1.1843  0.4793 -2.9531
 6525SOL     OW31207   1.367   1.738   0.271  0.1357  0.9778 -0.4444
 6525SOL    HW131208   1.342   1.651   0.303 -0.3142  1.1093 -0.4358
 6525SOL    HW231209   1.424   1.710   0.199 -0.3878 -1.5090  0.0944
 6526SOL     OW31210   1.466   2.849   7.752  0.0100 -0.4857  0.3130
 6526SOL    HW131211   1.446   2.800   7.673 -1.0016  1.9959 -0.9813
 6526SOL    HW231212   1.409   2.816   7.821  0.0882  1.7046  1.4282
 6527SOL     OW31213   2.089   1.240   4.830 -0.1919 -0.2312 -0.1034
 6527SOL    HW131214   1.998   1.219   4.807 -0.3644  1.1071 -0.6514
 6527SOL    HW231215   2.129   1.218   4.746  0.5712 -0.9633  0.4538
 6528SOL     OW31216   1.522   1.431   7.608  0.0220 -0.3716  0.4291
 6528SOL    HW131217   1.586   1.497   7.632 -0.9203  0.4235  0.7491
 6528SOL    HW231218   1.543   1.372   7.680  0.5925  0.7742  1.1909
 6529SOL     OW31219   3.287   3.573   3.869  0.2937 -0.1734 -0.1515
 6529SOL    HW131220   3.279   3.662   3.834  1.5095  0.7287  1.8619
 6529SOL    HW231221   3.225   3.533   3.808 -1.8211  0.7458  1.4036
 6530SOL     OW31222   3.258   4.013   5.679  0.2535  0.4061 -0.5281
 6530SOL    HW131223   3.255   4.024   5.584  0.8816 -1.5375 -0.7765
 6530SOL    HW231224   3.353   4.013   5.687  0.1465 -2.8110  0.9456
 6531SOL     OW31225   3.032   2.777   0.207 -0.0497  0.1660 -0.2526
 6531SOL    HW131226   3.045   2.713   0.277 -0.3070  0.9518  0.5158
 6531SOL    HW231227   2.986   2.725   0.141 -1.9468  0.4801  0.8017
 6532SOL     OW31228   3.344   4.615   4.620  0.2763 -1.1665 -0.1941
 6532SOL    HW131229   3.293   4.534   4.629  0.5392 -1.0648  2.2759
 6532SOL    HW231230   3.345   4.613   4.524  0.3514 -1.1765 -0.1931
 6533SOL     OW31231   0.725   3.361   1.961 -0.1479  1.0372  0.4599
 6533SOL    HW131232   0.696   3.287   2.015 -1.2683  0.2658 -1.2087
 6533SOL    HW231233   0.652   3.419   1.980 -0.2934  0.8944  0.3367
 6534SOL     OW31234   0.920   3.914   2.775  0.4904 -0.4364  0.6117
 6534SOL    HW131235   0.836   3.906   2.819 -0.3436 -0.3586 -0.9681
 6534SOL    HW231236   0.920   4.005   2.747  0.0994 -0.5342  0.2971
 6535SOL     OW31237   3.794   0.234   2.263  0.8206 -0.7366 -0.2806
 6535SOL    HW131238   3.770   0.169   2.328 -1.4552 -0.7812 -1.1858
 6535SOL    HW231239   3.708   0.268   2.240  0.8860 -0.8292 -0.6564
 6536SOL     OW31240   1.527   3.422  12.897 -0.2534 -0.6132  0.6061
 6536SOL    HW131241   1.505   3.339  12.940  1.7630 -0.4221  2.0170
 6536SOL    HW231242   1.613   3.416  12.855 -0.8548 -0.9662 -0.5447
 6537SOL     OW31243   2.525   3.924   0.716 -0.2837 -0.7581  0.2846
 6537SOL    HW131244   2.444   3.947   0.670  0.9754  1.3316 -0.8815
 6537SOL    HW231245   2.589   3.989   0.688 -0.9603 -0.7490 -1.2316
 6538SOL     OW31246   2.397   4.092   5.885 -0.7567  0.0142  0.3531
 6538SOL    HW131247   2.324   4.070   5.827 -0.4185 -0.0747 -0.0403
 6538SOL    HW231248   2.453   4.147   5.830  0.1058 -1.6218 -0.4201
 6539SOL     OW31249   1.432   1.429   0.769 -0.4949 -0.3439  0.4604
 6539SOL    HW131250   1.415   1.508   0.718  0.5585 -0.2198  0.3097
 6539SOL    HW231251   1.445   1.476   0.851 -1.6255 -1.7598  1.4621
 6540SOL     OW31252   1.870   1.415   9.309  0.1252 -0.2680 -0.4118
 6540SOL    HW131253   1.859   1.464   9.391  0.8135  0.0314 -0.4921
 6540SOL    HW231254   1.839   1.330   9.338  1.1105  0.0059  1.4962
 6541SOL     OW31255   0.859   1.803   8.646 -0.7805  0.1942  0.1221
 6541SOL    HW131256   0.872   1.710   8.630  1.1915  0.3944  0.4769
 6541SOL    HW231257   0.934   1.841   8.599 -0.8448 -2.1241 -1.8693
 6542SOL     OW31258   2.749   3.590   4.707 -0.5069 -0.1159  0.1116
 6542SOL    HW131259   2.676   3.614   4.762 -0.0975  1.1970  0.0693
 6542SOL    HW231260   2.805   3.530   4.757 -1.0246 -0.5005  0.2337
 6543SOL     OW31261   2.310   4.730   5.541 -0.2731 -0.0327 -0.0990
 6543SOL    HW131262   2.315   4.728   5.445  1.2266 -0.3061 -0.0137
 6543SOL    HW231263   2.216   4.729   5.557 -0.6691 -0.6038 -2.4863
 6544SOL     OW31264   0.594   3.713   6.263 -0.2730 -0.6970 -0.1065
 6544SOL    HW131265   0.672   3.740   6.214  1.5901  1.5382  4.0204
 6544SOL    HW231266   0.589   3.624   6.230  0.8723 -1.4039  1.6357
 6545SOL     OW31267   4.488   0.738  16.017  0.1079 -0.2639  0.2066
 6545SOL    HW131268   4.420   0.797  15.983 -1.0410 -0.9027  1.4071
 6545SOL    HW231269   4.449   0.714  16.100  1.4750 -0.5069  0.7699
 6546SOL     OW31270   3.020   0.322   2.836  0.4807  0.2574  0.5278
 6546SOL    HW131271   2.929   0.320   2.867  0.2042  0.4375 -0.2621
 6546SOL    HW231272   3.051   0.237   2.866 -1.0778 -0.3069  0.5149
 6547SOL     OW31273   2.992   3.948  12.602 -0.1966  0.2947  0.0324
 6547SOL    HW131274   2.994   3.857  12.574 -1.1301  0.5288 -0.7855
 6547SOL    HW231275   2.988   3.989  12.516  0.8760  0.2648 -0.0342
 6548SOL     OW31276   1.475   1.996   2.533 -0.1563 -0.5028  0.2754
 6548SOL    HW131277   1.383   1.978   2.512 -0.5963  2.5425 -0.3877
 6548SOL    HW231278   1.516   1.988   2.446  1.0077 -3.1889  1.0857
 6549SOL     OW31279   2.056   1.306   7.663  0.2110  0.5365 -0.3038
 6549SOL    HW131280   2.033   1.336   7.575 -1.6424  1.9938  0.6725
 6549SOL    HW231281   2.148   1.287   7.645 -0.1380 -1.4686 -0.0388
 6550SOL     OW31282   2.635   1.791  15.162  0.8137  0.2708 -0.2054
 6550SOL    HW131283   2.590   1.755  15.085 -2.4733  0.9693  1.3685
 6550SOL    HW231284   2.577   1.863  15.189 -0.2745  0.1345 -2.2066
 6551SOL     OW31285   3.681   1.024   3.269 -0.4211 -0.0017 -0.1425
 6551SOL    HW131286   3.680   0.969   3.347  2.8086 -1.6945 -1.2936
 6551SOL    HW231287   3.626   0.966   3.217 -1.2845  0.7087 -0.0260
 6552SOL     OW31288   4.578   4.672   8.609  0.0842 -0.1150 -0.2698
 6552SOL    HW131289   4.514   4.613   8.568 -1.1424 -0.2773  1.8383
 6552SOL    HW231290   4.547   0.021   8.588 -1.0086 -1.0604 -2.6521
 6553SOL     OW31291   4.735   3.751  12.543  0.0291 -0.6152  0.3574
 6553SOL    HW131292   4.735   3.842  12.572  0.0884 -0.5135  0.0424
 6553SOL    HW231293   4.703   3.704  12.620 -0.0515  0.1019  0.7617
 6554SOL     OW31294   1.298   3.677   9.791  0.2489  0.3889 -0.3938
 6554SOL    HW131295   1.227   3.653   9.850 -0.3869 -0.0545 -1.3508
 6554SOL    HW231296   1.367   3.629   9.837 -1.5058  0.2788  2.1034
 6555SOL     OW31297   2.029   0.751  16.193  0.4688  0.4360  0.4482
 6555SOL    HW131298   2.003   0.818  16.256 -2.0527 -0.5514  0.4568
 6555SOL    HW231299   1.997   0.668  16.228  1.0118  1.1775  2.6553
 6556SOL     OW31300   3.604   4.327   4.183 -0.5527  0.3441  0.3256
 6556SOL    HW131301   3.515   4.295   4.169 -0.0444 -0.8026 -0.2862
 6556SOL    HW231302   3.614   4.350   4.275  0.5120  1.3750 -0.0387
 6557SOL     OW31303   0.523   3.141   3.526  0.3094  0.0382 -0.4139
 6557SOL    HW131304   0.476   3.209   3.478 -1.6453 -1.1787 -0.2450
 6557SOL    HW231305   0.541   3.178   3.612 -0.0051 -3.4809  1.1785
 6558SOL     OW31306   2.656   3.983   9.280 -0.2145 -0.0818  0.4190
 6558SOL    HW131307   2.657   4.079   9.283  1.1051 -0.1214  1.3250
 6558SOL    HW231308   2.583   3.967   9.219 -0.2481 -0.1394  0.4742
 6559SOL     OW31309   3.103   3.398   5.765 -0.0899  0.6209  0.7345
 6559SOL    HW131310   3.032   3.398   5.828 -0.7725  0.3728 -0.0372
 6559SOL    HW231311   3.150   3.476   5.793  0.8727  0.3978 -0.2359
 6560SOL     OW31312   0.650   3.531   6.631 -0.5352 -0.3385 -0.1193
 6560SOL    HW131313   0.661   3.487   6.546  0.1991 -2.0616  0.8717
 6560SOL    HW231314   0.721   3.595   6.633 -3.3208  2.7381 -0.0240
 6561SOL     OW31315   4.698   4.728   9.203 -0.0938 -0.1333  0.0547
 6561SOL    HW131316   4.727   0.067   9.251 -2.7386  0.3907  0.8308
 6561SOL    HW231317   4.618   0.035   9.176  0.6655  0.7105 -0.7980
 6562SOL     OW31318   2.719   2.926  12.201 -0.2878 -0.3290 -0.4330
 6562SOL    HW131319   2.760   2.977  12.272  0.4361 -1.6115  0.0716
 6562SOL    HW231320   2.764   2.842  12.210 -2.1929 -1.3291 -0.2892
 6563SOL     OW31321   3.339   3.551   4.638 -0.4146  0.4899 -0.1598
 6563SOL    HW131322   3.289   3.475   4.612 -2.3331  2.2064 -1.4516
 6563SOL    HW231323   3.278   3.624   4.631  1.3097  1.9969  0.2354
 6564SOL     OW31324   1.214   2.470   8.931 -0.0553 -0.4341 -0.2326
 6564SOL    HW131325   1.222   2.419   8.851 -0.4100 -1.6121  0.4809
 6564SOL    HW231326   1.120   2.461   8.945  0.0211  0.5965  0.9851
 6565SOL     OW31327   4.619   0.242   1.838  0.4399  0.0977 -0.3639
 6565SOL    HW131328   4.565   0.226   1.761  1.3579 -1.8200 -0.6130
 6565SOL    HW231329   4.572   0.193   1.907  0.3975  1.4245  0.5545
 6566SOL     OW31330   0.086   1.123   9.657 -0.2364  0.1004  0.2135
 6566SOL    HW131331   0.172   1.116   9.699  0.1652 -0.5425 -0.6985
 6566SOL    HW231332   0.108   1.211   9.625  2.1762 -0.1007  1.3564
 6567SOL     OW31333   0.126   0.529   3.156  0.1844  0.2342 -0.0155
 6567SOL    HW131334   0.107   0.566   3.243  3.6458 -1.0689  1.2925
 6567SOL    HW231335   0.220   0.515   3.158 -0.0717 -1.5111 -0.7610
 6568SOL     OW31336   2.572   1.287  13.735 -0.1366 -0.4186  0.9957
 6568SOL    HW131337   2.607   1.273  13.647  0.7113  0.8701  1.1280
 6568SOL    HW231338   2.539   1.376  13.732 -1.5806 -0.9719  0.5682
 6569SOL     OW31339   3.294   4.072   8.296  0.4910  0.1944 -0.0997
 6569SOL    HW131340   3.323   4.161   8.313  0.7767  0.2887 -1.0586
 6569SOL    HW231341   3.199   4.083   8.291  0.7122  2.3880  0.6124
 6570SOL     OW31342   2.002   4.401   5.477 -0.0865 -0.4345  0.2857
 6570SOL    HW131343   1.984   4.375   5.567  0.0274 -0.4766  0.2963
 6570SOL    HW231344   2.011   4.495   5.488 -0.8993 -0.5111  1.6536
 6571SOL     OW31345   1.117   2.127   0.085  0.2526 -0.2063 -0.5438
 6571SOL    HW131346   1.085   2.038   0.097 -2.2150  1.0667  2.1976
 6571SOL    HW231347   1.208   2.109   0.110  0.6463 -0.3404 -2.0553
 6572SOL     OW31348   2.123   0.984   5.849  0.2248  0.0942 -0.6132
 6572SOL    HW131349   2.119   0.907   5.793 -1.6034 -0.4201  0.2338
 6572SOL    HW231350   2.199   1.030   5.812  1.2727 -1.0935  0.0300
 6573SOL     OW31351   0.618   1.959   4.190  0.2064 -0.0948 -0.1490
 6573SOL    HW131352   0.624   2.052   4.214 -1.8584  0.1623 -0.7168
 6573SOL    HW231353   0.560   1.971   4.115 -0.4586 -2.3929 -0.0175
 6574SOL     OW31354   1.197   4.230   1.447 -0.8670  0.1924  0.3270
 6574SOL    HW131355   1.238   4.282   1.378 -1.3329  3.6861  2.6625
 6574SOL    HW231356   1.251   4.249   1.524 -1.2333  2.6315  0.0085
 6575SOL     OW31357   2.062   2.064   7.967 -0.6717  0.4360 -0.4173
 6575SOL    HW131358   2.154   2.081   7.947 -0.4935  1.5829  1.3898
 6575SOL    HW231359   2.069   2.097   8.056 -0.6636 -1.4011  0.2772
 6576SOL     OW31360   0.805   3.205   3.311 -0.2266 -0.0778  0.4926
 6576SOL    HW131361   0.867   3.261   3.264 -0.8180  1.3768  1.4619
 6576SOL    HW231362   0.755   3.272   3.359 -1.0665 -0.9433  0.8247
 6577SOL     OW31363   1.178   2.378  10.004 -0.1407  0.1852  0.4988
 6577SOL    HW131364   1.097   2.349  10.044 -0.9289 -1.1900 -2.0481
 6577SOL    HW231365   1.157   2.351   9.914  1.3948 -0.0766  0.2162
 6578SOL     OW31366   0.128   3.875  16.867 -0.5083  0.3426 -0.6376
 6578SOL    HW131367   0.091   3.897  16.782 -0.3686 -1.4315 -1.1457
 6578SOL    HW231368   0.148   3.962  16.903  1.1624 -0.3222  0.0469
 6579SOL     OW31369   3.785   4.706   8.520 -0.6951  0.0301 -0.1662
 6579SOL    HW131370   3.812   4.616   8.539  1.7656  0.5350 -1.1958
 6579SOL    HW231371   3.799   0.002   8.609 -1.1859  0.2820 -0.1853
 6580SOL     OW31372   2.871   2.141   9.223  0.1663 -0.1086 -0.1798
 6580SOL    HW131373   2.876   2.056   9.178  0.7942  0.5159 -1.2913
 6580SOL    HW231374   2.777   2.149   9.236  0.0690  1.0634 -1.5948
 6581SOL     OW31375   4.056   1.834   5.582 -0.0902  0.1799  0.2378
 6581SOL    HW131376   4.136   1.840   5.635 -0.1755 -1.5449  0.5814
 6581SOL    HW231377   4.087   1.787   5.505  0.3814  0.9947 -0.0628
 6582SOL     OW31378   3.635   3.940  14.791 -0.3518  0.2494  0.2710
 6582SOL    HW131379   3.566   3.970  14.851  0.1499  2.5603 -0.2808
 6582SOL    HW231380   3.583   3.929  14.711 -0.7305  0.9744  0.4102
 6583SOL     OW31381   2.171   3.469  14.047 -0.6714  0.4548  0.0328
 6583SOL    HW131382   2.112   3.544  14.039  0.3852  1.1317 -1.4398
 6583SOL    HW231383   2.147   3.413  13.973 -1.1937  1.2392 -0.3894
 6584SOL     OW31384   1.198   4.414   9.142 -0.2042  0.4422  0.1036
 6584SOL    HW131385   1.269   4.361   9.180 -0.5147 -0.5087 -0.6258
 6584SOL    HW231386   1.133   4.409   9.212 -0.1316 -1.3900  0.0520
 6585SOL     OW31387   0.256   3.904   7.934  0.1543  0.0858  0.1407
 6585SOL    HW131388   0.250   3.808   7.933 -2.1364  0.2336  1.9928
 6585SOL    HW231389   0.349   3.926   7.923  0.5906 -0.8439  1.9722
 6586SOL     OW31390   2.253   4.077   8.658  0.1732  0.8532 -0.0843
 6586SOL    HW131391   2.345   4.103   8.669 -0.0022  1.4001  0.1034
 6586SOL    HW231392   2.205   4.158   8.674  0.6721  1.4527 -1.6428
 6587SOL     OW31393   1.550   4.498   8.312  0.1420 -0.2121 -0.0101
 6587SOL    HW131394   1.609   4.550   8.366 -1.2241  1.8324 -0.5330
 6587SOL    HW231395   1.540   4.421   8.369  0.9153 -0.8942 -0.7821
 6588SOL     OW31396   3.635   3.228   8.811  0.4890  0.1143 -0.1840
 6588SOL    HW131397   3.693   3.228   8.887 -1.0745 -1.3144  0.9858
 6588SOL    HW231398   3.572   3.291   8.845 -0.6539 -0.0834 -1.9298
 6589SOL     OW31399   4.405   4.489   8.443  0.2620  0.3765  0.7307
 6589SOL    HW131400   4.495   4.461   8.424 -0.0498 -0.6052  0.7022
 6589SOL    HW231401   4.364   4.455   8.363 -0.2377  0.8877  0.7677
 6590SOL     OW31402   0.055   4.641   5.317  0.5371 -0.2696  0.1433
 6590SOL    HW131403   0.030   4.733   5.314 -1.0897 -0.6293  2.4206
 6590SOL    HW231404   0.048   4.626   5.411 -1.7267  3.3494  0.5418
 6591SOL     OW31405   3.083   2.949   7.017  0.2869  0.7042  0.1264
 6591SOL    HW131406   3.009   2.915   6.967  0.4019  1.0987 -0.3104
 6591SOL    HW231407   3.061   2.916   7.105 -1.0538  1.5369  0.1145
 6592SOL     OW31408   2.345   3.122  14.501 -0.4172  0.7057  0.2330
 6592SOL    HW131409   2.431   3.108  14.461 -0.8029  1.2301 -0.7798
 6592SOL    HW231410   2.307   3.034  14.500  1.6179 -0.1522 -1.2123
 6593SOL     OW31411   2.763   2.913   9.351  0.2245  0.4234  0.5027
 6593SOL    HW131412   2.686   2.963   9.325 -0.1636 -0.8106 -0.7150
 6593SOL    HW231413   2.718   2.837   9.388  1.1127 -0.3896 -0.1013
 6594SOL     OW31414   0.497   4.104   6.590  0.1676  0.1350 -0.1605
 6594SOL    HW131415   0.588   4.131   6.601 -0.7325  2.4319  1.5133
 6594SOL    HW231416   0.506   4.022   6.540 -3.4849  0.0532 -0.7047
 6595SOL     OW31417   1.937   2.380   6.240  0.3152  0.4624  0.0355
 6595SOL    HW131418   2.008   2.441   6.261  0.9443 -0.6138  1.0170
 6595SOL    HW231419   1.901   2.347   6.322  0.2139  1.0312  0.2222
 6596SOL     OW31420   2.907   2.276   2.825  0.3523 -0.0575 -0.2024
 6596SOL    HW131421   2.917   2.337   2.898  2.7848  0.3840 -0.9014
 6596SOL    HW231422   2.948   2.200   2.868  0.1865  0.1002  0.2363
 6597SOL     OW31423   0.240   4.429  16.731  0.0989 -0.2351  0.0832
 6597SOL    HW131424   0.254   4.444  16.637  0.3992 -0.1528  0.1403
 6597SOL    HW231425   0.325   4.413  16.772  0.5113  1.5853 -0.0708
 6598SOL     OW31426   2.192   1.056   4.033  0.1445  0.3450  0.2652
 6598SOL    HW131427   2.158   1.060   3.944  1.3318 -0.8380 -0.2346
 6598SOL    HW231428   2.203   1.150   4.047  0.5541  0.4530 -0.8118
 6599SOL     OW31429   3.392   3.468   6.442 -0.5941 -0.1446 -0.1353
 6599SOL    HW131430   3.426   3.535   6.382  1.2092 -3.1719 -2.5199
 6599SOL    HW231431   3.380   3.396   6.380 -0.5971 -2.0115  2.0668
 6600SOL     OW31432   0.032   3.677   5.208 -0.2192 -0.4083  0.5116
 6600SOL    HW131433   0.054   3.584   5.201  0.8149 -0.1743  0.5529
 6600SOL    HW231434   0.114   3.720   5.182  0.4071 -0.8121  1.8126
 6601SOL     OW31435   2.615   2.953  14.903  0.5809 -0.2721 -0.1473
 6601SOL    HW131436   2.592   2.862  14.922  3.8486 -1.4862 -1.9516
 6601SOL    HW231437   2.672   2.952  14.826  0.3045  0.5192 -0.3624
 6602SOL     OW31438   1.995   4.597   2.417  0.1531  0.3890 -0.4828
 6602SOL    HW131439   2.061   4.642   2.364  0.4699  0.8810  0.3221
 6602SOL    HW231440   1.922   4.650   2.387  0.9809  1.6515 -0.2671
 6603SOL     OW31441   1.859   4.062   9.234 -0.0120  0.0245 -0.5924
 6603SOL    HW131442   1.845   3.997   9.302 -1.2636  0.1375 -0.7428
 6603SOL    HW231443   1.929   4.017   9.187  1.4294  0.5560  1.0159
 6604SOL     OW31444   4.323   3.322   3.989  0.1622  0.1497 -0.2882
 6604SOL    HW131445   4.410   3.353   4.013 -1.2900  2.5550  1.7964
 6604SOL    HW231446   4.259   3.365   4.046  3.3114  0.8573  2.6491
 6605SOL     OW31447   3.227   1.146  11.259  0.0147 -0.7172 -0.1592
 6605SOL    HW131448   3.296   1.079  11.263 -2.4326 -3.1719  0.6551
 6605SOL    HW231449   3.201   1.143  11.167  2.4354  0.1030 -0.8777
 6606SOL     OW31450   4.644   4.612   4.453 -0.1411 -0.2396  0.5057
 6606SOL    HW131451   4.598   4.668   4.516 -1.4966 -0.9828  0.1827
 6606SOL    HW231452   4.590   4.536   4.476  0.1317 -0.2151  1.2317
 6607SOL     OW31453   2.313   1.864   0.675  0.3619 -0.3249 -0.4668
 6607SOL    HW131454   2.338   1.804   0.745  0.8688  0.3549 -0.0673
 6607SOL    HW231455   2.399   1.870   0.633 -0.0549 -1.3769 -1.4868
 6608SOL     OW31456   1.622   2.902   4.453 -0.2104 -0.2221 -0.2160
 6608SOL    HW131457   1.620   2.944   4.368  1.1720 -1.3216 -0.7901
 6608SOL    HW231458   1.711   2.867   4.464  1.0046  2.6682 -0.7520
 6609SOL     OW31459   1.329   1.137   3.718 -0.0106 -0.2725 -0.4743
 6609SOL    HW131460   1.244   1.131   3.673  0.9052  0.1739 -2.2770
 6609SOL    HW231461   1.383   1.075   3.669 -1.9519 -3.1829  1.0801
 6610SOL     OW31462   2.710   0.304   8.467 -0.1593 -0.3581  0.1972
 6610SOL    HW131463   2.701   0.310   8.562  1.9727 -2.7440  0.5521
 6610SOL    HW231464   2.628   0.349   8.445 -1.8020 -1.8774  3.1974
 6611SOL     OW31465   4.455   2.677   3.698 -0.0361  0.0911  0.1178
 6611SOL    HW131466   4.391   2.606   3.693  0.2226 -0.0587 -1.2898
 6611SOL    HW231467   4.500   2.643   3.775 -0.2778  0.3048  0.3478
 6612SOL     OW31468   0.767   2.467   0.677 -0.5324 -0.2470  0.3852
 6612SOL    HW131469   0.862   2.481   0.666 -0.6728  1.4287  1.3860
 6612SOL    HW231470   0.757   2.501   0.766 -1.4655  1.6535 -0.4448
 6613SOL     OW31471   4.180   3.948   1.371 -0.4889  0.3096 -0.0497
 6613SOL    HW131472   4.171   3.875   1.432  4.8814 -0.5703 -0.3232
 6613SOL    HW231473   4.191   3.908   1.284 -0.9846  0.3937 -0.1490
 6614SOL     OW31474   0.425   4.189   2.075  0.3004 -0.0896 -0.2156
 6614SOL    HW131475   0.416   4.193   2.170  1.4143  0.5450 -0.1286
 6614SOL    HW231476   0.338   4.205   2.040 -0.0204 -2.4938 -0.5081
 6615SOL     OW31477   4.225   3.647   7.463  0.3105  0.4702 -0.4708
 6615SOL    HW131478   4.192   3.641   7.553  0.3116  1.5252 -0.4029
 6615SOL    HW231479   4.149   3.610   7.418  1.9265 -0.2701 -2.5716
 6616SOL     OW31480   4.354   0.334   7.470 -0.2058 -0.6429  0.1296
 6616SOL    HW131481   4.441   0.373   7.479 -0.5614  0.3276 -0.6423
 6616SOL    HW231482   4.313   0.380   7.543  0.4599 -0.9551  0.6966
 6617SOL     OW31483   2.988   3.742  14.872  0.0753 -0.3414  0.3987
 6617SOL    HW131484   3.027   3.812  14.819 -2.6762  1.7897  1.1485
 6617SOL    HW231485   2.936   3.687  14.813 -0.4370  0.0297  0.5093
 6618SOL     OW31486   3.309   3.182   6.328 -0.1712  0.4200  0.5986
 6618SOL    HW131487   3.349   3.095   6.328  1.3660  1.1114 -4.0972
 6618SOL    HW231488   3.285   3.179   6.235 -0.9444 -1.7311  0.8692
 6619SOL     OW31489   0.469   1.358   2.604 -0.1431 -0.1775 -0.0536
 6619SOL    HW131490   0.534   1.410   2.650  0.4225  0.7644 -1.9131
 6619SOL    HW231491   0.400   1.357   2.670 -0.6186  0.1684 -0.5442
 6620SOL     OW31492   4.562   3.268  12.631  0.3322  0.0560 -0.0379
 6620SOL    HW131493   4.502   3.322  12.683 -0.0621 -0.6437  0.2364
 6620SOL    HW231494   4.624   3.253  12.702  1.3591 -3.9596 -1.7929
 6621SOL     OW31495   3.291   1.491  16.983 -0.8180  0.2557 -0.5440
 6621SOL    HW131496   3.381   1.480  17.015 -0.6303  1.1885 -0.7689
 6621SOL    HW231497   3.310   1.561  16.921  2.5830 -0.2404 -0.0640
 6622SOL     OW31498   3.499   0.847   3.157 -0.2980 -0.0530 -0.0161
 6622SOL    HW131499   3.425   0.813   3.208 -0.1131 -0.8442 -0.2725
 6622SOL    HW231500   3.470   0.830   3.067 -2.1580  0.5545  0.4805
 6623SOL     OW31501   0.304   2.847   7.197  0.2898 -0.2459 -0.4631
 6623SOL    HW131502   0.314   2.766   7.146  0.9348 -1.5433  1.7257
 6623SOL    HW231503   0.298   2.807   7.284  0.0619  1.2782  0.2115
 6624SOL     OW31504   4.096   3.399   1.384 -0.0758  0.1785 -0.0255
 6624SOL    HW131505   4.100   3.351   1.467 -1.0425 -0.2120 -0.2018
 6624SOL    HW231506   4.151   3.473   1.410 -0.1215  0.1051  0.2807
 6625SOL     OW31507   1.882   1.718   5.045  0.4081 -0.3701 -0.2805
 6625SOL    HW131508   1.916   1.739   5.132 -0.4651  1.2768 -0.3336
 6625SOL    HW231509   1.791   1.746   5.051  0.5493 -0.3445  1.8497
 6626SOL     OW31510   4.147   1.209   5.900  0.0605 -0.0578 -0.0813
 6626SOL    HW131511   4.145   1.129   5.952 -3.6668 -1.2315 -1.9799
 6626SOL    HW231512   4.074   1.186   5.841  0.2539  0.8076 -0.6615
 6627SOL     OW31513   2.419   2.885  10.540  0.0545 -0.0668 -0.4815
 6627SOL    HW131514   2.368   2.828  10.597 -2.0534  1.1756 -1.1031
 6627SOL    HW231515   2.501   2.896  10.587 -1.8863 -0.6268  3.0041
 6628SOL     OW31516   1.294   2.287   8.730 -0.7892  0.0182 -0.2205
 6628SOL    HW131517   1.267   2.202   8.764  1.1070 -0.5881 -0.2439
 6628SOL    HW231518   1.365   2.253   8.676  1.1173  1.5275  1.3564
 6629SOL     OW31519   0.703   4.171   5.034 -0.2276 -0.1585  0.0764
 6629SOL    HW131520   0.659   4.243   4.989 -1.1803 -0.2846  0.8310
 6629SOL    HW231521   0.753   4.128   4.964  1.0104  2.1486 -0.4672
 6630SOL     OW31522   0.561   2.374   6.411 -0.9496 -0.1780 -0.2084
 6630SOL    HW131523   0.474   2.336   6.419 -1.0632 -0.3866 -2.5199
 6630SOL    HW231524   0.609   2.357   6.492  1.7395  2.1392 -1.3094
 6631SOL     OW31525   1.141   2.557   0.111  0.2625  0.2021 -0.2560
 6631SOL    HW131526   1.192   2.583   0.034 -0.6166  2.0802 -0.1877
 6631SOL    HW231527   1.099   2.641   0.131  0.9563 -0.0559  2.3370
 6632SOL     OW31528   0.777   3.142   3.035  0.0998  0.5902 -0.1535
 6632SOL    HW131529   0.758   3.236   3.039 -0.3754  0.4456  0.8609
 6632SOL    HW231530   0.792   3.120   3.127 -0.8216 -2.5649 -0.7515
 6633SOL     OW31531   4.346   2.025  16.409  0.1577  0.3244  0.7256
 6633SOL    HW131532   4.276   1.959  16.416  0.1602  0.1551 -0.8577
 6633SOL    HW231533   4.422   1.979  16.374  0.3280  1.3689 -0.2613
 6634SOL     OW31534   1.538   0.040  10.546  0.1549  0.0812  0.1665
 6634SOL    HW131535   1.536   0.026  10.641 -1.1329 -0.2195  0.1046
 6634SOL    HW231536   1.629   0.065  10.536 -0.3559  1.9872  0.2616
 6635SOL     OW31537   3.797   1.483   3.697  0.1035  0.1361  0.2786
 6635SOL    HW131538   3.709   1.509   3.672  0.7647  1.6099 -0.5258
 6635SOL    HW231539   3.846   1.564   3.711  0.4809 -0.2115  1.0111
 6636SOL     OW31540   3.594   2.295   9.158  0.1574  0.0461 -0.0310
 6636SOL    HW131541   3.531   2.227   9.137  0.7916  0.2517 -2.5933
 6636SOL    HW231542   3.531   2.365   9.179  0.7599  1.0366 -1.5014
 6637SOL     OW31543   2.763   4.310  15.600  0.0541 -0.0197 -0.0736
 6637SOL    HW131544   2.732   4.395  15.630 -0.7200  0.4116 -2.0983
 6637SOL    HW231545   2.778   4.320  15.506  1.7845  1.5351  0.3496
 6638SOL     OW31546   3.136   1.823   9.382  0.5812  0.1307  0.4112
 6638SOL    HW131547   3.041   1.827   9.379  0.5346 -1.7650 -0.6185
 6638SOL    HW231548   3.148   1.750   9.321 -0.4715  0.5633 -0.3001
 6639SOL     OW31549   0.474   1.668   2.210  0.4530  0.1605 -0.2782
 6639SOL    HW131550   0.424   1.595   2.247  1.7752 -1.1529 -1.0661
 6639SOL    HW231551   0.406   1.722   2.170  1.5679  0.9556 -1.0984
 6640SOL     OW31552   0.642   0.708  14.068 -0.4136  0.3692  0.1295
 6640SOL    HW131553   0.598   0.631  14.105 -2.5018  0.6566 -1.7806
 6640SOL    HW231554   0.616   0.783  14.121  0.9859  0.2769  0.9553
 6641SOL     OW31555   0.230   4.272   2.589  0.0200  0.2871  0.3597
 6641SOL    HW131556   0.145   4.314   2.605  0.0784  1.1997 -1.6980
 6641SOL    HW231557   0.226   4.193   2.642 -0.2660 -0.3891 -0.6750
 6642SOL     OW31558   1.699   3.590   4.246  0.4829  0.0144 -0.7927
 6642SOL    HW131559   1.698   3.685   4.258  1.5206  0.0559 -0.9952
 6642SOL    HW231560   1.626   3.558   4.299  1.7047  2.1759  2.2027
 6643SOL     OW31561   4.378   1.087   7.598 -0.4584  0.0870  0.1240
 6643SOL    HW131562   4.348   1.003   7.565  0.9417 -0.3427 -0.0356
 6643SOL    HW231563   4.468   1.066   7.622 -1.1711 -1.5558  1.3516
 6644SOL     OW31564   3.005   3.848  13.478  0.4393  0.4671 -0.5429
 6644SOL    HW131565   2.952   3.928  13.485 -2.0552 -1.2212 -0.0596
 6644SOL    HW231566   2.933   3.785  13.471  0.1468  0.7011  0.3632
 6645SOL     OW31567   2.780   2.736   3.335 -0.2656  0.1307 -0.1785
 6645SOL    HW131568   2.873   2.722   3.316 -0.3068  0.4549 -0.6056
 6645SOL    HW231569   2.765   2.674   3.407 -1.2525  1.2002  0.5233
 6646SOL     OW31570   2.299   4.608   6.403 -0.1259  0.0824 -0.4051
 6646SOL    HW131571   2.391   4.589   6.419  0.3638  0.1715 -3.2284
 6646SOL    HW231572   2.267   4.627   6.492 -0.1341  0.1819 -0.4299
 6647SOL     OW31573   2.420   3.109  12.204  0.0751  0.1542  0.0580
 6647SOL    HW131574   2.357   3.058  12.255 -2.0325  0.4223 -2.2757
 6647SOL    HW231575   2.366   3.184  12.181 -1.8958 -1.4305 -0.4412
 6648SOL     OW31576   1.587   1.754   5.457 -0.3430  0.1675  0.2616
 6648SOL    HW131577   1.618   1.678   5.407  2.0507  0.2129  1.6395
 6648SOL    HW231578   1.500   1.761   5.418  1.5949 -0.4351 -4.1662
 6649SOL     OW31579   3.820   1.465   5.100  0.3113  0.2947 -0.4445
 6649SOL    HW131580   3.765   1.503   5.169  1.4301 -0.2469  0.7342
 6649SOL    HW231581   3.895   1.525   5.096  0.5694  0.0064  0.1308
 6650SOL     OW31582   4.650   4.201   5.925  0.3708 -0.4161  0.2732
 6650SOL    HW131583   4.731   4.231   5.883  1.5942 -1.8591  1.5788
 6650SOL    HW231584   4.667   4.210   6.019 -0.6477 -1.2556  0.5286
 6651SOL     OW31585   1.019   4.685  17.496 -0.8097  0.2701 -0.5964
 6651SOL    HW131586   0.980   0.009  17.435  1.0129  3.6797  1.7166
 6651SOL    HW231587   0.944   4.653  17.545  0.0118 -2.0768 -0.8674
 6652SOL     OW31588   0.287   3.543   1.363 -0.3103 -0.1330 -0.3659
 6652SOL    HW131589   0.270   3.637   1.363  0.3788 -0.0052  0.3104
 6652SOL    HW231590   0.377   3.532   1.331 -0.3275  1.6265 -1.0295
 6653SOL     OW31591   2.392   1.875  11.813  0.2659 -0.8293  0.3065
 6653SOL    HW131592   2.460   1.870  11.745  0.7969  0.4558  0.7427
 6653SOL    HW231593   2.433   1.818  11.878 -1.6555 -0.3387  1.9149
 6654SOL     OW31594   0.921   1.357  10.436  0.3985 -0.1500 -0.3028
 6654SOL    HW131595   0.943   1.266  10.459  1.0189  0.5715  1.9883
 6654SOL    HW231596   0.993   1.385  10.379  1.5346 -2.9617 -0.2683
 6655SOL     OW31597   3.005   2.968   7.683  0.6049  0.2621 -0.1203
 6655SOL    HW131598   2.934   3.030   7.697  0.4680  0.3522 -1.2204
 6655SOL    HW231599   2.966   2.927   7.606 -1.4493  1.7323  0.1429
 6656SOL     OW31600   3.329   0.579   7.901  0.0360 -0.4615 -0.3142
 6656SOL    HW131601   3.389   0.551   7.970 -0.5904  0.6323  0.6722
 6656SOL    HW231602   3.381   0.653   7.870  0.8521 -2.0202 -2.6624
 6657SOL     OW31603   2.572   2.029   1.743  0.4563  0.3017 -0.3333
 6657SOL    HW131604   2.523   1.950   1.721  0.6562 -0.2785  1.2805
 6657SOL    HW231605   2.596   2.060   1.655  0.3339  0.8617 -0.1695
 6658SOL     OW31606   0.068   1.557   9.150 -0.1705  0.7445 -0.0516
 6658SOL    HW131607   0.121   1.477   9.148  0.8216  1.3945  0.3128
 6658SOL    HW231608   0.043   1.553   9.242  1.4285 -0.0117  0.3563
 6659SOL     OW31609   1.126   4.528  11.778  0.1962  0.3527 -0.1327
 6659SOL    HW131610   1.051   4.523  11.720  0.7281  0.6901 -0.8461
 6659SOL    HW231611   1.104   4.467  11.848  2.7051  0.8733  1.1256
 6660SOL     OW31612   1.371   3.692   7.932 -0.3887 -0.0157  0.6255
 6660SOL    HW131613   1.390   3.608   7.975 -0.7368  1.0749  2.8831
 6660SOL    HW231614   1.284   3.667   7.900 -0.6482 -1.5863  2.5431
 6661SOL     OW31615   3.412   2.936   6.300  0.0024 -0.2017  0.0841
 6661SOL    HW131616   3.357   2.871   6.255 -0.0749  1.6692 -2.5330
 6661SOL    HW231617   3.502   2.923   6.270  0.2099 -0.9865  1.0609
 6662SOL     OW31618   1.509   3.147  12.657 -0.3914  1.2734 -0.1857
 6662SOL    HW131619   1.602   3.144  12.679 -0.8972 -1.9059  1.4776
 6662SOL    HW231620   1.496   3.188  12.571 -2.1167  0.6767 -0.2019
 6663SOL     OW31621   3.375   2.137   9.141  0.4097 -0.3545 -0.3137
 6663SOL    HW131622   3.285   2.149   9.110  0.4945 -0.2068 -0.4987
 6663SOL    HW231623   3.396   2.045   9.126 -0.8187 -0.6467 -0.2081
 6664SOL     OW31624   1.657   2.795   4.001 -0.0482  0.5502  0.0254
 6664SOL    HW131625   1.708   2.733   4.053  1.7844  1.3000 -0.8538
 6664SOL    HW231626   1.570   2.761   4.019 -0.0340 -0.6995 -2.2699
 6665SOL     OW31627   2.894   2.534  14.520 -0.4706  0.5116  0.2227
 6665SOL    HW131628   2.975   2.502  14.479 -1.2630  1.1784 -1.8572
 6665SOL    HW231629   2.891   2.501  14.609 -0.1304 -3.4788 -1.2088
 6666SOL     OW31630   1.375   3.437  16.939 -0.0583  0.3385 -0.8045
 6666SOL    HW131631   1.393   3.476  16.853 -0.4121  0.2174 -0.9363
 6666SOL    HW231632   1.440   3.475  16.997  0.3994  0.3696 -1.3420
 6667SOL     OW31633   2.967   1.065   6.347 -0.2970  0.1214  0.0789
 6667SOL    HW131634   3.062   1.074   6.358 -0.3916  0.3245  0.7406
 6667SOL    HW231635   2.962   1.104   6.260  0.4348  0.6804  0.2823
 6668SOL     OW31636   3.100   2.278   4.273  0.4867  0.3093 -0.1870
 6668SOL    HW131637   3.091   2.358   4.324  3.2215  0.9460 -0.7088
 6668SOL    HW231638   3.123   2.314   4.187  2.1129 -0.7058 -0.1619
 6669SOL     OW31639   4.525   2.326   3.274  0.0541  0.6051 -0.6892
 6669SOL    HW131640   4.568   2.255   3.321  1.9173  1.3582 -1.2853
 6669SOL    HW231641   4.592   2.393   3.281  0.3261  0.2927 -0.2553
 6670SOL     OW31642   2.723   2.024   6.189  0.1893 -0.0545 -0.1579
 6670SOL    HW131643   2.715   1.944   6.136  1.6141 -0.5668  0.3900
 6670SOL    HW231644   2.753   2.083   6.120 -3.4734  1.4265 -0.4712
 6671SOL     OW31645   1.342   0.509   6.762 -0.0961  0.1660 -0.2816
 6671SOL    HW131646   1.351   0.592   6.808 -0.9927 -1.1124  2.2370
 6671SOL    HW231647   1.433   0.497   6.732  1.0852  0.9092  3.0204
 6672SOL     OW31648   0.662   4.075   3.719 -0.2641 -0.4088  0.5712
 6672SOL    HW131649   0.588   4.061   3.659  2.0479 -1.0658 -2.0768
 6672SOL    HW231650   0.731   4.054   3.657  0.2342 -1.3767  1.4618
 6673SOL     OW31651   2.790   0.029   9.445 -0.0868  0.0879 -0.0256
 6673SOL    HW131652   2.871   0.074   9.422  0.3393 -0.6943 -0.0705
 6673SOL    HW231653   2.753   0.003   9.360 -2.9001 -1.8712  1.7937
 6674SOL     OW31654   4.045   0.970   1.169 -0.0504 -0.2677 -0.2384
 6674SOL    HW131655   4.001   0.936   1.247  1.8687  0.8968  1.3684
 6674SOL    HW231656   3.976   1.003   1.113  0.9521  0.0802 -1.2659
 6675SOL     OW31657   1.076   2.033   6.926  0.3700  0.0024 -0.1165
 6675SOL    HW131658   1.129   1.972   6.875  1.1656  0.9051 -0.3736
 6675SOL    HW231659   1.103   2.016   7.016 -0.7523 -1.5980 -0.0780
 6676SOL     OW31660   1.646   2.881   9.360  0.3107  0.4792  0.7209
 6676SOL    HW131661   1.597   2.931   9.426 -1.1071  1.3725 -1.0026
 6676SOL    HW231662   1.655   2.950   9.294  1.6568 -1.2756 -0.9284
 6677SOL     OW31663   0.504   3.900   3.562 -0.9119 -0.1795 -0.3966
 6677SOL    HW131664   0.422   3.934   3.524  0.1083  1.5613 -1.0481
 6677SOL    HW231665   0.465   3.868   3.643 -0.3805  1.5702  0.5483
 6678SOL     OW31666   2.805   2.401   2.483 -0.2254  0.2683 -0.5019
 6678SOL    HW131667   2.878   2.461   2.468  0.7262 -0.7469 -0.0132
 6678SOL    HW231668   2.804   2.350   2.401  1.9996  0.6340 -0.7679
 6679SOL     OW31669   4.544   4.470  13.975 -0.6195 -0.1704 -0.0146
 6679SOL    HW131670   4.635   4.481  14.004 -0.9293 -2.1996  1.7738
 6679SOL    HW231671   4.545   4.479  13.880  1.2819  1.8012  0.1820
 6680SOL     OW31672   3.953   4.584   7.941  0.3969  0.3377  0.1808
 6680SOL    HW131673   3.947   4.559   8.033 -2.0716  1.4786  0.3278
 6680SOL    HW231674   3.862   4.569   7.915  0.9990  1.4767 -2.5340
 6681SOL     OW31675   1.749   2.534  11.791 -0.0304 -0.1532  0.1953
 6681SOL    HW131676   1.707   2.528  11.877 -0.7603 -0.0125 -0.1473
 6681SOL    HW231677   1.724   2.452  11.748 -0.5095 -0.6651  1.4288
 6682SOL     OW31678   4.585   3.006   2.350  0.1972  0.1346  0.1424
 6682SOL    HW131679   4.503   2.999   2.303  2.0497  1.6072 -3.2680
 6682SOL    HW231680   4.566   3.039   2.438 -1.8003 -0.0736 -0.2289
 6683SOL     OW31681   3.227   2.580   8.301  0.5741 -0.1953 -0.3787
 6683SOL    HW131682   3.251   2.639   8.373  1.3390 -1.9021  0.7646
 6683SOL    HW231683   3.310   2.554   8.261  2.1209  1.9186  1.4521
 6684SOL     OW31684   2.605   1.693   1.264 -0.6619  0.1558 -0.1453
 6684SOL    HW131685   2.663   1.644   1.206  0.0364 -0.9574  1.4875
 6684SOL    HW231686   2.608   1.778   1.219  2.4873  0.4913  0.7218
 6685SOL     OW31687   2.950   1.301   9.898  0.1138  0.3346  0.5309
 6685SOL    HW131688   2.888   1.254   9.954  0.5658  0.8453  1.4749
 6685SOL    HW231689   3.004   1.236   9.855 -0.6997  0.4230 -0.6176
 6686SOL     OW31690   4.042   0.443  17.435 -0.3501 -0.0862  0.2323
 6686SOL    HW131691   4.022   0.368  17.379 -0.5720  1.4453 -1.7413
 6686SOL    HW231692   4.055   0.508  17.366  0.7891 -1.3396 -0.7476
 6687SOL     OW31693   2.197   2.611   4.654  0.2790  0.3453  0.2760
 6687SOL    HW131694   2.139   2.538   4.633 -2.8381  2.3026  2.0260
 6687SOL    HW231695   2.272   2.566   4.692 -1.3935 -1.5021  1.3985
 6688SOL     OW31696   0.902   0.404   3.726  0.0451 -0.0735 -0.6454
 6688SOL    HW131697   0.911   0.471   3.794 -0.6406  0.7175 -1.3309
 6688SOL    HW231698   0.811   0.376   3.740 -0.1751  1.3512  0.9083
 6689SOL     OW31699   1.790   1.358   3.318  0.6707 -0.5094  0.5373
 6689SOL    HW131700   1.711   1.316   3.283  1.4545 -2.3824  0.9893
 6689SOL    HW231701   1.755   1.435   3.362 -0.8577 -0.3730 -0.9498
 6690SOL     OW31702   1.405   4.167   5.916  0.1603  0.5385  0.0540
 6690SOL    HW131703   1.400   4.085   5.965  0.0554  0.5704  0.0972
 6690SOL    HW231704   1.479   4.144   5.861 -1.6690 -1.6350 -1.5150
 6691SOL     OW31705   3.030   4.055   9.221  0.1131  0.0451 -0.3609
 6691SOL    HW131706   3.051   4.024   9.309 -0.1323 -0.7768 -0.5888
 6691SOL    HW231707   3.094   4.000   9.175 -1.0731 -0.1692 -1.7546
 6692SOL     OW31708   1.513   3.293   2.297  0.4095  0.3174 -0.3981
 6692SOL    HW131709   1.433   3.334   2.328 -1.6528 -2.6956 -1.7454
 6692SOL    HW231710   1.560   3.278   2.380 -1.5375  0.3536  0.7131
 6693SOL     OW31711   1.162   3.185   5.999  0.6489  0.2155 -0.4311
 6693SOL    HW131712   1.235   3.129   5.974  1.5575  0.7941  0.9198
 6693SOL    HW231713   1.193   3.230   6.078  0.2739  0.2737 -0.3179
 6694SOL     OW31714   2.246   0.852   4.223  0.4167 -0.6477 -0.3225
 6694SOL    HW131715   2.209   0.919   4.166 -1.5078 -0.5395  1.0271
 6694SOL    HW231716   2.182   0.780   4.223  0.1497 -0.4107  0.2707
 6695SOL     OW31717   3.406   3.894  12.908  0.1336 -0.3026 -0.0857
 6695SOL    HW131718   3.352   3.972  12.916  2.0497  0.9497  0.6221
 6695SOL    HW231719   3.483   3.918  12.960 -1.4190  2.0018  1.1522
 6696SOL     OW31720   1.771   3.309   3.835 -0.4000 -0.4690 -0.5681
 6696SOL    HW131721   1.789   3.333   3.926  0.5620  1.1006 -1.1677
 6696SOL    HW231722   1.677   3.296   3.838 -0.3917  0.2118  2.9947
 6697SOL     OW31723   2.174   0.269   8.317 -0.7805  0.1049  0.1895
 6697SOL    HW131724   2.079   0.280   8.310 -0.8490  0.6227  1.9935
 6697SOL    HW231725   2.205   0.329   8.248 -0.7184  1.0958  1.0832
 6698SOL     OW31726   3.311   3.255   5.683  0.2918  0.1035  0.2231
 6698SOL    HW131727   3.276   3.167   5.684  0.3145  0.1014  0.5867
 6698SOL    HW231728   3.239   3.308   5.718  0.9715  0.7401  0.6708
 6699SOL     OW31729   0.352   3.463   4.933 -0.5171  0.0316  0.5142
 6699SOL    HW131730   0.372   3.554   4.957 -1.1812  1.0710 -2.8524
 6699SOL    HW231731   0.420   3.406   4.967  0.5605  1.2624  0.4140
 6700SOL     OW31732   0.384   0.176  11.184  0.6451 -0.0277 -0.0763
 6700SOL    HW131733   0.329   0.164  11.106 -0.1713  1.4404  0.2655
 6700SOL    HW231734   0.459   0.210  11.135 -0.9196  0.6501 -2.0440
 6701SOL     OW31735   3.062   4.040  12.861  0.6781 -0.2147 -0.3525
 6701SOL    HW131736   3.050   3.947  12.840  0.7299 -0.1550 -0.6533
 6701SOL    HW231737   3.076   4.033  12.955  1.1730  0.8560 -0.3414
 6702SOL     OW31738   4.056   3.204  12.485  0.0064 -0.2275 -0.4911
 6702SOL    HW131739   4.034   3.165  12.570 -0.2579 -0.6453 -0.7556
 6702SOL    HW231740   4.058   3.123  12.435  1.9419 -0.3961 -0.1310
 6703SOL     OW31741   3.636   0.386  14.638 -0.1976 -0.1016  0.7804
 6703SOL    HW131742   3.598   0.340  14.563  0.2650  2.4817 -1.0055
 6703SOL    HW231743   3.659   0.309  14.691  1.0468 -0.4352 -0.2503
 6704SOL     OW31744   1.202   1.188  12.682  0.4999  0.0698 -0.3654
 6704SOL    HW131745   1.153   1.132  12.622  1.6659 -2.8131  1.3875
 6704SOL    HW231746   1.138   1.189  12.753  0.9543 -0.3801  0.0486
 6705SOL     OW31747   3.124   4.294   1.881 -0.3639 -0.2846  0.0436
 6705SOL    HW131748   3.177   4.367   1.911 -1.6720 -0.4830  2.8331
 6705SOL    HW231749   3.163   4.283   1.794  2.6021  1.9983  1.0990
 6706SOL     OW31750   2.837   0.139   7.463 -0.3082 -0.4626 -0.0855
 6706SOL    HW131751   2.931   0.138   7.447 -0.0239 -2.2055  1.6974
 6706SOL    HW231752   2.800   0.163   7.378  0.7306  0.1228 -0.3636
 6707SOL     OW31753   0.047   4.424  17.683 -0.0102 -0.1672 -0.4379
 6707SOL    HW131754   4.693   4.447  17.679  0.2184  0.3160 -2.7839
 6707SOL    HW231755   0.029   4.366   0.004  3.4990 -0.4287  0.2179
 6708SOL     OW31756   0.732   2.204   5.722 -0.0735 -0.7985 -0.0437
 6708SOL    HW131757   0.732   2.156   5.639  0.6515 -1.2416  0.2171
 6708SOL    HW231758   0.806   2.262   5.707 -0.5782 -0.3397 -0.7708
 6709SOL     OW31759   3.657   4.331   4.441  0.2439 -0.0892 -0.3040
 6709SOL    HW131760   3.620   4.331   4.529  2.2571 -2.2724  0.5525
 6709SOL    HW231761   3.736   4.278   4.449  0.1252 -0.2247 -0.0523
 6710SOL     OW31762   0.924   2.777   8.886  0.5423  0.1225 -0.2143
 6710SOL    HW131763   0.903   2.752   8.797 -1.8104  2.0662 -0.2019
 6710SOL    HW231764   1.001   2.833   8.872  1.4328 -0.8228  0.8512
 6711SOL     OW31765   3.527   1.745  13.662 -0.1129 -0.1849 -0.1567
 6711SOL    HW131766   3.620   1.744  13.682  0.1219  2.6156 -1.1067
 6711SOL    HW231767   3.512   1.821  13.719 -1.1859  0.6793 -1.5790
 6712SOL     OW31768   4.458   2.080   8.753  0.2273  0.1971 -0.0702
 6712SOL    HW131769   4.467   2.172   8.729  0.3932 -0.1596 -1.3828
 6712SOL    HW231770   4.460   2.090   8.848  0.3795 -0.0767 -0.0437
 6713SOL     OW31771   2.209   3.008   5.599  0.0566  0.4356 -0.2983
 6713SOL    HW131772   2.169   3.083   5.644 -1.5468  1.0597 -2.7628
 6713SOL    HW231773   2.238   3.040   5.514 -1.1813 -1.3288 -1.3846
 6714SOL     OW31774   2.200   0.850  15.996  0.0835 -0.2975  0.2986
 6714SOL    HW131775   2.147   0.795  16.054  1.0379  0.4089  1.8448
 6714SOL    HW231776   2.273   0.791  15.980  0.4005 -0.2485  1.5093
 6715SOL     OW31777   1.407   3.795   2.931 -0.0220 -0.1334  0.6077
 6715SOL    HW131778   1.331   3.758   2.976 -0.8540 -0.2363 -0.8886
 6715SOL    HW231779   1.380   3.886   2.914 -1.4800 -0.5069  0.9461
 6716SOL     OW31780   2.557   1.010  14.510  0.0666 -0.3942 -0.4549
 6716SOL    HW131781   2.569   0.931  14.457  0.6685 -0.1752 -0.6426
 6716SOL    HW231782   2.646   1.013  14.545  0.1355 -0.0980 -0.6539
 6717SOL     OW31783   1.837   2.561   3.111 -0.1729  0.7075  0.1640
 6717SOL    HW131784   1.763   2.534   3.164  1.0943  0.1833  1.6831
 6717SOL    HW231785   1.915   2.565   3.167  0.0114  2.4838 -0.1904
 6718SOL     OW31786   2.842   2.201   2.266 -0.3998 -0.2923  0.2825
 6718SOL    HW131787   2.842   2.120   2.318  0.2203  1.0150  2.3472
 6718SOL    HW231788   2.814   2.170   2.180  1.7353 -0.6922 -0.2665
 6719SOL     OW31789   0.327   0.293   8.562 -0.4463 -0.0769  0.0223
 6719SOL    HW131790   0.256   0.348   8.527  0.1957  1.2592  0.8395
 6719SOL    HW231791   0.326   0.218   8.503 -1.4497 -0.5552  0.6506
 6720SOL     OW31792   1.535   2.696   6.439  0.5571  0.8265 -0.0977
 6720SOL    HW131793   1.472   2.640   6.395 -1.2570  1.9508  1.0972
 6720SOL    HW231794   1.486   2.716   6.518 -0.0402  1.2481 -0.5762
 6721SOL     OW31795   1.386   4.209   6.518 -0.1102 -0.2383  0.0421
 6721SOL    HW131796   1.339   4.126   6.510 -2.6018  0.9827  2.0084
 6721SOL    HW231797   1.316   4.262   6.557 -3.0896 -2.9368 -1.6583
 6722SOL     OW31798   4.048   0.200   0.942  0.0678 -0.7592  0.5904
 6722SOL    HW131799   4.129   0.193   0.892 -0.8799  1.7314 -1.2966
 6722SOL    HW231800   4.079   0.226   1.029 -0.7358 -1.3461  1.0554
 6723SOL     OW31801   4.590   0.346   9.601 -0.0226 -0.2471 -0.3056
 6723SOL    HW131802   4.599   0.387   9.515 -0.3106  0.3441 -0.0512
 6723SOL    HW231803   4.650   0.403   9.649  0.9442 -3.4285  2.2518
 6724SOL     OW31804   0.803   3.312   4.195  0.0731 -0.0256  0.5889
 6724SOL    HW131805   0.833   3.348   4.278  0.9361  0.6961 -0.0323
 6724SOL    HW231806   0.800   3.218   4.209 -0.4417 -0.0674  0.2017
 6725SOL     OW31807   1.277   2.235  17.605  0.0280  0.0958 -0.6764
 6725SOL    HW131808   1.216   2.188  17.662  3.6857 -2.0058  1.5496
 6725SOL    HW231809   1.338   2.279  17.665  1.1072 -1.3269 -0.7210
 6726SOL     OW31810   1.127   0.858   2.299  0.7239  0.6650 -0.5138
 6726SOL    HW131811   1.129   0.769   2.264  2.7761  0.4959  0.0213
 6726SOL    HW231812   1.072   0.854   2.377  2.9949 -2.5133  0.9115
 6727SOL     OW31813   0.213   0.717   7.959  0.2193  0.3801 -0.0148
 6727SOL    HW131814   0.199   0.769   7.879 -0.8080 -0.9968 -0.7218
 6727SOL    HW231815   0.189   0.783   8.025 -1.7505  0.5379 -0.8867
 6728SOL     OW31816   3.844   3.173  13.992  0.0090  0.0188  0.3565
 6728SOL    HW131817   3.873   3.198  13.905 -1.0000 -1.3299 -0.3802
 6728SOL    HW231818   3.860   3.078  13.992  0.6707  0.1218 -2.0847
 6729SOL     OW31819   4.334   1.660   8.186 -0.2113  0.2388 -0.0865
 6729SOL    HW131820   4.409   1.622   8.232  1.2579  0.5915 -2.2082
 6729SOL    HW231821   4.375   1.689   8.105 -2.4499  3.3607 -0.1176
 6730SOL     OW31822   2.261   2.966   3.441 -0.4105 -0.2053  0.2592
 6730SOL    HW131823   2.312   2.941   3.519 -0.1526 -0.8479 -0.1143
 6730SOL    HW231824   2.296   3.055   3.440  0.3642 -0.5311 -1.2732
 6731SOL     OW31825   1.981   0.988   8.548  0.2193  0.3039 -0.2504
 6731SOL    HW131826   2.022   0.935   8.617  0.2302  0.8578  0.1681
 6731SOL    HW231827   1.898   1.018   8.586 -0.5119 -0.9140 -0.8803
 6732SOL     OW31828   1.251   3.391   3.591 -0.1161 -0.1830 -0.1241
 6732SOL    HW131829   1.271   3.406   3.498  1.1646 -1.0620  0.0179
 6732SOL    HW231830   1.336   3.420   3.624  0.4099 -1.6867 -0.1695
 6733SOL     OW31831   4.011   3.666   3.132 -0.0603 -0.2970  0.1780
 6733SOL    HW131832   3.970   3.649   3.047 -2.7532  2.1030  0.9986
 6733SOL    HW231833   4.072   3.592   3.130 -1.1634 -1.1865  0.0112
 6734SOL     OW31834   2.008   3.771   5.201 -0.6900  0.2557  0.0366
 6734SOL    HW131835   2.026   3.723   5.282  1.4107  0.0269 -0.5779
 6734SOL    HW231836   2.067   3.844   5.217 -0.5877  0.4008 -1.0365
 6735SOL     OW31837   0.995   1.702  14.471  0.0380  0.0819  0.1499
 6735SOL    HW131838   1.081   1.695  14.429  0.7888  0.4222  1.6000
 6735SOL    HW231839   1.009   1.692  14.565  0.9428 -0.2435 -0.0230
 6736SOL     OW31840   0.808   4.142   7.434 -0.3239  0.1033 -0.1785
 6736SOL    HW131841   0.845   4.213   7.382 -3.3644 -0.2988 -2.9022
 6736SOL    HW231842   0.720   4.144   7.395 -0.2143  0.7569 -0.3864
 6737SOL     OW31843   3.049   3.527   5.050  0.1281 -0.2289 -0.3828
 6737SOL    HW131844   3.125   3.583   5.035  0.2373  0.0315  1.1804
 6737SOL    HW231845   3.060   3.522   5.145  1.0995  0.7960 -0.4397
 6738SOL     OW31846   4.443   1.589   2.883 -0.1139 -0.7592 -0.1166
 6738SOL    HW131847   4.437   1.685   2.878  0.7496 -0.6095  1.6814
 6738SOL    HW231848   4.368   1.568   2.938 -0.9594  0.6573 -0.7212
 6739SOL     OW31849   4.386   4.159   8.488  0.4073  0.3294  0.0605
 6739SOL    HW131850   4.413   4.093   8.553 -0.8600 -1.5528 -1.3375
 6739SOL    HW231851   4.304   4.189   8.527  0.2239  1.2017 -0.9942
 6740SOL     OW31852   1.617   3.136   9.279  0.4293 -0.0913 -0.0739
 6740SOL    HW131853   1.599   3.175   9.193  0.7209  1.0108  0.3728
 6740SOL    HW231854   1.641   3.216   9.326  1.5992 -0.4863  0.0173
 6741SOL     OW31855   1.285   4.448  15.175  0.5142 -0.1862 -0.4858
 6741SOL    HW131856   1.200   4.478  15.142  0.1931  0.3322  0.8041
 6741SOL    HW231857   1.313   4.517  15.235 -0.9862 -1.3057  1.4981
 6742SOL     OW31858   3.521   3.039   7.159 -0.5483 -0.1072  0.4367
 6742SOL    HW131859   3.503   2.945   7.148 -0.3622 -0.3175  1.9309
 6742SOL    HW231860   3.435   3.078   7.171 -0.0666  0.8702  0.7205
 6743SOL     OW31861   0.089   1.751   5.598  0.1466 -0.7494  0.1025
 6743SOL    HW131862   0.091   1.667   5.553  0.3926 -0.5413 -0.2759
 6743SOL    HW231863   0.113   1.713   5.682 -0.5250  0.4373  0.8319
 6744SOL     OW31864   3.677   2.101  12.591 -0.2487 -0.4109 -0.5446
 6744SOL    HW131865   3.662   2.086  12.685  1.3407  1.2594 -0.0283
 6744SOL    HW231866   3.702   2.193  12.592 -1.2472 -0.1388 -0.3440
 6745SOL     OW31867   2.416   1.405   8.326  0.0310  0.1021  0.1148
 6745SOL    HW131868   2.509   1.396   8.304  0.2226  0.6604  0.6987
 6745SOL    HW231869   2.408   1.358   8.409  0.8219 -2.6371 -1.3533
 6746SOL     OW31870   4.542   0.875   4.538  0.0921 -0.0630 -0.6201
 6746SOL    HW131871   4.466   0.915   4.496 -1.6490 -4.4028 -1.5522
 6746SOL    HW231872   4.556   0.792   4.493  2.3169 -0.8910  1.5856
 6747SOL     OW31873   2.018   1.310   8.152 -0.1989 -0.7788 -0.2099
 6747SOL    HW131874   2.039   1.402   8.170 -1.1608 -1.0100  2.1758
 6747SOL    HW231875   2.085   1.274   8.210 -1.4731 -0.0234  1.7309
 6748SOL     OW31876   0.005   3.694  13.286 -0.3797 -0.1605  0.3116
 6748SOL    HW131877   0.092   3.685  13.324 -0.2284  2.8404  0.6296
 6748SOL    HW231878   4.712   3.776  13.324 -1.6799 -0.2306 -0.5973
 6749SOL     OW31879   0.611   4.546   0.250  0.8871 -0.4257 -0.8378
 6749SOL    HW131880   0.685   4.580   0.300  0.3034  1.6213 -1.3339
 6749SOL    HW231881   0.614   4.610   0.179  0.2302  0.5274 -0.0235
 6750SOL     OW31882   1.811   4.269   6.727 -0.3463  0.7456  0.3381
 6750SOL    HW131883   1.828   4.240   6.637 -2.5524 -0.6969  0.3828
 6750SOL    HW231884   1.717   4.253   6.721 -0.7683  2.7836  1.8233
 6751SOL     OW31885   4.070   3.644   4.904  0.0589 -0.1512  0.0761
 6751SOL    HW131886   4.112   3.626   4.987 -2.3247 -0.5673  1.1791
 6751SOL    HW231887   3.981   3.615   4.924 -0.8381  2.1247 -0.5354
 6752SOL     OW31888   3.431   0.679   2.064 -0.5651 -0.4308 -0.4184
 6752SOL    HW131889   3.480   0.608   2.023  0.9142  0.4463 -0.1479
 6752SOL    HW231890   3.382   0.720   1.992  0.5085  1.3728 -0.1125
 6753SOL     OW31891   1.236   0.811   7.040  1.0363 -0.2513  0.3327
 6753SOL    HW131892   1.171   0.867   6.998  1.0235 -2.0470 -2.0750
 6753SOL    HW231893   1.181   0.748   7.087  2.0275 -0.5714  1.0685
 6754SOL     OW31894   3.268   2.983   2.539  0.3478  0.2679 -0.4258
 6754SOL    HW131895   3.174   2.975   2.556  0.2137  0.2805 -1.1666
 6754SOL    HW231896   3.278   3.077   2.552  1.6337 -0.0049  0.5886
 6755SOL     OW31897   3.689   2.367   6.026  0.1118 -0.1217 -0.4033
 6755SOL    HW131898   3.684   2.372   6.122 -0.3616  1.3113 -0.5106
 6755SOL    HW231899   3.783   2.354   6.015 -0.0267 -0.5253 -1.1055
 6756SOL     OW31900   3.522   2.577   8.124 -0.5220  0.0892 -0.0680
 6756SOL    HW131901   3.580   2.629   8.068  0.0325 -0.8331 -0.3464
 6756SOL    HW231902   3.581   2.550   8.194  0.8705  0.3881 -1.1214
 6757SOL     OW31903   0.446   2.420   2.927  0.2360  0.2137  0.5371
 6757SOL    HW131904   0.433   2.464   2.843  2.8670  0.0023  0.0165
 6757SOL    HW231905   0.489   2.491   2.975 -1.3196  0.3250  1.7557
 6758SOL     OW31906   0.794   3.838   6.088 -0.1134 -0.2514 -0.1478
 6758SOL    HW131907   0.800   3.755   6.041  2.5776  0.8541 -1.6914
 6758SOL    HW231908   0.864   3.837   6.153  0.2746  1.3636 -0.5500
 6759SOL     OW31909   2.748   3.192  11.638  0.2933 -0.2514  0.3879
 6759SOL    HW131910   2.701   3.122  11.593  0.1542  0.9334 -1.2714
 6759SOL    HW231911   2.683   3.261  11.647 -0.5579 -1.2150  1.6962
 6760SOL     OW31912   2.112   3.209  16.195  0.2054 -0.6566  0.8352
 6760SOL    HW131913   2.195   3.169  16.220 -0.3419 -2.4831 -0.2328
 6760SOL    HW231914   2.070   3.134  16.153 -0.3441  0.7290 -1.1147
 6761SOL     OW31915   2.506   3.647   3.665 -0.2372 -0.1706 -0.0097
 6761SOL    HW131916   2.445   3.721   3.673  0.0082  0.1980 -1.6506
 6761SOL    HW231917   2.556   3.687   3.593 -0.9834  0.2742 -0.2838
 6762SOL     OW31918   2.580   1.095  15.664 -0.2764  0.4526  0.0835
 6762SOL    HW131919   2.615   1.012  15.629  1.1901  0.9827  0.3056
 6762SOL    HW231920   2.645   1.115  15.731 -1.5894 -0.7907  1.7277
 6763SOL     OW31921   4.492   3.735   3.427 -0.2541  0.0400 -0.1289
 6763SOL    HW131922   4.579   3.743   3.467 -0.0195 -0.1241 -0.6098
 6763SOL    HW231923   4.512   3.751   3.335 -0.9679 -0.9259 -0.4467
 6764SOL     OW31924   0.431   4.262   8.009 -0.2795 -0.1236 -0.4025
 6764SOL    HW131925   0.507   4.220   7.968 -0.3424 -1.5498  0.9049
 6764SOL    HW231926   0.393   4.187   8.056  0.7950 -0.0265  0.6271
 6765SOL     OW31927   1.469   1.502  10.929 -0.0337 -0.0250  0.0503
 6765SOL    HW131928   1.525   1.580  10.928  2.0887 -1.5444  1.1893
 6765SOL    HW231929   1.469   1.477  11.021  2.6383 -1.9672 -0.4884
 6766SOL     OW31930   3.841   3.186   3.663 -0.0012 -0.0806 -0.2246
 6766SOL    HW131931   3.839   3.115   3.728 -0.5181  1.9733  2.0107
 6766SOL    HW231932   3.934   3.196   3.641  0.1482 -1.1467 -0.1035
 6767SOL     OW31933   2.097   0.181   0.196 -0.0860  0.1669  0.6377
 6767SOL    HW131934   2.053   0.208   0.115 -3.0705 -1.5995  1.6605
 6767SOL    HW231935   2.070   0.253   0.254 -0.7542  0.9366 -0.6318
 6768SOL     OW31936   4.046   1.487   6.433 -0.0009  0.3252  0.5470
 6768SOL    HW131937   4.068   1.579   6.415  0.3107 -0.2866 -2.1252
 6768SOL    HW231938   3.964   1.484   6.483  1.8150 -4.1181  3.2474
 6769SOL     OW31939   3.484   0.696   8.782  0.2266 -0.0606  0.4191
 6769SOL    HW131940   3.530   0.706   8.865 -0.1225 -1.0827  0.7370
 6769SOL    HW231941   3.400   0.661   8.810  0.7785 -0.5278  1.4835
 6770SOL     OW31942   2.268   3.843   3.506  0.2169  0.2264 -0.4534
 6770SOL    HW131943   2.238   3.753   3.519  0.1543  0.1398 -1.2277
 6770SOL    HW231944   2.190   3.894   3.481 -0.0875  1.0332  2.1423
 6771SOL     OW31945   4.127   2.080   8.865  0.0240 -0.0538  0.4157
 6771SOL    HW131946   4.036   2.052   8.867  0.0745 -0.3044 -0.5818
 6771SOL    HW231947   4.167   1.993   8.872 -3.6851 -1.5943  2.1528
 6772SOL     OW31948   4.188   0.096  10.068  0.0330  0.2080 -0.3826
 6772SOL    HW131949   4.262   0.068  10.014 -1.7624  1.6901 -3.6190
 6772SOL    HW231950   4.195   0.042  10.147 -0.1609  0.3118 -0.2945
 6773SOL     OW31951   1.259   2.276   8.018  0.5555 -0.1797 -0.1839
 6773SOL    HW131952   1.191   2.328   7.977 -0.8350 -1.4843  0.4695
 6773SOL    HW231953   1.213   2.257   8.100 -1.3732  0.9309 -1.0079
 6774SOL     OW31954   1.457   1.988   0.726 -0.6890 -0.5288  0.3795
 6774SOL    HW131955   1.421   2.066   0.683  1.9498 -0.4764 -1.6901
 6774SOL    HW231956   1.527   2.030   0.776 -1.2005  1.9564 -0.9916
 6775SOL     OW31957   4.347   4.442   9.421 -0.1701  0.2022  0.1053
 6775SOL    HW131958   4.342   4.354   9.382 -0.5901 -0.6773  2.1383
 6775SOL    HW231959   4.440   4.447   9.442  0.1010  1.1615 -1.3236
 6776SOL     OW31960   4.722   0.893  14.544 -0.5759  0.3770  0.1057
 6776SOL    HW131961   0.022   0.876  14.458  0.4088 -1.2973  0.8881
 6776SOL    HW231962   4.713   0.987  14.533  0.2150  0.1495 -2.5502
 6777SOL     OW31963   3.573   3.740   5.703 -0.1064  0.5522 -0.0134
 6777SOL    HW131964   3.626   3.798   5.758  1.1195  1.6243 -2.3278
 6777SOL    HW231965   3.648   3.693   5.666 -0.8838  0.5598 -1.5578
 6778SOL     OW31966   1.045   3.924   5.397 -0.6649 -0.2623  0.4999
 6778SOL    HW131967   1.126   3.910   5.348 -0.2290  1.0870  0.8467
 6778SOL    HW231968   0.989   3.876   5.335 -0.9867 -0.8953  1.2827
 6779SOL     OW31969   4.487   3.043   9.490  0.0980  0.3089  0.2993
 6779SOL    HW131970   4.422   3.110   9.510  1.0022  1.6233 -1.1711
 6779SOL    HW231971   4.474   3.054   9.395  0.0016 -2.1453  0.0115
 6780SOL     OW31972   2.828   1.157  14.692 -0.2596 -0.3945 -0.1667
 6780SOL    HW131973   2.826   1.101  14.615 -1.2381 -0.7175  0.1002
 6780SOL    HW231974   2.914   1.146  14.733 -0.0413  1.0162 -0.2225
 6781SOL     OW31975   4.115   1.529  12.766 -0.5325 -0.8049  0.2601
 6781SOL    HW131976   4.206   1.558  12.772 -1.2317  1.1081  1.7382
 6781SOL    HW231977   4.063   1.596  12.809  0.9568  0.8370 -0.5077
 6782SOL     OW31978   0.719   1.993  16.117  0.4969 -0.5822 -0.0826
 6782SOL    HW131979   0.679   2.054  16.179 -1.8845 -1.1127 -1.1130
 6782SOL    HW231980   0.685   1.911  16.152  1.2241  0.2479  2.5938
 6783SOL     OW31981   1.405   1.138   0.745  0.3552 -0.1672  0.3304
 6783SOL    HW131982   1.384   1.232   0.749 -0.0470 -0.2031 -1.0800
 6783SOL    HW231983   1.415   1.134   0.650 -2.0283 -1.8199  0.1749
 6784SOL     OW31984   1.401   3.069   5.907 -0.3425 -0.1189 -0.3193
 6784SOL    HW131985   1.476   3.111   5.865 -1.1600  1.0174 -0.6541
 6784SOL    HW231986   1.433   3.045   5.994 -0.8824 -0.2619 -0.1618
 6785SOL     OW31987   1.364   2.814   9.664  0.1714  0.0940  0.3380
 6785SOL    HW131988   1.293   2.767   9.709 -1.4082  1.4599 -0.7239
 6785SOL    HW231989   1.325   2.824   9.577  0.2219 -0.0478  0.3000
 6786SOL     OW31990   0.298   0.272   0.594 -0.3630  0.3042  0.2802
 6786SOL    HW131991   0.248   0.203   0.640  0.6394 -1.8142 -1.7960
 6786SOL    HW231992   0.223   0.309   0.548  0.4193  0.9624 -0.4500
 6787SOL     OW31993   0.859   1.200   9.181 -0.1109  0.0678 -0.2956
 6787SOL    HW131994   0.832   1.270   9.122 -1.2238  0.2557  0.4407
 6787SOL    HW231995   0.786   1.139   9.169 -0.5544  0.2610  1.4210
 6788SOL     OW31996   2.086   3.264   2.337  0.1347 -0.1702  0.2405
 6788SOL    HW131997   2.149   3.223   2.278 -0.5625 -0.6234 -0.1859
 6788SOL    HW231998   2.089   3.355   2.305  0.2990 -0.3935 -0.3897
 6789SOL     OW31999   0.838   4.041   4.866 -0.3851  0.7167 -0.3353
 6789SOL    HW132000   0.846   4.049   4.771 -0.6533 -0.0053 -0.4196
 6789SOL    HW232001   0.927   4.054   4.899 -0.3546  1.2950 -0.6491
 6790SOL     OW32002   2.414   1.666   8.472  0.3743  0.5206 -0.2970
 6790SOL    HW132003   2.339   1.713   8.509  0.0601 -0.2291  0.0192
 6790SOL    HW232004   2.403   1.589   8.528 -1.5850  0.7972 -0.2931
 6791SOL     OW32005   4.094   4.416   1.301 -0.3103  0.0133 -0.5222
 6791SOL    HW132006   4.087   4.508   1.328 -0.1972  0.4135 -1.8558
 6791SOL    HW232007   4.152   4.426   1.225  1.7525  1.5017  1.2681
 6792SOL     OW32008   3.782   1.687   6.776  0.0554  0.1324 -0.1059
 6792SOL    HW132009   3.695   1.715   6.805 -1.0133 -0.6577 -2.5898
 6792SOL    HW232010   3.801   1.609   6.828 -0.6954  0.1724  0.2296
 6793SOL     OW32011   2.184   3.335  16.953 -0.2151 -0.0153  0.0463
 6793SOL    HW132012   2.122   3.317  16.883 -1.6260 -0.0585  1.3020
 6793SOL    HW232013   2.270   3.329  16.912 -1.1679 -0.2006 -1.9040
 6794SOL     OW32014   3.451   4.494   0.015 -0.0756 -0.0931 -0.4376
 6794SOL    HW132015   3.430   4.578   0.054  0.8127 -0.4482  0.7923
 6794SOL    HW232016   3.546   4.500   0.003 -0.2765  2.4736 -0.6387
 6795SOL     OW32017   3.266   1.750   6.551  0.2502  0.6707  0.6802
 6795SOL    HW132018   3.325   1.772   6.478 -0.4446  0.1207 -0.0411
 6795SOL    HW232019   3.238   1.661   6.532 -1.5887  0.9557  2.0962
 6796SOL     OW32020   3.469   2.324  10.255  0.3437 -0.4573  0.2812
 6796SOL    HW132021   3.543   2.367  10.212 -1.3574 -0.4903 -2.6737
 6796SOL    HW232022   3.504   2.273  10.328  0.3150  0.0830  0.6653
 6797SOL     OW32023   3.736   2.093  12.272  0.2599 -0.4720  0.1687
 6797SOL    HW132024   3.719   2.133  12.357 -1.1711  1.1819 -0.8980
 6797SOL    HW232025   3.671   2.024  12.279 -0.9860  0.9316  2.5734
 6798SOL     OW32026   3.223   3.568   5.277  0.3309 -0.7551  0.2672
 6798SOL    HW132027   3.268   3.491   5.312 -0.7366 -1.8885 -0.8441
 6798SOL    HW232028   3.297   3.628   5.283  0.4471 -1.0434  1.7435
 6799SOL     OW32029   4.154   0.856   8.710  0.3102 -0.3465 -0.1439
 6799SOL    HW132030   4.070   0.899   8.701  1.0483  1.4974  1.8335
 6799SOL    HW232031   4.138   0.762   8.724  0.2008 -0.4043 -0.6572
 6800SOL     OW32032   4.116   3.687   1.540 -1.0104  1.0305  0.4902
 6800SOL    HW132033   4.133   3.755   1.605  1.2240  0.8721  0.0704
 6800SOL    HW232034   4.188   3.625   1.549 -1.8090  0.1858  0.9820
 6801SOL     OW32035   3.826   1.807  10.157  0.5393 -0.3329  0.9153
 6801SOL    HW132036   3.738   1.820  10.120  1.5308 -2.6615 -2.2252
 6801SOL    HW232037   3.874   1.767  10.084 -0.2118  0.7729 -0.1946
 6802SOL     OW32038   4.302   3.491   1.555 -0.3041  0.1259  0.0080
 6802SOL    HW132039   4.363   3.450   1.617  2.1805  0.2681 -2.3433
 6802SOL    HW232040   4.359   3.543   1.498  1.3869 -0.0785  1.5220
 6803SOL     OW32041   1.055   3.138   7.463 -0.6098  0.7965 -0.1159
 6803SOL    HW132042   1.132   3.134   7.407 -0.3702  1.6595  0.1472
 6803SOL    HW232043   1.038   3.044   7.465 -2.1369  1.0814  0.8177
 6804SOL     OW32044   1.664   3.287   7.068 -0.1719  0.1795 -0.0754
 6804SOL    HW132045   1.741   3.318   7.116 -1.4248  1.5939  1.0208
 6804SOL    HW232046   1.624   3.372   7.047  0.5998  0.6803  0.4739
 6805SOL     OW32047   0.522   0.883   1.868 -0.0464  0.2314  0.5671
 6805SOL    HW132048   0.428   0.901   1.862  0.1921  0.6028 -1.9582
 6805SOL    HW232049   0.518   0.788   1.880  1.9053 -0.1228 -1.7024
 6806SOL     OW32050   0.876   3.682   9.879  0.2061  0.2003 -0.0424
 6806SOL    HW132051   0.787   3.660   9.851  0.1154  0.4747  0.0304
 6806SOL    HW232052   0.899   3.760   9.829  1.4458  0.0937  0.3861
 6807SOL     OW32053   0.736   3.428   3.027  0.2275 -0.0248  0.5170
 6807SOL    HW132054   0.739   3.509   3.078 -2.1862 -0.1326  0.8107
 6807SOL    HW232055   0.758   3.465   2.942  2.5787 -2.7924 -0.0652
 6808SOL     OW32056   2.960   4.271   6.986  0.5143 -0.2130 -0.2857
 6808SOL    HW132057   3.044   4.226   7.000  1.0338  0.8283 -0.1017
 6808SOL    HW232058   2.943   4.243   6.896 -0.7189  3.1290 -1.0791
 6809SOL     OW32059   3.249   2.355   2.047 -0.1469  0.0424  0.3415
 6809SOL    HW132060   3.317   2.329   2.110 -1.4209  0.7909  2.0060
 6809SOL    HW232061   3.283   2.423   1.989  1.2778 -0.0937  1.0034
 6810SOL     OW32062   1.228   3.936  17.010  0.5392  0.6433  0.6089
 6810SOL    HW132063   1.312   3.891  16.999  1.3126  2.0793  0.5947
 6810SOL    HW232064   1.180   3.878  17.068  2.3310 -1.0321  0.4490
 6811SOL     OW32065   2.358   2.594   5.184  0.5787 -0.2546 -0.6847
 6811SOL    HW132066   2.373   2.652   5.258  1.9963 -1.1975 -0.2292
 6811SOL    HW232067   2.391   2.511   5.220  0.0831  0.8940  2.4419
 6812SOL     OW32068   4.675   2.530   7.957 -0.7348 -0.3957 -0.0758
 6812SOL    HW132069   4.651   2.438   7.965  0.6663 -0.6562  1.1685
 6812SOL    HW232070   0.014   2.526   7.901 -0.2782  0.1898  0.5071
 6813SOL     OW32071   0.817   4.520  12.851  0.3039  0.5092  0.2051
 6813SOL    HW132072   0.759   4.594  12.836  0.3838  0.8147  1.4757
 6813SOL    HW232073   0.775   4.451  12.799  0.8417  0.8218 -0.6501
 6814SOL     OW32074   4.470   4.620  16.910  0.3843  0.2946  0.4217
 6814SOL    HW132075   4.473   4.655  16.999 -1.6182 -0.3514  0.7433
 6814SOL    HW232076   4.558   4.583  16.897 -0.0566 -0.6497  0.0788
 6815SOL     OW32077   3.853   0.066   4.086  0.4428  0.0933  0.5201
 6815SOL    HW132078   3.920   0.077   4.018  0.6563 -2.0017  0.3948
 6815SOL    HW232079   3.820   4.717   4.070  0.8199  0.1657 -0.6301
 6816SOL     OW32080   3.691   2.093   9.678 -0.0519 -0.4216 -0.1222
 6816SOL    HW132081   3.621   2.027   9.675 -0.7456  0.3005  0.2940
 6816SOL    HW232082   3.763   2.043   9.638 -2.3567 -1.1327 -3.4209
 6817SOL     OW32083   3.266   4.145   7.308 -0.0076 -0.1375 -0.7462
 6817SOL    HW132084   3.174   4.125   7.327  0.1018 -0.0250 -0.0861
 6817SOL    HW232085   3.310   4.060   7.318  2.3011  0.9129 -2.0562
 6818SOL     OW32086   0.836   1.177   3.082 -0.3838 -0.2534  0.3604
 6818SOL    HW132087   0.771   1.156   3.148 -0.7244 -1.0347 -0.2197
 6818SOL    HW232088   0.896   1.105   3.102 -0.9035 -1.1514 -1.2888
 6819SOL     OW32089   1.074   1.070   5.390  0.4888  0.3589  0.0900
 6819SOL    HW132090   1.090   0.976   5.380 -1.0780 -0.1042  1.9837
 6819SOL    HW232091   1.062   1.071   5.485  0.1264  0.9436  0.0361
 6820SOL     OW32092   1.978   1.874   3.080 -0.6276  0.3850  0.6760
 6820SOL    HW132093   1.962   1.952   3.027  1.5677 -0.4580 -1.2712
 6820SOL    HW232094   2.069   1.846   3.069 -1.6614 -2.8335  0.2311
 6821SOL     OW32095   1.367   3.224   7.550 -0.0008  0.0280 -0.1546
 6821SOL    HW132096   1.370   3.317   7.570 -3.3595  0.0548  0.1781
 6821SOL    HW232097   1.304   3.198   7.617  0.5779 -0.6253  0.1452
 6822SOL     OW32098   2.140   2.773   4.438 -0.4167  0.2293  0.5729
 6822SOL    HW132099   2.151   2.715   4.513  0.9963 -0.5079 -0.2129
 6822SOL    HW232100   2.208   2.839   4.457 -0.1790 -0.0577  0.7220
 6823SOL     OW32101   4.023   2.285  14.863 -0.2161  0.3335  0.5175
 6823SOL    HW132102   3.951   2.311  14.921 -0.6224 -0.8733  0.5589
 6823SOL    HW232103   4.050   2.371  14.832  1.8885 -0.5475 -0.0861
 6824SOL     OW32104   2.693   1.535   5.895 -0.0222 -0.9316 -0.2813
 6824SOL    HW132105   2.680   1.454   5.846  2.7903 -0.5651 -1.6287
 6824SOL    HW232106   2.708   1.596   5.823  1.2040 -1.7936 -0.7606
 6825SOL     OW32107   4.705   4.327   3.718 -0.1660 -0.9323  0.4906
 6825SOL    HW132108   4.694   4.422   3.728  0.7504 -0.7638 -0.1358
 6825SOL    HW232109   4.614   4.301   3.705 -0.1513 -0.0778 -1.3438
 6826SOL     OW32110   3.601   1.390   4.157 -0.2391  0.4246  0.0781
 6826SOL    HW132111   3.656   1.438   4.219  2.3700  0.5716 -2.3580
 6826SOL    HW232112   3.639   1.311   4.195  1.5861  0.1050 -2.4197
 6827SOL     OW32113   2.217   2.298   7.557 -0.2932 -0.0576 -0.0394
 6827SOL    HW132114   2.179   2.318   7.471  1.0350 -0.6824 -0.7600
 6827SOL    HW232115   2.297   2.252   7.533  1.3972  1.3643  2.9464
 6828SOL     OW32116   2.668   3.357  14.371  0.3195  0.8325  0.4627
 6828SOL    HW132117   2.763   3.369  14.371  0.2427  1.4732 -0.5249
 6828SOL    HW232118   2.636   3.431  14.421 -1.2972 -0.6728  1.6127
 6829SOL     OW32119   1.244   3.322   7.211  0.0631 -0.1179  0.2922
 6829SOL    HW132120   1.299   3.401   7.209 -0.6911  0.4368  1.1727
 6829SOL    HW232121   1.176   3.342   7.147  0.9098 -0.3610 -0.6696
 6830SOL     OW32122   3.587   2.686   3.832 -0.0766  0.1739  0.6027
 6830SOL    HW132123   3.532   2.629   3.777 -1.9454  1.3716  1.2346
 6830SOL    HW232124   3.659   2.624   3.840 -0.4169 -0.1440  1.1889
 6831SOL     OW32125   2.886   4.206   1.945 -0.8200 -0.0397  0.5890
 6831SOL    HW132126   2.871   4.252   2.028 -0.1615 -1.5829  1.5683
 6831SOL    HW232127   2.968   4.239   1.908 -1.1479 -0.9759 -0.9279
 6832SOL     OW32128   1.678   4.292   8.063  0.1299 -0.5485  0.5464
 6832SOL    HW132129   1.745   4.224   8.061  1.5644  0.9962 -2.7916
 6832SOL    HW232130   1.661   4.313   8.155  0.3077  3.8818 -0.4539
 6833SOL     OW32131   4.040   4.552   4.027  0.1488 -0.1327  0.2559
 6833SOL    HW132132   4.078   4.476   4.072 -0.8213 -0.4248  0.5803
 6833SOL    HW232133   4.106   4.620   4.042 -0.2974  0.1569  0.9253
 6834SOL     OW32134   3.717   0.287   4.212 -0.1141  0.2622  0.4722
 6834SOL    HW132135   3.745   0.199   4.184  0.1969  0.3638  0.4605
 6834SOL    HW232136   3.767   0.347   4.157  0.2883 -0.3284  0.1854
 6835SOL     OW32137   3.325   0.252   6.828 -0.4323  0.3411 -0.5663
 6835SOL    HW132138   3.312   0.220   6.917 -1.5349 -1.7802 -1.4969
 6835SOL    HW232139   3.248   0.306   6.813  0.3009  1.8028  0.8651
 6836SOL     OW32140   4.425   0.952   3.263 -0.5085 -0.0757  0.6597
 6836SOL    HW132141   4.378   0.976   3.183  1.8346  0.4770 -0.5638
 6836SOL    HW232142   4.346   0.935   3.314 -1.0089 -0.6591 -0.3162
 6837SOL     OW32143   0.887   3.925   9.820 -0.2357 -0.2811  0.6135
 6837SOL    HW132144   0.919   3.980   9.749 -0.9919 -0.8688 -0.1869
 6837SOL    HW232145   0.818   3.982   9.853  0.9803  0.9709  1.0018
 6838SOL     OW32146   1.050   1.345  17.084 -0.1499  0.1696  0.0774
 6838SOL    HW132147   0.957   1.367  17.091 -0.4390 -1.6464  2.1815
 6838SOL    HW232148   1.031   1.263  17.037 -1.9210 -0.3842  1.7690
 6839SOL     OW32149   4.651   0.854   1.559 -0.0952 -0.2734  0.6120
 6839SOL    HW132150   4.559   0.881   1.551 -0.2047 -0.2569  1.9355
 6839SOL    HW232151   4.655   0.779   1.618 -2.5977 -0.7272  0.1979
 6840SOL     OW32152   1.801   1.293   5.549  0.3081  0.2704  0.0021
 6840SOL    HW132153   1.852   1.296   5.468 -1.2865  1.1942 -0.9645
 6840SOL    HW232154   1.859   1.261   5.619 -2.7191 -2.6884  1.1519
 6841SOL     OW32155   0.734   1.060   5.935 -0.2768 -0.0365 -0.0153
 6841SOL    HW132156   0.772   1.018   5.858  1.9875 -0.5162  1.3520
 6841SOL    HW232157   0.796   1.133   5.930  0.4414 -0.6179  0.3609
 6842SOL     OW32158   4.721   1.093   2.289 -0.0551  0.4625 -0.4385
 6842SOL    HW132159   4.667   1.118   2.213 -1.0314 -0.3057  0.0018
 6842SOL    HW232160   0.067   1.072   2.249  0.3626  2.4652 -0.6145
 6843SOL     OW32161   0.526   1.625   6.277 -0.2175 -0.0010  0.8581
 6843SOL    HW132162   0.505   1.569   6.352  1.1473 -1.3637  0.2327
 6843SOL    HW232163   0.596   1.674   6.321  0.0169  1.2794 -0.9501
 6844SOL     OW32164   4.584   1.819   4.436 -0.1273  0.0695  0.8175
 6844SOL    HW132165   4.548   1.795   4.521 -0.7914 -0.9831  0.2403
 6844SOL    HW232166   4.505   1.862   4.405 -0.0363  0.0184  0.5090
 6845SOL     OW32167   0.144   4.323   8.050  0.2062 -0.3473 -0.3240
 6845SOL    HW132168   0.230   4.336   8.009  0.3897 -1.8403 -0.4012
 6845SOL    HW232169   0.169   4.242   8.093 -0.1310 -0.6535 -0.7025
 6846SOL     OW32170   1.296   4.244   7.568 -0.2389  0.1030 -0.1753
 6846SOL    HW132171   1.214   4.267   7.614 -0.4511  0.8751 -0.9449
 6846SOL    HW232172   1.272   4.151   7.567 -1.2267  0.3263  1.2707
 6847SOL     OW32173   1.561   2.320   4.845 -0.7210  0.3065  0.3234
 6847SOL    HW132174   1.634   2.306   4.905 -1.5638 -2.1893  0.7667
 6847SOL    HW232175   1.537   2.406   4.881  1.1223  0.6610  0.6966
 6848SOL     OW32176   2.794   2.427   8.112 -0.2661 -0.2423 -0.3336
 6848SOL    HW132177   2.797   2.401   8.204 -0.1276 -0.0708 -0.2894
 6848SOL    HW232178   2.782   2.339   8.076 -1.0148 -1.1434  2.1745
 6849SOL     OW32179   3.224   3.724   8.012 -0.2387 -0.2867 -0.0277
 6849SOL    HW132180   3.226   3.643   8.063 -0.6715  0.5474  1.3384
 6849SOL    HW232181   3.269   3.693   7.934 -0.6261 -2.7452  0.7288
 6850SOL     OW32182   1.594   3.029   2.224  0.1789  0.4701  0.1923
 6850SOL    HW132183   1.674   3.045   2.274  0.6069  1.6869 -0.8891
 6850SOL    HW232184   1.555   3.116   2.226  0.8007  0.7620 -0.8310
 6851SOL     OW32185   2.689   4.238   3.951  0.4926  0.9752  0.3541
 6851SOL    HW132186   2.675   4.191   3.869  1.1688  1.2539  0.0804
 6851SOL    HW232187   2.656   4.323   3.921  0.5257 -0.0018 -2.4269
 6852SOL     OW32188   1.686   4.381   3.542  0.3942  0.1424  0.2110
 6852SOL    HW132189   1.706   4.313   3.478  2.6614  1.3417 -0.3760
 6852SOL    HW232190   1.774   4.415   3.557  0.3614  0.5337 -0.4437
 6853SOL     OW32191   3.652   1.333   3.375  0.6357 -0.2733 -0.0133
 6853SOL    HW132192   3.624   1.295   3.292  0.8497  0.5582 -0.4719
 6853SOL    HW232193   3.690   1.252   3.409  2.3513  0.5256 -0.0135
 6854SOL     OW32194   0.116   1.399   4.343 -0.2397 -0.0751 -0.0534
 6854SOL    HW132195   0.176   1.441   4.281  1.5895 -0.4654  1.4382
 6854SOL    HW232196   0.064   1.342   4.286  0.6131 -1.2672  0.3615
 6855SOL     OW32197   2.183   0.854  14.422 -1.0039  0.1956  0.3030
 6855SOL    HW132198   2.181   0.828  14.514 -0.7014  1.6410  0.7180
 6855SOL    HW232199   2.167   0.765  14.390 -0.5069  0.9291 -2.0528
 6856SOL     OW32200   4.554   4.497   2.949  0.2868 -0.9665  0.0505
 6856SOL    HW132201   4.475   4.549   2.957  1.0598  0.4756 -1.6034
 6856SOL    HW232202   4.524   4.418   2.904  0.3513 -0.0733 -1.5470
 6857SOL     OW32203   3.424   3.874   4.652  0.1117  0.3725  1.0387
 6857SOL    HW132204   3.372   3.918   4.584 -1.5859 -1.8419  0.9110
 6857SOL    HW232205   3.488   3.825   4.601 -1.6876  0.8825 -1.7200
 6858SOL     OW32206   0.894   1.348   7.271 -0.5517  0.3551  0.4764
 6858SOL    HW132207   0.903   1.259   7.306  0.6544  0.3344  0.1205
 6858SOL    HW232208   0.935   1.402   7.338  1.5681 -1.0751  0.3612
 6859SOL     OW32209   3.151   0.011  14.655 -0.0129 -0.5511  0.3118
 6859SOL    HW132210   3.238   0.021  14.691  0.9045 -2.3010 -1.3937
 6859SOL    HW232211   3.116   0.094  14.685 -1.9742 -0.2980 -2.6090
 6860SOL     OW32212   0.635   2.664   2.436  0.5127 -0.3057  0.3109
 6860SOL    HW132213   0.699   2.618   2.490 -1.8311 -0.7872  2.6688
 6860SOL    HW232214   0.688   2.668   2.357  1.4341 -1.5204  0.8583
 6861SOL     OW32215   4.735   1.527   1.230 -0.0704  0.4309  0.2073
 6861SOL    HW132216   0.047   1.447   1.213  1.2594  1.3092  0.0972
 6861SOL    HW232217   0.046   1.578   1.293 -1.1775 -1.4652  2.5925
 6862SOL     OW32218   3.542   0.290  14.938 -0.5943  0.1789 -0.3883
 6862SOL    HW132219   3.525   0.379  14.906 -0.7444 -0.1370 -1.1667
 6862SOL    HW232220   3.638   0.284  14.946 -0.4689  0.1638 -2.0518
 6863SOL     OW32221   2.771   2.721   2.273 -0.3416 -0.3932 -0.4640
 6863SOL    HW132222   2.685   2.762   2.269 -0.6968 -1.1733 -0.7686
 6863SOL    HW232223   2.764   2.691   2.364 -2.2718  2.5170  0.3348
 6864SOL     OW32224   3.471   0.906  16.071  0.2981  0.1010  0.0311
 6864SOL    HW132225   3.481   0.986  16.018  2.1984 -0.7291 -0.8503
 6864SOL    HW232226   3.495   0.840  16.007 -1.5570 -0.5824  0.0544
 6865SOL     OW32227   4.041   0.336  14.396  0.5593  0.0942 -0.0563
 6865SOL    HW132228   4.016   0.253  14.355  2.9933  0.9915 -3.3295
 6865SOL    HW232229   3.958   0.380  14.412  0.8075 -0.7164  3.5594
 6866SOL     OW32230   0.541   3.836   4.406  0.6710  0.3763 -0.8939
 6866SOL    HW132231   0.467   3.782   4.379  1.5337 -1.1002 -0.3359
 6866SOL    HW232232   0.602   3.803   4.339  0.7828  0.4613 -0.8349
 6867SOL     OW32233   1.147   2.973   9.541  0.3211 -0.4813 -0.0003
 6867SOL    HW132234   1.194   3.026   9.606 -0.5227  3.0174 -2.2527
 6867SOL    HW232235   1.196   2.983   9.459 -1.0152 -1.4587 -0.9228
 6868SOL     OW32236   0.497   1.414  11.070  0.0954  0.0712 -0.0263
 6868SOL    HW132237   0.534   1.376  11.150  1.0271 -1.5569 -1.2252
 6868SOL    HW232238   0.406   1.392  11.088  0.6969 -1.1366  1.6096
 6869SOL     OW32239   2.182   2.880   7.747  0.4279 -0.3364 -0.1674
 6869SOL    HW132240   2.270   2.885   7.785 -0.1981 -2.3647  1.5577
 6869SOL    HW232241   2.191   2.795   7.704  0.1216 -0.5266  0.1464
 6870SOL     OW32242   2.213   3.567   3.444 -0.1114 -0.0651  0.1449
 6870SOL    HW132243   2.186   3.494   3.500  0.1027 -0.8109 -0.7352
 6870SOL    HW232244   2.196   3.528   3.358 -0.6705  2.1701 -0.7656
 6871SOL     OW32245   3.756   2.002  17.475  0.5416  0.0280 -0.1302
 6871SOL    HW132246   3.844   1.994  17.438  0.2910  0.5688 -0.8514
 6871SOL    HW232247   3.762   2.008  17.570 -1.1251  3.4054 -0.2501
 6872SOL     OW32248   4.279   1.958  17.341 -0.0535 -0.2295 -0.1564
 6872SOL    HW132249   4.345   2.025  17.319 -2.4810  1.1434 -3.1785
 6872SOL    HW232250   4.336   1.898  17.389  0.8498  1.4150  0.8502
 6873SOL     OW32251   4.277   2.279  16.528  0.2604 -0.0024 -0.5358
 6873SOL    HW132252   4.324   2.214  16.477  1.5842 -0.1300  0.8394
 6873SOL    HW232253   4.222   2.305  16.455 -1.8314 -4.9233 -0.6656
 6874SOL     OW32254   1.190   1.790   8.915 -0.3028 -0.4564  0.1948
 6874SOL    HW132255   1.222   1.710   8.956  0.6429 -0.6155 -0.8638
 6874SOL    HW232256   1.141   1.746   8.845  0.6856  0.3430 -0.9995
 6875SOL     OW32257   3.699   2.653   6.969 -0.4805 -0.1920  0.3429
 6875SOL    HW132258   3.685   2.666   7.063  0.0359 -0.7956  0.5032
 6875SOL    HW232259   3.768   2.712   6.937  0.6419  0.2394  3.5338
 6876SOL     OW32260   3.233   0.913  13.169  0.8838  0.3920 -0.3451
 6876SOL    HW132261   3.275   0.956  13.243  0.3923 -0.9055  0.6949
 6876SOL    HW232262   3.206   0.994  13.127  3.6944  1.7612  0.4945
 6877SOL     OW32263   3.091   2.566   0.340 -0.5744 -0.3605  0.2550
 6877SOL    HW132264   3.046   2.553   0.423 -3.1820 -1.0299 -1.2842
 6877SOL    HW232265   3.103   2.476   0.308 -1.6083 -0.6782  0.7665
 6878SOL     OW32266   2.185   2.480   7.082 -0.2201  0.0085 -0.4154
 6878SOL    HW132267   2.113   2.522   7.035  1.7221  0.7439 -2.7211
 6878SOL    HW232268   2.240   2.545   7.126  1.1094 -0.3278 -1.5812
 6879SOL     OW32269   3.120   1.120   0.782  0.1709  0.1013  0.3104
 6879SOL    HW132270   3.202   1.145   0.739 -0.3658  0.2346 -0.6586
 6879SOL    HW232271   3.065   1.121   0.703  2.9181  0.4841 -1.6053
 6880SOL     OW32272   1.645   1.471   6.241  0.0526  1.1783  0.1462
 6880SOL    HW132273   1.565   1.509   6.205 -0.2222 -0.4122 -0.9453
 6880SOL    HW232274   1.689   1.542   6.286  1.0750  0.4452  0.3026
 6881SOL     OW32275   1.141   3.045   8.249 -0.7939  0.1799 -0.7860
 6881SOL    HW132276   1.227   3.057   8.289 -0.4358 -1.4447 -1.0424
 6881SOL    HW232277   1.093   3.111   8.298  1.7115  2.6941 -1.7607
 6882SOL     OW32278   3.477   0.772   9.367 -0.3796  0.2857 -0.4789
 6882SOL    HW132279   3.531   0.790   9.443 -0.2089 -4.1655  0.4714
 6882SOL    HW232280   3.398   0.734   9.407 -0.5564 -1.0466 -2.0590
 6883SOL     OW32281   1.354   4.187   4.924 -0.1768  0.0032 -0.2177
 6883SOL    HW132282   1.378   4.167   4.833 -0.0886 -0.0747 -0.1780
 6883SOL    HW232283   1.266   4.150   4.926 -0.5719  0.9205 -0.4570
 6884SOL     OW32284   4.135   1.367   8.134  0.1662 -0.0581 -0.1721
 6884SOL    HW132285   4.087   1.286   8.116  1.8166 -0.6454 -1.8968
 6884SOL    HW232286   4.220   1.331   8.157  0.6481  2.5150  2.0873
 6885SOL     OW32287   2.066   3.071   5.938 -0.2947  0.6143  0.1379
 6885SOL    HW132288   2.073   3.123   5.858  0.7279 -0.8519 -0.7388
 6885SOL    HW232289   2.146   3.091   5.987  0.3919 -0.2411 -0.6295
 6886SOL     OW32290   4.144   1.077   1.530 -0.1868 -0.3467 -0.1040
 6886SOL    HW132291   4.116   1.166   1.549  1.4981 -0.2273  1.8230
 6886SOL    HW232292   4.180   1.053   1.616  0.9368 -1.0158 -0.7611
 6887SOL     OW32293   4.652   2.162  14.840 -0.5335  0.2757  0.0586
 6887SOL    HW132294   0.001   2.155  14.878 -0.8756 -0.4082  0.7097
 6887SOL    HW232295   4.596   2.139  14.913 -1.8776 -0.8965 -1.3274
 6888SOL     OW32296   0.203   4.644   9.511 -0.0527  0.5231  0.1584
 6888SOL    HW132297   0.137   4.708   9.540  1.0659  1.4051  0.7470
 6888SOL    HW232298   0.211   4.603   9.597  2.0554  1.7202  0.5302
 6889SOL     OW32299   0.074   0.829  17.366  0.3912 -0.1478 -0.5686
 6889SOL    HW132300   0.058   0.739  17.335  0.7191 -1.0577  1.9115
 6889SOL    HW232301   0.010   0.886  17.324  0.1396 -1.0812 -1.4792
 6890SOL     OW32302   3.295   1.643   9.218  0.1582 -0.4932 -0.0444
 6890SOL    HW132303   3.352   1.605   9.286  0.6491 -0.1747 -0.2790
 6890SOL    HW232304   3.278   1.563   9.168 -0.0680  0.0283 -0.7972
 6891SOL     OW32305   2.056   4.661  12.243  0.0436  0.1060 -0.5182
 6891SOL    HW132306   2.135   4.690  12.198 -2.2600  3.0555 -2.6369
 6891SOL    HW232307   2.091   4.598  12.307 -2.4433  1.0376  1.7514
 6892SOL     OW32308   2.595   0.936   4.639  0.1273 -0.1086  0.3636
 6892SOL    HW132309   2.679   0.898   4.664  1.0329  0.8246 -1.2672
 6892SOL    HW232310   2.618   1.014   4.588 -0.9328 -0.5676 -0.8149
 6893SOL     OW32311   0.546   2.558   2.099 -0.3908 -0.0163 -0.1161
 6893SOL    HW132312   0.556   2.644   2.138 -0.9007 -0.3408  0.7361
 6893SOL    HW232313   0.632   2.517   2.112 -0.7753 -0.2826  1.5655
 6894SOL     OW32314   0.344   2.945   6.199  0.2846 -0.4503 -0.6090
 6894SOL    HW132315   0.380   2.919   6.284  1.0890 -1.4697 -1.2635
 6894SOL    HW232316   0.265   2.891   6.200  1.9100 -2.8048  0.5960
 6895SOL     OW32317   2.370   0.593  16.952 -0.6114  0.2099  0.3906
 6895SOL    HW132318   2.410   0.506  16.949 -1.1396  0.0627 -2.2998
 6895SOL    HW232319   2.340   0.602  17.042 -0.1361 -2.2168  0.7713
 6896SOL     OW32320   3.567   1.253  11.840 -0.0983 -0.4786 -0.0505
 6896SOL    HW132321   3.647   1.303  11.821 -0.9568  1.4418  1.3842
 6896SOL    HW232322   3.597   1.165  11.817 -3.0196 -1.2564 -0.8655
 6897SOL     OW32323   2.670   1.219  17.200 -0.5498  0.0683  0.1519
 6897SOL    HW132324   2.688   1.129  17.225 -2.6063 -0.2171  0.6689
 6897SOL    HW232325   2.761   1.249  17.200 -1.0307  1.5528 -0.1919
 6898SOL     OW32326   2.375   0.775   5.942  0.3287 -0.2890  1.0608
 6898SOL    HW132327   2.327   0.852   5.970  0.9006  0.7160 -0.7095
 6898SOL    HW232328   2.446   0.778   6.007  1.2954  1.7858 -0.1175
 6899SOL     OW32329   1.616   2.597   8.427  1.0643  0.0745 -0.5098
 6899SOL    HW132330   1.669   2.662   8.475  0.7989 -1.2428  1.5552
 6899SOL    HW232331   1.602   2.644   8.345  0.3628 -0.9482 -0.9710
 6900SOL     OW32332   3.037   1.705   1.978  0.2153  0.3717 -0.6266
 6900SOL    HW132333   2.960   1.741   1.934 -0.0332  0.8936  0.2333
 6900SOL    HW232334   3.010   1.614   1.990  1.2191 -0.0739 -1.7093
 6901SOL     OW32335   4.612   1.588   3.645 -0.3836  0.5588 -0.4763
 6901SOL    HW132336   4.620   1.580   3.740 -2.3794  0.6864 -0.2859
 6901SOL    HW232337   4.575   1.505   3.615 -0.2140  1.1522 -2.3001
 6902SOL     OW32338   1.913   0.926   6.649 -0.6234 -0.1967  0.1930
 6902SOL    HW132339   1.831   0.902   6.693 -3.0832  0.6151 -3.8393
 6902SOL    HW232340   1.882   0.971   6.570  1.8713  0.2639 -0.5271
 6903SOL     OW32341   2.548   1.645   7.375  0.3333 -0.2309 -0.1639
 6903SOL    HW132342   2.572   1.612   7.462 -0.5678  0.0626  0.1898
 6903SOL    HW232343   2.531   1.564   7.328 -0.6402 -0.7513  1.0866
 6904SOL     OW32344   0.891   4.078   9.588 -0.1969 -0.1592 -0.1754
 6904SOL    HW132345   0.959   4.066   9.521 -0.6225  1.6320 -0.9355
 6904SOL    HW232346   0.876   4.171   9.602 -0.5448 -0.1382 -0.6672
 6905SOL     OW32347   3.109   3.264   7.740  0.1504  0.2428 -0.1105
 6905SOL    HW132348   3.043   3.208   7.782  0.3581 -1.2172 -1.7467
 6905SOL    HW232349   3.089   3.350   7.776 -0.4775  0.3664 -0.7499
 6906SOL     OW32350   3.616   1.049   9.214 -0.0831 -0.3791 -0.5644
 6906SOL    HW132351   3.602   0.963   9.176 -1.5980 -0.2445 -0.3101
 6906SOL    HW232352   3.533   1.093   9.196 -0.3480 -1.3826 -1.7845
 6907SOL     OW32353   2.668   0.454   9.060 -0.0813  0.3004 -0.5314
 6907SOL    HW132354   2.669   0.364   9.091  0.2835  0.5517  0.1887
 6907SOL    HW232355   2.671   0.494   9.146  1.0019  2.7993 -1.7204
 6908SOL     OW32356   0.365   3.346  12.101 -0.3745 -0.0301 -0.3980
 6908SOL    HW132357   0.396   3.313  12.016 -3.3135  2.1891 -2.3523
 6908SOL    HW232358   0.325   3.432  12.088  2.2424  0.9591 -1.8242
 6909SOL     OW32359   2.770   2.556   6.498  0.0215  0.1329  0.1501
 6909SOL    HW132360   2.725   2.473   6.484  0.1289 -0.1585  1.5834
 6909SOL    HW232361   2.748   2.568   6.591  2.8509 -1.1605  0.9782
 6910SOL     OW32362   4.456   4.237   5.725 -0.5766 -0.0871  0.0865
 6910SOL    HW132363   4.496   4.206   5.806  0.2426 -0.0436 -0.2997
 6910SOL    HW232364   4.514   4.311   5.705  1.7060 -1.6439  0.9216
 6911SOL     OW32365   3.414   0.988   6.297 -0.9424 -0.3204  0.7248
 6911SOL    HW132366   3.464   0.984   6.379  0.4177  0.2830 -0.0722
 6911SOL    HW232367   3.342   1.040   6.331 -2.0373 -1.4644  0.1800
 6912SOL     OW32368   2.326   2.517   6.593  0.9165 -0.0402  0.3997
 6912SOL    HW132369   2.359   2.537   6.680  2.2842 -2.0423  0.3254
 6912SOL    HW232370   2.406   2.482   6.553  1.5576  0.6311  1.0916
 6913SOL     OW32371   0.291   2.841   3.977  0.0370 -0.7852 -0.1888
 6913SOL    HW132372   0.321   2.857   4.067  1.2183 -0.5474 -0.6150
 6913SOL    HW232373   0.351   2.777   3.938  0.0593 -1.1776  0.4850
 6914SOL     OW32374   1.902   3.290  15.955  0.2463 -0.7631  0.1686
 6914SOL    HW132375   1.981   3.344  15.946 -0.4548  0.1500 -0.4575
 6914SOL    HW232376   1.855   3.357  16.004  2.4116 -0.4843  1.8959
 6915SOL     OW32377   1.562   4.218   5.349  0.3219 -0.1178  0.7981
 6915SOL    HW132378   1.542   4.273   5.273 -1.2865 -0.1286  1.2106
 6915SOL    HW232379   1.656   4.226   5.337  0.1800  1.0884  0.4519
 6916SOL     OW32380   2.943   2.505   6.024  0.3873 -0.3101  0.5241
 6916SOL    HW132381   2.899   2.484   6.106 -1.8922 -1.1069 -0.8920
 6916SOL    HW232382   3.012   2.568   6.044  1.5878 -1.5841  0.3144
 6917SOL     OW32383   3.424   1.516   3.755  0.1913 -0.3606 -0.2922
 6917SOL    HW132384   3.351   1.531   3.694 -1.5266 -0.8271  1.6409
 6917SOL    HW232385   3.501   1.547   3.707  0.7140  1.4357  1.6951
 6918SOL     OW32386   1.364   4.269   9.306 -0.1052 -0.5081 -0.0556
 6918SOL    HW132387   1.438   4.214   9.333  1.2599  1.6844  0.6123
 6918SOL    HW232388   1.341   4.305   9.392 -0.1927 -0.1066 -0.2479
 6919SOL     OW32389   3.672   0.190   4.469  0.6982  0.1865 -0.3867
 6919SOL    HW132390   3.687   0.222   4.380  0.6742 -0.2834 -0.5621
 6919SOL    HW232391   3.578   0.194   4.484  0.5076 -0.6512 -1.3547
 6920SOL     OW32392   1.761   1.697   6.360  0.4255  0.2672  0.5008
 6920SOL    HW132393   1.755   1.792   6.375 -2.2106  0.2265 -0.2312
 6920SOL    HW232394   1.806   1.671   6.440  2.9035  0.2676 -0.8835
 6921SOL     OW32395   0.503   1.195   8.485 -0.1172 -0.2014  0.0848
 6921SOL    HW132396   0.410   1.215   8.488  0.3186  1.8180  0.2003
 6921SOL    HW232397   0.520   1.151   8.568  1.5565  0.0111 -0.1450
 6922SOL     OW32398   1.424   1.428  12.846 -0.1361 -0.2967  0.0858
 6922SOL    HW132399   1.434   1.339  12.811  0.6456  0.2625 -1.1175
 6922SOL    HW232400   1.397   1.420  12.937  1.2108 -0.3413  0.4657
 6923SOL     OW32401   4.671   3.199   7.607  0.0872  0.4694  0.7704
 6923SOL    HW132402   4.578   3.194   7.630 -0.1319 -1.9542 -0.5659
 6923SOL    HW232403   4.660   3.182   7.513  1.6228 -1.2630  0.8898
 6924SOL     OW32404   2.193   0.722   2.208 -0.3266 -0.1653  0.1361
 6924SOL    HW132405   2.147   0.785   2.264 -0.7454  0.0428 -0.4377
 6924SOL    HW232406   2.182   0.645   2.264 -0.8353  2.0880  3.1733
 6925SOL     OW32407   3.344   2.213   8.546  0.5358 -0.8011 -0.1138
 6925SOL    HW132408   3.307   2.208   8.634 -0.8005 -0.1051 -0.6402
 6925SOL    HW232409   3.373   2.304   8.547 -0.5560 -0.4472 -0.7833
 6926SOL     OW32410   3.011   3.871   4.804 -0.2617 -0.4101 -0.2988
 6926SOL    HW132411   2.983   3.835   4.888 -0.4918 -0.9037 -0.5860
 6926SOL    HW232412   2.950   3.943   4.785 -1.6874 -1.3060  0.9313
 6927SOL     OW32413   1.813   2.655   9.540 -0.6229  0.0350  0.1407
 6927SOL    HW132414   1.778   2.732   9.585  0.0809  0.2233  0.3671
 6927SOL    HW232415   1.736   2.632   9.488  0.9102  0.0587 -2.1250
 6928SOL     OW32416   3.819   2.801   2.509  0.0996  0.3046 -0.4198
 6928SOL    HW132417   3.806   2.894   2.491 -2.2908  0.3590  1.5614
 6928SOL    HW232418   3.753   2.800   2.579  0.1991  0.6279 -0.3206
 6929SOL     OW32419   4.195   2.132   3.335 -0.4605 -0.0790  0.0437
 6929SOL    HW132420   4.115   2.154   3.382 -0.1031  1.8180 -0.2584
 6929SOL    HW232421   4.156   2.123   3.248 -1.2916 -1.2234  0.5372
 6930SOL     OW32422   4.676   1.340   8.896 -0.6476 -0.0819 -0.5046
 6930SOL    HW132423   4.638   1.428   8.905 -1.0444 -0.4121  1.0139
 6930SOL    HW232424   4.621   1.282   8.949  1.0403 -1.4104 -0.2158
 6931SOL     OW32425   3.637   4.022   7.712 -0.0140  0.2708  0.3102
 6931SOL    HW132426   3.665   4.104   7.672  0.3626  1.0438  2.1819
 6931SOL    HW232427   3.542   4.023   7.696  0.4991  2.6377 -2.7790
 6932SOL     OW32428   2.908   1.971   2.442 -0.5994  0.3378 -0.6943
 6932SOL    HW132429   2.968   1.944   2.372 -0.7910  0.8797 -1.0751
 6932SOL    HW232430   2.957   2.047   2.474 -0.7939 -1.1035  2.9611
 6933SOL     OW32431   2.779   3.481   5.330  0.5952 -0.1258  0.6365
 6933SOL    HW132432   2.806   3.408   5.274  0.7569  0.8491 -0.5594
 6933SOL    HW232433   2.686   3.463   5.343  0.3839  0.4536 -0.0253
 6934SOL     OW32434   2.111   3.542   2.271  0.7333  0.3298  0.2917
 6934SOL    HW132435   2.174   3.545   2.199 -0.8976  1.9748 -1.0744
 6934SOL    HW232436   2.053   3.614   2.245 -0.0980 -0.3516  0.2396
 6935SOL     OW32437   1.965   0.048  16.690 -0.3347 -0.6375 -0.1953
 6935SOL    HW132438   1.919   0.122  16.731 -2.6448 -1.8628 -0.5685
 6935SOL    HW232439   1.899   0.032  16.623 -0.4115 -0.1279 -0.2405
 6936SOL     OW32440   3.290   3.638  11.705  0.1869 -0.6231 -0.1520
 6936SOL    HW132441   3.371   3.656  11.752  1.2347 -0.9136 -1.8669
 6936SOL    HW232442   3.287   3.543  11.710 -0.6517 -0.5756  0.2575
 6937SOL     OW32443   1.386   0.739   9.967 -0.3947  0.1367 -0.3517
 6937SOL    HW132444   1.465   0.788   9.945  0.8845 -1.2882  1.0703
 6937SOL    HW232445   1.318   0.790   9.923 -0.1617  0.2584 -0.5683
 6938SOL     OW32446   0.030   0.545   7.324 -0.5594  0.2212 -0.1456
 6938SOL    HW132447   0.065   0.572   7.239 -0.1268 -1.7771 -0.6047
 6938SOL    HW232448   0.078   0.463   7.339 -0.1956  0.4399 -0.1039
 6939SOL     OW32449   2.501   1.178   4.320 -0.0360  0.4587  0.5463
 6939SOL    HW132450   2.562   1.178   4.393 -0.6313 -1.1617  1.0525
 6939SOL    HW232451   2.450   1.099   4.339  1.8885 -0.6572  1.0274
 6940SOL     OW32452   1.130   0.796   5.294 -0.1866  0.4129  0.5956
 6940SOL    HW132453   1.223   0.809   5.313 -1.1432  1.3442  4.6352
 6940SOL    HW232454   1.127   0.745   5.213 -0.8844  0.8742  0.3310
 6941SOL     OW32455   1.400   0.683   8.834 -0.1514  0.1357  0.3617
 6941SOL    HW132456   1.460   0.646   8.899  0.0691  2.2586  1.3426
 6941SOL    HW232457   1.449   0.763   8.818  0.2882 -0.6958 -2.6411
 6942SOL     OW32458   3.062   1.126  14.799  0.2116 -0.1992 -0.4564
 6942SOL    HW132459   3.072   1.040  14.840  0.4290  0.3094  0.5638
 6942SOL    HW232460   3.115   1.182  14.856  0.6524 -0.6119 -0.4611
 6943SOL     OW32461   0.830   3.968  14.982 -0.0527 -0.3370  0.3184
 6943SOL    HW132462   0.828   3.900  15.049 -1.0534  0.2976  0.9328
 6943SOL    HW232463   0.875   3.913  14.918  0.5410  0.9261 -0.3386
 6944SOL     OW32464   4.549   0.165   3.761  0.4501 -0.0498 -0.0106
 6944SOL    HW132465   4.578   0.167   3.670  1.5045  0.3594  0.3302
 6944SOL    HW232466   4.483   0.096   3.753  1.0010 -0.7537  1.6730
 6945SOL     OW32467   1.307   1.003   9.841 -1.0123  0.3753  0.4834
 6945SOL    HW132468   1.304   1.098   9.854 -0.7686  0.6214 -1.2000
 6945SOL    HW232469   1.390   0.989   9.887 -0.8223  0.5241  0.1887
 6946SOL     OW32470   0.480   3.477   3.298  0.0431  0.0246 -0.0268
 6946SOL    HW132471   0.455   3.485   3.390  1.5910  1.7844  0.2381
 6946SOL    HW232472   0.429   3.554   3.272 -2.1226 -0.3316  3.2236
 6947SOL     OW32473   4.283   2.041  12.265 -0.1691  0.2842 -0.4731
 6947SOL    HW132474   4.218   2.005  12.204  0.8267  0.4748 -1.6576
 6947SOL    HW232475   4.234   2.067  12.343  1.0151 -0.8159  0.6458
 6948SOL     OW32476   0.191   1.225   8.902  0.0275 -0.0449 -0.0110
 6948SOL    HW132477   0.099   1.248   8.913  0.8135  2.1043  2.1898
 6948SOL    HW232478   0.234   1.299   8.945 -2.3555  1.2084  0.2406
 6949SOL     OW32479   1.171   4.487   8.156 -0.3083 -0.4153 -0.3982
 6949SOL    HW132480   1.251   4.499   8.105 -0.3991 -0.2109 -0.4921
 6949SOL    HW232481   1.175   4.398   8.191 -1.6676 -0.2772  0.1166
 6950SOL     OW32482   4.505   4.495   6.745 -0.3682  0.4286  0.1606
 6950SOL    HW132483   4.561   4.417   6.747 -0.1864  0.5308 -1.1897
 6950SOL    HW232484   4.475   4.493   6.836 -0.4667 -1.6085  0.0879
 6951SOL     OW32485   2.658   1.690   5.182 -0.4029  0.1227 -0.6755
 6951SOL    HW132486   2.720   1.655   5.117 -1.7581 -0.3140 -1.7406
 6951SOL    HW232487   2.720   1.692   5.255 -0.0124 -0.1372 -1.0002
 6952SOL     OW32488   3.670   3.064   3.470 -0.1068  0.4527  0.4296
 6952SOL    HW132489   3.723   3.091   3.544 -0.1360  0.8959  0.2871
 6952SOL    HW232490   3.624   2.988   3.506 -0.2687 -0.5340 -1.8284
 6953SOL     OW32491   2.620   0.064   7.598 -0.5174  0.0002 -0.1201
 6953SOL    HW132492   2.598   4.712   7.575  0.4586 -0.1900 -0.3141
 6953SOL    HW232493   2.709   0.074   7.563 -0.6283  0.6394 -0.2027
 6954SOL     OW32494   0.411   0.226   9.563 -0.1033  0.1905  0.5347
 6954SOL    HW132495   0.506   0.232   9.573  0.1240 -0.1918 -1.4045
 6954SOL    HW232496   0.404   0.131   9.552  2.4869 -0.0723  1.1607
 6955SOL     OW32497   4.167   1.706   5.347 -0.3487  0.3262 -0.1280
 6955SOL    HW132498   4.253   1.733   5.316  0.3727 -1.6027  0.2098
 6955SOL    HW232499   4.173   1.614   5.322  0.0437  0.2108  0.4019
 6956SOL     OW32500   0.628   1.731   7.998  0.6221  0.4501  0.6437
 6956SOL    HW132501   0.571   1.725   8.075  3.1357 -2.3939  2.2714
 6956SOL    HW232502   0.644   1.637   7.984  1.0626  0.4489  1.1308
 6957SOL     OW32503   0.393   1.494  16.822  0.6583  0.2959  0.2697
 6957SOL    HW132504   0.313   1.445  16.840  1.6135 -0.7870  1.5175
 6957SOL    HW232505   0.447   1.477  16.898  1.9305 -0.4476 -0.8016
 6958SOL     OW32506   0.309   0.466   8.060  0.1218 -0.1546 -0.6780
 6958SOL    HW132507   0.292   0.560   8.063  0.4401 -0.0591 -2.0010
 6958SOL    HW232508   0.372   0.472   7.988  1.9720 -0.4028  0.9237
 6959SOL     OW32509   1.486   3.185   8.579  0.2918 -0.0448  0.7839
 6959SOL    HW132510   1.504   3.091   8.577 -0.6625 -0.2123  0.3619
 6959SOL    HW232511   1.395   3.185   8.609  0.1252 -1.0398  0.2549
 6960SOL     OW32512   2.646   1.132   2.854  0.0018 -0.0220 -0.6365
 6960SOL    HW132513   2.614   1.107   2.940  2.6601  1.4681  0.8047
 6960SOL    HW232514   2.654   1.227   2.862 -1.4247 -0.1386  2.1192
 6961SOL     OW32515   0.242   2.992   5.591  0.1728  0.1549 -0.1670
 6961SOL    HW132516   0.314   2.936   5.619 -0.4717 -0.9284 -0.7165
 6961SOL    HW232517   0.199   3.011   5.674  1.7597  3.4224 -0.0739
 6962SOL     OW32518   1.462   3.415   6.053 -0.0896  0.6780 -0.2579
 6962SOL    HW132519   1.460   3.508   6.076  0.5639  0.1751  1.8612
 6962SOL    HW232520   1.493   3.377   6.136  2.8014  0.0031 -1.6499
 6963SOL     OW32521   3.029   3.714   2.382 -0.5698 -0.9901 -0.2593
 6963SOL    HW132522   3.116   3.752   2.385 -0.5243 -1.0358 -1.2130
 6963SOL    HW232523   3.008   3.723   2.289 -1.9812 -0.1556  0.1383
 6964SOL     OW32524   4.334   2.577   5.739  0.1476 -0.1108  0.1069
 6964SOL    HW132525   4.257   2.533   5.776  0.7128 -2.0107 -0.9754
 6964SOL    HW232526   4.337   2.662   5.783  0.6600 -0.5952  0.9955
 6965SOL     OW32527   3.872   2.111  14.680  0.1959 -0.3203 -0.4113
 6965SOL    HW132528   3.947   2.168  14.692 -0.0566 -0.0058 -0.3155
 6965SOL    HW232529   3.806   2.168  14.720  0.7514  1.8188 -2.5418
 6966SOL     OW32530   1.129   3.706  13.874 -0.0652  0.3086  0.0539
 6966SOL    HW132531   1.160   3.741  13.957 -1.8177  1.9107  0.0308
 6966SOL    HW232532   1.044   3.673  13.901 -0.0374  0.7296  0.6572
 6967SOL     OW32533   1.898   2.833  11.332 -0.1138  0.1282  1.0140
 6967SOL    HW132534   1.852   2.907  11.292 -1.3813 -1.3599 -0.2619
 6967SOL    HW232535   1.894   2.769  11.261 -1.6283  0.9644  0.3339
 6968SOL     OW32536   3.853   0.353   0.834 -0.3460  0.1283 -0.0776
 6968SOL    HW132537   3.931   0.305   0.863 -1.2691 -0.9952  0.5012
 6968SOL    HW232538   3.784   0.327   0.894 -0.1053  1.4533  0.7718
 6969SOL     OW32539   0.174   4.040  14.225  0.6139 -0.1399  0.0507
 6969SOL    HW132540   0.085   4.050  14.260 -0.1432 -0.3145 -1.7904
 6969SOL    HW232541   0.187   3.955  14.267  0.2279 -1.2910 -2.1508
 6970SOL     OW32542   0.012   3.500  14.644 -0.3592 -0.9057 -0.5634
 6970SOL    HW132543   0.008   3.519  14.550 -2.1665  0.3349 -0.2585
 6970SOL    HW232544   4.658   3.475  14.652 -0.8447  1.2948  0.7428
 6971SOL     OW32545   1.735   2.200  15.268 -0.6190 -0.0235 -0.7507
 6971SOL    HW132546   1.745   2.265  15.198  2.5888  1.9088  1.5222
 6971SOL    HW232547   1.693   2.126  15.223 -5.1529  1.2619  1.3415
 6972SOL     OW32548   1.964   2.562   8.355  0.6415  0.0016 -0.5129
 6972SOL    HW132549   2.010   2.491   8.398  1.7778  2.6576  2.6310
 6972SOL    HW232550   1.933   2.610   8.432  0.8890  0.6442 -0.8184
 6973SOL     OW32551   0.469   0.495   8.690 -0.2972 -0.1190 -0.3630
 6973SOL    HW132552   0.470   0.443   8.771 -2.0462  2.3160  1.2250
 6973SOL    HW232553   0.460   0.429   8.622  0.4610 -1.8586  1.2098
 6974SOL     OW32554   1.290   3.397   5.837  0.1650 -0.1629 -0.1118
 6974SOL    HW132555   1.250   3.319   5.875  0.9159 -0.3422  0.3159
 6974SOL    HW232556   1.326   3.444   5.912 -1.0857  0.3126  0.1949
 6975SOL     OW32557   0.760   1.805   8.326  0.3858 -0.1080  0.0742
 6975SOL    HW132558   0.849   1.773   8.341  1.0631  1.8480  0.1782
 6975SOL    HW232559   0.707   1.725   8.327  2.6771 -1.6644 -2.0275
 6976SOL     OW32560   0.039   1.195   0.089 -0.5779 -0.2945 -0.2772
 6976SOL    HW132561   0.026   1.178  17.749  0.0031 -3.3591  0.1738
 6976SOL    HW232562   0.039   1.111   0.136  1.5367  0.5136  1.1452
 6977SOL     OW32563   1.680   2.269   3.111  0.1302  0.0433 -0.5396
 6977SOL    HW132564   1.593   2.253   3.074  0.5235  0.2411 -1.5776
 6977SOL    HW232565   1.726   2.309   3.037  3.0313 -2.7123 -0.2439
 6978SOL     OW32566   4.387   3.940  13.880 -0.2113 -0.6671 -0.4680
 6978SOL    HW132567   4.381   4.016  13.938  0.2341 -0.6370 -0.4630
 6978SOL    HW232568   4.478   3.947  13.855  0.2192 -1.0594  0.9647
 6979SOL     OW32569   1.063   2.428  13.226 -0.1076 -0.0576 -0.4907
 6979SOL    HW132570   1.142   2.380  13.200 -0.1146  0.1500 -0.8925
 6979SOL    HW232571   1.090   2.425  13.318  0.8838  1.7667 -0.7027
 6980SOL     OW32572   0.887   2.743   8.629 -0.4449 -0.6620  0.2762
 6980SOL    HW132573   0.836   2.814   8.590 -1.3914 -0.4339  1.9448
 6980SOL    HW232574   0.967   2.755   8.577 -1.3124 -0.3534 -0.9928
 6981SOL     OW32575   4.216   2.515   4.885  0.2687 -0.5275  0.1025
 6981SOL    HW132576   4.230   2.488   4.794 -0.8074  0.5342 -0.3781
 6981SOL    HW232577   4.258   2.600   4.877  1.8936 -1.3027  0.3407
 6982SOL     OW32578   2.978   2.378   2.103 -0.0030 -0.1114  0.1951
 6982SOL    HW132579   2.967   2.341   2.191  0.7038  0.4207  0.5031
 6982SOL    HW232580   3.073   2.371   2.092 -0.1212  0.6387 -1.2806
 6983SOL     OW32581   1.105   2.758   8.420  0.1284 -0.4002 -0.1107
 6983SOL    HW132582   1.159   2.835   8.401  1.8634 -1.7528 -0.5878
 6983SOL    HW232583   1.147   2.689   8.370 -1.4358 -0.1708 -1.7540
 6984SOL     OW32584   4.512   0.894   0.262 -0.1620  0.9672 -0.0328
 6984SOL    HW132585   4.582   0.958   0.252  3.4860 -3.0077  0.1902
 6984SOL    HW232586   4.450   0.967   0.256 -1.5161 -0.2173 -0.6302
 6985SOL     OW32587   4.126   3.899   2.762 -0.0327 -0.1420 -0.3969
 6985SOL    HW132588   4.146   3.888   2.669 -0.8649 -0.9553 -0.4776
 6985SOL    HW232589   4.190   3.840   2.801 -2.2881 -2.0475  0.3844
 6986SOL     OW32590   3.178   4.420   3.390 -0.0693  0.0994  0.0325
 6986SOL    HW132591   3.217   4.503   3.415  2.4585 -0.0427 -3.3713
 6986SOL    HW232592   3.255   4.373   3.358 -1.5913 -2.7046  0.4526
 6987SOL     OW32593   3.367   0.893  16.893 -0.1999 -0.2732 -0.0339
 6987SOL    HW132594   3.413   0.945  16.827  1.5676 -2.0907 -0.2208
 6987SOL    HW232595   3.432   0.823  16.901  0.3975  0.0033 -2.3908
 6988SOL     OW32596   0.998   2.311   0.596 -0.5494  0.2764  0.1835
 6988SOL    HW132597   1.054   2.370   0.544 -1.4757  2.0833  1.2264
 6988SOL    HW232598   0.981   2.237   0.539  0.4226 -0.2777  0.6097
 6989SOL     OW32599   4.499   2.026   3.353  0.1033 -0.0808 -0.3374
 6989SOL    HW132600   4.408   2.008   3.327  0.3795 -0.0526 -1.3366
 6989SOL    HW232601   4.507   1.943   3.400  0.2558  0.7055  1.0135
 6990SOL     OW32602   2.829   4.171   2.594 -0.1530  0.0961 -0.1051
 6990SOL    HW132603   2.919   4.172   2.562 -0.4974 -3.2683 -1.2382
 6990SOL    HW232604   2.831   4.258   2.632 -1.4022  2.2187 -4.9067
 6991SOL     OW32605   4.709   3.732   8.585 -0.1352 -0.2662  0.1462
 6991SOL    HW132606   0.051   3.784   8.585  0.1665 -0.7252  1.3598
 6991SOL    HW232607   4.691   3.735   8.491  0.7586 -1.0285 -0.0442
 6992SOL     OW32608   0.077   1.037   9.172  0.0841  0.2250  0.4529
 6992SOL    HW132609   0.021   0.997   9.238  0.2522 -2.3335 -0.9674
 6992SOL    HW232610   0.100   0.964   9.115  1.0737  2.3114 -1.8876
 6993SOL     OW32611   4.241   0.693   7.583  0.4186 -0.2212  0.6370
 6993SOL    HW132612   4.276   0.612   7.621  2.0788 -0.7295 -2.0347
 6993SOL    HW232613   4.149   0.671   7.569  0.6013 -0.4297 -0.2274
 6994SOL     OW32614   4.169   4.527   3.337 -0.1103  0.3508 -0.1542
 6994SOL    HW132615   4.091   4.474   3.353  1.3272 -1.3072  1.3621
 6994SOL    HW232616   4.144   4.609   3.379 -1.1132  0.2100 -0.4815
 6995SOL     OW32617   4.469   4.323  15.682 -0.0191 -0.1475 -0.2664
 6995SOL    HW132618   4.456   4.418  15.681  2.5333  0.2164  0.2543
 6995SOL    HW232619   4.547   4.323  15.738  0.8427 -0.2563 -1.4618
 6996SOL     OW32620   1.259   3.967   9.061 -0.2225 -0.2271  0.3778
 6996SOL    HW132621   1.314   4.044   9.048 -1.5380  0.0223 -3.7654
 6996SOL    HW232622   1.277   3.939   9.150  0.2030 -2.2391 -0.3412
 6997SOL     OW32623   2.887   0.291  10.965  0.0737  0.7788  0.1987
 6997SOL    HW132624   2.927   0.204  10.976  0.0671  1.0143  2.1561
 6997SOL    HW232625   2.849   0.274  10.879 -1.8432  1.3181  0.9543
 6998SOL     OW32626   1.288   4.328   5.435  0.5031 -0.0045 -0.4924
 6998SOL    HW132627   1.354   4.267   5.402  1.4562 -0.1974  1.7763
 6998SOL    HW232628   1.349   4.397   5.461 -1.1528  1.1877  0.1801
 6999SOL     OW32629   4.636   2.532   9.129  0.2744 -0.1779 -0.3865
 6999SOL    HW132630   4.583   2.586   9.188 -0.2404 -0.6854 -0.3896
 6999SOL    HW232631   4.570   2.523   9.061  1.5776  0.7616 -1.7626
 7000SOL     OW32632   2.962   1.821   6.117  0.3718 -0.4379 -0.6349
 7000SOL    HW132633   2.952   1.865   6.202  0.5719 -0.9219 -0.3592
 7000SOL    HW232634   2.881   1.771   6.116 -0.6005  1.0896  1.4324
 7001SOL     OW32635   4.664   4.162   0.951 -0.0030 -0.2838 -0.0206
 7001SOL    HW132636   4.723   4.150   1.025  2.1641  1.2611 -1.5163
 7001SOL    HW232637   4.725   4.152   0.878  1.7715  2.6662  1.0513
 7002SOL     OW32638   2.051   2.119   2.258 -0.5891 -0.1125 -0.8424
 7002SOL    HW132639   2.053   2.206   2.299  0.7043 -0.7964  0.5184
 7002SOL    HW232640   1.963   2.122   2.219 -0.5042 -3.6679 -1.3101
 7003SOL     OW32641   4.581   1.915  17.374  1.2111 -0.2815 -0.3272
 7003SOL    HW132642   4.548   2.004  17.382  0.6088 -0.4798 -0.6033
 7003SOL    HW232643   4.614   1.904  17.285 -1.5412  1.8366 -1.5711
 7004SOL     OW32644   3.352   2.882   6.966  0.9422 -0.1457 -0.3740
 7004SOL    HW132645   3.367   2.855   7.056 -0.0911  1.5659  0.3174
 7004SOL    HW232646   3.257   2.894   6.962  1.4199  3.9168  0.3609
 7005SOL     OW32647   0.015   3.653   9.373  0.4748  0.3438 -0.2199
 7005SOL    HW132648   0.001   3.599   9.295 -0.6783  0.4355 -0.0726
 7005SOL    HW232649   4.688   3.619   9.434 -3.0357 -0.5107 -4.4435
 7006SOL     OW32650   2.633   2.931  15.363 -0.2585 -0.7866 -0.5032
 7006SOL    HW132651   2.566   2.979  15.412  2.3517  0.9979  1.2870
 7006SOL    HW232652   2.670   3.013  15.329  1.4164  0.2479  3.8482
 7007SOL     OW32653   0.505   2.865  13.252 -0.2059  0.2435 -0.2728
 7007SOL    HW132654   0.549   2.948  13.272  0.9907 -0.7015  0.9907
 7007SOL    HW232655   0.577   2.825  13.203 -1.6063 -0.2724 -1.9065
 7008SOL     OW32656   2.011   0.540   3.388  0.2372  0.4001  0.1268
 7008SOL    HW132657   2.098   0.526   3.351 -0.7884  0.2911 -2.2549
 7008SOL    HW232658   1.994   0.452   3.419  2.1255  0.8940  2.5076
 7009SOL     OW32659   1.436   1.470   8.631  0.4302 -0.1821  0.3395
 7009SOL    HW132660   1.453   1.546   8.576 -0.3285 -0.3813 -0.1689
 7009SOL    HW232661   1.455   1.396   8.574 -0.3028  0.7777 -1.1710
 7010SOL     OW32662   4.148   2.440   7.842  0.2726 -0.5026 -0.6807
 7010SOL    HW132663   4.123   2.352   7.814  1.6301 -1.7666  2.0096
 7010SOL    HW232664   4.122   2.495   7.768 -2.3934  0.7532  1.1656
 7011SOL     OW32665   2.785   0.622  17.114  0.2094 -0.2105  0.5688
 7011SOL    HW132666   2.708   0.673  17.140 -0.9566 -1.2709 -0.8033
 7011SOL    HW232667   2.772   0.597  17.023 -0.8026 -0.6002  0.8170
 7012SOL     OW32668   0.254   0.860   2.468 -0.5324  0.0880 -0.4479
 7012SOL    HW132669   0.208   0.819   2.395 -2.0272  0.5348  0.2394
 7012SOL    HW232670   0.224   0.950   2.460 -0.8275  0.1174  1.1537
 7013SOL     OW32671   4.488   1.481   6.691  0.3965 -0.5636 -0.0365
 7013SOL    HW132672   4.413   1.433   6.657 -0.1450 -1.4853  2.5051
 7013SOL    HW232673   4.451   1.559   6.733 -0.5401  0.0896 -2.0914
 7014SOL     OW32674   3.145   4.501   8.731 -0.5951  0.1793 -0.2559
 7014SOL    HW132675   3.234   4.472   8.751 -0.9553  0.8302  2.3439
 7014SOL    HW232676   3.111   4.415   8.704 -0.7682 -0.2471  1.3415
 7015SOL     OW32677   2.219   1.703  17.666 -0.3412 -0.0690 -0.2395
 7015SOL    HW132678   2.171   1.681  17.586  0.4373  2.6548 -1.4515
 7015SOL    HW232679   2.259   1.619  17.689 -1.6655 -1.4600 -2.9439
 7016SOL     OW32680   3.958   1.407   2.913  0.1000  0.0249 -0.7322
 7016SOL    HW132681   3.872   1.371   2.892  0.9378 -1.2225 -2.0603
 7016SOL    HW232682   3.994   1.415   2.825  1.1719  3.0158 -0.0224
 7017SOL     OW32683   1.311   0.392   2.343 -0.4067 -0.8571 -0.1811
 7017SOL    HW132684   1.400   0.410   2.373 -0.6899  0.1441  0.0343
 7017SOL    HW232685   1.256   0.408   2.419 -0.8698 -0.9181 -0.5027
 7018SOL     OW32686   1.087   1.239   5.189 -0.0219 -0.2314  0.3589
 7018SOL    HW132687   1.105   1.179   5.117 -0.7848 -1.8488  1.4988
 7018SOL    HW232688   1.081   1.182   5.267  0.6855 -0.4241  0.2692
 7019SOL     OW32689   4.568   0.554   7.487 -0.1201 -0.4011  0.0440
 7019SOL    HW132690   4.623   0.541   7.409 -0.7031 -0.5505 -0.3456
 7019SOL    HW232691   4.586   0.648   7.491 -3.3320  0.0821  3.0022
 7020SOL     OW32692   4.455   1.939   7.710 -0.0273 -0.1300  0.0700
 7020SOL    HW132693   4.391   1.966   7.643  0.2551 -0.3418 -0.2875
 7020SOL    HW232694   4.467   2.025   7.751  0.4618  0.1764 -0.6899
 7021SOL     OW32695   4.174   4.055   7.104 -0.2401 -0.7266  0.4277
 7021SOL    HW132696   4.266   4.031   7.109  0.1082  0.4538 -0.1439
 7021SOL    HW232697   4.157   4.061   7.198  1.5976  1.3699  0.6387
 7022SOL     OW32698   0.652   2.020   8.220  0.3979 -0.0029 -0.1859
 7022SOL    HW132699   0.704   1.955   8.268  2.6680  0.6784 -1.7205
 7022SOL    HW232700   0.688   1.990   8.136  0.9528  0.4801 -0.1226
 7023SOL     OW32701   3.682   4.414  16.741  0.1787 -0.2087 -0.3548
 7023SOL    HW132702   3.652   4.433  16.652 -0.5858 -2.2741 -0.5343
 7023SOL    HW232703   3.766   4.460  16.742 -0.0081  0.0768  1.5486
 7024SOL     OW32704   2.147   2.820   6.166 -0.1542 -0.1620 -0.1546
 7024SOL    HW132705   2.161   2.849   6.256 -0.0233 -0.2559 -0.1446
 7024SOL    HW232706   2.204   2.875   6.112 -1.0568  1.1111  0.1703
 7025SOL     OW32707   0.328   0.302   9.319  0.1033 -0.1462  0.3017
 7025SOL    HW132708   0.360   0.235   9.259 -1.5469  2.3813 -3.3865
 7025SOL    HW232709   0.380   0.268   9.392  1.3065  2.4194  0.6177
 7026SOL     OW32710   1.594   4.663   2.543 -0.0085 -0.4404  0.2281
 7026SOL    HW132711   1.553   0.005   2.574 -2.2298 -1.7021  0.5950
 7026SOL    HW232712   1.521   4.601   2.544  0.1470 -0.6063  1.1581
 7027SOL     OW32713   1.722   3.756  16.009  0.0903  0.1140 -0.2544
 7027SOL    HW132714   1.646   3.703  16.031  1.6542 -1.8067  0.5293
 7027SOL    HW232715   1.677   3.840  16.007  0.1690  0.1502 -0.5285
 7028SOL     OW32716   3.937   2.004   6.279 -0.2170  0.5353 -0.6645
 7028SOL    HW132717   3.912   1.922   6.236  1.5628 -0.4977  0.2406
 7028SOL    HW232718   3.975   2.052   6.206  0.5561  2.0258  0.7010
 7029SOL     OW32719   4.578   4.566  11.833  0.2469  0.8348  0.1240
 7029SOL    HW132720   4.498   4.515  11.830  0.8512 -0.1416  0.7684
 7029SOL    HW232721   4.570   4.613  11.916 -2.9339  1.1179 -0.3449
 7030SOL     OW32722   3.539   2.769   1.616  0.5668 -0.5391  0.4958
 7030SOL    HW132723   3.627   2.790   1.585  0.7940 -0.7800  0.9672
 7030SOL    HW232724   3.531   2.674   1.605 -0.6309 -0.2937 -0.7526
 7031SOL     OW32725   1.041   0.959   3.179  0.1492 -0.5630 -0.4444
 7031SOL    HW132726   1.111   0.980   3.117  0.2154 -0.1679 -0.2334
 7031SOL    HW232727   1.066   0.867   3.191  0.6236 -0.6193 -1.8267
 7032SOL     OW32728   4.099   0.941  10.794 -0.5043 -0.2358 -0.1581
 7032SOL    HW132729   4.091   0.866  10.853  1.9952 -0.5201 -0.1795
 7032SOL    HW232730   4.195   0.942  10.792 -0.5240  2.1898  0.1590
 7033SOL     OW32731   0.092   4.212   4.869  0.2106  0.0111 -0.5006
 7033SOL    HW132732   0.137   4.234   4.787  0.1467  0.8833 -0.2941
 7033SOL    HW232733   0.153   4.253   4.930 -1.1021  1.3617 -0.1064
 7034SOL     OW32734   2.108   3.215   5.711 -0.5029  0.1076  0.8000
 7034SOL    HW132735   2.050   3.228   5.636 -1.4627 -4.2214  0.7370
 7034SOL    HW232736   2.115   3.307   5.736 -2.3045  0.5340 -0.2979
 7035SOL     OW32737   1.070   4.710   6.222  0.2272  0.7507  0.4335
 7035SOL    HW132738   1.016   0.022   6.283  0.2931 -0.3982  1.4344
 7035SOL    HW232739   1.104   4.649   6.286  0.1787 -1.2001 -1.3983
 7036SOL     OW32740   3.689   2.330   6.583 -0.6411  0.4545  0.4798
 7036SOL    HW132741   3.757   2.269   6.554 -0.2304  0.2949  1.7813
 7036SOL    HW232742   3.612   2.282   6.612 -2.4504  1.0870 -3.2677
 7037SOL     OW32743   2.708   2.508   5.635  0.1944  0.0941 -0.2681
 7037SOL    HW132744   2.765   2.505   5.559  2.3874 -1.2064  1.4033
 7037SOL    HW232745   2.686   2.601   5.643  0.0499 -0.1382  2.1351
 7038SOL     OW32746   4.237   2.542  11.780  0.4313  0.0756  0.2598
 7038SOL    HW132747   4.172   2.582  11.838 -0.7230  0.4642 -1.3076
 7038SOL    HW232748   4.291   2.490  11.840 -0.1539 -0.5710  0.2289
 7039SOL     OW32749   4.315   0.343   9.063  0.1857 -0.6705  0.4347
 7039SOL    HW132750   4.239   0.293   9.092 -0.0487 -0.1055  0.7949
 7039SOL    HW232751   4.283   0.367   8.977 -0.6888  1.5383  1.3955
 7040SOL     OW32752   2.052   1.778   8.138  0.4901 -0.3485 -0.8403
 7040SOL    HW132753   2.012   1.726   8.208  2.4403 -1.1320 -0.3109
 7040SOL    HW232754   1.989   1.775   8.066 -1.2932  0.1840  0.7087
 7041SOL     OW32755   1.796   2.117   0.959  0.1079 -0.1473 -0.8268
 7041SOL    HW132756   1.831   2.082   1.041 -2.7467  0.5769  0.7086
 7041SOL    HW232757   1.754   2.194   0.999  0.2384 -0.0704 -0.8368
 7042SOL     OW32758   3.176   1.563  14.104 -0.0737 -0.1671  0.2356
 7042SOL    HW132759   3.140   1.650  14.084  0.9548  0.3598  0.6759
 7042SOL    HW232760   3.268   1.581  14.124 -0.1543  1.1262 -0.5893
 7043SOL     OW32761   2.840   4.050   7.667  0.4280 -0.4934  0.2847
 7043SOL    HW132762   2.752   4.089   7.668  0.7480  0.2073  0.9422
 7043SOL    HW232763   2.821   3.965   7.628  1.0191  0.0190 -1.1060
 7044SOL     OW32764   4.506   4.587  15.636 -0.4007  0.3774 -0.9010
 7044SOL    HW132765   4.549   4.621  15.558 -1.3937  3.0838 -0.2443
 7044SOL    HW232766   4.456   4.663  15.664 -0.8099 -0.3079  0.2406
 7045SOL     OW32767   2.051   1.697   3.456 -0.3144 -0.3190  0.0987
 7045SOL    HW132768   2.079   1.763   3.394 -0.6742 -0.5695 -0.3312
 7045SOL    HW232769   2.006   1.741   3.528  1.7197 -1.0199  1.8151
 7046SOL     OW32770   2.460   3.116  13.967  0.1884  0.0125 -0.2721
 7046SOL    HW132771   2.476   3.196  14.017 -1.0386  0.7480 -1.0493
 7046SOL    HW232772   2.376   3.092  14.005 -0.1539  0.2313 -0.8909
 7047SOL     OW32773   2.000   3.175   8.315  0.2919 -0.5163  0.3068
 7047SOL    HW132774   2.005   3.091   8.359 -1.7714 -0.9272 -0.2225
 7047SOL    HW232775   2.087   3.191   8.278  0.4504 -0.7264  0.5908
 7048SOL     OW32776   0.172   1.282  17.595 -0.9613  0.7747  0.3736
 7048SOL    HW132777   0.181   1.286  17.690  1.4329  1.9156  0.1089
 7048SOL    HW232778   0.155   1.372  17.568 -2.9556  0.0894 -0.6716
 7049SOL     OW32779   2.295   0.861   8.911 -0.3180 -0.4607 -0.7088
 7049SOL    HW132780   2.239   0.938   8.920  0.6557  0.0822  0.8713
 7049SOL    HW232781   2.225   0.795   8.911  0.5486 -1.3715 -1.5444
 7050SOL     OW32782   3.889   3.764   2.635 -0.5307 -0.2994 -0.3307
 7050SOL    HW132783   3.960   3.778   2.572 -0.5189 -1.3872 -0.5639
 7050SOL    HW232784   3.893   3.849   2.678  2.8331 -0.3537 -0.5538
 7051SOL     OW32785   0.849   4.537   1.909 -0.2057  0.6473  0.3435
 7051SOL    HW132786   0.937   4.509   1.932  0.3985  1.5916 -0.8228
 7051SOL    HW232787   0.793   4.463   1.932  1.1024 -0.8786 -1.3081
 7052SOL     OW32788   4.409   1.754  11.584  0.4039  0.3988  0.2918
 7052SOL    HW132789   4.475   1.775  11.518 -1.0982  0.9827 -1.0276
 7052SOL    HW232790   4.462   1.749  11.663  1.1691 -1.7644 -0.3534
 7053SOL     OW32791   1.687   3.413   4.868  0.3548 -1.2184 -0.1515
 7053SOL    HW132792   1.711   3.324   4.842  1.5705 -0.5593 -1.2732
 7053SOL    HW232793   1.769   3.457   4.846 -1.4733  2.1629 -0.1746
 7054SOL     OW32794   0.523   0.045  14.949 -0.1501 -0.3480 -0.5770
 7054SOL    HW132795   0.592   0.073  14.889  0.8759  0.4104  0.9604
 7054SOL    HW232796   0.547   4.692  14.962  2.1199  0.4758  1.1465
 7055SOL     OW32797   2.036   3.717   5.735 -0.6978  0.5402  0.6407
 7055SOL    HW132798   2.029   3.639   5.790  0.9098  0.5174  0.8012
 7055SOL    HW232799   1.946   3.720   5.702 -0.4286 -0.2691 -0.1602
 7056SOL     OW32800   2.103   3.464   8.737  0.0609  0.2612 -0.0743
 7056SOL    HW132801   2.065   3.396   8.792  0.7771 -0.1185 -0.0450
 7056SOL    HW232802   2.079   3.441   8.648 -0.4161 -2.2012  0.6991
 7057SOL     OW32803   3.302   4.615  17.411 -0.2750  0.6296 -1.0641
 7057SOL    HW132804   3.331   4.524  17.400 -1.6941  0.2697 -1.8910
 7057SOL    HW232805   3.295   4.637  17.318 -1.0723 -0.2314 -1.2039
 7058SOL     OW32806   3.281   0.208  12.190  0.0446 -0.5422 -0.2228
 7058SOL    HW132807   3.226   0.137  12.224  0.2264 -0.1444  0.8687
 7058SOL    HW232808   3.349   0.169  12.135  1.1209  0.8626  0.1259
 7059SOL     OW32809   2.038   0.298   3.798  1.1063 -0.2760  0.1861
 7059SOL    HW132810   2.080   0.257   3.873  1.9859  1.1214  0.4462
 7059SOL    HW232811   2.114   0.333   3.753  0.3923 -0.3736 -1.1114
 7060SOL     OW32812   3.225   1.417   9.046 -0.0776 -0.2800  0.5667
 7060SOL    HW132813   3.158   1.350   9.040  0.1917 -0.5196  0.2540
 7060SOL    HW232814   3.238   1.446   8.956  1.8788  1.9155  1.5504
 7061SOL     OW32815   1.237   1.345  11.717  0.3061 -0.4321 -0.5161
 7061SOL    HW132816   1.156   1.296  11.703  0.1792  0.2686 -2.3477
 7061SOL    HW232817   1.290   1.267  11.729  0.8257  0.2980  1.8981
 7062SOL     OW32818   3.876   4.509   5.353 -0.0476 -0.1105 -0.5060
 7062SOL    HW132819   3.898   4.588   5.402  0.3710  0.9170 -2.3542
 7062SOL    HW232820   3.963   4.480   5.325 -0.7729 -1.2314 -1.6107
 7063SOL     OW32821   3.865   3.245  14.276  0.1652 -0.3576 -0.2468
 7063SOL    HW132822   3.819   3.169  14.311  0.7651 -0.6341 -0.0686
 7063SOL    HW232823   3.842   3.232  14.184  1.5884  1.7455 -0.8996
 7064SOL     OW32824   2.887   3.850  10.741  0.1035 -0.0226 -0.2801
 7064SOL    HW132825   2.859   3.790  10.810  0.5293  0.0779 -0.0158
 7064SOL    HW232826   2.816   3.848  10.677 -0.9778  1.0828  0.8717
 7065SOL     OW32827   2.708   0.402   5.670 -0.1733  0.3238 -0.4154
 7065SOL    HW132828   2.709   0.319   5.622  2.7196 -1.8422  3.4526
 7065SOL    HW232829   2.774   0.382   5.736  0.6372  1.0287 -1.0148
 7066SOL     OW32830   4.601   1.979   1.266  0.2813 -0.1298  1.1156
 7066SOL    HW132831   4.632   1.955   1.353  0.4489  1.0574  1.3740
 7066SOL    HW232832   4.671   2.037   1.235 -0.3527  0.0534  0.0505
 7067SOL     OW32833   0.397   0.878  11.004 -0.4461 -0.2716  0.1912
 7067SOL    HW132834   0.383   0.794  11.048 -0.2627 -1.0807 -1.2874
 7067SOL    HW232835   0.388   0.937  11.079 -3.4658  1.9049 -1.8625
 7068SOL     OW32836   3.300   4.446   2.262 -0.2146 -0.0989  0.1769
 7068SOL    HW132837   3.267   4.378   2.203 -1.7136 -1.0152  2.0923
 7068SOL    HW232838   3.321   4.390   2.337  0.2506 -0.6178 -0.3405
 7069SOL     OW32839   4.316   4.195  11.310  0.6042  0.2939 -0.1262
 7069SOL    HW132840   4.351   4.283  11.291  0.4807  0.5864  0.9872
 7069SOL    HW232841   4.316   4.148  11.227 -1.3224  0.4878 -0.2295
 7070SOL     OW32842   1.333   4.337   1.646  0.0124 -0.5071 -0.1804
 7070SOL    HW132843   1.382   4.418   1.632 -0.1142 -0.4850 -0.4943
 7070SOL    HW232844   1.401   4.282   1.685 -0.3871 -0.0871  1.0802
 7071SOL     OW32845   4.033   3.183   2.716 -0.0459 -0.1408 -0.0488
 7071SOL    HW132846   3.953   3.148   2.675 -0.8958  1.1527  0.4939
 7071SOL    HW232847   4.073   3.231   2.644 -0.4064 -0.7427 -0.6593
 7072SOL     OW32848   2.197   4.063   2.107  0.1712  0.3523  0.1036
 7072SOL    HW132849   2.242   4.147   2.123 -1.8222  1.1583  1.4753
 7072SOL    HW232850   2.183   4.071   2.012 -3.8972  0.1838  0.7281
 7073SOL     OW32851   4.623   4.414   6.380 -0.1376 -0.5101  0.1418
 7073SOL    HW132852   4.589   4.343   6.434  0.4729 -1.7747 -1.1484
 7073SOL    HW232853   4.678   4.455   6.447  1.6196 -2.2708 -0.2466
 7074SOL     OW32854   3.567   2.354  15.982  0.1892 -0.4668  0.0596
 7074SOL    HW132855   3.604   2.294  16.047 -0.0201 -0.0444  0.5700
 7074SOL    HW232856   3.495   2.301  15.949 -1.5346  0.3243  2.5832
 7075SOL     OW32857   0.100   4.246   3.291  0.1026  0.3376  0.6983
 7075SOL    HW132858   0.069   4.293   3.214  1.3392  0.1778  0.1021
 7075SOL    HW232859   0.148   4.319   3.330  1.6563  0.1060 -0.7662
 7076SOL     OW32860   4.375   1.087   6.183  0.4479 -0.0099 -0.1900
 7076SOL    HW132861   4.421   1.068   6.101  0.4133  0.9562 -0.4351
 7076SOL    HW232862   4.359   1.180   6.198  0.9853 -0.2421  1.8406
 7077SOL     OW32863   1.525   1.670   7.014 -0.1221 -0.2139  0.2089
 7077SOL    HW132864   1.563   1.623   7.088 -0.5218 -1.3476 -0.3150
 7077SOL    HW232865   1.433   1.677   7.041  0.1792  0.1122  1.1371
 7078SOL     OW32866   4.229   3.600   4.668 -0.4889 -0.1854 -0.0777
 7078SOL    HW132867   4.167   3.612   4.739  1.9536  1.0204  1.8734
 7078SOL    HW232868   4.302   3.648   4.708 -1.0718  0.6796 -0.0585
 7079SOL     OW32869   0.374   0.272   2.891  0.1270 -0.5569 -0.2704
 7079SOL    HW132870   0.407   0.195   2.844  0.8949 -0.3278 -0.0986
 7079SOL    HW232871   0.299   0.281   2.832  0.4476  0.2534 -0.5512
 7080SOL     OW32872   0.143   4.471   0.524 -0.1407 -0.6946 -0.0203
 7080SOL    HW132873   0.230   4.471   0.485  0.3887  1.1244  1.1508
 7080SOL    HW232874   0.096   4.535   0.470 -0.9519 -2.5926 -1.5756
 7081SOL     OW32875   1.515   4.400   9.031  0.2262 -0.4082  0.3253
 7081SOL    HW132876   1.527   4.459   9.105  0.8347  0.7812 -0.7167
 7081SOL    HW232877   1.466   4.332   9.077 -0.3263  0.9083  1.6535
 7082SOL     OW32878   4.604   4.023   8.690 -0.1412  0.8132 -0.2004
 7082SOL    HW132879   4.591   4.048   8.781  2.0256 -2.5285  1.0222
 7082SOL    HW232880   4.544   3.949   8.683 -0.0043  0.6331  0.5527
 7083SOL     OW32881   4.546   2.991   4.678  0.3135  0.4065 -0.3808
 7083SOL    HW132882   4.618   3.009   4.617  1.6885 -0.2110  1.0351
 7083SOL    HW232883   4.515   3.080   4.691  0.1375  0.2154  0.5545
 7084SOL     OW32884   1.600   2.759   3.629  0.0672  0.3651 -0.0226
 7084SOL    HW132885   1.593   2.669   3.596  2.2676  0.0504  0.3468
 7084SOL    HW232886   1.684   2.751   3.673 -0.6937 -1.2356  1.1308
 7085SOL     OW32887   2.657   2.420   4.238  0.1420  0.4263 -0.0950
 7085SOL    HW132888   2.646   2.500   4.187  0.5209  0.7726  0.3594
 7085SOL    HW232889   2.611   2.440   4.320  0.8796 -0.4065  0.5273
 7086SOL     OW32890   0.996   1.702   8.331  0.0569 -0.4568  0.6526
 7086SOL    HW132891   0.988   1.610   8.307 -0.1327 -0.1759 -0.3746
 7086SOL    HW232892   1.076   1.704   8.382  0.3512 -0.1047  0.1772
 7087SOL     OW32893   3.807   1.590   8.044  0.7844 -0.0729  0.3519
 7087SOL    HW132894   3.888   1.609   8.092  1.3846  0.8137 -0.9784
 7087SOL    HW232895   3.742   1.630   8.102 -2.2263 -0.9811 -2.4187
 7088SOL     OW32896   4.695   2.478   2.965 -0.4470  0.0389 -0.2290
 7088SOL    HW132897   4.625   2.493   3.028  0.1255 -0.9993  0.6416
 7088SOL    HW232898   4.656   2.450   2.881 -0.1308  0.6235 -0.5714
 7089SOL     OW32899   1.159   0.550  14.361 -0.6183 -0.2236 -0.3857
 7089SOL    HW132900   1.152   0.585  14.272 -0.6998 -2.0341 -1.0812
 7089SOL    HW232901   1.070   0.577  14.383 -0.0426 -1.9291  4.0753
 7090SOL     OW32902   4.070   3.266   4.562  0.1836  0.0119 -0.2356
 7090SOL    HW132903   3.993   3.220   4.529 -0.0338  1.6300 -1.9939
 7090SOL    HW232904   4.029   3.323   4.627 -0.6457 -0.9837  0.1109
 7091SOL     OW32905   2.211   0.676   3.601 -0.0301  0.1147 -0.2269
 7091SOL    HW132906   2.184   0.765   3.580  1.1602  0.2782 -1.0791
 7091SOL    HW232907   2.299   0.673   3.563  0.7243  0.2641  1.5320
 7092SOL     OW32908   1.697   3.760   6.301  0.0678  0.5304  0.4206
 7092SOL    HW132909   1.762   3.723   6.360 -0.3501  0.5543  0.8971
 7092SOL    HW232910   1.608   3.741   6.331  0.0526 -1.4382 -0.8948
 7093SOL     OW32911   3.136   3.184   1.987 -0.2290  0.3668 -0.1700
 7093SOL    HW132912   3.120   3.210   1.896 -2.0008  0.4941  0.1787
 7093SOL    HW232913   3.206   3.244   2.011 -0.2177 -1.0053  3.2728
 7094SOL     OW32914   0.811   1.402   4.599  0.2437  0.1730  0.2357
 7094SOL    HW132915   0.799   1.326   4.657 -1.6171  1.0536  1.0010
 7094SOL    HW232916   0.751   1.464   4.639  0.9086 -0.9046  2.9420
 7095SOL     OW32917   3.359   2.108  17.584  0.4652 -0.0241 -0.0404
 7095SOL    HW132918   3.336   2.115  17.676 -0.0450  2.2799 -0.3375
 7095SOL    HW232919   3.414   2.185  17.563 -1.3935  1.1874 -0.4457
 7096SOL     OW32920   0.392   2.815  12.511 -0.8361  0.4815  0.5286
 7096SOL    HW132921   0.304   2.805  12.548 -0.7198  1.1280  0.9683
 7096SOL    HW232922   0.402   2.738  12.454  0.2453  1.3671 -0.4788
 7097SOL     OW32923   2.116   4.036   1.383 -0.4451  0.1626  0.0415
 7097SOL    HW132924   2.026   4.060   1.360  0.0562  0.2925 -1.7757
 7097SOL    HW232925   2.130   3.957   1.329 -0.6888 -0.9920  1.6657
 7098SOL     OW32926   3.895   1.885   6.967  0.2733 -0.1968  0.0035
 7098SOL    HW132927   3.850   1.810   7.006  0.3831 -0.2303  0.0659
 7098SOL    HW232928   3.934   1.837   6.893  0.5873  0.4378 -0.2416
 7099SOL     OW32929   4.668   2.896   1.942 -0.0210 -0.3153  0.0973
 7099SOL    HW132930   4.616   2.954   1.886 -0.8183 -0.8478  0.3000
 7099SOL    HW232931   4.596   2.846   1.980 -0.0745  0.3927  0.9330
 7100SOL     OW32932   3.508   1.504   5.950  0.3305 -0.5481 -0.4023
 7100SOL    HW132933   3.483   1.550   6.030  2.3686  1.3242 -0.8748
 7100SOL    HW232934   3.499   1.413   5.981 -2.5204  0.1435  0.7886
 7101SOL     OW32935   0.812   4.511   5.554 -0.3304 -0.2291  0.5353
 7101SOL    HW132936   0.825   4.591   5.605 -1.5926 -0.9506  2.0092
 7101SOL    HW232937   0.785   4.557   5.475  0.9358 -3.1636 -1.6136
 7102SOL     OW32938   3.118   0.755   8.465  0.4607 -0.2914 -0.0362
 7102SOL    HW132939   3.119   0.771   8.371 -2.1393  0.5462  0.0690
 7102SOL    HW232940   3.166   0.827   8.505 -1.5324  1.1798 -0.2804
 7103SOL     OW32941   2.189   1.034   9.321 -0.7547 -0.1509 -0.0316
 7103SOL    HW132942   2.107   1.016   9.275 -0.2464  0.6548 -1.2530
 7103SOL    HW232943   2.170   0.986   9.402  1.3463 -1.8513 -0.5806
 7104SOL     OW32944   1.288   2.724   1.119  0.2295  0.3830 -0.8199
 7104SOL    HW132945   1.325   2.746   1.034  3.0366  2.2762  0.8833
 7104SOL    HW232946   1.316   2.799   1.171 -1.3595 -0.1075  0.7505
 7105SOL     OW32947   1.151   4.520   2.405  0.3597 -0.4341 -0.1620
 7105SOL    HW132948   1.161   4.479   2.319 -0.8682  0.5025 -0.7425
 7105SOL    HW232949   1.056   4.509   2.410  0.6379 -1.8625  2.0865
 7106SOL     OW32950   1.791   3.527   5.835 -0.4756 -0.4790  0.1776
 7106SOL    HW132951   1.856   3.458   5.850 -0.0734 -0.3062 -0.7941
 7106SOL    HW232952   1.826   3.600   5.886 -0.0623 -1.3622  1.1422
 7107SOL     OW32953   1.849   2.383  14.551 -0.1874  0.5223 -0.1341
 7107SOL    HW132954   1.817   2.404  14.464  1.4257 -0.7236 -1.0241
 7107SOL    HW232955   1.935   2.423  14.553  0.1296 -0.1704  0.0719
 7108SOL     OW32956   1.363   3.629   9.438  0.2042  0.3258 -0.4007
 7108SOL    HW132957   1.337   3.563   9.502  0.0965 -0.8318 -1.6257
 7108SOL    HW232958   1.441   3.664   9.481 -2.6517  4.0341  1.7133
 7109SOL     OW32959   3.802   1.928   7.935  0.3001  0.1618  0.4153
 7109SOL    HW132960   3.759   1.847   7.961  0.8037 -0.0249  0.6806
 7109SOL    HW232961   3.791   1.982   8.013  0.6413  1.6795 -0.5786
 7110SOL     OW32962   1.185   3.234   0.386 -0.6633 -0.1706 -0.4706
 7110SOL    HW132963   1.099   3.275   0.397  0.0049  0.9940  0.4154
 7110SOL    HW232964   1.245   3.309   0.387 -0.2635 -0.5035  0.8187
 7111SOL     OW32965   1.546   4.544   6.194 -0.4114  0.3473  0.0876
 7111SOL    HW132966   1.510   4.501   6.272 -0.1661 -1.6916 -0.9187
 7111SOL    HW232967   1.607   4.602   6.238  0.8220 -0.4077 -0.6440
 7112SOL     OW32968   4.432   2.422  15.855 -0.0029  0.1705 -0.0947
 7112SOL    HW132969   4.383   2.504  15.844  2.2074  1.2632 -1.6741
 7112SOL    HW232970   4.455   2.401  15.765  1.0770  1.9999 -0.2399
 7113SOL     OW32971   1.715   1.027   6.122  0.3183 -0.1811 -0.1716
 7113SOL    HW132972   1.738   1.117   6.099 -0.5169  0.5121  1.8045
 7113SOL    HW232973   1.723   1.001   6.030  0.1808  2.2259 -0.8520
 7114SOL     OW32974   0.891   1.178   8.197 -0.1295  0.5194  0.0350
 7114SOL    HW132975   0.920   1.146   8.282 -0.9141  1.8363  0.8004
 7114SOL    HW232976   0.951   1.137   8.135  1.1477  2.4304  0.0040
 7115SOL     OW32977   2.902   1.558   9.829 -0.1345  0.7306  0.2381
 7115SOL    HW132978   2.913   1.465   9.848 -0.9301  0.5999  0.0692
 7115SOL    HW232979   2.974   1.585   9.885 -0.1488  2.0063 -0.3578
 7116SOL     OW32980   3.071   2.815   7.268  0.4215 -0.3237  0.3699
 7116SOL    HW132981   3.016   2.836   7.343  0.9061  0.1668  0.5878
 7116SOL    HW232982   3.045   2.723   7.259  2.2687 -0.8223  0.0528
 7117SOL     OW32983   4.653   3.033  15.893  0.3968 -0.4031 -0.4138
 7117SOL    HW132984   4.707   3.001  15.821  0.6644 -0.8277 -0.0248
 7117SOL    HW232985   4.716   3.022  15.964 -1.0307  1.4193  1.1358
 7118SOL     OW32986   2.805   2.318   7.757  0.3011 -0.3426 -0.6519
 7118SOL    HW132987   2.718   2.351   7.781  1.5898  3.3491 -1.0905
 7118SOL    HW232988   2.776   2.228   7.740 -2.1423  0.2973  0.0940
 7119SOL     OW32989   0.300   1.086   7.121 -0.9112 -0.2398  0.0151
 7119SOL    HW132990   0.216   1.051   7.091 -1.1565 -0.0567  0.4961
 7119SOL    HW232991   0.354   1.010   7.145 -0.8573 -0.4760 -0.8387
 7120SOL     OW32992   3.738   0.675   5.935  0.3117  0.1066 -0.3177
 7120SOL    HW132993   3.799   0.650   5.865 -0.3005 -0.8996 -0.4946
 7120SOL    HW232994   3.799   0.711   5.998  1.5865 -0.2007 -1.3853
 7121SOL     OW32995   4.451   4.418   7.001 -0.0618  0.1197 -0.6334
 7121SOL    HW132996   4.464   4.334   6.957  0.5346 -0.8587  1.4557
 7121SOL    HW232997   4.413   4.397   7.086 -0.0545  0.5562 -0.5187
 7122SOL     OW32998   2.894   1.822  14.777  0.4260  0.0984 -0.2743
 7122SOL    HW132999   2.853   1.740  14.750  1.1085 -0.1382 -0.6131
 7122SOL    HW233000   2.985   1.802  14.798  1.1444  1.7479 -1.8066
 7123SOL     OW33001   2.993   0.944   9.002 -0.4019  0.3306  0.5110
 7123SOL    HW133002   3.006   0.849   9.011 -0.9492  0.2471  0.4166
 7123SOL    HW233003   2.921   0.956   8.940 -0.1825 -0.4743  0.0965
 7124SOL     OW33004   4.033   0.072   3.851 -0.2610  0.4383 -0.9895
 7124SOL    HW133005   4.080   4.729   3.832 -2.4422 -1.0465  0.0301
 7124SOL    HW233006   4.112   0.125   3.842  0.1155 -0.0579 -0.5923
 7125SOL     OW33007   0.682   1.746   6.445 -0.1937  0.2494  0.1464
 7125SOL    HW133008   0.676   1.727   6.539 -1.2717 -1.1690 -0.2057
 7125SOL    HW233009   0.772   1.717   6.437  0.2359  1.8731 -0.9067
 7126SOL     OW33010   2.510   4.546   3.590  0.1300 -0.1528 -0.1349
 7126SOL    HW133011   2.535   4.638   3.590  0.8813 -0.3570 -0.2314
 7126SOL    HW233012   2.596   4.510   3.569  0.0149 -1.0157  0.8920
 7127SOL     OW33013   2.194   0.466   8.128 -0.2992  0.4994 -0.2064
 7127SOL    HW133014   2.189   0.558   8.104  1.2513  0.7939  0.6353
 7127SOL    HW233015   2.257   0.423   8.070  0.2827  0.7754  0.2195
 7128SOL     OW33016   4.561   4.092   8.940 -0.3718  0.2031  0.0315
 7128SOL    HW133017   4.614   4.104   9.019 -0.8727  0.2509  0.3586
 7128SOL    HW233018   4.490   4.045   8.983  1.4399 -1.8834  0.7381
 7129SOL     OW33019   2.648   4.254   5.711 -0.5673 -0.1475  0.2477
 7129SOL    HW133020   2.706   4.197   5.761 -0.1955 -1.2277 -1.4167
 7129SOL    HW233021   2.667   4.225   5.622  2.7485 -0.8484  1.1948
 7130SOL     OW33022   0.254   4.612   5.890 -0.0166  0.3627 -0.3804
 7130SOL    HW133023   0.349   4.598   5.885 -0.1027  0.7094 -2.7630
 7130SOL    HW233024   0.237   4.565   5.972  0.6024  0.3623 -0.2496
 7131SOL     OW33025   0.968   1.754   2.013 -0.4109 -0.2914  0.2815
 7131SOL    HW133026   0.969   1.702   2.093 -0.1788 -1.4996 -0.5066
 7131SOL    HW233027   0.874   1.759   1.999 -0.6422 -0.9855  1.5819
 7132SOL     OW33028   2.849   3.734   2.586 -0.4034 -0.3151  0.1590
 7132SOL    HW133029   2.806   3.819   2.594  1.0506  0.0490  3.8686
 7132SOL    HW233030   2.910   3.749   2.513  1.0017 -0.7175  1.2550
 7133SOL     OW33031   1.636   1.229  15.361 -0.0723 -0.6118 -0.1898
 7133SOL    HW133032   1.729   1.218  15.378 -0.1219 -2.5320 -1.1807
 7133SOL    HW233033   1.630   1.198  15.271  0.9641 -0.1201 -0.4259
 7134SOL     OW33034   3.372   3.580  17.033  0.2756 -0.1751 -0.2114
 7134SOL    HW133035   3.389   3.647  16.967  0.2407  0.8069  0.7905
 7134SOL    HW233036   3.461   3.546  17.046  0.6140  0.5590 -0.5952
 7135SOL     OW33037   0.532   0.288  15.681  0.1069  0.4293  0.2743
 7135SOL    HW133038   0.599   0.242  15.630 -1.4160 -1.0032 -0.4435
 7135SOL    HW233039   0.491   0.223  15.738  2.2589 -1.4685 -0.3215
 7136SOL     OW33040   1.597   0.226   2.241  0.1270  0.1637  0.5772
 7136SOL    HW133041   1.634   0.303   2.285  0.0921  0.0194  0.8585
 7136SOL    HW233042   1.512   0.225   2.285  1.1158 -4.9560  2.3265
 7137SOL     OW33043   2.623   0.394  14.976  0.6304 -0.1543  0.4375
 7137SOL    HW133044   2.593   0.373  15.065  0.9196  1.8138  1.0133
 7137SOL    HW233045   2.633   0.489  14.987  0.5145 -0.1719  0.6893
 7138SOL     OW33046   4.409   0.582  13.193  0.8847 -0.2637  0.4187
 7138SOL    HW133047   4.429   0.613  13.281  1.0069  2.9442 -0.7502
 7138SOL    HW233048   4.328   0.533  13.208 -0.1139  0.9208 -1.0487
 7139SOL     OW33049   0.290   2.914  11.438  0.2107 -0.3719 -0.0516
 7139SOL    HW133050   0.242   2.848  11.488  1.6886  0.1065  1.9996
 7139SOL    HW233051   0.268   2.881  11.351  2.7655  0.3010 -0.9573
 7140SOL     OW33052   3.804   1.187  13.360  0.6130 -0.2777  0.4341
 7140SOL    HW133053   3.883   1.142  13.331  0.5400 -0.1364  0.0117
 7140SOL    HW233054   3.850   1.271  13.367 -0.1439  0.3379 -1.8480
 7141SOL     OW33055   0.994   2.285   7.046 -0.0232  0.7751  0.2841
 7141SOL    HW133056   0.915   2.298   7.099  0.2137 -0.0041  0.8306
 7141SOL    HW233057   1.030   2.212   7.097  0.1953  0.2754 -0.5802
 7142SOL     OW33058   0.311   0.842  13.367 -0.2872  0.1070  0.0876
 7142SOL    HW133059   0.393   0.884  13.340  0.6112 -1.9133 -0.4101
 7142SOL    HW233060   0.338   0.750  13.358 -0.6004 -0.2244  2.6527
 7143SOL     OW33061   4.244   1.824   3.163 -0.0599 -0.1126 -0.1915
 7143SOL    HW133062   4.287   1.740   3.150  0.1075 -0.0884  0.2095
 7143SOL    HW233063   4.176   1.820   3.096  0.0517  1.5466 -0.4006
 7144SOL     OW33064   2.159   3.941  16.248 -0.1850 -0.5382 -0.0722
 7144SOL    HW133065   2.100   3.883  16.199 -0.9981 -0.1507  0.4436
 7144SOL    HW233066   2.157   4.020  16.194  0.7527 -0.1151  0.5233
 7145SOL     OW33067   2.429   4.339   4.171 -0.1750  0.1434 -0.2078
 7145SOL    HW133068   2.367   4.375   4.234 -1.4118  1.4245 -2.1427
 7145SOL    HW233069   2.490   4.286   4.222 -1.9171  0.9849  2.7263
 7146SOL     OW33070   3.765   4.620   0.618  0.3339 -0.1454  0.1203
 7146SOL    HW133071   3.689   4.564   0.629 -0.8362  0.8979 -2.8451
 7146SOL    HW233072   3.775   4.650   0.709 -1.1973  1.9946 -0.4267
 7147SOL     OW33073   1.579   0.365  10.030  0.2683 -0.0705 -0.1176
 7147SOL    HW133074   1.574   0.381  10.124  1.7964  0.7192 -0.1782
 7147SOL    HW233075   1.489   0.346  10.003  0.1005  1.8451 -0.8986
 7148SOL     OW33076   1.388   2.910   8.345  0.0207 -0.1954 -0.0015
 7148SOL    HW133077   1.451   2.922   8.415  0.8095  0.4683 -0.8314
 7148SOL    HW233078   1.436   2.853   8.285  1.0533  0.1598  0.4850
 7149SOL     OW33079   2.558   1.655   4.213  0.2529  0.4620  0.1937
 7149SOL    HW133080   2.633   1.634   4.159  0.9065 -0.6744  1.5457
 7149SOL    HW233081   2.575   1.746   4.237 -0.3643 -0.2147  3.2676
 7150SOL     OW33082   4.720   2.881   7.721 -0.1616 -0.3264 -0.7873
 7150SOL    HW133083   0.023   2.802   7.754 -0.2733  0.1373  0.4835
 7150SOL    HW233084   0.034   2.949   7.762 -4.7149  0.6198  3.5806
 7151SOL     OW33085   2.696   1.157   1.980  0.3036 -0.4306  0.4137
 7151SOL    HW133086   2.625   1.097   1.957 -2.3080  2.4288  1.1272
 7151SOL    HW233087   2.775   1.103   1.989  0.1633 -0.7746 -0.4685
 7152SOL     OW33088   3.384   3.987   4.083 -0.0566  0.4611  0.3330
 7152SOL    HW133089   3.397   3.892   4.087 -0.8691  0.2556 -2.0211
 7152SOL    HW233090   3.441   4.010   4.157  3.0659 -1.3344 -1.5162
 7153SOL     OW33091   2.756   2.504  16.747  0.1406  0.3588  0.4051
 7153SOL    HW133092   2.840   2.528  16.785 -0.9244 -1.0281  3.5699
 7153SOL    HW233093   2.743   2.431  16.807 -2.6748  0.9025  0.4754
 7154SOL     OW33094   4.544   0.296   7.886  0.1240 -0.6183  0.3051
 7154SOL    HW133095   4.606   0.328   7.820  0.0265  2.2855  1.6030
 7154SOL    HW233096   4.594   0.224   7.923 -1.3639 -1.0371  1.5050
 7155SOL     OW33097   2.012   1.044   7.061  0.8678 -0.3043 -0.1129
 7155SOL    HW133098   2.000   1.130   7.101 -1.1104 -2.2479  3.4741
 7155SOL    HW233099   1.922   1.012   7.047  0.8784 -0.2608 -0.2813
 7156SOL     OW33100   3.993   1.008   3.906  0.0481 -0.0108 -0.2556
 7156SOL    HW133101   4.078   0.965   3.894  0.8722  1.3083  0.8275
 7156SOL    HW233102   4.029   1.090   3.941  0.0128 -0.1056  0.0012
 7157SOL     OW33103   2.819   1.155  13.246 -0.3697  0.0740  0.4769
 7157SOL    HW133104   2.724   1.145  13.252 -0.4811  1.4637  0.8848
 7157SOL    HW233105   2.816   1.211  13.169 -1.4909  0.8346  1.0772
 7158SOL     OW33106   3.072   1.734   4.270 -0.1625 -0.0595 -0.1154
 7158SOL    HW133107   3.145   1.675   4.287 -1.6818 -1.7120  0.6424
 7158SOL    HW233108   3.030   1.665   4.219 -1.7802 -0.3695  1.6467
 7159SOL     OW33109   0.762   0.834  15.737 -0.2392 -0.2634 -0.9366
 7159SOL    HW133110   0.770   0.896  15.665  1.9456 -0.1877 -0.6289
 7159SOL    HW233111   0.770   0.896  15.809  1.3629 -0.0784 -1.2705
 7160SOL     OW33112   1.925   2.245   7.832  0.2783  0.0108 -0.2079
 7160SOL    HW133113   2.017   2.270   7.824  0.4026 -0.3842 -0.0525
 7160SOL    HW233114   1.943   2.161   7.874  3.0699  1.1656  0.9365
 7161SOL     OW33115   3.815   1.328   6.709 -0.0295  0.2886 -0.1765
 7161SOL    HW133116   3.887   1.391   6.707  1.8026 -1.7875 -0.8455
 7161SOL    HW233117   3.807   1.314   6.804 -0.1956 -0.4262 -0.2949
 7162SOL     OW33118   1.437   2.384   3.912  0.2818 -0.0929  0.4971
 7162SOL    HW133119   1.463   2.339   3.993  1.4584  1.1889  0.8375
 7162SOL    HW233120   1.419   2.469   3.953  0.3905 -0.8441  2.1087
 7163SOL     OW33121   0.714   4.406   8.124 -0.6178 -0.2222 -0.3100
 7163SOL    HW133122   0.649   4.475   8.132 -1.1361 -0.6380 -0.9557
 7163SOL    HW233123   0.785   4.446   8.074 -0.7874  2.8838  1.9358
 7164SOL     OW33124   3.215   4.567  10.532  0.6356  0.0085 -0.0781
 7164SOL    HW133125   3.260   4.501  10.585  0.2478 -0.5041 -0.3910
 7164SOL    HW233126   3.131   4.580  10.576  0.2965  0.5012 -0.8575
 7165SOL     OW33127   2.212   2.000   4.654 -0.0473  0.2796 -0.1463
 7165SOL    HW133128   2.288   1.995   4.596 -0.6872  0.4741 -1.0009
 7165SOL    HW233129   2.227   2.085   4.695  1.0140  0.4096 -0.8075
 7166SOL     OW33130   0.373   0.048   3.754  0.7863 -0.2994  0.3687
 7166SOL    HW133131   0.354   0.048   3.848  0.4716 -0.1192  0.3044
 7166SOL    HW233132   0.376   0.141   3.734  1.9123 -0.2077  1.0105
 7167SOL     OW33133   4.565   0.320   4.133 -0.1413  0.5047 -0.1456
 7167SOL    HW133134   4.480   0.287   4.163  0.7606 -0.5253  1.2668
 7167SOL    HW233135   4.580   0.387   4.199  0.6367 -2.2324  2.3996
 7168SOL     OW33136   3.371   4.517   2.754  0.3574 -0.0255  0.1745
 7168SOL    HW133137   3.427   4.511   2.677 -0.4697  2.2465 -0.6208
 7168SOL    HW233138   3.432   4.552   2.819  1.1448 -0.8632 -0.1253
 7169SOL     OW33139   3.408   0.880   9.737 -0.0191 -0.1546 -1.0794
 7169SOL    HW133140   3.345   0.810   9.757  0.4000  0.6733  3.1219
 7169SOL    HW233141   3.479   0.819   9.756 -1.4186 -1.4170  0.0890
 7170SOL     OW33142   1.765   2.164   8.902 -0.1290  0.5648 -0.1852
 7170SOL    HW133143   1.772   2.153   8.997 -0.0429 -2.7936 -0.5977
 7170SOL    HW233144   1.669   2.158   8.894  0.3244 -1.8079 -3.5342
 7171SOL     OW33145   2.404   3.192   4.977  0.2350  0.4608  0.2547
 7171SOL    HW133146   2.346   3.268   4.971  1.4993  1.3215 -1.0528
 7171SOL    HW233147   2.491   3.232   4.981  0.4611  0.0227 -0.4870
 7172SOL     OW33148   2.658   4.141   7.402  0.0133 -0.5853  0.3357
 7172SOL    HW133149   2.578   4.177   7.439 -0.2791  0.2296 -1.0882
 7172SOL    HW233150   2.643   4.049   7.381  0.6842 -0.3359 -1.2700
 7173SOL     OW33151   1.816   0.824   4.051 -0.4128 -0.0299 -0.2107
 7173SOL    HW133152   1.834   0.858   4.139 -0.5973  0.2674 -0.2886
 7173SOL    HW233153   1.839   0.902   4.000  2.0582  0.0683  1.0225
 7174SOL     OW33154   1.001   2.870   7.432 -0.3107  0.3382  0.2028
 7174SOL    HW133155   0.939   2.905   7.368  0.1828 -0.4129 -0.6832
 7174SOL    HW233156   0.953   2.798   7.473  0.7574 -0.3112  0.3376
 7175SOL     OW33157   4.220   0.267  16.549 -0.1947  0.7168 -0.3929
 7175SOL    HW133158   4.236   0.186  16.598  2.4773  1.1264 -0.5645
 7175SOL    HW233159   4.137   0.293  16.590 -0.4076 -2.6715  1.3318
 7176SOL     OW33160   2.562   2.595  11.578 -0.1307  0.1045  1.0155
 7176SOL    HW133161   2.565   2.504  11.608 -1.0163 -0.3675 -0.3927
 7176SOL    HW233162   2.589   2.648  11.654 -0.9149  0.0640  1.3199
 7177SOL     OW33163   2.192   2.752   6.642  0.7252 -0.3200 -0.0099
 7177SOL    HW133164   2.174   2.736   6.735  1.7237  0.1490  0.2585
 7177SOL    HW233165   2.230   2.669   6.613 -2.1353 -1.7124  0.1809
 7178SOL     OW33166   0.280   3.696   5.376 -0.2860 -0.2197  0.1696
 7178SOL    HW133167   0.359   3.750   5.378  0.0388 -0.7276  0.8030
 7178SOL    HW233168   0.317   3.613   5.349  0.0755 -0.5908  1.7762
 7179SOL     OW33169   2.501   3.256   2.955 -0.1293  0.1010 -0.1153
 7179SOL    HW133170   2.431   3.241   2.891 -0.4518 -0.7920  0.4463
 7179SOL    HW233171   2.494   3.183   3.016  1.3519  2.1366  2.4866
 7180SOL     OW33172   3.778   0.616   5.488  0.1258  0.4401  0.5767
 7180SOL    HW133173   3.716   0.625   5.417  2.4816 -1.1579 -1.6957
 7180SOL    HW233174   3.729   0.658   5.559 -1.1521  0.1659 -0.1475
 7181SOL     OW33175   1.796   4.398   7.372  0.4789 -0.0700 -0.4990
 7181SOL    HW133176   1.810   4.336   7.444 -1.6239 -1.8609 -1.6060
 7181SOL    HW233177   1.837   4.345   7.303 -0.7903  0.3619 -1.5951
 7182SOL     OW33178   1.716   2.699   5.774 -0.3229 -0.7524  0.3449
 7182SOL    HW133179   1.739   2.606   5.778  2.3440 -0.1071  0.3306
 7182SOL    HW233180   1.804   2.735   5.764  0.4288 -2.7733 -0.4121
 7183SOL     OW33181   2.036   3.242   8.910 -0.5112  0.6475 -0.0201
 7183SOL    HW133182   1.981   3.175   8.950  0.9344 -1.4444 -1.5470
 7183SOL    HW233183   2.049   3.306   8.980  0.3173  0.8617 -0.3641
 7184SOL     OW33184   4.626   0.787   5.089 -0.1228  1.2673  0.5796
 7184SOL    HW133185   4.653   0.862   5.141  1.1853  0.9101  0.4117
 7184SOL    HW233186   4.705   0.756   5.044 -1.2734 -0.8095 -0.0365
 7185SOL     OW33187   2.224   4.292  16.279  0.1154 -0.3681  0.1315
 7185SOL    HW133188   2.157   4.309  16.212 -0.7142  0.7401  1.2357
 7185SOL    HW233189   2.168   4.245  16.341 -0.4929 -0.1287 -0.2333
 7186SOL     OW33190   2.082   0.047   7.151 -0.7595  0.6842 -0.1241
 7186SOL    HW133191   2.111   0.134   7.177 -1.7197  0.7920  0.5804
 7186SOL    HW233192   1.997   0.076   7.118  0.0394  2.4321 -0.6367
 7187SOL     OW33193   0.894   2.621  16.773  0.2296 -0.2289  0.9601
 7187SOL    HW133194   0.842   2.701  16.765  1.6124  0.5344 -0.4869
 7187SOL    HW233195   0.876   2.580  16.688 -0.1690  2.7637 -0.4240
 7188SOL     OW33196   3.246   2.993   5.643 -0.6718  0.1340  0.7087
 7188SOL    HW133197   3.215   2.951   5.724  0.6948 -1.1045  0.5732
 7188SOL    HW233198   3.183   2.950   5.585 -0.7878  0.0705  0.8818
 7189SOL     OW33199   1.290   2.978   2.404  0.0731 -0.1870  0.6696
 7189SOL    HW133200   1.320   2.918   2.473  0.2509 -0.6816  0.1644
 7189SOL    HW233201   1.364   2.958   2.346  0.5698  2.6733  0.3323
 7190SOL     OW33202   4.735   2.916   6.018 -0.1104  0.3949 -0.5756
 7190SOL    HW133203   0.061   2.931   5.948  1.0858 -3.4294 -0.2945
 7190SOL    HW233204   0.020   2.832   6.056  0.4978  0.4615 -0.7951
 7191SOL     OW33205   0.579   4.416  11.308 -0.1308 -0.3635 -0.1530
 7191SOL    HW133206   0.633   4.358  11.255 -0.3228  0.1480 -0.9051
 7191SOL    HW233207   0.541   4.348  11.363 -0.5786 -1.3832 -1.7113
 7192SOL     OW33208   1.854   4.043  15.703 -0.2141 -0.3154 -0.4699
 7192SOL    HW133209   1.818   4.106  15.765 -0.4091 -1.4251  0.5545
 7192SOL    HW233210   1.771   3.997  15.689  0.3635 -1.5189  0.0063
 7193SOL     OW33211   2.087   0.946   1.984 -0.1894 -0.2866 -0.1047
 7193SOL    HW133212   2.039   0.893   1.920 -0.1621 -2.2444  1.4865
 7193SOL    HW233213   2.104   0.885   2.057 -0.2759 -0.5675 -0.3183
 7194SOL     OW33214   4.404   4.524   1.400  0.4790  0.1575  0.1337
 7194SOL    HW133215   4.437   4.612   1.418  1.1756  0.2229 -1.4481
 7194SOL    HW233216   4.314   4.535   1.432  0.4730 -0.8678  0.4671
 7195SOL     OW33217   4.649   3.381   2.122 -0.3935 -0.1511  0.0523
 7195SOL    HW133218   4.571   3.384   2.177  0.4200 -1.1201  1.2478
 7195SOL    HW233219   4.669   3.292   2.151  0.9147  1.0260  2.7598
 7196SOL     OW33220   1.480   3.674  14.666  0.0776  0.4193 -0.2494
 7196SOL    HW133221   1.506   3.599  14.612 -0.5177  1.4244 -1.9294
 7196SOL    HW233222   1.524   3.744  14.619 -0.3042  0.7620 -0.0949
 7197SOL     OW33223   0.907   0.381   6.991 -0.6412  0.0587 -0.8214
 7197SOL    HW133224   0.976   0.319   6.969  1.2261  0.9503  2.3634
 7197SOL    HW233225   0.884   0.427   6.910 -1.6225  0.7848 -0.1390
 7198SOL     OW33226   1.347   0.331   5.646 -0.3403 -0.2863 -0.5225
 7198SOL    HW133227   1.280   0.347   5.713 -0.6089 -0.3150 -0.7818
 7198SOL    HW233228   1.433   0.344   5.686 -0.2586 -1.2458 -0.3920
 7199SOL     OW33229   0.994   3.029   1.085  0.1780 -0.3349 -0.6994
 7199SOL    HW133230   1.059   3.037   1.015  0.3113 -1.0233 -0.6552
 7199SOL    HW233231   0.997   2.935   1.103  2.6797 -0.1648 -0.1731
 7200SOL     OW33232   0.687   2.788   4.961 -0.3969 -0.2450 -0.2172
 7200SOL    HW133233   0.669   2.755   4.872  0.9229 -1.3175 -0.0929
 7200SOL    HW233234   0.671   2.882   4.963  3.1262  0.3420  0.0858
 7201SOL     OW33235   2.367   3.244   7.978  0.0487 -0.1337  0.0829
 7201SOL    HW133236   2.326   3.304   8.039  1.7280  1.1684 -0.0658
 7201SOL    HW233237   2.307   3.171   7.963  0.2616 -0.1263 -0.7995
 7202SOL     OW33238   2.574   3.869   5.811  0.0686 -0.3113 -0.5181
 7202SOL    HW133239   2.615   3.892   5.727  1.6062 -2.5346 -0.3519
 7202SOL    HW233240   2.559   3.958   5.842  3.5150  0.7674 -1.8975
 7203SOL     OW33241   4.665   3.803   8.868  0.0485  0.8215  0.6801
 7203SOL    HW133242   4.708   3.762   8.793 -2.0310  2.6811 -1.5186
 7203SOL    HW233243   4.589   3.840   8.823  1.4254  0.2273 -2.0971
 7204SOL     OW33244   3.647   3.381  17.007 -0.3776 -0.0698  0.2306
 7204SOL    HW133245   3.728   3.424  17.035 -0.5098  1.2827 -1.5161
 7204SOL    HW233246   3.648   3.412  16.917 -0.7808 -2.0041 -0.4241
 7205SOL     OW33247   0.880   1.533  15.431  0.2311  0.5720 -0.5515
 7205SOL    HW133248   0.896   1.470  15.361  0.2473 -0.6867  0.5889
 7205SOL    HW233249   0.922   1.489  15.504 -1.6911 -0.4941 -0.0757
 7206SOL     OW33250   0.225   1.999   4.809 -0.2049 -0.2533  0.4743
 7206SOL    HW133251   0.236   1.932   4.742 -0.7858  0.7309 -0.6129
 7206SOL    HW233252   0.209   1.940   4.883  1.5465 -0.9470  0.2881
 7207SOL     OW33253   4.333   0.957   5.331 -0.0515  0.0969  1.1562
 7207SOL    HW133254   4.415   0.999   5.358  1.1721 -2.1434  0.9587
 7207SOL    HW233255   4.277   0.999   5.397 -2.1239 -0.1271 -0.4511
 7208SOL     OW33256   0.509   0.237   7.886 -0.1809 -0.1942 -0.1091
 7208SOL    HW133257   0.529   0.323   7.923  0.0594 -0.3778  0.1856
 7208SOL    HW233258   0.568   0.175   7.928 -0.3352  0.7940  1.5821
 7209SOL     OW33259   2.614   2.730  11.140  0.2328 -0.2785  0.4830
 7209SOL    HW133260   2.699   2.703  11.105  0.3711  0.0545  0.5590
 7209SOL    HW233261   2.629   2.820  11.168  0.6579 -0.1607 -0.1207
 7210SOL     OW33262   0.416   2.538   1.874 -0.0316 -0.5661  0.1545
 7210SOL    HW133263   0.470   2.461   1.859  1.4432  0.5513 -0.3134
 7210SOL    HW233264   0.462   2.562   1.954  0.7805  1.3389 -0.8732
 7211SOL     OW33265   1.873   4.122   8.881 -0.2984 -1.0811 -0.1010
 7211SOL    HW133266   1.904   4.171   8.957 -1.4751  0.0764 -0.3657
 7211SOL    HW233267   1.887   4.029   8.900 -1.2036 -0.8778  1.5321
 7212SOL     OW33268   3.542   1.025   4.798  0.1077  0.3092 -0.0720
 7212SOL    HW133269   3.575   1.052   4.884  0.6463  3.5224 -1.2560
 7212SOL    HW233270   3.532   0.931   4.807 -0.1900  0.7439  3.8323
 7213SOL     OW33271   3.743   3.968   6.394  1.0178 -0.0536 -0.4993
 7213SOL    HW133272   3.739   3.942   6.302 -0.4545 -1.5866  0.0015
 7213SOL    HW233273   3.831   3.942   6.420  0.3450 -0.9223  0.9075
 7214SOL     OW33274   3.165   3.734  13.302 -1.1670 -0.2460 -0.6196
 7214SOL    HW133275   3.238   3.716  13.361 -1.6453 -1.2826 -0.3461
 7214SOL    HW233276   3.112   3.796  13.352 -0.7800 -1.5111  1.3498
 7215SOL     OW33277   1.781   3.695   7.337  0.0925  1.0735  0.0366
 7215SOL    HW133278   1.777   3.668   7.428  0.8897  0.3586 -0.1403
 7215SOL    HW233279   1.804   3.786   7.355 -1.4426  1.3145  0.7805
 7216SOL     OW33280   0.266   0.768   6.552 -0.6283 -0.0614  0.1511
 7216SOL    HW133281   0.214   0.797   6.626 -2.5907  2.4871 -2.2295
 7216SOL    HW233282   0.343   0.734   6.597 -2.0710  0.1367  2.7518
 7217SOL     OW33283   2.395   0.539   7.196  0.2913 -0.6009  0.5520
 7217SOL    HW133284   2.403   0.501   7.283 -0.5108 -2.2935 -0.1204
 7217SOL    HW233285   2.318   0.594   7.210  0.4045  0.4335 -2.7081
 7218SOL     OW33286   4.140   1.433   6.042 -0.2474  0.5728 -0.0753
 7218SOL    HW133287   4.112   1.495   5.975 -0.6506  2.1116  1.5097
 7218SOL    HW233288   4.165   1.360   5.985 -1.4348  0.0592  0.0647
 7219SOL     OW33289   2.483   1.702   6.303 -0.0773 -0.2521  0.0706
 7219SOL    HW133290   2.405   1.701   6.247  0.8961  1.9329 -1.2907
 7219SOL    HW233291   2.443   1.671   6.385 -0.7920 -0.3679 -0.3229
 7220SOL     OW33292   3.084   4.107   7.636  0.6915 -0.0649  0.0896
 7220SOL    HW133293   3.069   4.069   7.549  1.4177  0.7774 -0.3977
 7220SOL    HW233294   2.992   4.117   7.661  1.1694  0.0592  1.7902
 7221SOL     OW33295   0.875   0.721   5.698 -0.6954 -0.5727  0.0520
 7221SOL    HW133296   0.851   0.813   5.707  0.3814 -0.1110 -1.8116
 7221SOL    HW233297   0.912   0.717   5.610  0.4543 -1.3452  0.5673
 7222SOL     OW33298   2.440   3.615  10.921  0.6393 -0.0830 -0.2107
 7222SOL    HW133299   2.453   3.599  10.828  1.4798 -1.3084  0.1201
 7222SOL    HW233300   2.449   3.709  10.942 -0.1647 -0.0371 -0.0991
 7223SOL     OW33301   3.918   2.426   8.147 -0.1889  0.1670 -0.0222
 7223SOL    HW133302   3.875   2.427   8.062 -1.3652  0.4563  0.5729
 7223SOL    HW233303   3.867   2.489   8.198 -0.1833 -0.3890  0.6709
 7224SOL     OW33304   3.724   2.007   8.628 -0.4322  0.1883  0.1518
 7224SOL    HW133305   3.739   2.053   8.545 -0.0081  1.8534  1.1542
 7224SOL    HW233306   3.799   1.948   8.635 -0.6994 -0.1326  0.2573
 7225SOL     OW33307   1.444   0.071   2.745 -0.8361 -0.1972 -0.0833
 7225SOL    HW133308   1.531   0.073   2.783 -0.9108  0.3440  0.0569
 7225SOL    HW233309   1.409   0.138   2.803 -1.4564 -0.1912 -0.4639
 7226SOL     OW33310   4.515   2.190   7.849  0.1514 -0.1064 -0.6910
 7226SOL    HW133311   4.475   2.268   7.811  0.3672 -0.2675 -1.2447
 7226SOL    HW233312   4.608   2.211   7.844  0.3124 -0.9205 -1.1081
 7227SOL     OW33313   4.418   4.397   3.451 -0.3779 -0.3556 -0.0176
 7227SOL    HW133314   4.456   4.480   3.421  2.8608 -1.0566  2.1880
 7227SOL    HW233315   4.326   4.412   3.427  0.5249  1.6162 -2.3291
 7228SOL     OW33316   1.384   4.047   3.746  0.7112  0.0564 -0.4543
 7228SOL    HW133317   1.363   3.998   3.667 -0.8343 -0.9347  0.5664
 7228SOL    HW233318   1.475   4.055   3.717  0.2127  2.4960 -1.2994
 7229SOL     OW33319   3.559   3.228  11.776 -0.8169 -0.2170  0.3623
 7229SOL    HW133320   3.496   3.185  11.718  0.6343 -0.8824 -0.7419
 7229SOL    HW233321   3.505   3.265  11.846 -1.0881 -0.2511  0.1679
 7230SOL     OW33322   3.626   0.746  15.091  0.3558 -0.7810  0.0178
 7230SOL    HW133323   3.709   0.779  15.056  1.6069 -3.3982  0.4749
 7230SOL    HW233324   3.637   0.653  15.069  0.5314 -0.5689 -0.8177
 7231SOL     OW33325   3.793   2.324   4.356  0.2571  0.1419  0.1580
 7231SOL    HW133326   3.817   2.233   4.372  0.2553  0.2659  0.8486
 7231SOL    HW233327   3.729   2.311   4.285  1.9360 -3.3804 -0.7197
 7232SOL     OW33328   1.928   4.556   6.275 -0.0956 -0.8472 -0.2201
 7232SOL    HW133329   1.992   4.618   6.239  0.3983 -1.3931 -0.2990
 7232SOL    HW233330   1.885   4.607   6.343 -0.2991  1.7325 -2.2980
 7233SOL     OW33331   0.011   3.764   1.751 -0.1471  0.1009 -0.3836
 7233SOL    HW133332   0.072   3.699   1.787 -0.6098 -0.5591 -0.8093
 7233SOL    HW233333   4.726   3.724   1.668  2.0623  0.3518 -1.1465
 7234SOL     OW33334   3.472   1.250   3.920  0.0462 -0.0230  0.2131
 7234SOL    HW133335   3.483   1.327   3.864  2.3714 -1.0854 -0.7679
 7234SOL    HW233336   3.551   1.251   3.974 -0.2152  0.5943  0.5898
 7235SOL     OW33337   3.011   0.665   9.041  0.1364 -0.4791  0.4637
 7235SOL    HW133338   2.938   0.695   9.095  0.1618  0.0602  0.2025
 7235SOL    HW233339   2.965   0.600   8.988 -1.6882  0.5197  0.8149
 7236SOL     OW33340   0.891   1.773   9.247  0.0462 -0.5146 -0.2898
 7236SOL    HW133341   0.955   1.844   9.244  0.5509 -0.9678 -0.1516
 7236SOL    HW233342   0.890   1.741   9.157 -0.7460  0.9592 -0.8226
 7237SOL     OW33343   1.421   3.266  12.424 -0.2936  0.1679  0.3656
 7237SOL    HW133344   1.402   3.359  12.428  0.4007  0.3395 -0.2799
 7237SOL    HW233345   1.410   3.252  12.330  0.6863 -0.5080  0.3435
 7238SOL     OW33346   3.952   2.885   6.659 -0.2164 -0.1959 -0.2625
 7238SOL    HW133347   3.858   2.886   6.677 -0.5417 -0.5134 -1.9045
 7238SOL    HW233348   3.947   2.910   6.566  1.5654  1.8516  0.1955
 7239SOL     OW33349   0.098   3.477   7.809 -0.5624 -0.0731  0.0899
 7239SOL    HW133350   0.030   3.495   7.744  0.3956 -0.9273 -1.1391
 7239SOL    HW233351   0.174   3.461   7.752  0.9551  2.7133  1.3155
 7240SOL     OW33352   0.087   0.365  10.835 -0.0501 -0.0389  0.1779
 7240SOL    HW133353   0.175   0.328  10.833  0.3444  0.8885  0.1164
 7240SOL    HW233354   0.098   0.450  10.791  0.2972 -0.5895 -0.7871
 7241SOL     OW33355   1.489   4.344   5.129 -0.1643 -0.3991  0.0584
 7241SOL    HW133356   1.458   4.434   5.135  0.9332  0.0019 -0.3960
 7241SOL    HW233357   1.422   4.301   5.075  0.0837  1.3585 -1.6327
 7242SOL     OW33358   0.080   0.552   8.847  0.1973  0.3365  0.0175
 7242SOL    HW133359   0.090   0.489   8.776 -1.0767  0.5715 -0.3557
 7242SOL    HW233360   0.150   0.509   8.897 -0.3919 -1.2123 -0.5032
 7243SOL     OW33361   3.241   4.302   4.619 -0.0163  0.0515  0.3435
 7243SOL    HW133362   3.315   4.289   4.560 -0.4687 -0.7845 -0.0353
 7243SOL    HW233363   3.274   4.285   4.707 -0.4018  2.0136  0.8809
 7244SOL     OW33364   1.106   0.005   6.639  0.4099 -0.1732 -0.2056
 7244SOL    HW133365   1.187   0.005   6.689 -0.2652  1.3635  0.9070
 7244SOL    HW233366   1.106   0.098   6.617 -1.8933 -0.2944 -0.7968
 7245SOL     OW33367   2.507   2.921  12.406  0.2049  0.5199  0.2903
 7245SOL    HW133368   2.494   2.913  12.311 -0.0160  2.9213  0.1311
 7245SOL    HW233369   2.423   2.964  12.424 -0.9181 -0.7346 -1.8471
 7246SOL     OW33370   1.102   1.850  13.612  0.2140  0.5785 -0.3735
 7246SOL    HW133371   1.185   1.816  13.647 -0.0980  0.8852  0.6675
 7246SOL    HW233372   1.094   1.830  13.519  1.9376  1.5077 -0.7408
 7247SOL     OW33373   0.464   0.386   5.614  0.2686 -0.3086 -0.1983
 7247SOL    HW133374   0.455   0.332   5.536  1.1731  0.0086 -0.5166
 7247SOL    HW233375   0.537   0.444   5.591  1.5607 -1.1313  1.8617
 7248SOL     OW33376   2.956   2.016  14.607  0.0272  0.3495 -0.5563
 7248SOL    HW133377   2.999   1.967  14.537 -1.3789  2.0140 -2.5649
 7248SOL    HW233378   2.937   1.946  14.670 -1.2140 -1.0592 -2.5072
 7249SOL     OW33379   3.814   2.102   2.298 -0.0621  0.5435  0.0888
 7249SOL    HW133380   3.766   2.051   2.364 -2.1529 -1.0953 -2.6997
 7249SOL    HW233381   3.752   2.173   2.285  1.9273  2.2966  0.1228
 7250SOL     OW33382   2.535   3.989  15.930 -0.0010  0.7005  0.0047
 7250SOL    HW133383   2.552   4.027  16.016  0.8629  0.5107 -0.0767
 7250SOL    HW233384   2.448   4.025  15.913 -0.6276 -0.3074  1.1436
 7251SOL     OW33385   3.801   4.220   5.408 -0.3987 -0.0690 -0.5444
 7251SOL    HW133386   3.824   4.313   5.415 -1.1104  0.1692 -1.3107
 7251SOL    HW233387   3.779   4.218   5.315 -0.2864 -0.4784 -0.5632
 7252SOL     OW33388   4.541   4.173   6.456 -0.0989 -0.3385 -0.6288
 7252SOL    HW133389   4.622   4.142   6.496  1.1816  1.3766 -1.9062
 7252SOL    HW233390   4.493   4.118   6.519  2.0777 -0.0913  1.2554
 7253SOL     OW33391   4.125   4.662  10.285 -0.5404 -0.3356  0.4478
 7253SOL    HW133392   4.178   4.585  10.265  2.1960  1.3865  1.0598
 7253SOL    HW233393   4.105   4.638  10.376  0.0857 -2.8990 -0.0720
 7254SOL     OW33394   0.870   1.758   4.709 -0.2249  0.1792  0.4196
 7254SOL    HW133395   0.952   1.806   4.716  0.5804 -1.0963 -0.1940
 7254SOL    HW233396   0.874   1.703   4.631 -1.2517  0.1768  0.3590
 7255SOL     OW33397   3.428   2.193  15.784  0.2264 -0.7721  0.0921
 7255SOL    HW133398   3.405   2.266  15.726 -1.4311 -3.1642 -2.2052
 7255SOL    HW233399   3.348   2.142  15.775  0.0592 -0.2125 -1.5905
 7256SOL     OW33400   0.908   2.401  11.568  0.1720 -0.2071 -0.2034
 7256SOL    HW133401   0.884   2.443  11.651  2.7433 -1.1251  0.9882
 7256SOL    HW233402   0.954   2.321  11.595 -0.2169  0.1553  1.5603
 7257SOL     OW33403   1.206   1.553   1.349 -0.2522  0.1017  0.6772
 7257SOL    HW133404   1.198   1.575   1.442 -0.0385 -0.4866  0.8412
 7257SOL    HW233405   1.121   1.513   1.330  2.0016 -3.9672 -0.9341
 7258SOL     OW33406   3.525   3.394   1.340  0.0050  0.7838  0.5097
 7258SOL    HW133407   3.469   3.394   1.263 -2.5969  2.7597  2.4264
 7258SOL    HW233408   3.569   3.479   1.325 -0.4402  0.3149 -3.5506
 7259SOL     OW33409   2.819   4.357   8.572  0.9004 -0.2344  0.7066
 7259SOL    HW133410   2.832   4.421   8.642 -3.4490 -2.4659  3.5325
 7259SOL    HW233411   2.870   4.393   8.499 -0.8563  1.2390  0.2068
 7260SOL     OW33412   0.721   0.291   1.912  0.0877 -0.0504 -0.0861
 7260SOL    HW133413   0.743   0.283   2.005  0.2335 -1.1549 -0.2180
 7260SOL    HW233414   0.723   0.387   1.916 -0.1909 -0.0832  0.9863
 7261SOL     OW33415   2.764   1.460  14.992  0.3225  0.8735 -0.0385
 7261SOL    HW133416   2.672   1.442  15.010  0.8463 -0.9633  0.7752
 7261SOL    HW233417   2.776   1.492  15.081  2.7149 -0.3523  0.0731
 7262SOL     OW33418   3.316   2.848   3.408 -0.0881  0.2009 -0.1943
 7262SOL    HW133419   3.276   2.843   3.321  2.7396  2.3058 -1.6205
 7262SOL    HW233420   3.238   2.866   3.460  1.0442  1.5977  1.0236
 7263SOL     OW33421   1.866   3.602   8.062 -0.2913  0.1097 -0.1115
 7263SOL    HW133422   1.920   3.584   8.138  1.1949 -1.5707 -1.5944
 7263SOL    HW233423   1.793   3.657   8.092  0.5780  0.7009  0.8826
 7264SOL     OW33424   1.919   3.606   1.388  0.2598 -0.0123 -0.6357
 7264SOL    HW133425   1.926   3.616   1.293 -2.7104  2.1205 -0.6259
 7264SOL    HW233426   1.824   3.615   1.393  0.2141 -1.7592  1.5325
 7265SOL     OW33427   1.822   0.013   9.002 -0.1598  0.6650  0.2468
 7265SOL    HW133428   1.816   4.686   9.072 -2.2260  1.5467  0.9000
 7265SOL    HW233429   1.832   0.090   9.059  3.6779  1.4041 -1.4141
 7266SOL     OW33430   1.888   3.699   6.012 -0.5186  0.7416 -0.0240
 7266SOL    HW133431   1.971   3.739   6.037 -0.7873 -0.4968  2.8305
 7266SOL    HW233432   1.821   3.759   6.046 -0.0147  0.9569  0.5886
 7267SOL     OW33433   1.036   2.831   5.892 -0.5539 -0.2101  1.0335
 7267SOL    HW133434   1.026   2.923   5.866  0.9444  0.2322  1.9865
 7267SOL    HW233435   0.947   2.800   5.875  0.4574 -1.8231 -1.1719
 7268SOL     OW33436   1.103   0.315  12.652 -0.4494  0.2657 -0.0621
 7268SOL    HW133437   1.140   0.309  12.564 -0.8679  0.0484 -0.2226
 7268SOL    HW233438   1.009   0.312  12.638 -0.1940 -2.6964 -1.2739
 7269SOL     OW33439   4.564   0.978   2.743  0.1783 -0.9304 -0.4442
 7269SOL    HW133440   4.478   0.949   2.713 -0.8284  3.0853 -1.4457
 7269SOL    HW233441   4.623   0.973   2.669 -1.4354  0.5419 -1.8477
 7270SOL     OW33442   2.968   1.258   3.997 -0.4860 -0.0918 -0.0273
 7270SOL    HW133443   2.970   1.239   4.090  1.7800  2.3079  0.4390
 7270SOL    HW233444   3.041   1.205   3.964 -1.4182 -0.1552 -1.9776
 7271SOL     OW33445   4.718   2.588   1.815  0.5509 -0.0900  0.3505
 7271SOL    HW133446   4.715   2.676   1.778 -0.8013 -0.2227  0.1326
 7271SOL    HW233447   0.028   2.537   1.750  1.2224  2.5647 -1.2119
 7272SOL     OW33448   4.165   4.282   5.872 -0.0795 -0.4045 -0.2076
 7272SOL    HW133449   4.211   4.224   5.811 -0.2996 -3.4219  2.4980
 7272SOL    HW233450   4.073   4.268   5.852 -0.2678 -0.6831  0.8182
 7273SOL     OW33451   4.073   0.069   7.840  0.0204  0.0564 -0.5483
 7273SOL    HW133452   4.026   4.731   7.873  2.0864 -0.5469  0.9640
 7273SOL    HW233453   3.992   0.111   7.811  0.4926 -1.5435 -4.2238
 7274SOL     OW33454   0.909   0.393   4.820  0.1524  0.2486 -0.0051
 7274SOL    HW133455   0.938   0.329   4.754  0.4020  0.1836  0.1683
 7274SOL    HW233456   0.957   0.473   4.799  1.5602 -1.0171 -1.5621
 7275SOL     OW33457   3.082   3.559   8.419 -0.0598 -0.2897  0.6469
 7275SOL    HW133458   3.084   3.651   8.395  1.8682 -0.1306  1.4018
 7275SOL    HW233459   2.995   3.532   8.447  1.1770 -2.6511  2.2585
 7276SOL     OW33460   0.578   2.224  15.681  0.4713 -0.5750 -0.2815
 7276SOL    HW133461   0.607   2.193  15.596 -0.4673  1.4073 -1.3325
 7276SOL    HW233462   0.608   2.153  15.738  0.0119  0.8189  1.7221
 7277SOL     OW33463   3.804   0.479   3.310 -0.5556 -0.1014 -0.3342
 7277SOL    HW133464   3.763   0.487   3.396  3.7604  0.6533  1.6279
 7277SOL    HW233465   3.767   0.557   3.268  3.0061  1.4780 -0.5434
 7278SOL     OW33466   2.582   2.042   3.886 -0.4424  0.1359  0.1189
 7278SOL    HW133467   2.633   2.014   3.962  3.8323 -0.6638 -3.0714
 7278SOL    HW233468   2.602   1.964   3.834 -1.5721 -0.1004  0.0502
 7279SOL     OW33469   2.555   0.802   3.476  0.2960  0.5706  0.2566
 7279SOL    HW133470   2.557   0.815   3.571  1.4407  0.4054  0.2635
 7279SOL    HW233471   2.649   0.794   3.457  0.4037 -2.4661  2.0380
 7280SOL     OW33472   2.816   2.534  11.965 -1.1270 -0.2806  0.7926
 7280SOL    HW133473   2.855   2.597  11.904  0.6136 -0.1209  2.0663
 7280SOL    HW233474   2.790   2.592  12.037 -0.1095 -1.6654  2.2707
 7281SOL     OW33475   0.154   2.883  12.830 -0.2433  0.3763  0.4329
 7281SOL    HW133476   0.165   2.816  12.763  1.0042  1.9114 -0.9231
 7281SOL    HW233477   0.163   2.965  12.781 -3.1600 -0.3378 -1.2865
 7282SOL     OW33478   3.491   1.421   5.596 -0.2225  0.4391  0.1225
 7282SOL    HW133479   3.458   1.463   5.675 -0.8614 -1.7351  1.0294
 7282SOL    HW233480   3.433   1.346   5.586  0.6915 -0.1246 -1.0331
 7283SOL     OW33481   1.444   2.712   5.749 -0.1894 -0.1173 -0.0372
 7283SOL    HW133482   1.435   2.626   5.790  0.4724  0.6074  1.6522
 7283SOL    HW233483   1.522   2.745   5.794 -0.1401 -0.1963 -0.0658
 7284SOL     OW33484   0.142   3.470   6.301 -0.1294 -0.1978 -0.4915
 7284SOL    HW133485   0.047   3.471   6.308 -0.0452 -3.1588  1.1586
 7284SOL    HW233486   0.161   3.444   6.210  0.1098  0.4917 -0.6349
 7285SOL     OW33487   2.278   2.703   1.033 -0.1672 -0.1762  0.2174
 7285SOL    HW133488   2.329   2.634   0.990  2.4516  1.3479  0.8336
 7285SOL    HW233489   2.197   2.695   0.983 -0.6538  2.3771  0.6076
 7286SOL     OW33490   3.300   1.938  12.076 -0.7244  0.1708 -0.5320
 7286SOL    HW133491   3.274   1.897  11.993  1.0648 -1.0392 -0.4737
 7286SOL    HW233492   3.255   2.022  12.066 -2.6549 -0.5699  1.6900
 7287SOL     OW33493   4.310   3.104  13.238 -0.4977 -0.1625 -0.1731
 7287SOL    HW133494   4.303   3.180  13.295 -1.5242 -0.2433 -0.2028
 7287SOL    HW233495   4.383   3.063  13.284 -0.3178  1.1876  0.7334
 7288SOL     OW33496   2.613   3.990   8.153 -0.3867 -0.5667 -0.7611
 7288SOL    HW133497   2.675   4.022   8.088 -1.6507  0.1481 -1.6147
 7288SOL    HW233498   2.583   3.910   8.111 -0.5043 -1.5129  1.1177
 7289SOL     OW33499   3.051   3.971   7.420  0.0432  0.2801  0.0043
 7289SOL    HW133500   3.050   3.876   7.432  1.8489  0.3927  1.0678
 7289SOL    HW233501   2.973   3.988   7.368 -0.5325 -0.7960  0.5145
 7290SOL     OW33502   3.683   0.210   6.003  0.1661  0.0496  0.0612
 7290SOL    HW133503   3.693   0.122   5.967 -2.4617 -0.4379  0.5031
 7290SOL    HW233504   3.625   0.174   6.071 -0.1303 -1.5050 -1.0093
 7291SOL     OW33505   2.619   4.465   1.875  0.0867  0.2589  0.4022
 7291SOL    HW133506   2.667   4.442   1.796  0.3010  1.0884  0.2961
 7291SOL    HW233507   2.686   4.518   1.918  1.0495 -0.7681  0.1592
 7292SOL     OW33508   1.193   1.015   2.075  0.3566  0.6606  0.7895
 7292SOL    HW133509   1.164   0.973   2.156  0.9983 -1.6290 -0.1680
 7292SOL    HW233510   1.231   1.097   2.107 -0.6433  1.1375  0.7574
 7293SOL     OW33511   4.709   4.693  13.821 -0.3859  0.0183 -0.6576
 7293SOL    HW133512   4.627   4.715  13.866 -1.6190 -1.8909 -1.9517
 7293SOL    HW233513   4.680   4.625  13.760  0.1050  0.0330 -0.9007
 7294SOL     OW33514   0.706   3.303  11.467 -0.4532 -0.1101 -0.4378
 7294SOL    HW133515   0.630   3.251  11.492 -2.4972  3.1960  0.2633
 7294SOL    HW233516   0.776   3.251  11.507 -1.6378 -0.5652  1.0639
 7295SOL     OW33517   3.441   1.920   3.967 -0.1248 -0.1132  0.3416
 7295SOL    HW133518   3.347   1.903   3.964 -0.5654  2.6912 -2.4306
 7295SOL    HW233519   3.470   1.841   4.013  0.3259 -0.5787 -0.7447
 7296SOL     OW33520   1.826   1.678   8.298 -0.5913 -0.3566  0.6813
 7296SOL    HW133521   1.787   1.599   8.336 -0.2882 -1.0993 -0.5529
 7296SOL    HW233522   1.759   1.708   8.237  0.9955  0.3877 -0.6865
 7297SOL     OW33523   0.259   3.285   7.285  0.1758 -0.4367 -0.0864
 7297SOL    HW133524   0.339   3.314   7.327  0.6442 -1.3462 -0.3531
 7297SOL    HW233525   0.278   3.207   7.233  1.4834 -0.5575  0.5857
 7298SOL     OW33526   3.820   3.278   3.348 -0.1877 -0.3782  0.4307
 7298SOL    HW133527   3.781   3.220   3.413  0.1164 -1.8310 -0.6835
 7298SOL    HW233528   3.778   3.266   3.263 -1.8485  1.5701  0.9784
 7299SOL     OW33529   1.740   0.739   1.487  0.3303 -0.3692  0.3895
 7299SOL    HW133530   1.816   0.762   1.541  0.5782 -1.3545  0.4659
 7299SOL    HW233531   1.722   0.828   1.457 -1.3919 -0.5973  0.7545
 7300SOL     OW33532   1.413   2.910   0.619 -0.5399 -0.8417 -0.1669
 7300SOL    HW133533   1.444   2.998   0.642 -2.5723 -0.2201  0.2867
 7300SOL    HW233534   1.356   2.935   0.545 -0.2145  0.2449 -0.0608
 7301SOL     OW33535   1.353   3.365   4.141 -0.4141  0.2673 -0.5404
 7301SOL    HW133536   1.324   3.456   4.134  1.7319  0.8854 -1.4536
 7301SOL    HW233537   1.281   3.315   4.178  1.1061 -1.5600 -0.0458
 7302SOL     OW33538   3.653   3.430  16.347 -0.3595 -0.3799  0.1686
 7302SOL    HW133539   3.696   3.414  16.263  0.6155  0.1159  0.5719
 7302SOL    HW233540   3.639   3.525  16.340 -0.0667 -0.3248  0.3293
 7303SOL     OW33541   2.775   1.580  14.722 -0.2207 -0.4511  0.4148
 7303SOL    HW133542   2.777   1.543  14.811 -2.8818  0.8509  1.0161
 7303SOL    HW233543   2.768   1.500  14.670  0.2266 -0.6210  0.6201
 7304SOL     OW33544   3.825   0.690   6.904 -0.4546 -0.0651  0.1235
 7304SOL    HW133545   3.801   0.611   6.856 -0.0410 -0.3649  0.4028
 7304SOL    HW233546   3.866   0.649   6.980 -2.5476 -0.0928  1.2127
 7305SOL     OW33547   4.352   2.963  12.235 -0.3672  0.2526  0.0806
 7305SOL    HW133548   4.361   2.969  12.330 -3.2399 -0.5299  0.4041
 7305SOL    HW233549   4.284   3.030  12.226 -0.3060  0.7092  3.0515
 7306SOL     OW33550   3.784   3.523   2.316 -1.0704  0.6578 -0.9603
 7306SOL    HW133551   3.814   3.608   2.283  1.8150 -0.6370 -1.6995
 7306SOL    HW233552   3.755   3.536   2.406  0.7807  1.0687 -0.4287
 7307SOL     OW33553   4.173   3.777   2.515  0.0755 -0.6067  1.0697
 7307SOL    HW133554   4.124   3.849   2.474 -0.0556 -0.1456  2.0301
 7307SOL    HW233555   4.230   3.739   2.448 -1.3312  1.7969 -1.4934
 7308SOL     OW33556   4.044   3.794   6.048  0.0169 -0.2030  0.1323
 7308SOL    HW133557   4.053   3.700   6.060  0.4283 -0.3834 -1.5835
 7308SOL    HW233558   4.133   3.823   6.065 -0.4408  1.0911  0.3362
 7309SOL     OW33559   0.522   3.587  11.916 -0.2208  0.2056 -0.2739
 7309SOL    HW133560   0.537   3.583  11.822 -0.2947  1.2044 -0.3235
 7309SOL    HW233561   0.501   3.495  11.931 -0.8946  0.8078  2.5829
 7310SOL     OW33562   0.254   0.118   8.792 -0.4647  0.0691 -0.4374
 7310SOL    HW133563   0.284   0.179   8.725 -1.0787 -1.5437 -2.1771
 7310SOL    HW233564   0.206   0.066   8.727  0.0691 -0.0991 -0.6954
 7311SOL     OW33565   3.834   3.827  15.878 -0.3742 -0.3782 -0.4803
 7311SOL    HW133566   3.898   3.823  15.807 -0.9885  0.7496 -1.0968
 7311SOL    HW233567   3.893   3.823  15.953  0.1043 -0.5412 -0.8673
 7312SOL     OW33568   4.684   4.454  16.826 -0.0042  0.2393 -0.4552
 7312SOL    HW133569   0.039   4.452  16.844 -0.5770  0.5966  2.6205
 7312SOL    HW233570   4.679   4.427  16.734  1.3256 -0.1138 -0.4194
 7313SOL     OW33571   3.775   1.197   2.582 -0.6486  0.3789  0.1264
 7313SOL    HW133572   3.865   1.169   2.597 -1.4082 -1.3392  1.5097
 7313SOL    HW233573   3.761   1.168   2.492 -0.3494 -1.8183  0.7809
 7314SOL     OW33574   4.530   2.039  12.214 -0.3585  0.0379 -0.2615
 7314SOL    HW133575   4.441   2.025  12.245  0.0778 -0.9385  0.5146
 7314SOL    HW233576   4.575   1.989  12.282  0.8386  2.4213  0.6877
 7315SOL     OW33577   3.214   2.348   7.909  0.1288 -0.2827  0.1603
 7315SOL    HW133578   3.167   2.330   7.827 -1.3124  0.0930  0.8915
 7315SOL    HW233579   3.150   2.346   7.980  0.4116 -2.9544  0.3516
 7316SOL     OW33580   1.979   1.705   0.939  0.3103 -0.6373 -0.1251
 7316SOL    HW133581   2.009   1.796   0.937 -2.0814  0.1495 -0.0740
 7316SOL    HW233582   1.925   1.705   0.860 -0.8600  3.0099  0.6696
 7317SOL     OW33583   1.204   0.836   8.972  0.4668 -0.4189 -0.3387
 7317SOL    HW133584   1.237   0.779   8.903 -1.0444 -2.2647  0.4882
 7317SOL    HW233585   1.158   0.897   8.915  1.2249 -0.1262 -0.6388
 7318SOL     OW33586   0.199   0.175   1.576 -0.1800  0.3267  0.1869
 7318SOL    HW133587   0.251   0.230   1.635  0.0109  1.3580 -0.9499
 7318SOL    HW233588   0.272   0.131   1.532  0.4720  3.0902 -1.5001
 7319SOL     OW33589   4.199   3.391   5.582  0.2409  0.0528 -0.4123
 7319SOL    HW133590   4.294   3.382   5.584  0.0918 -0.8798  2.3612
 7319SOL    HW233591   4.195   3.474   5.534  0.0364 -0.5347 -1.4255
 7320SOL     OW33592   0.250   2.658   5.430  0.3496  0.0102  0.2375
 7320SOL    HW133593   0.277   2.651   5.338 -0.7936  0.1515 -0.1092
 7320SOL    HW233594   0.333   2.643   5.474  0.5597 -0.2046 -0.2291
 7321SOL     OW33595   2.969   2.146   8.827  0.4016 -0.4777 -0.9753
 7321SOL    HW133596   2.911   2.070   8.833 -0.7234  0.3947 -1.0040
 7321SOL    HW233597   2.898   2.207   8.809 -0.0945 -0.9708 -0.6864
 7322SOL     OW33598   0.849   4.654   7.245  0.5953 -0.7781 -0.6217
 7322SOL    HW133599   0.827   4.691   7.159 -0.8335  0.1588  0.1412
 7322SOL    HW233600   0.815   4.724   7.301 -0.0871 -1.4758 -0.1641
 7323SOL     OW33601   4.664   3.291  12.909  0.7182 -0.2280 -0.1689
 7323SOL    HW133602   0.013   3.328  12.919  1.0927 -0.4438 -2.6027
 7323SOL    HW233603   4.614   3.368  12.938  1.1728 -0.4467  1.1815
 7324SOL     OW33604   4.286   2.160   5.370  0.4615 -0.1217  0.0953
 7324SOL    HW133605   4.198   2.127   5.353 -0.1727  0.5218  2.1042
 7324SOL    HW233606   4.326   2.142   5.285 -1.5809 -1.5242 -0.5668
 7325SOL     OW33607   1.382   4.518  12.411  0.0820  0.2201  0.2780
 7325SOL    HW133608   1.319   4.589  12.423 -0.1460  0.0922 -0.1620
 7325SOL    HW233609   1.443   4.559  12.350  0.6382  0.6267  1.0948
 7326SOL     OW33610   2.004   4.077   3.268  0.5029  0.7958 -0.3046
 7326SOL    HW133611   2.064   4.002   3.263 -1.5175 -0.8214 -0.4601
 7326SOL    HW233612   2.008   4.086   3.173 -1.5137  0.2226 -0.4435
 7327SOL     OW33613   0.413   3.020   4.884  0.4058 -0.4987 -0.4117
 7327SOL    HW133614   0.344   3.023   4.950 -0.6467 -2.1670 -1.4179
 7327SOL    HW233615   0.419   2.928   4.855 -1.8156 -0.5891 -0.6123
 7328SOL     OW33616   2.186   3.297  17.676  0.0264  0.0215  0.5885
 7328SOL    HW133617   2.167   3.388  17.702  0.4856  0.2290  0.2072
 7328SOL    HW233618   2.276   3.278  17.703  0.1518 -1.2608 -0.7627
 7329SOL     OW33619   3.945   3.954   5.854  0.6917  0.0901  0.0971
 7329SOL    HW133620   3.976   3.886   5.914  1.4172  0.8402  0.5741
 7329SOL    HW233621   4.032   3.993   5.843 -0.7506  2.7892 -1.5809
 7330SOL     OW33622   1.061   3.705   7.918 -0.5009  0.0120 -0.2902
 7330SOL    HW133623   1.021   3.751   7.845  0.4169  0.3344 -0.5955
 7330SOL    HW233624   1.057   3.614   7.890  2.1996  0.1516 -1.1443
 7331SOL     OW33625   4.644   0.851   7.892 -0.4519  0.8139  0.3803
 7331SOL    HW133626   4.646   0.760   7.863  1.0939 -0.0441  3.2571
 7331SOL    HW233627   4.549   0.862   7.887 -0.3359  2.1810  1.2054
 7332SOL     OW33628   1.005   4.137   5.728 -0.3789 -0.6897 -0.2187
 7332SOL    HW133629   0.926   4.163   5.775  0.0013  0.1233 -0.0250
 7332SOL    HW233630   1.080   4.174   5.775 -0.2029 -0.4153 -0.7190
 7333SOL     OW33631   1.778   1.841   4.631 -0.5129  0.4338  0.4593
 7333SOL    HW133632   1.805   1.762   4.678 -0.7695  0.2541  0.3057
 7333SOL    HW233633   1.806   1.909   4.693  1.5336 -1.0510  1.1843
 7334SOL     OW33634   0.763   2.408   2.131  0.1175  0.0004 -0.3173
 7334SOL    HW133635   0.809   2.383   2.211 -1.4203 -1.2958  0.1506
 7334SOL    HW233636   0.832   2.373   2.075 -0.4531 -0.3853 -0.7773
 7335SOL     OW33637   0.363   4.366   8.263 -0.8553 -0.1083 -0.2019
 7335SOL    HW133638   0.389   4.371   8.171 -0.9429 -2.0886 -0.3328
 7335SOL    HW233639   0.282   4.316   8.256  0.3516 -1.6919 -2.7468
 7336SOL     OW33640   0.125   3.576   2.889  0.5754  0.5134  0.1832
 7336SOL    HW133641   0.108   3.632   2.964 -2.3870 -0.8778  0.5540
 7336SOL    HW233642   0.204   3.527   2.910 -1.1567 -1.5027  2.0302
 7337SOL     OW33643   3.388   0.081  11.304 -0.2711  0.4263  0.3944
 7337SOL    HW133644   3.379   0.166  11.347 -2.2769 -0.3445  1.4859
 7337SOL    HW233645   3.449   0.030  11.358 -0.0383  0.2999  0.0156
 7338SOL     OW33646   0.074   1.351  15.254 -0.0565 -0.6369  0.1632
 7338SOL    HW133647   0.080   1.342  15.159 -3.7076  1.2281 -0.2491
 7338SOL    HW233648   4.720   1.375  15.262 -0.2297 -0.7063 -1.6376
 7339SOL     OW33649   0.862   1.881   7.350 -0.6637 -0.4727  0.1445
 7339SOL    HW133650   0.845   1.799   7.398  0.9048 -0.4727  0.7143
 7339SOL    HW233651   0.812   1.871   7.270 -0.6323 -1.7357  0.2875
 7340SOL     OW33652   1.731   1.266   8.852 -0.1093 -0.4505  0.0719
 7340SOL    HW133653   1.663   1.201   8.871  0.8799 -0.7588  2.5489
 7340SOL    HW233654   1.763   1.300   8.936 -2.5127  1.1615  0.3411
 7341SOL     OW33655   0.135   0.507   5.916 -0.5548  0.1091 -0.4644
 7341SOL    HW133656   0.207   0.550   5.869 -0.0291  0.8683  1.0325
 7341SOL    HW233657   0.083   0.586   5.929  2.0594  1.8745 -0.7282
 7342SOL     OW33658   0.528   2.252  15.348  0.0854 -0.0627 -0.6812
 7342SOL    HW133659   0.603   2.196  15.369 -0.8916 -0.1621  2.4083
 7342SOL    HW233660   0.497   2.209  15.268 -0.9524  1.5923 -1.1734
 7343SOL     OW33661   2.213   3.896   8.868  0.4875 -0.3501 -0.3631
 7343SOL    HW133662   2.299   3.855   8.875 -0.2618 -1.6930  1.1712
 7343SOL    HW233663   2.239   3.941   8.788 -1.3635  0.0758 -0.7347
 7344SOL     OW33664   0.127   4.038   4.600 -0.7256 -0.1991 -0.2726
 7344SOL    HW133665   0.151   3.946   4.594 -0.6188 -0.2546  0.9532
 7344SOL    HW233666   0.032   4.027   4.603 -0.7046 -0.5368 -0.7722
 7345SOL     OW33667   3.894   3.609  11.688 -0.1187  0.0963 -0.0482
 7345SOL    HW133668   3.892   3.636  11.780 -1.4873 -0.0919 -0.0237
 7345SOL    HW233669   3.843   3.528  11.698 -2.7640  1.8897  0.9870
 7346SOL     OW33670   0.628   1.746  16.167 -0.3608 -0.0022  0.3714
 7346SOL    HW133671   0.561   1.688  16.202 -0.7233  0.8278  1.0404
 7346SOL    HW233672   0.614   1.748  16.072 -0.2691  2.5656  0.3969
 7347SOL     OW33673   1.924   1.421   9.928 -0.3237  0.7988 -0.3857
 7347SOL    HW133674   1.831   1.447   9.930 -1.1757 -2.2988 -0.6231
 7347SOL    HW233675   1.934   1.397  10.020 -0.3712  1.1096 -0.2986
 7348SOL     OW33676   2.422   1.517   5.575  0.2245  0.5855 -0.1177
 7348SOL    HW133677   2.389   1.540   5.662 -0.2331  0.5099 -0.2722
 7348SOL    HW233678   2.366   1.567   5.516 -2.6681  0.1644  2.2419
 7349SOL     OW33679   1.338   3.392   2.690  0.3770  0.0541 -0.1319
 7349SOL    HW133680   1.287   3.326   2.643  1.0229  1.3224 -2.6443
 7349SOL    HW233681   1.275   3.459   2.714 -1.0849 -1.5255  0.4296
 7350SOL     OW33682   3.076   0.948  16.858  0.0944  0.0860  0.6440
 7350SOL    HW133683   3.066   1.038  16.827  1.4627 -0.0909 -0.3009
 7350SOL    HW233684   3.159   0.945  16.904  0.2271 -0.9378  0.3432
 7351SOL     OW33685   4.550   3.932   5.889  0.4926 -0.1404  0.2701
 7351SOL    HW133686   4.571   3.931   5.796 -2.0334  0.0143 -0.2998
 7351SOL    HW233687   4.540   4.024   5.912  1.4168  0.5364 -2.0997
 7352SOL     OW33688   0.500   1.933  15.771  0.2070  0.1632  0.0274
 7352SOL    HW133689   0.511   1.862  15.708  1.0861 -0.9902  1.4858
 7352SOL    HW233690   0.593   1.950  15.787  0.3561  1.0531 -1.7372
 7353SOL     OW33691   2.380   4.511   8.270 -0.1697 -0.2954 -0.1271
 7353SOL    HW133692   2.363   4.605   8.273  0.4659 -0.2087  1.1391
 7353SOL    HW233693   2.464   4.518   8.225  0.4268 -0.1336  0.9956
 7354SOL     OW33694   1.900   0.373  14.192 -0.0241  0.1975 -0.3004
 7354SOL    HW133695   1.976   0.389  14.137 -0.2215  0.9002 -0.3743
 7354SOL    HW233696   1.944   0.382  14.277 -0.2029  0.5062 -0.2380
 7355SOL     OW33697   0.366   3.127   8.319  0.2731 -0.0305 -0.5219
 7355SOL    HW133698   0.310   3.059   8.282 -0.5245  0.4870 -0.2659
 7355SOL    HW233699   0.449   3.109   8.275 -0.1062  0.7224 -1.5566
 7356SOL     OW33700   1.543   2.797   2.095  0.0373 -0.0819 -0.4183
 7356SOL    HW133701   1.627   2.771   2.057 -0.5014  1.0923 -2.4075
 7356SOL    HW233702   1.567   2.880   2.137  0.0630 -0.5393  0.4873
 7357SOL     OW33703   0.279   4.490   0.153  0.2138  0.1178  0.2065
 7357SOL    HW133704   0.305   4.415   0.207  3.6006 -0.1018 -1.7561
 7357SOL    HW233705   0.296   4.565   0.210 -0.2709  0.5129 -0.1687
 7358SOL     OW33706   1.494   2.560   4.943 -0.5909  0.8039 -0.2509
 7358SOL    HW133707   1.424   2.624   4.926 -0.9892  0.5487  0.4236
 7358SOL    HW233708   1.531   2.598   5.023 -0.4973  0.0666  0.0529
 7359SOL     OW33709   4.038   3.922   4.836 -0.1541 -0.0534  0.8485
 7359SOL    HW133710   4.014   3.829   4.837  0.1973 -0.1462  0.7164
 7359SOL    HW233711   4.130   3.916   4.808 -0.1002 -0.1433  1.0460
 7360SOL     OW33712   0.861   0.484   6.746 -0.0415 -0.0230 -0.1386
 7360SOL    HW133713   0.817   0.488   6.661 -1.1587  1.1082  0.5030
 7360SOL    HW233714   0.954   0.489   6.723 -0.4094  0.9443 -1.3926
 7361SOL     OW33715   2.394   2.786   7.928  0.3747 -0.0984 -0.8563
 7361SOL    HW133716   2.356   2.829   8.005 -1.7310 -0.2690 -1.7831
 7361SOL    HW233717   2.438   2.853   7.876  1.8607 -1.6034 -1.5584
 7362SOL     OW33718   0.234   2.560   8.807  0.7285 -0.8990  0.1415
 7362SOL    HW133719   0.212   2.583   8.898  2.3504 -1.0380  0.5617
 7362SOL    HW233720   0.155   2.511   8.784 -1.1701  2.5482 -0.7260
 7363SOL     OW33721   2.264   0.394   8.574  0.3413  0.3189  0.2321
 7363SOL    HW133722   2.221   0.318   8.614 -0.0158  0.1893 -0.3984
 7363SOL    HW233723   2.245   0.371   8.483 -2.1917  0.9208  0.6246
 7364SOL     OW33724   3.442   0.309  16.437  0.3063  0.0634 -0.3713
 7364SOL    HW133725   3.537   0.320  16.432  0.3144 -0.1308 -0.6191
 7364SOL    HW233726   3.407   0.395  16.459  1.0092  0.3664 -0.4277
 7365SOL     OW33727   1.063   1.717   3.281  0.4271  0.0072  0.0045
 7365SOL    HW133728   0.968   1.713   3.292  0.7064  0.2384  2.4205
 7365SOL    HW233729   1.088   1.743   3.370  0.0759 -1.6753  0.5955
 7366SOL     OW33730   4.657   2.050  13.329 -0.3120  0.1315  0.1756
 7366SOL    HW133731   4.663   1.966  13.284 -0.6469 -0.2511  0.8414
 7366SOL    HW233732   0.003   2.081  13.298  0.1053 -1.0398  0.1620
 7367SOL     OW33733   2.275   4.423   5.337 -0.6651 -0.0918  0.7770
 7367SOL    HW133734   2.190   4.466   5.337 -1.4695 -1.6296 -1.7284
 7367SOL    HW233735   2.314   4.479   5.404  0.9241  0.8353 -0.9261
 7368SOL     OW33736   0.914   0.861   8.458  0.2599  0.5837 -0.1738
 7368SOL    HW133737   0.818   0.858   8.454  0.2678  1.5614 -1.1673
 7368SOL    HW233738   0.930   0.839   8.366 -1.8022 -1.4492 -0.0586
 7369SOL     OW33739   2.938   0.585   4.510 -0.4358 -0.2315  0.2487
 7369SOL    HW133740   3.015   0.569   4.454 -1.0250 -0.5369 -0.4719
 7369SOL    HW233741   2.882   0.616   4.439 -1.0504 -1.2472  0.3012
 7370SOL     OW33742   0.969   0.140   8.373 -0.3451  0.4016 -0.4429
 7370SOL    HW133743   1.047   0.186   8.404 -0.1068  1.8872 -3.2036
 7370SOL    HW233744   0.993   0.047   8.364 -0.5970  0.3566 -0.6362
 7371SOL     OW33745   4.551   1.162   7.090 -0.1339 -0.3276  0.7676
 7371SOL    HW133746   4.567   1.181   6.997  1.1168 -0.9491  0.8569
 7371SOL    HW233747   4.523   1.249   7.115 -1.6201 -0.9451  1.2259
 7372SOL     OW33748   4.354   3.853   5.275  0.6838 -0.2558 -0.2484
 7372SOL    HW133749   4.313   3.930   5.314 -0.4323 -2.2718  2.5389
 7372SOL    HW233750   4.437   3.884   5.237 -0.8408  1.3468 -2.2524
 7373SOL     OW33751   0.737   1.663   4.945  0.1433  0.3807 -0.0063
 7373SOL    HW133752   0.652   1.621   4.958 -0.3991  1.7914  0.9805
 7373SOL    HW233753   0.745   1.668   4.849 -0.2179 -0.1409 -0.0607
 7374SOL     OW33754   1.247   0.596   8.637  0.6902  0.2722 -0.0382
 7374SOL    HW133755   1.287   0.652   8.572 -0.6545  1.8457  0.4850
 7374SOL    HW233756   1.295   0.635   8.710  1.5651 -1.0339  0.0996
 7375SOL     OW33757   4.427   0.293  14.345  0.2655 -0.3737 -0.3127
 7375SOL    HW133758   4.471   0.350  14.408  0.1404 -1.8477  1.1029
 7375SOL    HW233759   4.415   0.221  14.407  2.2873 -1.0824 -0.7437
 7376SOL     OW33760   4.510   1.411   5.671  0.4891  0.1395  0.0806
 7376SOL    HW133761   4.544   1.486   5.719  0.8163 -0.4689  0.7930
 7376SOL    HW233762   4.418   1.416   5.697  0.5444 -0.1411  0.3306
 7377SOL     OW33763   1.316   4.017  15.493  0.2939 -0.4012 -0.4530
 7377SOL    HW133764   1.270   4.074  15.555 -2.5824 -2.5145 -0.6108
 7377SOL    HW233765   1.295   3.933  15.535 -2.0730  0.1141 -0.6339
 7378SOL     OW33766   4.392   3.879   4.479 -0.4769 -0.0443 -0.3891
 7378SOL    HW133767   4.483   3.851   4.482  0.0002  1.3516 -1.7564
 7378SOL    HW233768   4.373   3.896   4.387 -2.7168 -0.1704  0.0282
 7379SOL     OW33769   3.313   2.147  10.133 -0.0144  0.0961  0.0512
 7379SOL    HW133770   3.261   2.192  10.199  1.0355  0.9828  0.2772
 7379SOL    HW233771   3.401   2.172  10.163  0.5912 -0.0696 -1.5769
 7380SOL     OW33772   1.510   2.762   7.034  0.4962 -0.0390  0.5084
 7380SOL    HW133773   1.422   2.725   7.041  0.6472  0.2704  3.9240
 7380SOL    HW233774   1.526   2.787   7.125 -0.8413  0.8340  0.5071
 7381SOL     OW33775   0.278   2.104  14.434 -0.2944  0.0694 -0.6636
 7381SOL    HW133776   0.297   2.064  14.349 -0.7940 -1.3040 -0.1383
 7381SOL    HW233777   0.355   2.160  14.445 -0.1895 -0.1753 -0.1196
 7382SOL     OW33778   2.984   2.579   7.686 -0.1665  0.1745  0.1816
 7382SOL    HW133779   2.932   2.636   7.628 -1.8533 -0.8807  0.6599
 7382SOL    HW233780   3.071   2.616   7.695  0.4359 -1.1785 -0.1350
 7383SOL     OW33781   4.586   0.260   3.144 -0.0584 -0.1678 -0.3740
 7383SOL    HW133782   4.560   0.331   3.202  0.5836 -1.1435  1.1213
 7383SOL    HW233783   4.681   0.264   3.154 -0.1219  2.3605 -0.7700
 7384SOL     OW33784   1.640   0.885   7.209  0.3868  0.2239  0.3370
 7384SOL    HW133785   1.561   0.935   7.231 -1.5949 -2.5881 -0.2471
 7384SOL    HW233786   1.667   0.937   7.133  1.2940  2.8455  2.4407
 7385SOL     OW33787   0.915   3.754   9.402  0.2699 -0.0733 -0.0282
 7385SOL    HW133788   0.944   3.667   9.374  0.7120  0.1048 -0.1173
 7385SOL    HW233789   0.957   3.769   9.486  2.9246 -0.7812 -1.2291
 7386SOL     OW33790   0.457   2.422   5.258  0.1480  0.4195 -0.1075
 7386SOL    HW133791   0.528   2.387   5.312 -0.2364 -1.2855 -0.7128
 7386SOL    HW233792   0.392   2.353   5.269 -0.7722  1.3224  0.2096
 7387SOL     OW33793   3.322   1.380   4.213  0.0213 -0.2663  0.1272
 7387SOL    HW133794   3.415   1.382   4.193  0.1184  0.6392  0.6558
 7387SOL    HW233795   3.280   1.417   4.135 -0.7467 -0.8621  0.2579
 7388SOL     OW33796   2.906   0.380   6.980  0.3374  0.0694  0.0588
 7388SOL    HW133797   2.937   0.290   6.995  0.1435  0.0590  0.3901
 7388SOL    HW233798   2.868   0.393   7.067 -0.8917  2.7972 -0.8863
 7389SOL     OW33799   1.648   1.469   9.517  0.2558  0.0980 -0.1186
 7389SOL    HW133800   1.741   1.454   9.533 -0.2897 -0.8770  2.2235
 7389SOL    HW233801   1.657   1.543   9.457  0.1801  0.8234  0.7594
 7390SOL     OW33802   2.277   3.884   2.576  0.0080  0.1853  0.2664
 7390SOL    HW133803   2.263   3.789   2.572 -1.7920  0.4112  1.4850
 7390SOL    HW233804   2.308   3.891   2.485  1.0876  1.2612  0.7173
 7391SOL     OW33805   3.983   0.671   1.720  0.4157 -0.2330  0.0918
 7391SOL    HW133806   3.967   0.580   1.698  0.9332 -0.4860  0.7385
 7391SOL    HW233807   3.901   0.714   1.697  1.3349  1.1933 -0.5302
 7392SOL     OW33808   3.004   4.431   5.147 -0.2599  0.5202 -0.1719
 7392SOL    HW133809   3.016   4.361   5.211 -0.6334 -0.3499 -1.0502
 7392SOL    HW233810   3.097   4.454   5.141 -0.1092 -0.3828 -1.3551
 7393SOL     OW33811   3.951   3.546   3.630  0.1429  0.2002 -0.4556
 7393SOL    HW133812   3.956   3.470   3.572  1.9472  0.2679 -0.4132
 7393SOL    HW233813   4.017   3.525   3.696  1.6616  1.5838 -1.5024
 7394SOL     OW33814   0.948   4.712   2.105 -0.2637 -0.3371  0.3412
 7394SOL    HW133815   0.898   4.672   2.034  1.6659 -2.1291 -0.0043
 7394SOL    HW233816   1.032   4.667   2.103 -2.0165 -3.5264 -0.8055
 7395SOL     OW33817   3.665   2.286   8.365  0.0821  0.4815 -0.4192
 7395SOL    HW133818   3.622   2.360   8.408 -2.8923 -2.0132  0.8942
 7395SOL    HW233819   3.756   2.299   8.391  0.6224 -1.7257 -1.1788
 7396SOL     OW33820   3.401   2.647  13.367 -0.0376  0.3869  0.2957
 7396SOL    HW133821   3.325   2.591  13.351 -0.8859  0.7393  2.9785
 7396SOL    HW233822   3.417   2.704  13.292 -3.7963 -0.6800 -1.3213
 7397SOL     OW33823   4.383   2.381   8.139 -0.3616  0.6103  0.1266
 7397SOL    HW133824   4.414   2.370   8.229  0.2612 -1.4027 -0.3371
 7397SOL    HW233825   4.423   2.312   8.087 -2.9716 -1.6157  1.0710
 7398SOL     OW33826   1.910   3.219   3.384  0.1703  0.3688  0.0876
 7398SOL    HW133827   1.906   3.219   3.288  0.2338 -1.8081  0.0803
 7398SOL    HW233828   1.841   3.285   3.393 -0.6478 -0.7492  1.9576
 7399SOL     OW33829   1.502   1.724   0.040  0.2190 -0.7945  0.1454
 7399SOL    HW133830   1.582   1.760   0.001 -0.5194  0.6741 -0.0195
 7399SOL    HW233831   1.440   1.757  17.729 -0.2311  0.4761  1.2392
 7400SOL     OW33832   1.190   1.507   5.193  0.6559 -1.1158  0.1852
 7400SOL    HW133833   1.199   1.531   5.285 -2.4391  1.2486 -0.1438
 7400SOL    HW233834   1.148   1.421   5.203  0.0263 -0.6786  1.2071
 7401SOL     OW33835   1.442   2.218   5.597  0.1031  0.0835  0.0051
 7401SOL    HW133836   1.513   2.272   5.632  0.5113 -1.3900  1.4753
 7401SOL    HW233837   1.486   2.133   5.590 -0.5566 -0.4961  3.2280
 7402SOL     OW33838   2.654   4.714   3.379  0.1234 -0.1761  0.6724
 7402SOL    HW133839   2.725   4.664   3.339  1.7828  2.8521 -0.0876
 7402SOL    HW233840   2.568   4.689   3.345  0.7165 -1.0959 -0.1376
 7403SOL     OW33841   3.204   4.497   6.187  0.2726  0.0680 -0.1871
 7403SOL    HW133842   3.220   4.570   6.247  1.4593  0.1215 -0.5711
 7403SOL    HW233843   3.210   4.422   6.246  0.5579  2.3053  2.6148
 7404SOL     OW33844   4.013   2.687   1.824 -0.3641  0.3140 -0.4710
 7404SOL    HW133845   4.011   2.611   1.883  0.5098  1.3129  0.8377
 7404SOL    HW233846   3.922   2.695   1.796 -0.5951  0.4889  0.3544
 7405SOL     OW33847   0.099   3.163   1.350 -0.1108  0.1975  0.2358
 7405SOL    HW133848   0.195   3.168   1.350 -0.1084  0.1527  0.3376
 7405SOL    HW233849   0.080   3.255   1.331  0.9135  0.4330  0.3083
 7406SOL     OW33850   1.955   3.445   6.412 -0.2663  0.1583 -0.3558
 7406SOL    HW133851   1.884   3.455   6.349 -1.9048  3.0883  1.9691
 7406SOL    HW233852   1.987   3.355   6.401  2.7576  1.4171 -1.7900
 7407SOL     OW33853   1.133   0.936   6.618 -0.5041  0.0315  0.0615
 7407SOL    HW133854   1.227   0.928   6.606 -0.5138  1.9546 -1.4405
 7407SOL    HW233855   1.096   0.849   6.628 -1.8007  0.5839  0.1081
 7408SOL     OW33856   2.037   1.479  14.030  0.8436 -0.2928 -0.0762
 7408SOL    HW133857   2.077   1.547  14.084 -0.9742 -0.7669  1.8827
 7408SOL    HW233858   2.082   1.406  14.072  2.8181  1.4058  0.7504
 7409SOL     OW33859   0.933   0.014   3.716  0.2374  0.0158 -0.1732
 7409SOL    HW133860   0.919   4.698   3.793 -0.4690  1.0722  0.4417
 7409SOL    HW233861   0.846   0.048   3.693  1.3536  1.2940 -2.4591
 7410SOL     OW33862   3.704   0.472   1.424  0.0846 -0.0467 -0.3506
 7410SOL    HW133863   3.712   0.568   1.427  0.5922 -0.0994  0.0612
 7410SOL    HW233864   3.613   0.456   1.447 -0.0890  1.5937  0.0884
 7411SOL     OW33865   4.608   2.573   3.911  0.0021 -0.0533 -0.3634
 7411SOL    HW133866   4.639   2.518   3.839 -0.8433  0.0488 -0.8121
 7411SOL    HW233867   4.652   2.656   3.892 -1.3239  0.7801  0.1030
 7412SOL     OW33868   0.110   1.217   7.759  0.0369 -0.0363  0.2577
 7412SOL    HW133869   0.173   1.172   7.816  1.5482  1.6581 -0.0920
 7412SOL    HW233870   0.119   1.307   7.789  1.2525 -0.2018  0.4161
 7413SOL     OW33871   2.439   1.665   9.129  0.1253 -0.0625 -1.0171
 7413SOL    HW133872   2.419   1.572   9.139  0.0675 -0.0054 -0.6018
 7413SOL    HW233873   2.364   1.707   9.171 -0.5265 -0.9392 -1.3036
 7414SOL     OW33874   0.085   0.979  13.381 -0.2608  0.1238  0.8109
 7414SOL    HW133875   0.171   0.938  13.385 -0.9058 -1.3863 -0.6285
 7414SOL    HW233876   0.067   0.982  13.475 -0.0892 -2.2489  0.9284
 7415SOL     OW33877   4.319   4.682  16.275  0.5465 -0.1368  0.8107
 7415SOL    HW133878   4.372   4.620  16.225  0.2797  0.1382  0.1891
 7415SOL    HW233879   4.369   4.698  16.354  1.1984 -1.1454  0.6098
 7416SOL     OW33880   3.775   1.132   0.381 -0.4776 -0.4371  0.1855
 7416SOL    HW133881   3.788   1.214   0.334  2.4308 -0.5026  0.8495
 7416SOL    HW233882   3.767   1.168   0.470  2.4903 -1.8229  1.0189
 7417SOL     OW33883   4.706   3.924   2.867  0.5036 -0.1957  0.0068
 7417SOL    HW133884   4.672   3.980   2.936 -0.1600 -0.6870  0.0777
 7417SOL    HW233885   0.031   3.981   2.824 -1.9653  1.2991 -1.6256
 7418SOL     OW33886   3.581   0.913   6.482 -0.2609 -0.0027 -0.0044
 7418SOL    HW133887   3.674   0.935   6.486 -0.4114  0.8759 -1.4202
 7418SOL    HW233888   3.585   0.841   6.545 -2.5594  0.0975  0.2406
 7419SOL     OW33889   4.138   4.017   7.371  0.0103  0.0560  0.3256
 7419SOL    HW133890   4.068   4.062   7.418 -0.2922  0.5359 -0.5971
 7419SOL    HW233891   4.188   3.995   7.450  0.2654 -0.5586 -0.0092
 7420SOL     OW33892   0.396   3.914   8.366 -0.0225  0.0070 -0.3610
 7420SOL    HW133893   0.431   3.825   8.365  1.6117  0.6297  0.8056
 7420SOL    HW233894   0.427   3.944   8.452 -0.0295 -0.2927 -0.2540
 7421SOL     OW33895   4.165   1.494   9.021 -0.4314  0.0997 -0.0294
 7421SOL    HW133896   4.230   1.510   9.090  1.1297 -0.2945 -1.4097
 7421SOL    HW233897   4.092   1.492   9.083 -1.0972 -1.0771 -0.8493
 7422SOL     OW33898   3.223   2.928   3.781 -0.4261 -0.2315 -0.4130
 7422SOL    HW133899   3.187   2.853   3.828  0.0448  0.5322  1.1829
 7422SOL    HW233900   3.203   2.907   3.690 -1.0328  1.4810 -0.6758
 7423SOL     OW33901   4.199   3.433   0.007  0.1170 -0.4560  0.0017
 7423SOL    HW133902   4.121   3.377   0.006 -0.1379 -0.1496  2.5834
 7423SOL    HW233903   4.229   3.426   0.098 -0.1130 -2.6911 -0.0888
 7424SOL     OW33904   1.918   0.191  15.717  0.5288 -0.1188 -0.1000
 7424SOL    HW133905   1.900   0.285  15.718  1.0478 -0.0397  0.9922
 7424SOL    HW233906   2.011   0.190  15.740  0.4673 -1.2629  0.0805
 7425SOL     OW33907   1.480   3.976   4.244  0.0121 -0.0036 -0.4868
 7425SOL    HW133908   1.424   3.941   4.175 -1.2542  3.0047 -0.9622
 7425SOL    HW233909   1.411   4.020   4.293  1.3613  1.3527  0.1961
 7426SOL     OW33910   3.040   3.996  14.735 -0.6482 -0.3905  0.6378
 7426SOL    HW133911   3.074   3.955  14.655 -0.1160  0.1092  0.6047
 7426SOL    HW233912   3.120   4.042  14.761 -1.4528  1.8379 -0.8249
 7427SOL     OW33913   0.517   1.301   8.834  0.1723  0.5010  0.0869
 7427SOL    HW133914   0.424   1.302   8.859 -0.4369 -2.5164 -2.0646
 7427SOL    HW233915   0.551   1.279   8.921 -0.6456  0.6616  0.4456
 7428SOL     OW33916   2.327   4.106   8.373  0.3897  0.5247 -0.1081
 7428SOL    HW133917   2.308   4.020   8.335 -0.3366  0.2244  0.9115
 7428SOL    HW233918   2.308   4.074   8.462  1.5222  0.3251  0.0583
 7429SOL     OW33919   3.253   4.708   3.433  0.2379 -0.0292  0.2177
 7429SOL    HW133920   3.213   0.055   3.445 -0.4809 -0.5577  1.5263
 7429SOL    HW233921   3.341   4.717   3.470 -0.1812  1.6621  0.7678
 7430SOL     OW33922   1.316   1.761  12.186 -0.3197 -0.2096  0.0267
 7430SOL    HW133923   1.364   1.797  12.110 -0.7796 -2.3951 -1.2860
 7430SOL    HW233924   1.386   1.708  12.223 -1.0671  0.9063  3.0026
 7431SOL     OW33925   1.914   1.938  14.769  0.1581  0.9360 -0.1051
 7431SOL    HW133926   1.825   1.908  14.754  0.6870 -1.8142  2.2680
 7431SOL    HW233927   1.910   1.964  14.861 -0.3127 -0.7003  0.3272
 7432SOL     OW33928   4.010   2.811  15.020 -0.3523 -0.0207 -0.2098
 7432SOL    HW133929   4.047   2.730  15.054 -1.2312  0.0474  0.8760
 7432SOL    HW233930   4.064   2.873  15.070  0.0595 -0.3287 -0.2703
 7433SOL     OW33931   1.432   0.712   6.893  0.4664  0.0408  0.2489
 7433SOL    HW133932   1.503   0.706   6.957  2.9536  0.5814 -2.5097
 7433SOL    HW233933   1.362   0.750   6.946  0.5900  0.1119  0.3620
 7434SOL     OW33934   0.910   0.300   3.469 -0.0641  0.1041 -0.2839
 7434SOL    HW133935   0.934   0.332   3.555 -0.7145  0.9676 -0.4239
 7434SOL    HW233936   0.824   0.341   3.461 -0.1506  0.0169  0.2558
 7435SOL     OW33937   1.435   0.870   0.787 -0.1030  0.4482  0.0925
 7435SOL    HW133938   1.410   0.960   0.769 -1.3942 -0.1625 -1.1581
 7435SOL    HW233939   1.529   0.876   0.774 -0.2200 -1.2420 -1.4346
 7436SOL     OW33940   3.763   1.015  14.773 -0.2428  0.2073  0.2188
 7436SOL    HW133941   3.789   0.982  14.859 -1.9032 -2.0985 -0.1677
 7436SOL    HW233942   3.837   1.017  14.712 -0.6498 -0.2928 -0.2962
 7437SOL     OW33943   0.333   4.106   7.723  0.1054  0.2310 -0.0950
 7437SOL    HW133944   0.410   4.144   7.679  0.8063 -2.5349 -1.2560
 7437SOL    HW233945   0.278   4.182   7.741 -1.0986 -0.2282 -1.9697
 7438SOL     OW33946   4.251   2.091  15.606  0.3723 -0.5237 -0.0165
 7438SOL    HW133947   4.237   1.997  15.615  0.3237 -0.5424 -0.2916
 7438SOL    HW233948   4.180   2.100  15.542  1.4285 -0.1819 -1.1290
 7439SOL     OW33949   2.068   1.837   2.356  0.3220 -0.3244  0.3932
 7439SOL    HW133950   2.162   1.832   2.342 -0.1281 -1.7690 -2.1766
 7439SOL    HW233951   2.058   1.932   2.356 -0.0791 -0.3595 -0.6900
 7440SOL     OW33952   4.207   1.803  16.479 -0.0823 -0.3581  0.5784
 7440SOL    HW133953   4.116   1.811  16.508 -0.6623 -0.2067 -1.2945
 7440SOL    HW233954   4.208   1.720  16.432 -2.1037  0.4264 -0.8592
 7441SOL     OW33955   2.364   3.201   8.851 -0.2557  0.1030 -0.7509
 7441SOL    HW133956   2.282   3.190   8.899  1.8978 -1.2169  2.6642
 7441SOL    HW233957   2.432   3.149   8.895 -0.8084  0.1424  0.1441
 7442SOL     OW33958   3.544   4.675   4.183  0.0297  0.3045 -0.1166
 7442SOL    HW133959   3.592   4.648   4.105 -2.6370  0.3424 -1.7860
 7442SOL    HW233960   3.517   0.023   4.153 -1.3126 -0.1112 -0.1461
 7443SOL     OW33961   3.946   2.991  10.909  0.0203 -0.3099  0.0739
 7443SOL    HW133962   3.956   3.017  10.818  2.0424 -1.0386  0.0874
 7443SOL    HW233963   3.954   2.896  10.900  3.9535 -0.0637  1.1855
 7444SOL     OW33964   2.458   0.385   5.818 -0.0520  0.3605 -0.5079
 7444SOL    HW133965   2.496   0.365   5.732 -0.4685  0.4759 -0.7191
 7444SOL    HW233966   2.516   0.342   5.881 -0.6697  1.2304  0.6602
 7445SOL     OW33967   1.487   1.216  15.104 -0.3489 -0.0671  0.0303
 7445SOL    HW133968   1.502   1.182  15.015 -2.1532  1.8960 -1.0132
 7445SOL    HW233969   1.428   1.149  15.139 -0.3812  0.3891  0.8370
 7446SOL     OW33970   0.557   3.697   6.840 -0.5061  0.3130  0.0566
 7446SOL    HW133971   0.624   3.668   6.902  0.4585 -0.2717 -1.2585
 7446SOL    HW233972   0.582   3.637   6.770  0.7572  0.7655  0.1322
 7447SOL     OW33973   3.606   4.560  17.561  0.3432 -0.0971 -0.2812
 7447SOL    HW133974   3.521   4.536  17.525  0.1602  0.6089 -0.3197
 7447SOL    HW233975   3.592   4.651  17.586  0.9162 -0.3917  1.1240
 7448SOL     OW33976   2.933   1.259   0.008 -0.1088 -0.2990  0.4610
 7448SOL    HW133977   3.006   1.215   0.050  1.8144  2.4247 -0.0314
 7448SOL    HW233978   2.931   1.237  17.668  2.6878  1.6654 -0.0420
 7449SOL     OW33979   1.777   0.170  15.952  0.4121  0.1325 -0.2636
 7449SOL    HW133980   1.824   0.113  16.013  1.2865  0.7863 -0.3278
 7449SOL    HW233981   1.799   0.139  15.865 -2.7854 -0.3319 -0.9028
 7450SOL     OW33982   4.306   4.691   4.112  0.2556  0.2979  0.2630
 7450SOL    HW133983   4.316   4.627   4.182 -0.6789 -0.2363 -0.0923
 7450SOL    HW233984   4.313   0.038   4.155 -1.8317  0.6283 -0.0440
 7451SOL     OW33985   4.173   1.793   3.417  0.5464  0.2061  0.3890
 7451SOL    HW133986   4.267   1.796   3.435  0.6035  0.8868 -0.0240
 7451SOL    HW233987   4.182   1.797   3.322 -2.2224  1.7427  0.1697
 7452SOL     OW33988   1.877   1.339  16.566  0.4409 -0.2283  0.1474
 7452SOL    HW133989   1.918   1.324  16.481  0.7365 -0.3604  0.3134
 7452SOL    HW233990   1.954   1.308  16.614  1.0964  1.5923  0.2636
 7453SOL     OW33991   0.076   0.678  13.200  0.0010 -0.1523  0.2266
 7453SOL    HW133992   0.101   0.755  13.251  2.0346 -0.2641 -0.6149
 7453SOL    HW233993   4.728   0.706  13.171  1.4950  2.3745 -1.8051
 7454SOL     OW33994   3.560   0.467   8.234  0.2643  0.0075  0.4569
 7454SOL    HW133995   3.585   0.453   8.326  3.2742  0.3810 -0.3067
 7454SOL    HW233996   3.520   0.384   8.208  1.3318 -0.8560  1.5163
 7455SOL     OW33997   0.199   3.761   6.368 -0.0378  0.0675  0.0638
 7455SOL    HW133998   0.170   3.675   6.338  0.2687  0.5106 -1.4492
 7455SOL    HW233999   0.195   3.806   6.284  0.2338 -0.9444 -0.4896
 7456SOL     OW34000   2.186   1.141   8.373 -0.6338 -0.1351 -0.1539
 7456SOL    HW134001   2.256   1.172   8.430 -0.2128 -0.9598 -0.2242
 7456SOL    HW234002   2.132   1.086   8.431 -0.6116 -0.5486 -0.5228
 7457SOL     OW34003   0.215   4.008   2.748 -0.2777 -0.3135 -0.1314
 7457SOL    HW134004   0.186   3.932   2.698  2.2588 -1.3468  0.0078
 7457SOL    HW234005   0.263   3.971   2.822 -1.2891 -2.8293 -0.7527
 7458SOL     OW34006   3.179   1.043   9.381 -0.6101 -0.0011  0.0717
 7458SOL    HW134007   3.252   1.064   9.322 -1.4723  1.1532 -0.5793
 7458SOL    HW234008   3.110   1.005   9.326  0.9881 -1.2198 -1.1057
 7459SOL     OW34009   1.556   3.104   4.228 -0.2663  0.7167  0.4586
 7459SOL    HW134010   1.610   3.177   4.257 -0.4333  0.0810  2.3537
 7459SOL    HW234011   1.546   3.122   4.134 -2.6441  1.3121  0.8126
 7460SOL     OW34012   4.405   3.241   5.302 -0.6220 -0.0654 -0.6155
 7460SOL    HW134013   4.428   3.316   5.356  0.0063  0.0855 -1.0768
 7460SOL    HW234014   4.409   3.169   5.365  1.0083  0.8744  0.3503
 7461SOL     OW34015   4.321   2.375   0.478  0.0060  0.2460 -0.1220
 7461SOL    HW134016   4.282   2.350   0.562 -1.0350 -1.4188 -1.0980
 7461SOL    HW234017   4.414   2.377   0.499 -0.1481 -2.8094  0.7605
 7462SOL     OW34018   1.885   1.804   5.585 -0.5035 -0.1535  0.0698
 7462SOL    HW134019   1.886   1.831   5.494  1.5650 -2.7390 -0.6843
 7462SOL    HW234020   1.970   1.835   5.616  0.0021  0.5856 -2.0814
 7463SOL     OW34021   4.051   2.804   3.826 -0.0283 -0.6998 -0.0403
 7463SOL    HW134022   4.020   2.765   3.744  1.1883 -0.3277 -0.6802
 7463SOL    HW234023   3.984   2.872   3.833  0.6968  0.1825 -1.8064
 7464SOL     OW34024   3.570   2.602   6.650  0.1249  0.0129 -0.0454
 7464SOL    HW134025   3.506   2.589   6.579 -0.5213  0.7817  0.4005
 7464SOL    HW234026   3.601   2.514   6.669 -1.4833 -0.6543 -0.5096
 7465SOL     OW34027   1.045   0.406   9.270 -0.2428 -0.0060 -0.3660
 7465SOL    HW134028   0.982   0.386   9.200 -0.1979 -1.3375 -0.0224
 7465SOL    HW234029   1.001   0.382   9.352  1.2081  0.9167  0.6831
 7466SOL     OW34030   0.270   3.862   5.096 -0.6197  0.1603  0.3547
 7466SOL    HW134031   0.342   3.802   5.079 -0.3789  1.9577 -4.8478
 7466SOL    HW234032   0.302   3.930   5.156  1.0151  0.3124 -0.7015
 7467SOL     OW34033   0.663   4.407   4.306 -0.0396  0.2594 -0.3406
 7467SOL    HW134034   0.689   4.393   4.397 -3.3128  1.0394  0.7190
 7467SOL    HW234035   0.629   4.323   4.274 -0.1412  0.1847 -0.0431
 7468SOL     OW34036   1.254   1.378   4.262  0.2877 -0.0629  0.3144
 7468SOL    HW134037   1.293   1.435   4.329 -1.8310  0.7754  0.8334
 7468SOL    HW234038   1.210   1.318   4.322 -0.2029  0.0759  0.0854
 7469SOL     OW34039   1.260   2.761   2.583 -0.3400 -0.0990  0.4612
 7469SOL    HW134040   1.296   2.809   2.657 -0.7363  1.5445 -0.4031
 7469SOL    HW234041   1.176   2.741   2.626 -1.3317  0.8760 -1.0203
 7470SOL     OW34042   3.553   4.595   8.908  0.1009  0.0821 -0.8040
 7470SOL    HW134043   3.550   4.665   8.842  2.2038  0.2006 -0.7466
 7470SOL    HW234044   3.553   4.635   8.994  1.4364  1.1186 -1.3047
 7471SOL     OW34045   3.250   0.514  14.878 -0.0780  0.0084  0.1226
 7471SOL    HW134046   3.264   0.450  14.809  0.5397 -0.9422  1.1203
 7471SOL    HW234047   3.333   0.562  14.870 -0.5117  0.3950 -1.9546
 7472SOL     OW34048   2.123   2.541  13.038  0.0972 -0.0558 -0.4561
 7472SOL    HW134049   2.121   2.510  12.947  3.3454  0.6424 -0.7786
 7472SOL    HW234050   2.125   2.635  13.018  1.5137  0.0890  0.3688
 7473SOL     OW34051   0.944   3.122   8.704  0.1586 -0.3859  0.1095
 7473SOL    HW134052   0.894   3.198   8.732  0.9541  0.9798 -2.2130
 7473SOL    HW234053   1.004   3.112   8.778  2.0971 -1.1101 -1.5348
 7474SOL     OW34054   0.405   4.221   5.470 -0.2493 -0.6177  0.2751
 7474SOL    HW134055   0.372   4.239   5.558 -0.4330 -1.2090  0.3263
 7474SOL    HW234056   0.497   4.246   5.474 -0.2801 -0.5684  0.6596
 7475SOL     OW34057   2.171   3.898   7.848 -0.1486  0.5347 -0.1471
 7475SOL    HW134058   2.264   3.881   7.833 -0.2645 -1.9672  1.9279
 7475SOL    HW234059   2.166   3.920   7.941 -0.2742  0.4383 -0.1312
 7476SOL     OW34060   4.096   4.479   2.341  0.1143 -0.0148 -0.0317
 7476SOL    HW134061   4.075   4.565   2.378 -1.7748 -1.5075  2.4454
 7476SOL    HW234062   4.191   4.490   2.333  0.0943  0.4788  0.3684
 7477SOL     OW34063   4.664   1.453   2.998  0.0569  0.1767 -0.5177
 7477SOL    HW134064   4.580   1.491   2.969  1.0157  1.4231 -1.6731
 7477SOL    HW234065   4.713   1.448   2.916 -1.0033 -3.0448 -0.9531
 7478SOL     OW34066   4.332   1.367   6.205  0.1989 -0.6176  0.0907
 7478SOL    HW134067   4.336   1.436   6.272 -0.1339  0.4604 -0.9837
 7478SOL    HW234068   4.256   1.391   6.152 -0.2730 -0.4494  0.8435
 7479SOL     OW34069   3.018   2.363   8.563 -0.4777  0.7588  0.3555
 7479SOL    HW134070   3.104   2.381   8.600  0.0223  1.3420 -1.0910
 7479SOL    HW234071   2.975   2.447   8.581 -1.3224  0.4602 -0.2182
 7480SOL     OW34072   2.926   2.604  17.735  0.3787  0.7603  0.0367
 7480SOL    HW134073   2.871   2.601   0.059  0.3429  0.4938  0.0012
 7480SOL    HW234074   2.879   2.558  17.666  1.6715 -1.3161  0.5581
 7481SOL     OW34075   3.622   2.087  11.759  0.2970 -0.0687  0.0395
 7481SOL    HW134076   3.609   2.115  11.849 -1.7871 -0.5233 -0.1268
 7481SOL    HW234077   3.714   2.059  11.755  0.2919  0.1530 -1.5923
 7482SOL     OW34078   0.482   3.984   3.165  0.2518 -0.4219 -0.6823
 7482SOL    HW134079   0.548   4.019   3.106 -0.5764  0.6426 -0.9641
 7482SOL    HW234080   0.548   3.960   3.230  0.5679 -0.1770 -0.9172
 7483SOL     OW34081   2.901   3.301   0.893  0.1359  0.4667 -0.3292
 7483SOL    HW134082   2.808   3.280   0.892  0.1357  0.5170 -1.3223
 7483SOL    HW234083   2.918   3.388   0.857 -1.1493  0.6087 -0.5822
 7484SOL     OW34084   0.286   3.744  11.014  0.1533 -0.1784 -0.0525
 7484SOL    HW134085   0.245   3.830  11.001  1.4419  0.2932 -1.0092
 7484SOL    HW234086   0.340   3.739  10.935  0.3394 -0.7994  0.1146
 7485SOL     OW34087   4.650   0.719   4.179  0.0551  0.2594  0.1453
 7485SOL    HW134088   4.556   0.720   4.164 -0.0439  2.0533  0.9056
 7485SOL    HW234089   4.657   0.673   4.263 -1.5637 -2.3314 -1.1272
 7486SOL     OW34090   0.799   2.576   7.048 -0.0896  0.0359 -0.2861
 7486SOL    HW134091   0.875   2.621   7.010  1.1224 -1.9882 -0.2766
 7486SOL    HW234092   0.796   2.503   6.985 -0.3929  1.7989 -2.3166
 7487SOL     OW34093   4.633   3.397   3.232 -0.3057 -0.4102 -0.3410
 7487SOL    HW134094   4.711   3.442   3.263  0.8509 -1.9982 -0.9188
 7487SOL    HW234095   4.582   3.471   3.200 -0.3344 -0.8869 -1.4093
 7488SOL     OW34096   4.309   4.430  11.560 -0.2072  0.7806 -0.1082
 7488SOL    HW134097   4.372   4.361  11.582  1.1313  1.9273 -0.3242
 7488SOL    HW234098   4.308   4.426  11.464  1.2896  0.0555 -0.0915
 7489SOL     OW34099   0.140   1.878   9.268 -0.0731 -0.0315 -0.0004
 7489SOL    HW134100   0.213   1.869   9.207 -0.6324  1.9199 -0.9640
 7489SOL    HW234101   0.173   1.939   9.334 -1.9854  2.1909 -1.0830
 7490SOL     OW34102   1.865   0.493   2.496 -0.2659 -0.0161 -0.2174
 7490SOL    HW134103   1.858   0.489   2.591  1.6741  1.3141 -0.0368
 7490SOL    HW234104   1.928   0.424   2.478 -3.0555 -1.8982 -2.7757
 7491SOL     OW34105   0.052   2.203   7.763 -0.1340  0.3887  0.1082
 7491SOL    HW134106   0.009   2.249   7.691 -0.5924 -1.6941 -0.9569
 7491SOL    HW234107   0.112   2.141   7.721  0.5070  1.4300 -0.5467
 7492SOL     OW34108   2.871   4.526   6.862 -0.3022  0.4374  0.6263
 7492SOL    HW134109   2.936   4.592   6.886  0.2476 -0.0336  0.4369
 7492SOL    HW234110   2.903   4.450   6.911  3.1272  0.7538 -1.1264
 7493SOL     OW34111   2.294   2.063  10.967 -0.3229  0.5430 -0.8467
 7493SOL    HW134112   2.349   2.095  10.896 -0.8050 -1.4019 -2.1142
 7493SOL    HW234113   2.355   2.007  11.015 -2.4289 -1.2504 -0.2301
 7494SOL     OW34114   4.230   0.299   9.884 -0.2720 -0.3064 -0.0298
 7494SOL    HW134115   4.326   0.294   9.882 -0.1354  1.9365  0.4334
 7494SOL    HW234116   4.204   0.253   9.963  0.6932 -2.6142 -1.0630
 7495SOL     OW34117   1.847   3.805   9.362  0.2202 -0.5794 -0.1504
 7495SOL    HW134118   1.891   3.804   9.446  1.6584 -0.0942 -0.8927
 7495SOL    HW234119   1.759   3.786   9.394  0.5829 -0.8313  0.7019
 7496SOL     OW34120   2.729   1.026   0.284 -0.1678 -0.0609 -0.3613
 7496SOL    HW134121   2.709   0.957   0.347  0.4741 -1.0302 -1.2225
 7496SOL    HW234122   2.820   1.006   0.263 -0.0065  0.7010 -0.3846
 7497SOL     OW34123   4.519   2.731   1.429 -0.5154 -0.0898  0.3483
 7497SOL    HW134124   4.575   2.808   1.436 -1.4289  0.5882  0.2687
 7497SOL    HW234125   4.460   2.743   1.504 -1.9297  0.5341 -0.8463
 7498SOL     OW34126   2.424   0.841   4.014  0.2241 -0.5352 -0.3437
 7498SOL    HW134127   2.343   0.801   3.981 -0.3898 -0.2430  0.8059
 7498SOL    HW234128   2.379   0.893   4.080  0.4167  0.1551 -0.7643
 7499SOL     OW34129   4.593   2.307   6.153 -0.1864  0.1559  0.1343
 7499SOL    HW134130   4.688   2.298   6.147 -0.2322 -1.4934  1.9590
 7499SOL    HW234131   4.566   2.337   6.066  1.6682 -1.4307 -0.9822
 7500SOL     OW34132   4.092   3.348   8.502  0.4217 -0.1463 -0.2556
 7500SOL    HW134133   4.058   3.372   8.588 -1.6696 -1.1643 -0.7920
 7500SOL    HW234134   4.056   3.418   8.446  1.3888 -0.7303 -1.6079
 7501SOL     OW34135   1.575   0.342   5.840 -0.3367 -0.7278 -0.5037
 7501SOL    HW134136   1.545   0.317   5.927 -2.2042  0.7790 -0.7088
 7501SOL    HW234137   1.611   0.430   5.856  0.0264 -0.7856 -0.9727
 7502SOL     OW34138   4.355   3.793  17.614 -0.4411 -0.6704  0.1582
 7502SOL    HW134139   4.331   3.749  17.696  0.8954  0.5310  1.1982
 7502SOL    HW234140   4.434   3.743  17.593  0.8457  0.9471  1.1043
 7503SOL     OW34141   3.330   3.725  14.724  0.5597 -0.1437  0.7121
 7503SOL    HW134142   3.367   3.655  14.670 -1.4591  0.7319 -1.8013
 7503SOL    HW234143   3.315   3.796  14.661 -0.5444  0.2540  1.4338
 7504SOL     OW34144   4.344   4.346   7.560 -0.2650 -0.2064  0.0300
 7504SOL    HW134145   4.367   4.258   7.591  1.5134  0.5523  0.8210
 7504SOL    HW234146   4.254   4.352   7.592  0.0489  1.3786  0.6002
 7505SOL     OW34147   0.600   2.032   6.684 -0.2614  0.7771 -0.0349
 7505SOL    HW134148   0.553   2.050   6.765  2.0153 -0.8386  1.6310
 7505SOL    HW234149   0.601   1.936   6.689  0.8979  0.6990 -1.5379
 7506SOL     OW34150   3.768   2.771   1.138  0.4024  0.2040 -0.0951
 7506SOL    HW134151   3.710   2.831   1.185 -0.8283  0.1253 -1.5020
 7506SOL    HW234152   3.847   2.776   1.191 -0.3721  1.1692  0.9651
 7507SOL     OW34153   1.400   0.083   6.343 -0.2887  0.2526 -0.1896
 7507SOL    HW134154   1.492   0.056   6.341 -0.4648 -0.3694 -0.0821
 7507SOL    HW234155   1.356   0.028   6.278 -0.8494  1.0456 -0.4794
 7508SOL     OW34156   3.890   0.042   7.396  0.0122  0.0257 -1.0021
 7508SOL    HW134157   3.977   0.038   7.435  0.1941 -1.0123 -1.5187
 7508SOL    HW234158   3.840   4.732   7.462  2.6461 -1.1998  0.0866
 7509SOL     OW34159   2.648   2.722  15.583 -0.3025  0.3066  0.3817
 7509SOL    HW134160   2.596   2.772  15.646  0.2721  0.2422  0.9074
 7509SOL    HW234161   2.673   2.785  15.515 -0.0472 -1.1883 -0.9279
 7510SOL     OW34162   4.028   0.091   5.833 -0.1977 -0.3602 -1.0328
 7510SOL    HW134163   4.005   0.164   5.775  1.4701 -2.0131 -3.7765
 7510SOL    HW234164   4.114   0.066   5.798  0.6478 -1.3904  1.7842
 7511SOL     OW34165   4.546   3.054   5.901  0.6831  0.4601 -0.2084
 7511SOL    HW134166   4.613   2.995   5.937  0.0841  0.1803  0.4574
 7511SOL    HW234167   4.492   3.074   5.977  0.2375  0.8461 -0.6319
 7512SOL     OW34168   3.259   3.759   4.924  0.5607  0.0092 -0.0568
 7512SOL    HW134169   3.178   3.810   4.929  0.7525  0.0155  2.6367
 7512SOL    HW234170   3.274   3.779   4.831 -0.7862 -1.1977 -0.5363
 7513SOL     OW34171   1.043   0.535   9.933  0.0452  0.0703 -0.2245
 7513SOL    HW134172   1.043   0.536  10.029 -0.5751  0.2626 -0.2311
 7513SOL    HW234173   1.032   0.440   9.921  2.1289 -0.1827 -0.2009
 7514SOL     OW34174   2.277   2.220   2.093  0.0697 -0.1925  0.3670
 7514SOL    HW134175   2.183   2.204   2.107  0.4790 -4.5683 -1.7405
 7514SOL    HW234176   2.279   2.226   1.998  1.0563  1.2590  0.4880
 7515SOL     OW34177   3.290   4.345   6.392  0.1047  0.3449 -0.1191
 7515SOL    HW134178   3.359   4.367   6.455  1.8096  0.4543 -2.0111
 7515SOL    HW234179   3.290   4.249   6.388 -1.7324  0.1349  4.6537
 7516SOL     OW34180   2.201   3.832   4.766  0.4221  0.6065 -0.3502
 7516SOL    HW134181   2.130   3.826   4.702 -1.5736  0.5125  1.8956
 7516SOL    HW234182   2.218   3.923   4.743 -0.1483  0.4142 -1.5511
 7517SOL     OW34183   3.634   2.236  14.752  0.4235  0.2001 -0.0110
 7517SOL    HW134184   3.623   2.172  14.682 -1.3901 -1.1619  1.5236
 7517SOL    HW234185   3.544   2.254  14.781 -0.3851 -1.4588 -1.4666
 7518SOL     OW34186   2.889   0.401   1.703  0.5062  0.3034  0.3501
 7518SOL    HW134187   2.826   0.330   1.692  0.1877  0.1463  3.0864
 7518SOL    HW234188   2.913   0.390   1.795  2.1322  2.0486  0.1153
 7519SOL     OW34189   3.624   0.381   1.693  0.1611 -0.2555 -0.6866
 7519SOL    HW134190   3.622   0.289   1.668 -2.2721 -0.8410  1.6339
 7519SOL    HW234191   3.551   0.416   1.643 -0.4542  0.0990  0.4772
 7520SOL     OW34192   1.548   0.208   6.128  0.7641  0.1549  0.2654
 7520SOL    HW134193   1.636   0.194   6.164 -0.8312 -0.6974  3.8970
 7520SOL    HW234194   1.504   0.254   6.200  0.4780 -1.1455  0.9201
 7521SOL     OW34195   3.077   4.622  10.806 -0.3685 -0.0096  0.1155
 7521SOL    HW134196   3.036   4.670  10.878 -1.7034  0.9807 -1.3070
 7521SOL    HW234197   3.033   4.537  10.801 -2.1558  1.0894 -2.9292
 7522SOL     OW34198   2.911   2.454  14.782  0.7011 -0.5139  0.5466
 7522SOL    HW134199   2.973   2.498  14.839  0.3131 -0.1171  0.6606
 7522SOL    HW234200   2.890   2.370  14.823  2.4787 -1.1645  0.1277
 7523SOL     OW34201   3.621   3.812   6.586 -0.7173  0.1941 -0.5075
 7523SOL    HW134202   3.620   3.901   6.552 -1.7226  0.6862  0.8216
 7523SOL    HW234203   3.639   3.773   6.500 -0.7740 -0.0135 -0.4251
 7524SOL     OW34204   3.155   0.868   3.878 -0.6495  0.2140 -0.1431
 7524SOL    HW134205   3.077   0.911   3.842  0.4308 -0.7275 -3.6417
 7524SOL    HW234206   3.199   0.939   3.925  1.4374  0.3308 -2.2535
 7525SOL     OW34207   1.296   2.478   1.387  0.5611  0.3891 -0.0741
 7525SOL    HW134208   1.282   2.472   1.292  2.0004  2.1316 -0.4187
 7525SOL    HW234209   1.210   2.513   1.409  1.7155  4.2832 -1.7729
 7526SOL     OW34210   2.794   0.655   4.292  0.0535  0.5882  0.2700
 7526SOL    HW134211   2.700   0.671   4.302  0.1295  0.6058  0.9332
 7526SOL    HW234212   2.806   0.724   4.226  1.2300 -0.6819 -0.8466
 7527SOL     OW34213   1.013   1.924   5.933 -0.2620  0.2533 -0.7913
 7527SOL    HW134214   0.918   1.927   5.919 -0.5483  1.0878  1.3759
 7527SOL    HW234215   1.052   1.969   5.858 -3.2564  0.9196 -1.9376
 7528SOL     OW34216   4.143   2.773   4.717  0.3649 -0.1973  0.4761
 7528SOL    HW134217   4.209   2.783   4.648  0.0394 -2.0348 -0.0952
 7528SOL    HW234218   4.147   2.859   4.759  2.4920  0.0080 -0.1237
 7529SOL     OW34219   3.738   0.908   3.758 -0.1530 -0.4340  0.2328
 7529SOL    HW134220   3.756   0.926   3.850 -0.5366  4.2763 -0.6150
 7529SOL    HW234221   3.826   0.932   3.729 -0.1063 -1.0019 -0.0905
 7530SOL     OW34222   1.862   0.034   4.669 -0.0627  0.1402 -0.6342
 7530SOL    HW134223   1.957   0.023   4.671  0.0906  1.6657 -0.1194
 7530SOL    HW234224   1.834   4.681   4.667  2.2604 -0.5927  0.7461
 7531SOL     OW34225   4.436   3.585   7.229 -0.2534 -0.2088 -0.2426
 7531SOL    HW134226   4.389   3.618   7.306  1.6571 -1.5363  1.5324
 7531SOL    HW234227   4.387   3.506   7.205  0.6327 -0.8593  0.0550
 7532SOL     OW34228   1.363   2.055   0.210  0.1689 -0.2432 -0.1229
 7532SOL    HW134229   1.385   1.961   0.212 -0.2974 -0.3340  0.8042
 7532SOL    HW234230   1.449   2.092   0.194 -0.1607 -0.0271 -1.4083
 7533SOL     OW34231   1.448   2.329   0.049 -0.6017  0.1242  0.1169
 7533SOL    HW134232   1.396   2.344   0.128 -0.9626  2.0285 -0.4761
 7533SOL    HW234233   1.524   2.281   0.082 -0.7500 -1.5240 -1.9818
 7534SOL     OW34234   2.104   2.274   8.858  0.2250 -0.0068 -0.5430
 7534SOL    HW134235   2.182   2.221   8.877  0.0804 -0.6800 -1.8035
 7534SOL    HW234236   2.034   2.208   8.862  0.2631 -0.1394 -2.1243
 7535SOL     OW34237   3.890   0.838  10.674  0.1471  0.9301 -0.4847
 7535SOL    HW134238   3.963   0.876  10.722  0.8236 -0.6134 -0.3011
 7535SOL    HW234239   3.853   0.787  10.746 -0.4294  0.5915 -1.0219
 7536SOL     OW34240   3.817   3.787   3.275 -0.5823  0.2404 -0.1256
 7536SOL    HW134241   3.882   3.722   3.246 -0.9047  0.1723 -0.7055
 7536SOL    HW234242   3.771   3.742   3.346 -1.9873  0.2425 -1.0497
 7537SOL     OW34243   0.765   4.335  13.849  0.2877 -0.2101 -0.0363
 7537SOL    HW134244   0.769   4.248  13.810  1.1640  0.1221 -0.6790
 7537SOL    HW234245   0.715   4.388  13.788  1.0106 -0.6543 -1.0104
 7538SOL     OW34246   3.952   4.072  13.591 -0.2208  0.0934  0.8383
 7538SOL    HW134247   3.902   4.154  13.587  0.8072  0.8658  4.2534
 7538SOL    HW234248   3.999   4.078  13.674  1.1232 -0.3462  0.1136
 7539SOL     OW34249   2.285   3.412   9.886 -0.4530 -0.3034  0.2773
 7539SOL    HW134250   2.283   3.479   9.953  0.4620  1.4684 -1.4566
 7539SOL    HW234251   2.378   3.407   9.864  0.0126  0.4070  2.0952
 7540SOL     OW34252   3.980   3.535   8.704 -0.5083 -0.2457 -0.5167
 7540SOL    HW134253   3.890   3.519   8.676 -0.0835  1.7045 -2.8982
 7540SOL    HW234254   3.995   3.618   8.660  0.5177 -0.5044 -0.6522
 7541SOL     OW34255   0.423   2.142   7.425 -0.2445  0.2112  0.1258
 7541SOL    HW134256   0.456   2.169   7.339  1.0827  2.8464  1.4645
 7541SOL    HW234257   0.474   2.065   7.450  0.3298  0.5313 -0.0640
 7542SOL     OW34258   0.466   2.579   3.480  0.3602  0.1445 -0.3872
 7542SOL    HW134259   0.411   2.637   3.532  1.2253  0.8395 -0.2395
 7542SOL    HW234260   0.433   2.598   3.392  2.5509 -0.8568 -1.4080
 7543SOL     OW34261   3.035   3.187   4.359  0.2505  0.1821  0.4122
 7543SOL    HW134262   2.942   3.202   4.337  0.5885  1.0839 -0.4031
 7543SOL    HW234263   3.021   3.111   4.415 -3.4783  0.7465  0.2826
 7544SOL     OW34264   1.635   0.123  11.981 -0.2990  0.8820 -0.2645
 7544SOL    HW134265   1.673   0.153  11.899 -1.0770  0.1618 -0.8829
 7544SOL    HW234266   1.679   0.043  12.010 -1.3203  0.3445 -0.1941
 7545SOL     OW34267   4.356   1.711   1.511 -0.3323 -0.0501  0.4021
 7545SOL    HW134268   4.436   1.697   1.461 -1.1907  2.2919 -1.5613
 7545SOL    HW234269   4.383   1.672   1.594 -0.7536 -1.0149  0.0920
 7546SOL     OW34270   3.511   3.062   2.037 -0.3925  0.2624 -0.2694
 7546SOL    HW134271   3.488   3.139   1.984  0.9150  0.7940 -0.0824
 7546SOL    HW234272   3.592   3.023   2.003  1.3203  0.3771  3.6520
 7547SOL     OW34273   3.846   4.026   3.179 -0.0582  0.0944 -0.1297
 7547SOL    HW134274   3.867   3.934   3.197 -0.6566 -0.0177  0.0167
 7547SOL    HW234275   3.753   4.004   3.192  0.7830 -1.5740  2.9639
 7548SOL     OW34276   3.419   0.364   8.900 -0.9083 -0.3873  0.2337
 7548SOL    HW134277   3.392   0.285   8.852  1.0753  0.3028 -2.0558
 7548SOL    HW234278   3.355   0.430   8.874 -0.8776 -1.1820 -1.8812
 7549SOL     OW34279   2.635   1.927   1.399  0.3212 -0.0102 -1.0996
 7549SOL    HW134280   2.665   1.842   1.367  0.1425 -0.6951  0.5676
 7549SOL    HW234281   2.547   1.935   1.362 -1.3951 -0.6879  2.8043
 7550SOL     OW34282   1.951   2.329   0.781  0.3905 -0.0709  0.5608
 7550SOL    HW134283   1.890   2.312   0.709  1.2541  4.5251 -1.2563
 7550SOL    HW234284   1.902   2.279   0.847 -0.0532 -1.3024 -0.7031
 7551SOL     OW34285   0.448   3.316   2.696 -0.3137  0.5117  0.0958
 7551SOL    HW134286   0.541   3.295   2.703 -0.8175 -1.0308  2.3930
 7551SOL    HW234287   0.437   3.367   2.616 -0.9525  0.1506 -0.0455
 7552SOL     OW34288   2.093   3.621   6.974 -0.3830  0.3139  0.9832
 7552SOL    HW134289   2.078   3.639   7.067 -0.2361  1.4150  0.7862
 7552SOL    HW234290   2.149   3.693   6.948 -0.3294 -0.1874 -0.3038
 7553SOL     OW34291   3.372   1.808  17.548 -0.4809 -0.9084  0.0805
 7553SOL    HW134292   3.282   1.786  17.572 -0.0571 -0.3087  2.2220
 7553SOL    HW234293   3.366   1.903  17.551 -2.0590 -1.0754  2.1772
 7554SOL     OW34294   0.486   2.980  11.200 -0.5005 -0.0342 -0.2711
 7554SOL    HW134295   0.402   3.014  11.170 -0.5717  0.8402  0.8844
 7554SOL    HW234296   0.477   2.885  11.192 -3.6532  0.3668 -1.1647
 7555SOL     OW34297   2.626   2.119  15.781  0.3736 -0.1043  0.6267
 7555SOL    HW134298   2.548   2.154  15.738  0.9590 -0.4656 -0.7575
 7555SOL    HW234299   2.619   2.036  15.734 -2.8309 -0.0994  1.0886
 7556SOL     OW34300   4.048   2.200   8.128 -0.7442 -0.3126  0.5114
 7556SOL    HW134301   4.104   2.228   8.055  1.5485  0.7107  2.6783
 7556SOL    HW234302   3.984   2.271   8.134 -0.4947  0.0359 -0.8810
 7557SOL     OW34303   1.247   1.967   9.613  0.2194 -0.2070 -0.7481
 7557SOL    HW134304   1.281   1.989   9.699  2.0380 -1.1693 -1.2187
 7557SOL    HW234305   1.179   2.028   9.585  0.5331 -1.8771 -5.2549
 7558SOL     OW34306   3.132   2.434   3.133  0.6171  0.0344  0.4132
 7558SOL    HW134307   3.094   2.485   3.062  1.6969  0.3043  0.0292
 7558SOL    HW234308   3.205   2.394   3.087 -0.0261 -0.6435  0.0020
 7559SOL     OW34309   1.302   0.426   8.415  0.1342 -0.8362  0.6883
 7559SOL    HW134310   1.395   0.406   8.405  0.7129  1.3046  1.7599
 7559SOL    HW234311   1.291   0.478   8.495  0.9650 -1.0535  0.9473
 7560SOL     OW34312   4.469   1.477   8.660  0.3318  0.1285 -0.2796
 7560SOL    HW134313   4.498   1.512   8.744 -1.7297  0.1959  0.4204
 7560SOL    HW234314   4.378   1.477   8.692  0.2014 -1.1525 -0.6437
 7561SOL     OW34315   3.609   4.523   4.709 -0.2115 -0.2251 -0.2558
 7561SOL    HW134316   3.639   4.613   4.695  1.0039 -0.5024  0.6025
 7561SOL    HW234317   3.516   4.530   4.688 -0.6294  0.1043  1.7795
 7562SOL     OW34318   2.179   2.234   6.945 -0.2435 -0.2147  0.2302
 7562SOL    HW134319   2.166   2.308   7.004 -0.5147  0.2604 -0.4349
 7562SOL    HW234320   2.275   2.241   6.941 -0.2873 -0.1785 -0.5912
 7563SOL     OW34321   4.140   4.575   3.723 -0.1252  0.2041  1.1978
 7563SOL    HW134322   4.054   4.534   3.715  0.9306 -1.3884 -2.0224
 7563SOL    HW234323   4.182   4.494   3.753 -0.5068 -0.2127  0.6156
 7564SOL     OW34324   1.188   0.047   8.053  0.0882 -0.3931 -0.6217
 7564SOL    HW134325   1.187   4.704   8.102 -0.8914  0.8150  1.4151
 7564SOL    HW234326   1.274   0.050   8.011  0.6151 -0.0857  0.4739
 7565SOL     OW34327   1.375   3.428   9.632  0.1563  0.1500 -0.2415
 7565SOL    HW134328   1.461   3.391   9.652 -0.1010 -0.3776 -0.0947
 7565SOL    HW234329   1.369   3.472   9.717  4.5816  1.6625 -0.6915
 7566SOL     OW34330   3.894   1.085   5.707  0.3812 -0.4822 -0.3183
 7566SOL    HW134331   3.900   1.089   5.612  0.7911 -0.9982 -0.3141
 7566SOL    HW234332   3.800   1.089   5.723  0.2580 -0.9822 -0.9506
 7567SOL     OW34333   1.473   1.396   7.327  0.2388  0.5931 -0.1704
 7567SOL    HW134334   1.492   1.437   7.411  0.3586 -0.6632  0.4275
 7567SOL    HW234335   1.379   1.390   7.309  0.0458 -0.6957  1.2767
 7568SOL     OW34336   3.891   3.457   5.360 -0.2981 -0.0252  0.0704
 7568SOL    HW134337   3.881   3.411   5.277  0.0051  0.7051 -0.3683
 7568SOL    HW234338   3.888   3.546   5.324 -3.0729  0.3214  1.1392
 7569SOL     OW34339   3.440   3.045  10.441 -0.9561 -0.5201 -0.3903
 7569SOL    HW134340   3.442   3.116  10.506  1.3757 -2.6416  1.8730
 7569SOL    HW234341   3.495   3.084  10.373 -0.6258  1.6380  1.1006
 7570SOL     OW34342   3.210   4.501   3.738 -0.3343  0.3830 -0.3021
 7570SOL    HW134343   3.270   4.559   3.784  2.3078 -2.8442  0.2722
 7570SOL    HW234344   3.123   4.541   3.742  0.0829  1.2064  0.3941
 7571SOL     OW34345   0.458   2.155  15.095 -0.3527 -0.7326 -0.0617
 7571SOL    HW134346   0.384   2.097  15.078  0.8656 -2.4291  0.4519
 7571SOL    HW234347   0.461   2.224  15.029  0.5247 -0.3218  0.4126
 7572SOL     OW34348   2.897   2.608   8.625 -0.1639  0.2804  0.7053
 7572SOL    HW134349   2.904   2.681   8.563  1.6594 -1.4615 -1.1644
 7572SOL    HW234350   2.802   2.606   8.636  0.0477  0.2116  2.4204
 7573SOL     OW34351   0.027   2.178   4.481  0.0924 -0.1435  0.1725
 7573SOL    HW134352   0.078   2.178   4.561 -0.4699  0.3943  0.5267
 7573SOL    HW234353   0.055   2.259   4.438 -0.8094  0.1923  0.2166
 7574SOL     OW34354   0.663   3.127   8.284 -0.0687 -0.3176 -0.0778
 7574SOL    HW134355   0.656   3.188   8.210  2.2708  1.3785  1.1015
 7574SOL    HW234356   0.662   3.186   8.360  1.9781 -0.6403  0.1816
 7575SOL     OW34357   0.418   2.123   1.958  0.2848 -0.1505 -0.2490
 7575SOL    HW134358   0.381   2.196   2.007 -0.1936 -1.4135  1.2806
 7575SOL    HW234359   0.480   2.161   1.896 -0.3836  1.1675 -0.0944
 7576SOL     OW34360   0.428   4.583   2.025 -0.1609  0.1427  0.4940
 7576SOL    HW134361   0.463   4.513   2.080  0.0070 -0.0099  0.1947
 7576SOL    HW234362   0.436   4.657   2.084 -0.9148  0.6288 -0.0058
 7577SOL     OW34363   2.368   1.124   2.443 -0.1807  0.0912 -0.6493
 7577SOL    HW134364   2.412   1.198   2.486 -0.9346  2.3875 -3.8431
 7577SOL    HW234365   2.281   1.160   2.427  0.1322  1.8189  1.5224
 7578SOL     OW34366   4.218   1.716   2.106 -0.7474 -0.0066 -0.3779
 7578SOL    HW134367   4.214   1.681   2.017  0.4804 -1.0722 -0.0122
 7578SOL    HW234368   4.247   1.806   2.097 -0.4624 -0.0716 -0.1116
 7579SOL     OW34369   2.525   1.028   3.082  0.1961  0.7521 -0.1263
 7579SOL    HW134370   2.438   1.006   3.049 -0.0772  2.6438 -0.6769
 7579SOL    HW234371   2.505   1.101   3.141  0.3488  1.0797 -0.4786
 7580SOL     OW34372   3.642   1.608   7.455 -0.0392 -0.2645 -0.1814
 7580SOL    HW134373   3.734   1.590   7.439 -0.9936 -1.7614 -3.7875
 7580SOL    HW234374   3.646   1.699   7.486 -1.8142  0.6827 -2.8018
 7581SOL     OW34375   0.993   0.145  10.194 -0.1172 -0.1185 -0.2367
 7581SOL    HW134376   1.035   0.173  10.112 -1.0260 -1.2050 -1.0795
 7581SOL    HW234377   0.977   0.052  10.181  1.2614 -0.6743  1.9814
 7582SOL     OW34378   3.082   0.049   2.972 -0.0646  0.9360  0.3672
 7582SOL    HW134379   3.116   4.736   2.899  0.3523  1.1766  0.3902
 7582SOL    HW234380   3.116   4.736   3.045 -0.2499  1.2003  0.6415
 7583SOL     OW34381   3.172   1.832   0.452  0.6227 -0.0369  0.1771
 7583SOL    HW134382   3.229   1.908   0.468 -0.4424  0.6223  0.7682
 7583SOL    HW234383   3.163   1.838   0.357  1.3458  1.4341  0.1927
 7584SOL     OW34384   0.077   4.152   3.565 -0.2512 -0.2014  0.4129
 7584SOL    HW134385   0.082   4.206   3.486 -0.0802  0.4962  0.9006
 7584SOL    HW234386   0.026   4.215   3.616 -0.3137  1.2268 -1.4148
 7585SOL     OW34387   2.734   3.495   8.488  0.2020 -0.3429  0.0370
 7585SOL    HW134388   2.724   3.589   8.498 -0.7433 -0.6320  1.7656
 7585SOL    HW234389   2.668   3.478   8.420  1.8506  0.0296 -1.6386
 7586SOL     OW34390   0.765   0.194   2.411  0.4562 -0.2013 -0.0571
 7586SOL    HW134391   0.684   0.190   2.462  0.7129 -1.2635  0.2610
 7586SOL    HW234392   0.768   0.113   2.361  1.5195  0.6326 -1.3566
 7587SOL     OW34393   0.971   1.890  11.681  0.0871 -0.3874 -0.0722
 7587SOL    HW134394   0.887   1.885  11.636  0.3283  0.5784 -0.6204
 7587SOL    HW234395   0.986   1.984  11.686 -0.0604 -0.4718  2.1580
 7588SOL     OW34396   4.025   0.769   4.733 -0.2910 -0.2378  0.9170
 7588SOL    HW134397   3.931   0.788   4.727 -0.3773 -0.9224  0.0716
 7588SOL    HW234398   4.032   0.760   4.828 -1.6968  0.5700  1.1030
 7589SOL     OW34399   0.492   1.976   0.696  0.0151  0.5343 -0.1774
 7589SOL    HW134400   0.519   2.063   0.665 -2.6325  0.1171 -3.5238
 7589SOL    HW234401   0.547   1.966   0.774 -3.2323  1.4620  2.2791
 7590SOL     OW34402   2.372   0.710   5.097  0.1852 -0.1494 -0.0370
 7590SOL    HW134403   2.350   0.687   5.188 -0.1583  0.0070 -0.0844
 7590SOL    HW234404   2.342   0.800   5.092  4.6342  1.4960  2.1398
 7591SOL     OW34405   2.714   3.052   4.863 -0.3238  0.3176  0.1875
 7591SOL    HW134406   2.689   3.067   4.954  0.7175  0.1741  0.5021
 7591SOL    HW234407   2.634   3.074   4.815 -0.4730 -1.4550 -0.3674
 7592SOL     OW34408   3.139   0.752   2.204 -0.2233  0.0548  0.1595
 7592SOL    HW134409   3.190   0.743   2.285 -0.3082 -0.1025  0.1945
 7592SOL    HW234410   3.115   0.845   2.200  0.9402  0.5037  2.9791
 7593SOL     OW34411   4.519   0.405   5.471 -0.1087  0.1003 -0.6726
 7593SOL    HW134412   4.532   0.311   5.486 -2.9068  0.0205  1.2359
 7593SOL    HW234413   4.557   0.422   5.385 -1.3535  2.1800 -0.8256
 7594SOL     OW34414   0.492   2.829   4.676  0.3460  0.0581  0.2623
 7594SOL    HW134415   0.399   2.846   4.661  0.6965  3.2638  1.7783
 7594SOL    HW234416   0.529   2.901   4.625  2.0859  0.1932  1.7310
 7595SOL     OW34417   4.302   2.002   6.673  0.7536 -0.3672  0.1545
 7595SOL    HW134418   4.230   2.014   6.736 -0.7946 -1.2415 -1.4472
 7595SOL    HW234419   4.372   2.062   6.697  1.2232 -1.0326  0.4419
 7596SOL     OW34420   3.307   1.139   4.534  0.5943 -0.0310  0.6302
 7596SOL    HW134421   3.366   1.214   4.524  1.0735 -0.4172  0.5585
 7596SOL    HW234422   3.222   1.168   4.501  0.7071 -0.2696  0.1326
 7597SOL     OW34423   1.434   0.806   5.371  0.2410 -1.1262 -0.1690
 7597SOL    HW134424   1.468   0.717   5.369  2.3698 -0.3189  0.4045
 7597SOL    HW234425   1.433   0.825   5.465  0.7989  0.1012 -0.4022
 7598SOL     OW34426   3.764   3.385  11.736 -0.1822 -0.2209  0.0812
 7598SOL    HW134427   3.826   3.330  11.784  0.1543 -2.5223 -3.0264
 7598SOL    HW234428   3.682   3.337  11.743 -0.3854 -0.1346 -1.6169
 7599SOL     OW34429   3.992   2.662   3.308 -0.4418 -0.0862  0.3881
 7599SOL    HW134430   4.029   2.621   3.386  0.8985  2.3465  1.0516
 7599SOL    HW234431   3.931   2.724   3.349  2.0980  2.5395  0.2122
 7600SOL     OW34432   3.715   1.696   9.641 -1.1532  0.1129  0.0174
 7600SOL    HW134433   3.669   1.732   9.565 -0.2845  1.9051  0.3483
 7600SOL    HW234434   3.806   1.720   9.625 -0.7575 -1.3716  0.0572
 7601SOL     OW34435   4.093   0.980   2.115 -0.3933 -0.0181  0.5809
 7601SOL    HW134436   4.003   0.995   2.087  0.6430  1.7793 -1.7789
 7601SOL    HW234437   4.128   0.934   2.039 -1.1710 -1.4786  1.1199
 7602SOL     OW34438   3.892   2.741  11.688 -0.2357  0.2772 -0.1781
 7602SOL    HW134439   3.971   2.782  11.723 -0.3319  0.2930  0.0201
 7602SOL    HW234440   3.897   2.645  11.692 -1.4194  0.0970 -2.7779
 7603SOL     OW34441   3.962   1.309   7.895 -0.2166  0.5868 -0.2450
 7603SOL    HW134442   4.008   1.367   7.955 -2.0560  0.0349  1.7004
 7603SOL    HW234443   4.025   1.302   7.823 -0.0540 -1.8794  0.1296
 7604SOL     OW34444   2.731   3.898   5.195  0.0160  0.7516 -0.0568
 7604SOL    HW134445   2.639   3.906   5.168 -0.5325 -0.0886  1.5443
 7604SOL    HW234446   2.735   3.981   5.241  2.5555  1.0537 -0.8453
 7605SOL     OW34447   4.126   3.481   4.145  0.6077  0.1592 -0.0239
 7605SOL    HW134448   4.083   3.565   4.157 -0.1748  0.0041 -1.8455
 7605SOL    HW234449   4.087   3.417   4.206 -0.3959  0.2114 -0.6101
 7606SOL     OW34450   3.127   0.322   2.340 -0.1794  0.2310  0.3268
 7606SOL    HW134451   3.204   0.373   2.315  0.0386 -1.0736 -1.6527
 7606SOL    HW234452   3.102   0.353   2.427 -1.1313 -0.9914  0.4827
 7607SOL     OW34453   3.194   3.355   4.523  0.4218 -0.0177 -1.0393
 7607SOL    HW134454   3.195   3.288   4.455  0.5245  0.9039 -1.9418
 7607SOL    HW234455   3.111   3.401   4.510  0.4684 -0.5005 -3.0008
 7608SOL     OW34456   4.291   3.453   3.559 -0.3387  0.4955  0.0621
 7608SOL    HW134457   4.210   3.404   3.546 -0.1070 -0.6412  2.8073
 7608SOL    HW234458   4.262   3.542   3.540 -1.7706 -0.1931 -1.0447
 7609SOL     OW34459   3.302   2.933   4.916  0.3710 -0.2453 -0.0035
 7609SOL    HW134460   3.265   2.845   4.908  0.1926 -0.1365 -0.3938
 7609SOL    HW234461   3.241   2.975   4.976 -0.0194 -0.5675 -0.1719
 7610SOL     OW34462   1.090   3.212   3.976 -0.4775 -0.0056 -0.0371
 7610SOL    HW134463   1.071   3.306   3.970 -1.6400 -0.1680  1.0697
 7610SOL    HW234464   1.108   3.202   4.069 -0.5310  1.7166  0.1739
 7611SOL     OW34465   1.888   3.072   9.819 -0.1374 -0.2129 -0.2086
 7611SOL    HW134466   1.851   3.142   9.766 -0.5871  0.0133  0.4075
 7611SOL    HW234467   1.937   3.036   9.745  1.9981  0.2555  0.9669
 7612SOL     OW34468   1.229   4.082  17.706 -0.0660 -0.3508  0.2593
 7612SOL    HW134469   1.174   4.009  17.676  1.1331 -0.7336 -0.9854
 7612SOL    HW234470   1.160   4.148  17.705 -1.2835 -1.6369  0.1601
 7613SOL     OW34471   4.621   2.853   0.577 -0.0177  0.8531  0.7665
 7613SOL    HW134472   4.652   2.888   0.493 -0.9268 -0.2051 -0.0130
 7613SOL    HW234473   4.700   2.844   0.630  1.9581 -1.0500 -2.5255
 7614SOL     OW34474   2.737   1.950   3.336 -0.4546 -0.5398 -0.2543
 7614SOL    HW134475   2.657   1.989   3.300 -0.2343 -1.8249 -2.1147
 7614SOL    HW234476   2.790   2.031   3.336 -1.4205  0.1041 -1.7581
 7615SOL     OW34477   0.922   0.451   9.536  0.2341 -0.2581  0.5326
 7615SOL    HW134478   0.831   0.421   9.537  0.1252 -0.0595 -2.8484
 7615SOL    HW234479   0.902   0.544   9.545 -3.0823 -0.7866 -1.1772
 7616SOL     OW34480   1.950   2.913   3.070  0.2206 -0.1074  0.4307
 7616SOL    HW134481   1.991   2.993   3.037  2.2426 -1.0993  0.5286
 7616SOL    HW234482   1.899   2.941   3.146  0.5558  1.2814  0.1313
 7617SOL     OW34483   3.702   0.528   1.908 -0.6757 -0.1128  0.2138
 7617SOL    HW134484   3.673   0.479   1.831  0.7733  0.0189 -0.4055
 7617SOL    HW234485   3.755   0.461   1.952 -1.2100 -0.4195  0.3908
 7618SOL     OW34486   0.388   2.539   9.178  0.1963 -0.3373  0.6244
 7618SOL    HW134487   0.342   2.456   9.194 -0.0291 -0.1902  0.7354
 7618SOL    HW234488   0.310   2.577   9.137  2.0781  2.1200 -0.6689
 7619SOL     OW34489   1.609   2.375   9.180 -0.6373  0.2754 -0.0061
 7619SOL    HW134490   1.571   2.459   9.203 -1.4069  0.1027 -0.6612
 7619SOL    HW234491   1.700   2.401   9.166  0.0794 -2.0969  0.1717
 7620SOL     OW34492   0.879   0.179   4.603 -0.1171 -0.6536 -0.1687
 7620SOL    HW134493   0.791   0.154   4.630  0.5083 -1.9868  0.6239
 7620SOL    HW234494   0.865   0.239   4.529  0.1483 -0.4073 -0.0207
 7621SOL     OW34495   3.456   4.481   3.234 -0.2316  0.8276 -0.1577
 7621SOL    HW134496   3.487   4.547   3.297  1.5985 -0.7332  0.5741
 7621SOL    HW234497   3.507   4.405   3.262 -0.7053  0.5862  0.0508
 7622SOL     OW34498   3.817   4.734   0.941  0.2428  0.3156 -0.1869
 7622SOL    HW134499   3.882   0.056   0.908  1.4080 -0.2833  1.0007
 7622SOL    HW234500   3.751   0.057   0.972 -1.1071 -2.9340  3.5197
 7623SOL     OW34501   0.526   3.538   2.011 -0.4781  0.2475 -0.1522
 7623SOL    HW134502   0.523   3.622   1.964 -0.4901  0.3006 -0.0578
 7623SOL    HW234503   0.439   3.535   2.051 -0.6487  1.3445 -0.4325
 7624SOL     OW34504   0.930   3.656   7.375 -0.1657  0.1838 -0.0717
 7624SOL    HW134505   0.960   3.565   7.375  0.9630  0.5667 -2.1116
 7624SOL    HW234506   0.852   3.647   7.430 -0.2628 -1.4821 -0.4936
 7625SOL     OW34507   4.186   1.094  13.553  0.2882  0.1038  0.0186
 7625SOL    HW134508   4.092   1.085  13.539  0.1953 -0.0069  0.7462
 7625SOL    HW234509   4.196   1.072  13.645 -0.2737  2.1683  0.5767
 7626SOL     OW34510   1.480   1.449   3.685  0.6027 -0.1255  0.1218
 7626SOL    HW134511   1.490   1.363   3.646 -1.7920  1.0643 -3.1079
 7626SOL    HW234512   1.510   1.425   3.773 -1.2123  1.4657  1.1978
 7627SOL     OW34513   2.925   1.496   4.166 -0.1089 -0.6189  0.2374
 7627SOL    HW134514   2.863   1.446   4.219 -0.5988 -1.5361 -1.2123
 7627SOL    HW234515   2.863   1.552   4.119  0.0271 -1.0338 -0.4249
 7628SOL     OW34516   2.584   3.494   4.335 -0.1746 -0.0743  0.4538
 7628SOL    HW134517   2.607   3.403   4.354  1.5018  0.1924 -0.2927
 7628SOL    HW234518   2.658   3.509   4.276  0.8428 -1.8676  1.2806
 7629SOL     OW34519   3.067   3.699   7.496 -0.3244  0.3279 -0.2647
 7629SOL    HW134520   3.010   3.662   7.429  0.3603  1.5941 -1.5514
 7629SOL    HW234521   3.044   3.650   7.575 -2.1186  0.5077 -0.6825
 7630SOL     OW34522   4.142   0.744   6.286 -0.1966  0.0600  0.3988
 7630SOL    HW134523   4.104   0.706   6.207  1.1098  0.7922 -0.5734
 7630SOL    HW234524   4.090   0.824   6.289  0.3227  0.4048  0.2198
 7631SOL     OW34525   3.476   0.805   7.032 -0.5917 -0.3087  0.1755
 7631SOL    HW134526   3.524   0.724   7.052  0.4062  0.3374  0.4129
 7631SOL    HW234527   3.515   0.854   7.105 -0.5209 -0.9278  0.5609
 7632SOL     OW34528   1.579   2.007   3.690  0.3782 -0.5910  0.0488
 7632SOL    HW134529   1.544   1.984   3.776  0.0665 -1.9326 -0.4384
 7632SOL    HW234530   1.504   2.058   3.659  0.1945 -0.5908  0.4918
 7633SOL     OW34531   1.085   3.151   3.045 -0.3308 -0.3292  0.4756
 7633SOL    HW134532   0.999   3.117   3.020 -0.0812 -1.8169  1.6623
 7633SOL    HW234533   1.130   3.067   3.054  2.4104  1.0177 -0.5392
 7634SOL     OW34534   0.354   2.363   3.618  0.0703  0.0686  0.0973
 7634SOL    HW134535   0.280   2.398   3.569  0.2082 -0.0655 -0.2049
 7634SOL    HW234536   0.424   2.417   3.581  1.1567 -1.1936  0.3240
 7635SOL     OW34537   1.670   4.176  16.825  0.4780 -0.4828  0.6304
 7635SOL    HW134538   1.635   4.239  16.887 -0.1777 -0.9982  0.7862
 7635SOL    HW234539   1.674   4.221  16.740 -1.4281  0.1386  0.8773
 7636SOL     OW34540   1.011   4.260   1.911 -0.5255  0.4941 -1.2646
 7636SOL    HW134541   1.053   4.248   1.997 -0.2220  0.4819 -1.4149
 7636SOL    HW234542   1.016   4.170   1.878 -1.0524  0.1087 -0.3091
 7637SOL     OW34543   2.389   2.430   2.205 -0.0851 -0.2484 -0.1484
 7637SOL    HW134544   2.344   2.351   2.178 -1.7226  1.2413 -1.7513
 7637SOL    HW234545   2.472   2.405   2.165 -0.6821 -1.3649 -0.6740
 7638SOL     OW34546   4.161   0.289  10.920  0.2633 -0.1739  0.3881
 7638SOL    HW134547   4.213   0.357  10.962 -1.3052  0.6737  0.9901
 7638SOL    HW234548   4.092   0.348  10.889  0.1435 -0.1772  0.6428
 7639SOL     OW34549   3.272   4.714   6.395 -0.3927 -0.1869 -0.5243
 7639SOL    HW134550   3.199   4.672   6.440 -1.5992  2.1003 -0.3545
 7639SOL    HW234551   3.341   4.718   6.461 -1.2398  1.2474  0.2517
 7640SOL     OW34552   1.790   4.529   4.317 -0.1166 -0.2469 -0.0383
 7640SOL    HW134553   1.859   4.463   4.317  1.1716  1.0920  0.3233
 7640SOL    HW234554   1.838   4.587   4.258 -0.1829 -0.4893 -0.3269
 7641SOL     OW34555   1.860   1.225  15.685  0.2645 -0.0194 -0.2992
 7641SOL    HW134556   1.912   1.269  15.618  0.6600  1.7999  1.2224
 7641SOL    HW234557   1.901   1.138  15.686 -0.2505 -0.2688 -0.9978
 7642SOL     OW34558   1.878   0.953   8.112 -0.4783 -0.4954  0.2656
 7642SOL    HW134559   1.919   1.016   8.052  0.1694 -1.0761  0.1041
 7642SOL    HW234560   1.896   1.004   8.191  0.2356  0.2855 -0.3847
 7643SOL     OW34561   3.971   0.295   3.400 -0.4087 -0.4524  0.3896
 7643SOL    HW134562   3.953   0.362   3.335  2.3791 -1.7501 -1.7546
 7643SOL    HW234563   3.891   0.285   3.451  0.0292  3.4399  1.8027
 7644SOL     OW34564   1.974   2.967   2.002  0.1968 -0.2356  0.8317
 7644SOL    HW134565   2.069   2.964   2.005  0.1503 -2.4855  0.0482
 7644SOL    HW234566   1.933   2.895   2.050 -0.4966 -0.2631  0.1993
 7645SOL     OW34567   0.650   2.197   7.960 -0.7709  0.3754 -0.0572
 7645SOL    HW134568   0.620   2.108   7.941  2.1377 -1.0521  1.9865
 7645SOL    HW234569   0.630   2.244   7.879  0.7518  0.7173 -0.2207
 7646SOL     OW34570   2.448   3.197   4.303 -0.3521 -0.1998 -0.2791
 7646SOL    HW134571   2.436   3.174   4.211 -0.2491  1.1057 -0.6227
 7646SOL    HW234572   2.375   3.255   4.325  0.0087 -0.8262  2.5787
 7647SOL     OW34573   1.654   1.212   2.345  0.4989  0.5469  0.4529
 7647SOL    HW134574   1.698   1.270   2.407  1.0840 -0.3960  0.9287
 7647SOL    HW234575   1.582   1.271   2.323 -0.1191 -0.5757 -0.5409
 7648SOL     OW34576   1.339   3.977  12.360  0.3495  0.6127 -0.3535
 7648SOL    HW134577   1.342   4.072  12.371 -1.1222  0.4044  1.7801
 7648SOL    HW234578   1.295   3.951  12.441  0.7441  1.8636  0.2560
 7649SOL     OW34579   1.573   3.415   2.827 -0.0919 -0.5492  0.0742
 7649SOL    HW134580   1.487   3.390   2.792 -0.0766  0.5916 -0.7940
 7649SOL    HW234581   1.591   3.497   2.781  2.4940 -1.7161 -0.9978
 7650SOL     OW34582   0.630   1.030   9.187 -0.8343  0.9297  0.1483
 7650SOL    HW134583   0.567   1.058   9.121  1.2936  3.2660 -0.8806
 7650SOL    HW234584   0.568   1.017   9.259 -0.8004 -1.7276 -0.3148
 7651SOL     OW34585   1.435   1.886   3.403  0.0564  0.2921 -0.6449
 7651SOL    HW134586   1.416   1.940   3.480 -0.2910  0.9416 -1.1878
 7651SOL    HW234587   1.524   1.919   3.389 -0.0586  1.4982  1.4300
 7652SOL     OW34588   2.868   3.264   5.165  0.4924 -0.3500  0.5221
 7652SOL    HW134589   2.835   3.187   5.119 -1.0870  0.0783  0.9337
 7652SOL    HW234590   2.908   3.317   5.095 -1.2333 -0.7541 -0.7594
 7653SOL     OW34591   2.926   0.041  11.003 -0.2930 -0.1554 -0.1918
 7653SOL    HW134592   2.847   4.727  11.019  0.5013 -1.3309 -0.1055
 7653SOL    HW234593   2.944   0.056  11.096 -0.6580  1.8551 -0.4584
 7654SOL     OW34594   1.551   1.571   8.888  0.0920 -0.0126 -0.0577
 7654SOL    HW134595   1.524   1.502   8.948 -1.3136  0.5174 -0.0964
 7654SOL    HW234596   1.543   1.524   8.805  0.9819 -2.2097  1.0947
 7655SOL     OW34597   2.181   0.762   8.179 -0.0817  0.2499 -0.2394
 7655SOL    HW134598   2.218   0.850   8.190 -0.3481  0.1670  1.3186
 7655SOL    HW234599   2.129   0.753   8.259  1.6143 -0.6592  0.7663
 7656SOL     OW34600   1.374   3.779   4.033 -0.1124 -0.0939  0.3014
 7656SOL    HW134601   1.404   3.693   4.004  1.3384  0.9551 -1.3577
 7656SOL    HW234602   1.293   3.804   3.988 -0.2678 -0.1356  0.5557
 7657SOL     OW34603   2.959   1.423   2.679  0.1385  0.0254  0.4648
 7657SOL    HW134604   2.951   1.496   2.741  0.9056  1.4223 -1.0845
 7657SOL    HW234605   3.019   1.453   2.610  1.9322 -0.9112  1.6038
 7658SOL     OW34606   0.873   4.166  12.695 -0.1946 -0.2237 -0.0401
 7658SOL    HW134607   0.853   4.134  12.783  1.3758  1.3797  0.9092
 7658SOL    HW234608   0.800   4.228  12.692  1.1502  1.4331  1.3712
 7659SOL     OW34609   1.692   3.127  17.256 -0.6321 -0.6335  0.1275
 7659SOL    HW134610   1.734   3.156  17.175  1.0620  1.4497  1.7518
 7659SOL    HW234611   1.647   3.203  17.292  1.3450  0.8225 -0.4735
 7660SOL     OW34612   4.592   4.592   9.495 -0.1099  0.3354 -0.6869
 7660SOL    HW134613   4.544   4.667   9.458  1.7391  0.9048 -1.9211
 7660SOL    HW234614   4.638   4.636   9.566 -0.8708  1.4118 -0.8484
 7661SOL     OW34615   1.012   1.430   9.232 -0.3339  0.2430 -0.4459
 7661SOL    HW134616   0.979   1.340   9.233  2.4139 -0.7649 -0.7939
 7661SOL    HW234617   0.948   1.464   9.295 -1.0384  1.3074 -1.7295
 7662SOL     OW34618   0.242   3.506  10.712  0.2017  0.2292  0.4181
 7662SOL    HW134619   0.191   3.577  10.674 -0.0827 -0.1884  0.0167
 7662SOL    HW234620   0.330   3.526  10.682  0.4906 -4.1694 -1.7678
 7663SOL     OW34621   3.383   2.516   6.469  0.6117 -0.2992 -0.1116
 7663SOL    HW134622   3.289   2.521   6.452  0.9941  1.3081 -1.7003
 7663SOL    HW234623   3.407   2.423   6.468  0.7924 -0.2684  1.1085
 7664SOL     OW34624   0.206   0.242   6.008  0.0433 -0.1226  0.2594
 7664SOL    HW134625   0.186   0.204   5.923 -1.7711  1.6458 -0.1019
 7664SOL    HW234626   0.238   0.327   5.976 -1.0819  0.8906  1.8138
 7665SOL     OW34627   2.501   3.074   4.681 -0.5061  0.3567  0.0317
 7665SOL    HW134628   2.445   3.151   4.676 -0.0986  0.6091 -0.5764
 7665SOL    HW234629   2.530   3.072   4.590  0.8502  1.2838  0.4382
 7666SOL     OW34630   4.173   2.870   5.727 -0.7557 -0.2645  0.0383
 7666SOL    HW134631   4.144   2.922   5.651 -0.4562  0.5469  0.4775
 7666SOL    HW234632   4.135   2.787   5.700  0.7247 -0.8666 -0.2050
 7667SOL     OW34633   2.901   2.125   4.565  0.3600 -0.3367  0.4322
 7667SOL    HW134634   2.982   2.176   4.554 -0.8681  1.8423  1.5162
 7667SOL    HW234635   2.904   2.126   4.661 -1.3125 -0.8153  0.4795
 7668SOL     OW34636   2.005   0.052   8.539 -0.4690 -0.1930  0.0821
 7668SOL    HW134637   2.031   0.106   8.614  2.4230 -1.0040 -0.3438
 7668SOL    HW234638   2.007   0.102   8.458  1.0836  0.2894  0.4302
 7669SOL     OW34639   4.314   4.283   5.241 -0.2604  0.1815 -0.2243
 7669SOL    HW134640   4.236   4.337   5.257 -1.3928 -0.5480 -3.2381
 7669SOL    HW234641   4.275   4.204   5.202  1.1315 -1.2298  1.2834
 7670SOL     OW34642   3.239   4.625   8.426 -0.0443  0.0681  0.2781
 7670SOL    HW134643   3.206   4.713   8.446  0.4699  0.1471  0.7791
 7670SOL    HW234644   3.333   4.645   8.420 -0.3100  0.9209 -1.1903
 7671SOL     OW34645   3.828   4.132   7.441  0.2492  0.2664 -0.0723
 7671SOL    HW134646   3.801   4.184   7.365  1.3936  0.8616 -0.0672
 7671SOL    HW234647   3.819   4.043   7.406 -0.8793 -0.6682  2.5665
 7672SOL     OW34648   4.545   0.510   2.389 -0.1027  0.2221 -0.3796
 7672SOL    HW134649   4.520   0.420   2.365  2.1568 -0.2227 -1.0245
 7672SOL    HW234650   4.463   0.536   2.431 -2.3130 -2.0630 -3.2492
 7673SOL     OW34651   1.998   1.433   3.524  0.9740  0.0543  0.4149
 7673SOL    HW134652   1.932   1.466   3.585  0.5931 -0.7037  0.4157
 7673SOL    HW234653   2.017   1.514   3.477  1.2365  0.4661  1.2378
 7674SOL     OW34654   0.421   1.616   9.735  0.2335  0.6208 -0.3176
 7674SOL    HW134655   0.328   1.636   9.744 -0.0657  0.2332 -2.5057
 7674SOL    HW234656   0.426   1.520   9.737  0.0738  0.6099 -0.4616
 7675SOL     OW34657   1.370   4.212   8.176 -0.7848  0.1555  0.0068
 7675SOL    HW134658   1.397   4.233   8.265 -1.3252 -2.3465  0.7512
 7675SOL    HW234659   1.445   4.238   8.122  0.2464  0.8668  1.7919
 7676SOL     OW34660   2.737   2.101   2.029  0.3355  0.4129 -0.1806
 7676SOL    HW134661   2.749   2.010   2.001 -0.0673  0.7621 -1.4920
 7676SOL    HW234662   2.641   2.110   2.023  0.0267 -2.3389  0.7586
 7677SOL     OW34663   4.695   4.573   5.953  0.2476  0.0313 -0.2328
 7677SOL    HW134664   0.032   4.615   5.913  1.0853 -0.5413  0.7507
 7677SOL    HW234665   4.724   4.483   5.971  0.6338  0.3727  0.8175
 7678SOL     OW34666   2.740   1.863   0.769 -0.2828  0.4814  0.1945
 7678SOL    HW134667   2.805   1.866   0.699 -0.2229 -2.0779  0.1495
 7678SOL    HW234668   2.802   1.891   0.836  0.4998  0.3142 -0.4599
 7679SOL     OW34669   3.864   2.647  14.716 -0.4555 -0.3500 -0.1517
 7679SOL    HW134670   3.931   2.591  14.755  0.1685  1.1775  0.9194
 7679SOL    HW234671   3.908   2.689  14.643  0.8985  1.2444  1.6090
 7680SOL     OW34672   2.956   4.524   3.020  0.0641  0.4175 -0.4382
 7680SOL    HW134673   2.982   4.444   2.974  1.9151  0.9032 -0.2395
 7680SOL    HW234674   3.044   4.561   3.022  0.0289  0.3814  1.2567
 7681SOL     OW34675   2.164   1.802  11.240 -0.2157  0.2204 -0.2113
 7681SOL    HW134676   2.205   1.728  11.285  0.5114  0.7047 -0.0712
 7681SOL    HW234677   2.080   1.792  11.285  0.1506 -0.5615  0.2972
 7682SOL     OW34678   0.723   4.111   8.277 -0.3268  0.0555  0.8165
 7682SOL    HW134679   0.793   4.176   8.275 -0.2690  0.0108  1.2730
 7682SOL    HW234680   0.662   4.156   8.218 -0.6888  0.9532  1.8745
 7683SOL     OW34681   2.535   3.742   4.874 -0.6159 -0.0350 -0.1368
 7683SOL    HW134682   2.575   3.829   4.865  1.8781 -1.0217  1.2267
 7683SOL    HW234683   2.443   3.767   4.876 -0.3663  0.9567 -1.0145
 7684SOL     OW34684   1.229   4.264   3.870 -0.5658 -0.0300  0.5301
 7684SOL    HW134685   1.197   4.344   3.829  1.8537  1.3913  1.4207
 7684SOL    HW234686   1.275   4.219   3.799  2.1084  1.2115  1.4620
 7685SOL     OW34687   0.706   0.281  13.519 -0.2189 -0.6262  0.3263
 7685SOL    HW134688   0.731   0.265  13.610  1.6896  2.1386  0.2859
 7685SOL    HW234689   0.619   0.242  13.528 -0.5527 -0.4285 -2.0526
 7686SOL     OW34690   2.484   0.454   8.417  0.5529 -0.2548 -0.5827
 7686SOL    HW134691   2.494   0.546   8.439  2.5515 -1.0453  1.8244
 7686SOL    HW234692   2.412   0.433   8.476  0.2201  0.9843 -0.5553
 7687SOL     OW34693   1.169   2.885   8.784 -0.4281  0.1408  0.0536
 7687SOL    HW134694   1.240   2.821   8.781  1.4384  2.3334 -2.5899
 7687SOL    HW234695   1.163   2.911   8.692 -0.0829 -1.3073 -0.3899
 7688SOL     OW34696   0.686   1.727  13.201 -0.2043 -0.3129 -0.0216
 7688SOL    HW134697   0.695   1.820  13.222 -0.6827 -0.5097  1.0703
 7688SOL    HW234698   0.682   1.737  13.106  2.0951 -1.3341 -0.2019
 7689SOL     OW34699   2.409   3.721   0.022 -0.1448  0.2757  0.9234
 7689SOL    HW134700   2.394   3.771  17.695 -0.2701 -0.0746  0.7266
 7689SOL    HW234701   2.495   3.684   0.002 -2.0736 -4.0203  0.4101
 7690SOL     OW34702   2.171   1.772   8.565  0.1546 -0.1128  0.4989
 7690SOL    HW134703   2.076   1.759   8.573 -0.1796  1.4389 -1.0210
 7690SOL    HW234704   2.190   1.801   8.654  0.5749 -2.0891  1.0532
 7691SOL     OW34705   2.093   1.253   9.821 -0.2120 -0.3178 -0.5146
 7691SOL    HW134706   2.054   1.257   9.733  1.7463 -0.6274 -1.3922
 7691SOL    HW234707   2.035   1.308   9.874 -0.0346  1.0266 -1.6955
 7692SOL     OW34708   0.771   2.750   5.835  0.5059 -0.3452 -0.5886
 7692SOL    HW134709   0.781   2.661   5.868  0.1543 -0.6980 -1.4246
 7692SOL    HW234710   0.712   2.782   5.903  0.9269  0.1392 -0.4565
 7693SOL     OW34711   3.783   1.426  11.820 -0.1117  0.6934 -0.2587
 7693SOL    HW134712   3.840   1.466  11.755  1.7285  0.1133  1.0007
 7693SOL    HW234713   3.769   1.497  11.884 -1.0015  1.5102 -1.3472
 7694SOL     OW34714   2.919   1.914  11.241  0.5159 -0.3875  0.3866
 7694SOL    HW134715   2.837   1.951  11.274 -0.2923 -1.1910 -0.7327
 7694SOL    HW234716   2.979   1.986  11.262 -0.4090  0.6421 -0.4580
 7695SOL     OW34717   3.968   3.365   1.687 -0.3528  0.0337 -0.8216
 7695SOL    HW134718   3.879   3.400   1.693 -0.0981  0.3617  1.0189
 7695SOL    HW234719   4.019   3.435   1.728 -0.6905 -1.2203  1.7065
 7696SOL     OW34720   3.732   0.093   2.771 -0.0055  0.1141 -0.0904
 7696SOL    HW134721   3.678   0.015   2.780 -2.4075  1.8082  0.2297
 7696SOL    HW234722   3.811   0.065   2.726  0.6756 -0.4968  1.4646
 7697SOL     OW34723   1.858   2.179  17.356  0.3761  0.4892  0.1852
 7697SOL    HW134724   1.773   2.142  17.330  0.2200  0.5985  0.5329
 7697SOL    HW234725   1.885   2.206  17.268 -1.3529 -0.5592 -0.6772
 7698SOL     OW34726   2.056   1.207   6.598 -0.0981  0.0772 -0.1003
 7698SOL    HW134727   2.071   1.191   6.691 -0.0049 -1.8292 -0.4412
 7698SOL    HW234728   1.983   1.151   6.572  1.2958 -0.9263 -1.8754
 7699SOL     OW34729   3.253   2.393  11.650 -0.2829 -0.3155  0.4764
 7699SOL    HW134730   3.272   2.480  11.687 -0.6791 -1.3069  2.9821
 7699SOL    HW234731   3.336   2.349  11.668  0.2819  1.4419  2.1602
 7700SOL     OW34732   2.004   2.638  13.938 -0.0692 -0.3316 -0.3416
 7700SOL    HW134733   1.914   2.632  13.905 -0.3747 -2.7201  0.8576
 7700SOL    HW234734   2.035   2.555  13.901 -0.8744  0.7146 -3.3060
 7701SOL     OW34735   0.210   0.968   2.152  0.2299  0.0945 -0.2565
 7701SOL    HW134736   0.222   0.875   2.169 -1.8857 -0.1992 -0.3884
 7701SOL    HW234737   0.300   0.989   2.128  0.5378 -1.2017 -0.2395
 7702SOL     OW34738   0.029   2.722   3.598  0.5112  0.2746  0.2325
 7702SOL    HW134739   4.731   2.740   3.685  0.0482  0.3624  0.0177
 7702SOL    HW234740   4.724   2.785   3.541 -1.6209 -0.3119  1.2000
 7703SOL     OW34741   1.604   2.589  11.126 -0.3925 -0.0379  0.0653
 7703SOL    HW134742   1.586   2.568  11.034  0.9343  1.3034 -0.5065
 7703SOL    HW234743   1.686   2.639  11.121 -1.2038  1.3950  1.4252
 7704SOL     OW34744   4.282   2.821   7.723 -0.6848 -0.8509 -0.4048
 7704SOL    HW134745   4.225   2.895   7.702  3.2901  2.0914 -1.0036
 7704SOL    HW234746   4.295   2.821   7.818 -0.6871 -2.3193 -0.4010
 7705SOL     OW34747   1.595   4.538   9.485  0.6845  0.1779 -0.3561
 7705SOL    HW134748   1.543   4.541   9.565  2.1249  1.1686  0.5514
 7705SOL    HW234749   1.661   4.475   9.515 -0.4811 -0.1894  1.4442
 7706SOL     OW34750   1.574   0.326   3.171  0.3697 -0.0197 -0.5032
 7706SOL    HW134751   1.653   0.363   3.131 -0.1674 -0.6824 -2.1698
 7706SOL    HW234752   1.616   0.292   3.250  1.5359  2.6208 -0.0062
 7707SOL     OW34753   0.353   3.998   1.256 -0.2589 -0.0693 -0.0660
 7707SOL    HW134754   0.382   4.051   1.331  0.5660 -1.1133  0.3440
 7707SOL    HW234755   0.361   4.058   1.182  0.1574 -0.5949 -0.4412
 7708SOL     OW34756   2.221   4.232   5.593  0.3932  0.4527 -0.1405
 7708SOL    HW134757   2.159   4.291   5.549 -0.1000 -0.4559 -0.6626
 7708SOL    HW234758   2.290   4.297   5.607  0.5270  0.5437 -1.1692
 7709SOL     OW34759   3.916   2.536  16.222  0.7184 -0.1320 -0.2316
 7709SOL    HW134760   3.826   2.520  16.193 -0.1061  0.7121  1.8661
 7709SOL    HW234761   3.910   2.621  16.178 -3.1362  0.7968  2.0717
 7710SOL     OW34762   4.397   2.222   1.891 -0.1807  0.1395 -0.1195
 7710SOL    HW134763   4.455   2.158   1.850 -0.8456 -1.2488  1.0969
 7710SOL    HW234764   4.436   2.225   1.979 -1.9965  0.8957  0.6667
 7711SOL     OW34765   3.401   3.078   6.622 -0.4773 -0.2184  0.1062
 7711SOL    HW134766   3.463   3.049   6.689 -0.8445 -1.3398 -0.0394
 7711SOL    HW234767   3.390   2.999   6.570 -0.0811  0.3199 -0.7927
 7712SOL     OW34768   1.176   1.778   5.686 -0.3582 -0.4906  0.2169
 7712SOL    HW134769   1.179   1.864   5.644 -1.3239 -0.8690 -0.6352
 7712SOL    HW234770   1.254   1.773   5.740 -1.3146 -0.5785  1.5886
 7713SOL     OW34771   1.711   2.764   2.974  0.1184 -0.0083  0.3397
 7713SOL    HW134772   1.739   2.690   3.027 -1.5171 -0.9339 -0.0809
 7713SOL    HW234773   1.772   2.827   3.012  0.7335 -0.0065 -0.6485
 7714SOL     OW34774   3.518   2.033   6.514  0.0818  0.0379  0.1153
 7714SOL    HW134775   3.531   1.986   6.596  1.3048 -1.7876 -1.1035
 7714SOL    HW234776   3.481   1.963   6.460  1.8038 -0.7957  0.0065
 7715SOL     OW34777   2.662   3.730   3.441  0.0175 -0.1464 -0.4194
 7715SOL    HW134778   2.583   3.702   3.394 -1.9757  1.3526  2.0274
 7715SOL    HW234779   2.688   3.808   3.393  0.6030  0.5300  1.0180
 7716SOL     OW34780   3.446   1.023   3.700 -0.1046 -0.8152 -0.1444
 7716SOL    HW134781   3.438   1.035   3.794  0.6097 -0.8805 -0.0790
 7716SOL    HW234782   3.519   1.076   3.668 -0.0235 -0.2479  0.9887
 7717SOL     OW34783   0.286   1.446   2.918 -0.3722 -0.4419  0.2644
 7717SOL    HW134784   0.317   1.356   2.923  2.3877  0.6324  2.0314
 7717SOL    HW234785   0.236   1.444   2.836 -0.6789  0.3577  0.4376
 7718SOL     OW34786   3.445   3.569  14.547 -0.3456  0.3317 -0.0542
 7718SOL    HW134787   3.366   3.552  14.495 -1.1267 -1.3653  1.6868
 7718SOL    HW234788   3.503   3.581  14.472  1.7207 -1.1647  1.3170
 7719SOL     OW34789   1.105   4.492   6.952 -0.3931  0.3637  0.4230
 7719SOL    HW134790   1.095   4.538   7.036 -2.7081 -1.4111  1.1070
 7719SOL    HW234791   1.015   4.464   6.935  0.9303 -3.0436 -0.8744
 7720SOL     OW34792   4.294   3.186   7.502  0.2242 -0.3071 -0.0118
 7720SOL    HW134793   4.357   3.185   7.573 -0.2297  1.8682  0.4070
 7720SOL    HW234794   4.221   3.136   7.539 -0.0122  2.1890  2.8918
 7721SOL     OW34795   0.204   3.471  14.259 -0.2127  0.1449  0.4265
 7721SOL    HW134796   0.229   3.501  14.171 -1.2641 -2.6857 -0.8206
 7721SOL    HW234797   0.267   3.515  14.316 -1.1756  0.1018  1.5206
 7722SOL     OW34798   4.210   4.709   5.682 -0.0164 -0.1464 -0.1031
 7722SOL    HW134799   4.176   4.739   5.597 -1.6139  0.0896  0.6210
 7722SOL    HW234800   4.206   4.614   5.690  0.3398 -0.1628 -0.1244
 7723SOL     OW34801   1.520   1.324   2.784  0.8577 -0.3803 -0.3270
 7723SOL    HW134802   1.504   1.240   2.741 -1.2841 -0.8840  1.4416
 7723SOL    HW234803   1.432   1.355   2.805  0.0975 -2.4535 -0.4707
 7724SOL     OW34804   0.073   1.280   3.414  0.1402  0.0241  0.4117
 7724SOL    HW134805   4.738   1.339   3.396 -1.1218 -1.0358  2.1173
 7724SOL    HW234806   0.037   1.212   3.357  1.5397 -0.6390  0.3398
 7725SOL     OW34807   4.078   3.070   7.602 -0.4303  0.7355  0.8751
 7725SOL    HW134808   4.078   3.088   7.696 -1.7507 -0.9359  1.2018
 7725SOL    HW234809   3.997   3.021   7.585 -0.5461  1.3284 -0.2489
 7726SOL     OW34810   2.674   3.381  11.961  0.1147  0.1395 -1.1335
 7726SOL    HW134811   2.683   3.407  12.052  1.6870 -1.6987 -0.7578
 7726SOL    HW234812   2.690   3.463  11.915  2.6998  0.6311  0.6286
 7727SOL     OW34813   1.309   3.903   5.798  0.5825 -0.2135  0.0182
 7727SOL    HW134814   1.386   3.849   5.780  0.6679 -0.6533  1.7526
 7727SOL    HW234815   1.351   3.987   5.778 -0.9111  0.7677  1.0518
 7728SOL     OW34816   1.880   0.635   9.626  0.0248  0.3040  0.0258
 7728SOL    HW134817   1.800   0.601   9.666  0.9207 -1.3179  0.4719
 7728SOL    HW234818   1.904   0.712   9.678  0.5834 -0.2935  0.6601
 7729SOL     OW34819   2.570   3.563  10.682  0.0818 -0.0425  0.0562
 7729SOL    HW134820   2.640   3.524  10.735  0.1341 -0.6998 -0.4915
 7729SOL    HW234821   2.620   3.626  10.631 -0.0778 -1.1407 -1.4678
 7730SOL     OW34822   2.736   3.011   6.689 -0.9068 -0.0058  0.7395
 7730SOL    HW134823   2.779   3.051   6.613  1.9521 -4.1467  0.1916
 7730SOL    HW234824   2.657   3.062   6.703 -1.1876 -0.6064  1.3104
 7731SOL     OW34825   3.309   4.143  12.948 -0.5475 -0.0723  0.2762
 7731SOL    HW134826   3.243   4.148  12.879  0.1696 -0.3872 -0.4380
 7731SOL    HW234827   3.294   4.226  12.993  0.0257 -0.3306  0.9419
 7732SOL     OW34828   4.482   0.881   9.322 -0.1169  0.2625  0.0238
 7732SOL    HW134829   4.424   0.833   9.381  1.2431  0.3579  1.4448
 7732SOL    HW234830   4.561   0.895   9.373 -0.4863  2.9531 -0.1530
 7733SOL     OW34831   0.311   3.584   4.397 -0.1871 -0.0326 -0.0227
 7733SOL    HW134832   0.403   3.561   4.415 -0.6774 -1.6589  0.4109
 7733SOL    HW234833   0.327   3.620   4.310  0.8773 -1.1809 -0.3068
 7734SOL     OW34834   2.245   2.772   3.238  0.3908 -0.4160 -0.4604
 7734SOL    HW134835   2.322   2.715   3.247  1.5880  1.1501 -0.8120
 7734SOL    HW234836   2.255   2.835   3.310  4.0858 -2.4778  0.8288
 7735SOL     OW34837   1.250   1.884  17.336 -0.2647 -0.2236  0.1828
 7735SOL    HW134838   1.191   1.947  17.375  3.7194  2.6397  1.5683
 7735SOL    HW234839   1.241   1.916  17.246 -0.9193 -2.8125 -0.6976
 7736SOL     OW34840   4.203   2.680   4.009  0.4092  0.9437 -0.5875
 7736SOL    HW134841   4.145   2.604   4.007  0.9345  0.5514 -1.2001
 7736SOL    HW234842   4.167   2.732   3.938  1.3725  1.0234 -1.0171
 7737SOL     OW34843   2.742   0.270   6.335 -0.4211 -0.1914  0.3904
 7737SOL    HW134844   2.726   0.182   6.300  1.1309 -0.8700  1.3585
 7737SOL    HW234845   2.695   0.265   6.418 -0.6657  0.8110  0.3173
 7738SOL     OW34846   0.771   1.016  15.935 -0.4983  0.1092 -0.4758
 7738SOL    HW134847   0.845   1.076  15.931  0.4157 -0.8796  1.5888
 7738SOL    HW234848   0.689   1.066  15.927 -0.3103  0.1510 -2.0503
 7739SOL     OW34849   4.210   0.476  13.549 -0.2403 -0.2754 -0.5613
 7739SOL    HW134850   4.206   0.458  13.455  1.6252  2.6826 -1.2047
 7739SOL    HW234851   4.275   0.546  13.546  0.0226 -0.4520  1.1458
 7740SOL     OW34852   0.231   2.494   2.447  0.3840 -0.4737  0.1273
 7740SOL    HW134853   0.146   2.506   2.405  0.5495  0.9223  0.2084
 7740SOL    HW234854   0.200   2.438   2.519  0.5830 -1.6751 -0.7193
 7741SOL     OW34855   4.644   2.097   6.637  0.4228  0.1908  0.2247
 7741SOL    HW134856   4.684   2.020   6.597  1.1622 -0.2305  1.7935
 7741SOL    HW234857   4.666   2.166   6.574 -3.7595  1.7247  0.4111
 7742SOL     OW34858   4.652   4.564   7.150  0.0523  0.2157  0.3384
 7742SOL    HW134859   4.577   4.505   7.153  1.2361 -1.2522  0.6883
 7742SOL    HW234860   4.669   4.574   7.057 -1.5381  1.1953  0.1431
 7743SOL     OW34861   0.315   0.814  12.053 -0.3064 -0.5568  0.3564
 7743SOL    HW134862   0.385   0.777  11.998  1.3859  0.1198  2.0433
 7743SOL    HW234863   0.322   0.909  12.041  1.0033 -0.5143  1.4898
 7744SOL     OW34864   3.589   2.938  11.184 -0.4554 -0.3578  0.1186
 7744SOL    HW134865   3.598   2.875  11.255 -0.8392 -0.2151  0.2960
 7744SOL    HW234866   3.629   2.892  11.110  1.7571  1.5497  0.1610
 7745SOL     OW34867   3.963   3.048   5.083 -0.1006 -0.1996 -0.0469
 7745SOL    HW134868   3.911   3.105   5.025 -0.8808 -0.0479  0.7962
 7745SOL    HW234869   4.052   3.081   5.092 -0.3977  1.4202 -2.9070
 7746SOL     OW34870   4.609   4.659   7.750 -0.1647 -0.3408 -0.0343
 7746SOL    HW134871   4.517   4.682   7.765 -0.2868 -0.3521 -0.7775
 7746SOL    HW234872   4.619   4.735   7.693 -3.3806 -0.9942 -1.4537
 7747SOL     OW34873   0.570   3.142   5.272 -0.2100 -0.4895 -0.0542
 7747SOL    HW134874   0.556   3.049   5.287  2.9607 -0.8950  0.3095
 7747SOL    HW234875   0.595   3.173   5.359  0.9291  0.1428 -0.6134
 7748SOL     OW34876   4.525   0.956   8.787 -0.5862 -0.3998  0.4356
 7748SOL    HW134877   4.444   0.992   8.752 -0.6296 -0.3392  0.5965
 7748SOL    HW234878   4.492   0.937   8.875 -0.0503  1.8417  1.1030
 7749SOL     OW34879   1.117   1.569   8.735 -0.4439  0.0504 -0.2569
 7749SOL    HW134880   1.039   1.555   8.681 -0.0583 -1.3124 -0.4661
 7749SOL    HW234881   1.186   1.548   8.671 -2.2995  2.8770 -3.1656
 7750SOL     OW34882   4.485   0.866   2.309  0.2779  0.5495 -0.1742
 7750SOL    HW134883   4.575   0.838   2.293 -0.4581 -2.9087  1.9256
 7750SOL    HW234884   4.468   0.865   2.215  1.8074  0.7906 -0.4525
 7751SOL     OW34885   0.379   2.325   2.133  0.6608 -0.0183  0.2813
 7751SOL    HW134886   0.457   2.293   2.178  0.3412  0.3811  1.1132
 7751SOL    HW234887   0.396   2.418   2.118 -1.0837 -0.1407 -2.5490
 7752SOL     OW34888   0.174   2.468   6.989 -0.1873  0.1019 -0.4807
 7752SOL    HW134889   0.133   2.477   6.903 -0.4070  0.2861 -0.3586
 7752SOL    HW234890   0.121   2.396   7.025 -0.0531 -0.4347 -1.3503
 7753SOL     OW34891   0.793   0.220  17.035  0.3015  0.0209 -0.0629
 7753SOL    HW134892   0.769   0.215  16.943 -1.2000 -1.8589  0.4552
 7753SOL    HW234893   0.756   0.301  17.070 -0.9407 -0.0649 -1.1871
 7754SOL     OW34894   3.280   1.845   8.823  0.4149 -0.4926 -0.2282
 7754SOL    HW134895   3.234   1.796   8.755  1.9724 -2.5792  0.1850
 7754SOL    HW234896   3.366   1.856   8.782  0.0294 -3.0906 -1.7537
 7755SOL     OW34897   2.542   2.370   6.462 -0.0306 -0.6699  0.5007
 7755SOL    HW134898   2.532   2.399   6.372 -3.1028 -1.5622  0.5295
 7755SOL    HW234899   2.552   2.275   6.449 -1.9039 -0.7370 -0.4799
 7756SOL     OW34900   0.536   3.722   1.616  0.4875 -0.5698 -0.0640
 7756SOL    HW134901   0.556   3.726   1.523  0.1383  1.4248 -0.0478
 7756SOL    HW234902   0.571   3.636   1.641 -0.3951 -1.1292 -0.7274
 7757SOL     OW34903   3.602   2.806  14.489  0.7889  0.3902  0.5386
 7757SOL    HW134904   3.516   2.840  14.516  0.0240 -1.2145  0.1643
 7757SOL    HW234905   3.636   2.869  14.426  1.7351 -3.8942 -3.2332
 7758SOL     OW34906   1.828   1.720   7.355 -0.5168  0.4881  0.1777
 7758SOL    HW134907   1.775   1.791   7.391 -0.7070  0.2610  0.3477
 7758SOL    HW234908   1.901   1.719   7.416 -0.5170 -1.5096  0.1752
 7759SOL     OW34909   1.974   0.119   5.370 -0.1240 -0.0512  0.1006
 7759SOL    HW134910   2.000   0.192   5.426  1.1024 -0.2541 -0.1908
 7759SOL    HW234911   1.893   0.081   5.404 -0.2708 -0.8448 -1.1057
 7760SOL     OW34912   3.352   3.022   8.508  0.0796  0.3847 -0.3002
 7760SOL    HW134913   3.355   3.104   8.459 -0.4619  0.0677 -0.8714
 7760SOL    HW234914   3.422   3.022   8.573 -0.2651 -0.2834  0.0754
 7761SOL     OW34915   2.633   3.155   3.386 -0.4388  0.8398  0.3155
 7761SOL    HW134916   2.597   3.066   3.384 -3.7163  2.1708  0.4251
 7761SOL    HW234917   2.563   3.206   3.427 -0.3138  1.5259 -0.3372
 7762SOL     OW34918   2.455   0.766  16.052  0.2800 -0.0574 -0.5697
 7762SOL    HW134919   2.530   0.710  16.033 -0.2717 -0.4838 -1.5198
 7762SOL    HW234920   2.502   0.830  16.105 -2.1917  0.2298  1.2761
 7763SOL     OW34921   0.232   4.426   1.788 -0.1382  0.2341  0.4158
 7763SOL    HW134922   0.286   4.461   1.718 -0.3099 -0.6822 -0.1773
 7763SOL    HW234923   0.167   4.495   1.805  1.9955  2.5157 -0.7344
 7764SOL     OW34924   3.100   0.404  12.254 -0.2564  0.8010  0.1655
 7764SOL    HW134925   3.145   0.394  12.170 -3.4976  0.0854 -1.4591
 7764SOL    HW234926   3.063   0.492  12.252  1.7060  1.6284 -0.3666
 7765SOL     OW34927   4.685   2.413   2.582 -0.4104  0.2813  0.1589
 7765SOL    HW134928   4.651   2.494   2.620 -2.8518 -0.7362  0.1659
 7765SOL    HW234929   4.680   2.346   2.650  0.2017 -1.8477 -1.8920
 7766SOL     OW34930   1.600   4.374  16.994 -0.2417  0.5621 -0.0454
 7766SOL    HW134931   1.670   4.374  17.059 -2.9309 -0.2427  2.8047
 7766SOL    HW234932   1.527   4.398  17.051 -0.3369  0.4584 -0.1234
 7767SOL     OW34933   1.432   1.145   3.966 -0.0348 -0.5988  0.1184
 7767SOL    HW134934   1.520   1.108   3.955 -0.3265 -0.9083 -1.1889
 7767SOL    HW234935   1.394   1.142   3.879 -2.1265  1.2210  0.9913
 7768SOL     OW34936   3.790   4.669   3.389 -0.2366 -0.0310  0.1319
 7768SOL    HW134937   3.809   0.008   3.337 -2.2784  1.5633  1.7270
 7768SOL    HW234938   3.827   4.693   3.474 -2.1648 -2.0745  1.5647
 7769SOL     OW34939   1.853   0.156   6.820 -0.2907 -0.6234  0.0376
 7769SOL    HW134940   1.830   0.185   6.909 -3.0841 -0.3113 -0.7815
 7769SOL    HW234941   1.831   0.064   6.832  2.1085 -1.1561  0.3247
 7770SOL     OW34942   1.421   2.521   8.076  0.4552  0.6230  0.0975
 7770SOL    HW134943   1.387   2.432   8.086  1.3594  0.5805  2.5792
 7770SOL    HW234944   1.487   2.501   8.009  2.0563  0.7589  1.6563
 7771SOL     OW34945   4.733   1.600   4.738 -0.0207 -0.3139 -0.2087
 7771SOL    HW134946   4.733   1.562   4.826  1.7386  0.9540  0.3587
 7771SOL    HW234947   0.051   1.532   4.701  1.0527  0.8281 -0.6885
 7772SOL     OW34948   4.322   2.773  14.927 -0.5524 -0.0492 -0.2525
 7772SOL    HW134949   4.271   2.820  14.993  0.1826  0.0840  0.2222
 7772SOL    HW234950   4.408   2.814  14.938 -1.0702  0.6040  1.2541
 7773SOL     OW34951   2.781   0.014   6.226  0.2781  0.2391  0.1510
 7773SOL    HW134952   2.738   0.023   6.142 -0.5399  0.5267  0.5993
 7773SOL    HW234953   2.874   0.019   6.204 -0.1282  3.6093 -0.7456
 7774SOL     OW34954   4.052   3.215   3.110  0.2552 -0.4499 -0.6133
 7774SOL    HW134955   4.113   3.191   3.041 -1.2234 -3.3668 -0.9066
 7774SOL    HW234956   4.068   3.140   3.167 -1.0275 -0.6023 -0.4548
 7775SOL     OW34957   3.820   1.638  14.176  0.0641 -0.1909 -0.8091
 7775SOL    HW134958   3.756   1.616  14.244  1.4551 -1.0533  0.2348
 7775SOL    HW234959   3.774   1.687  14.109  2.5817  0.2103 -2.2503
 7776SOL     OW34960   4.087   4.507   2.736  0.2110 -0.7319  0.0682
 7776SOL    HW134961   4.060   4.463   2.817 -1.0660  2.2616  1.2788
 7776SOL    HW234962   4.006   4.551   2.710  2.5526  2.2487 -2.2070
 7777SOL     OW34963   2.191   2.778  12.944 -0.2449 -0.5449 -0.2617
 7777SOL    HW134964   2.280   2.812  12.930 -0.2997 -0.8996 -1.4689
 7777SOL    HW234965   2.149   2.768  12.859  3.0270 -0.8026 -1.8723
 7778SOL     OW34966   0.763   0.929   2.194 -0.0580 -0.4696 -0.3848
 7778SOL    HW134967   0.796   1.015   2.166 -0.3302 -0.0251  0.6426
 7778SOL    HW234968   0.806   0.869   2.134  2.0464  0.8397 -0.1744
 7779SOL     OW34969   1.523   4.341   7.659 -0.4521 -0.2470 -0.5911
 7779SOL    HW134970   1.561   4.281   7.723 -1.1228 -1.2444 -1.1232
 7779SOL    HW234971   1.446   4.291   7.630 -0.5608 -0.6897  0.4815
 7780SOL     OW34972   2.790   2.126   1.119 -0.2594 -0.1305 -0.4141
 7780SOL    HW134973   2.782   2.220   1.105 -0.1522 -0.1533 -0.6252
 7780SOL    HW234974   2.840   2.127   1.200  0.1108  0.6719 -0.6467
 7781SOL     OW34975   2.773   3.339  16.281  0.0784 -0.3153  0.1005
 7781SOL    HW134976   2.804   3.251  16.300 -0.1264 -0.7885 -1.6776
 7781SOL    HW234977   2.848   3.396  16.296  0.9753 -0.0131 -5.3400
 7782SOL     OW34978   0.518   2.413   2.477  0.1248  0.1238  0.3293
 7782SOL    HW134979   0.586   2.480   2.467 -0.0270 -0.0006 -1.4422
 7782SOL    HW234980   0.438   2.465   2.487 -1.9026 -2.9922  0.0931
 7783SOL     OW34981   3.648   1.914   8.994 -0.4325  0.2628 -0.4694
 7783SOL    HW134982   3.586   1.890   9.063  1.3838 -0.7380  0.8383
 7783SOL    HW234983   3.670   1.826   8.964 -0.8548 -0.1646  0.4623
 7784SOL     OW34984   3.734   1.241   9.492  0.3430 -0.4000 -0.1232
 7784SOL    HW134985   3.800   1.250   9.424  1.1500 -4.0563  0.1943
 7784SOL    HW234986   3.768   1.292   9.565 -1.1929 -1.8107  1.5950
 7785SOL     OW34987   1.163   1.259   6.201 -0.1443  0.3065  0.3963
 7785SOL    HW134988   1.074   1.248   6.234 -0.8726  2.0548 -0.9861
 7785SOL    HW234989   1.192   1.312   6.275  1.4412 -3.3023  2.3423
 7786SOL     OW34990   1.874   3.740   4.030 -0.0546  0.1407 -0.4720
 7786SOL    HW134991   1.811   3.695   3.975 -0.3935 -0.3742  0.3409
 7786SOL    HW234992   1.814   3.775   4.096  1.6368 -0.2341  1.2682
 7787SOL     OW34993   2.521   4.219  11.628 -0.6694 -0.0578  0.3894
 7787SOL    HW134994   2.493   4.136  11.665  0.4770 -0.4510  0.3512
 7787SOL    HW234995   2.613   4.213  11.654 -0.9180 -2.4739  0.6885
 7788SOL     OW34996   2.410   4.659   7.408 -0.3790  0.8001 -0.3185
 7788SOL    HW134997   2.400   0.008   7.371 -0.6438  0.8912 -0.0372
 7788SOL    HW234998   2.445   4.603   7.339  0.2845  0.4881  0.2747
 7789SOL     OW34999   2.457   4.192  16.369  0.6527  0.1120  0.6788
 7789SOL    HW135000   2.372   4.216  16.331  1.2123  0.4036 -0.3739
 7789SOL    HW235001   2.494   4.275  16.400  0.4371  0.5439 -0.2294
 7790SOL     OW35002   1.528   4.704  10.825  0.2483  0.4186  0.2258
 7790SOL    HW135003   1.508   0.024  10.897  0.1578  1.1782 -0.4269
 7790SOL    HW235004   1.470   4.631  10.849  1.3900 -0.9072 -1.0455
 7791SOL     OW35005   3.788   3.597   5.658 -0.0804 -0.3579  0.4306
 7791SOL    HW135006   3.872   3.552   5.667  0.7208  0.7879 -1.3398
 7791SOL    HW235007   3.746   3.525   5.611 -2.3344  0.9390  0.4684
 7792SOL     OW35008   3.488   1.577   5.240  0.2078 -0.0750  0.5445
 7792SOL    HW135009   3.452   1.504   5.289  2.2836 -2.2394 -1.1945
 7792SOL    HW235010   3.570   1.597   5.285 -0.7052  0.9813  1.7472
 7793SOL     OW35011   1.025   2.138   5.441 -0.0611 -0.0625 -0.2446
 7793SOL    HW135012   0.999   2.229   5.423  2.2948  0.5552 -0.4928
 7793SOL    HW235013   1.095   2.154   5.377  0.9598 -1.1021  0.6229
 7794SOL     OW35014   2.424   3.582   4.128  0.3085 -0.1613 -0.6391
 7794SOL    HW135015   2.507   3.540   4.149 -0.6925 -1.4940  0.6127
 7794SOL    HW235016   2.382   3.585   4.214 -0.2583 -0.3129 -0.9097
 7795SOL     OW35017   0.978   0.965  17.101 -0.5611  0.1152  0.0075
 7795SOL    HW135018   0.979   0.878  17.142 -0.8075  0.6316  1.1292
 7795SOL    HW235019   1.020   1.017  17.170  0.1183  0.7927 -0.9054
 7796SOL     OW35020   4.169   1.059   3.042  0.9956  0.0431 -0.0806
 7796SOL    HW135021   4.099   1.085   3.102  1.7309  0.5674  0.5453
 7796SOL    HW235022   4.142   0.971   3.016 -1.7019  0.7485  0.3603
 7797SOL     OW35023   3.414   2.923   4.405 -0.2104 -0.1833 -0.1905
 7797SOL    HW135024   3.389   2.962   4.489  0.4971 -0.5656  0.2052
 7797SOL    HW235025   3.394   2.999   4.350  2.4111  1.4538  1.0855
 7798SOL     OW35026   1.063   1.820   2.404 -0.0542 -0.1587  0.9976
 7798SOL    HW135027   1.108   1.738   2.383  0.5802  0.9243 -1.8334
 7798SOL    HW235028   1.004   1.788   2.472  0.5762 -0.4343  1.4210
 7799SOL     OW35029   4.199   4.609   4.502 -0.0167  0.1193  0.0538
 7799SOL    HW135030   4.225   4.538   4.444  1.7420  0.8591 -0.0571
 7799SOL    HW235031   4.127   4.657   4.459 -0.6059  0.3037  1.2345
 7800SOL     OW35032   4.194   3.514   2.699  0.2150  0.1227 -0.1212
 7800SOL    HW135033   4.215   3.434   2.650  0.7783  0.1149  0.1384
 7800SOL    HW235034   4.208   3.582   2.633  0.3272  0.5218  0.3176
 7801SOL     OW35035   4.502   3.094   1.415 -0.3760 -0.2077 -0.4066
 7801SOL    HW135036   4.572   3.032   1.432  0.5338  0.9407  0.0225
 7801SOL    HW235037   4.539   3.156   1.352 -2.1160  0.0084 -1.2215
 7802SOL     OW35038   4.274   1.724   6.076  0.2236 -0.4049  0.2203
 7802SOL    HW135039   4.256   1.705   5.984  0.8867 -1.4756  0.3222
 7802SOL    HW235040   4.327   1.804   6.078  1.8757 -1.5097 -0.1653
 7803SOL     OW35041   0.620   2.145   4.550  0.2897 -0.4742 -0.0723
 7803SOL    HW135042   0.542   2.201   4.544 -1.1163 -2.4241 -0.2819
 7803SOL    HW235043   0.602   2.117   4.640  0.8996 -0.9012 -0.0862
 7804SOL     OW35044   3.939   0.193  17.724 -0.2023 -0.7176  0.3195
 7804SOL    HW135045   3.984   0.120  17.681  2.1336 -1.0708  3.4080
 7804SOL    HW235046   3.870   0.155   0.024 -0.2846 -1.6416 -0.4499
 7805SOL     OW35047   4.097   2.167   3.071 -0.1018  0.1567  0.2935
 7805SOL    HW135048   4.104   2.263   3.078  4.4344 -0.3041  2.0005
 7805SOL    HW235049   4.113   2.165   2.976  1.4301  0.3663  0.5494
 7806SOL     OW35050   3.711   0.840   3.471 -0.6186 -0.5318  0.4552
 7806SOL    HW135051   3.731   0.856   3.563  3.6996 -2.3582 -0.1585
 7806SOL    HW235052   3.622   0.809   3.488 -0.6980 -0.4304  0.2317
 7807SOL     OW35053   1.809   4.201  14.628 -0.0610  0.2705  0.0643
 7807SOL    HW135054   1.843   4.113  14.611  1.9694  1.3309 -1.2826
 7807SOL    HW235055   1.723   4.198  14.586  0.5594  0.6850 -1.2052
 7808SOL     OW35056   4.369   3.720   3.970 -0.3787 -0.1545  0.3804
 7808SOL    HW135057   4.301   3.765   3.920 -1.3884 -0.2366  1.6733
 7808SOL    HW235058   4.405   3.653   3.912 -0.4676  0.5524 -0.4920
 7809SOL     OW35059   2.110   3.783   8.640  0.2317 -0.3809 -0.0229
 7809SOL    HW135060   2.127   3.831   8.720  0.6837  0.4221 -0.6052
 7809SOL    HW235061   2.106   3.695   8.677 -0.5095  0.3530  1.6352
 7810SOL     OW35062   3.080   2.904   3.561 -0.1910  0.6715  0.1991
 7810SOL    HW135063   3.028   2.984   3.551  1.2019  1.2078 -2.6678
 7810SOL    HW235064   3.002   2.856   3.589  0.0586  0.1280 -0.0467
 7811SOL     OW35065   1.918   2.745   5.974 -0.0405 -0.5743 -0.0064
 7811SOL    HW135066   1.966   2.743   6.057 -1.5895  2.6912  0.9403
 7811SOL    HW235067   1.994   2.774   5.924  0.5820 -0.0713  1.2348
 7812SOL     OW35068   3.310   0.777   5.818 -0.2493 -0.2329  0.4606
 7812SOL    HW135069   3.267   0.710   5.871  1.6174 -0.5809  1.5467
 7812SOL    HW235070   3.360   0.714   5.766  0.0823  1.5626 -1.3870
 7813SOL     OW35071   1.470   3.801   6.442  0.0195 -0.2656 -0.4395
 7813SOL    HW135072   1.381   3.836   6.447 -0.3318 -1.1736 -0.3399
 7813SOL    HW235073   1.513   3.875   6.484 -0.0608 -0.0325 -0.7683
 7814SOL     OW35074   0.129   3.431   5.171  0.1615  0.3909  0.4214
 7814SOL    HW135075   0.196   3.456   5.107 -0.0973  1.5606  0.6198
 7814SOL    HW235076   0.093   3.345   5.146  2.1181 -0.2883 -0.0480
 7815SOL     OW35077   1.131   0.659  16.766  0.5663 -0.4871  0.2222
 7815SOL    HW135078   1.085   0.605  16.701  0.5591 -1.1501  0.7763
 7815SOL    HW235079   1.160   0.593  16.828  1.4449 -0.5659 -0.2666
 7816SOL     OW35080   0.579   0.697   8.121  0.6564 -0.1123 -0.2733
 7816SOL    HW135081   0.610   0.637   8.188 -1.2747 -0.1758  0.5820
 7816SOL    HW235082   0.592   0.652   8.037  0.4024 -1.9135  0.6458
 7817SOL     OW35083   1.707   0.084   2.854 -0.2082  0.3033 -0.1779
 7817SOL    HW135084   1.754   0.074   2.771  1.5782  0.0366  0.8621
 7817SOL    HW235085   1.760   0.149   2.901 -1.8604 -0.0666  2.1902
 7818SOL     OW35086   1.356   1.747  13.667  0.1573 -0.0661  0.6671
 7818SOL    HW135087   1.437   1.742  13.718  1.3835  1.2996 -1.1772
 7818SOL    HW235088   1.363   1.687  13.594  0.3428  1.7900 -0.8405
 7819SOL     OW35089   4.649   2.886   4.259  0.5557  0.0985 -0.0676
 7819SOL    HW135090   4.629   2.816   4.196  0.4348  0.8150 -0.8210
 7819SOL    HW235091   4.600   2.954   4.212  0.1274  0.8893  1.5423
 7820SOL     OW35092   2.912   1.814   0.568  0.3429  0.2500 -0.6611
 7820SOL    HW135093   2.999   1.798   0.532 -0.0578  0.4104 -1.7127
 7820SOL    HW235094   2.870   1.731   0.545  0.9314 -0.2717  0.1800
 7821SOL     OW35095   2.887   2.630  15.640 -0.2632 -0.2064 -0.1766
 7821SOL    HW135096   2.795   2.637  15.614 -0.9124 -1.4718  1.7335
 7821SOL    HW235097   2.922   2.614  15.552  1.1956 -2.9758  0.9015
 7822SOL     OW35098   3.580   3.478  12.107 -0.0785  0.6148 -0.1186
 7822SOL    HW135099   3.524   3.427  12.048 -1.3126  0.8692  0.8447
 7822SOL    HW235100   3.626   3.413  12.159 -0.8408  1.0223  1.0622
 7823SOL     OW35101   3.505   1.632  17.692  0.2429 -0.9389  0.5503
 7823SOL    HW135102   3.595   1.666  17.686 -0.4614  0.9144  0.3089
 7823SOL    HW235103   3.463   1.692  17.631  1.3766 -0.3306  0.3687
 7824SOL     OW35104   4.026   4.000   2.487 -0.0719 -0.2282 -0.1722
 7824SOL    HW135105   3.949   4.052   2.462 -1.4318 -1.9739  0.4069
 7824SOL    HW235106   4.077   4.060   2.543 -0.3097 -0.6080  0.4494
 7825SOL     OW35107   0.305   0.046   2.742  0.1750 -0.1653  0.4928
 7825SOL    HW135108   0.210   0.049   2.746  0.1167  0.0631 -1.4236
 7825SOL    HW235109   0.317   4.690   2.738  0.9158  0.1486 -4.6657
 7826SOL     OW35110   1.835   0.121   2.608  0.0329  0.0031 -0.1410
 7826SOL    HW135111   1.930   0.127   2.611  0.2678 -3.7766 -0.6365
 7826SOL    HW235112   1.808   0.118   2.516  0.3508 -0.7460 -0.2066
 7827SOL     OW35113   1.242   0.297   7.421  0.6936  0.3656  0.1282
 7827SOL    HW135114   1.212   0.292   7.330  1.5584 -0.8191 -0.0928
 7827SOL    HW235115   1.236   0.204   7.443 -0.9353  0.2943 -0.5842
 7828SOL     OW35116   0.135   4.249   8.489  0.1187  0.2978  0.5934
 7828SOL    HW135117   0.211   4.231   8.545 -0.6558  1.1678  1.9184
 7828SOL    HW235118   0.103   4.163   8.466 -0.6217  0.7056  0.1094
 7829SOL     OW35119   3.704   2.639   7.511 -0.7348  0.0812 -0.2911
 7829SOL    HW135120   3.671   2.587   7.584 -0.7668 -0.3935 -0.6354
 7829SOL    HW235121   3.664   2.724   7.526 -0.6036  0.6638 -3.2772
 7830SOL     OW35122   2.218   2.022   9.053  0.5161  0.2903 -0.2564
 7830SOL    HW135123   2.300   1.988   9.089  0.0608  0.9246  1.3915
 7830SOL    HW235124   2.148   1.958   9.065 -0.3859  1.3707  0.2907
 7831SOL     OW35125   3.843   0.479   8.153  0.1763 -0.1183 -0.7714
 7831SOL    HW135126   3.912   0.417   8.128 -0.0808 -0.8430  0.3148
 7831SOL    HW235127   3.898   0.546   8.195 -1.6194  1.3935 -0.8431
 7832SOL     OW35128   2.761   3.075   6.978  0.3354  0.0358  0.3908
 7832SOL    HW135129   2.801   2.998   7.018 -0.6838 -1.0159 -0.6122
 7832SOL    HW235130   2.767   3.058   6.884 -1.2010 -0.9693  0.4803
 7833SOL     OW35131   1.862   3.156   5.111 -0.2177  0.3666  0.2236
 7833SOL    HW135132   1.856   3.252   5.109 -0.1291  0.3576 -0.4126
 7833SOL    HW235133   1.778   3.128   5.075 -0.1445 -0.0095  0.3460
 7834SOL     OW35134   1.199   3.081   5.387  0.3474 -0.1317 -0.5995
 7834SOL    HW135135   1.215   3.040   5.472  0.2711 -0.6224 -0.8202
 7834SOL    HW235136   1.206   3.002   5.332 -1.8334 -1.2990  0.8255
 7835SOL     OW35137   2.645   3.099  11.894  0.0806  0.0739 -0.4982
 7835SOL    HW135138   2.621   3.191  11.896  1.2732  0.3032  2.6490
 7835SOL    HW235139   2.713   3.093  11.827  1.0329  2.0486  0.3171
 7836SOL     OW35140   2.122   4.731   3.784  0.2438 -0.2360  0.8878
 7836SOL    HW135141   2.104   4.637   3.776 -1.9139  0.3437 -0.9696
 7836SOL    HW235142   2.096   0.025   3.698  0.5779  1.7509  1.5548
 7837SOL     OW35143   4.258   1.268   7.432  0.2807 -0.4050  0.5200
 7837SOL    HW135144   4.330   1.222   7.474  1.4317 -2.1174 -3.3496
 7837SOL    HW235145   4.304   1.315   7.363 -1.8491 -1.1785 -1.4453
 7838SOL     OW35146   0.415   0.889   8.188 -0.0356 -0.3190  0.9611
 7838SOL    HW135147   0.383   0.817   8.242 -0.5078  0.1087  1.2598
 7838SOL    HW235148   0.470   0.845   8.124 -1.9902  1.1746 -1.7201
 7839SOL     OW35149   2.770   0.388   2.872  0.6009  0.0044 -0.0507
 7839SOL    HW135150   2.697   0.377   2.810  1.3010 -0.9845 -0.6841
 7839SOL    HW235151   2.727   0.407   2.956 -2.1903 -0.7292 -1.3016
 7840SOL     OW35152   3.145   2.193   2.281  0.4981 -0.6211 -0.5451
 7840SOL    HW135153   3.087   2.209   2.355  2.6996 -3.9774  1.9236
 7840SOL    HW235154   3.232   2.233   2.289  0.9187 -1.6872  0.2706
 7841SOL     OW35155   2.344   0.081   3.318 -0.3022 -0.2814  0.7449
 7841SOL    HW135156   2.271   0.039   3.363 -1.4686 -0.3506 -1.2396
 7841SOL    HW235157   2.388   0.004   3.283  1.3339  0.8097  0.4086
 7842SOL     OW35158   3.000   1.877   3.442  0.1861 -0.4153 -0.5783
 7842SOL    HW135159   2.984   1.875   3.536 -0.8397 -1.5445 -0.7806
 7842SOL    HW235160   2.976   1.964   3.409 -0.4718 -0.3567  0.0454
 7843SOL     OW35161   1.884   4.223  14.899  0.0145  0.0041 -0.3098
 7843SOL    HW135162   1.825   4.243  14.971  1.0947  1.4120  0.1821
 7843SOL    HW235163   1.837   4.255  14.823 -0.4476 -2.0093 -0.8653
 7844SOL     OW35164   2.701   4.279   7.105  0.2316  0.3491 -0.4750
 7844SOL    HW135165   2.673   4.328   7.028  0.0604  1.3345  0.2055
 7844SOL    HW235166   2.797   4.275   7.106  0.2375  0.2228 -1.6709
 7845SOL     OW35167   0.532   0.450  11.789 -0.1113 -0.3575  0.2602
 7845SOL    HW135168   0.487   0.384  11.738 -0.5700  0.3214 -0.2203
 7845SOL    HW235169   0.609   0.466  11.735 -0.8041  1.6555 -0.1409
 7846SOL     OW35170   4.552   4.380   4.879  0.0778  0.8275  0.2688
 7846SOL    HW135171   4.600   4.306   4.916  0.4599  1.5900  1.2730
 7846SOL    HW235172   4.573   4.363   4.787  0.5135  1.0139  0.3345
 7847SOL     OW35173   0.122   2.026   2.431  0.1096 -0.0629 -0.0800
 7847SOL    HW135174   0.140   1.946   2.382 -1.7162 -0.5881  0.0927
 7847SOL    HW235175   0.201   2.033   2.484  0.0409 -0.7887  0.1204
 7848SOL     OW35176   3.084   3.640   0.152 -0.0957  0.3602 -0.3582
 7848SOL    HW135177   3.055   3.570   0.092  0.8643 -0.8661  0.6103
 7848SOL    HW235178   3.027   3.631   0.229  0.6334 -2.1325 -0.1202
 7849SOL     OW35179   0.241   4.595  16.031  0.4543  0.7023 -0.2976
 7849SOL    HW135180   0.155   4.623  16.060  1.2489  1.0513  1.7244
 7849SOL    HW235181   0.227   4.557  15.944 -0.2939  2.3280 -0.8890
 7850SOL     OW35182   1.700   3.392   5.164 -0.3443  0.1094  0.4379
 7850SOL    HW135183   1.770   3.441   5.121  0.0341 -0.5586  0.2904
 7850SOL    HW235184   1.645   3.377   5.088 -1.3434  0.6960  1.0435
 7851SOL     OW35185   1.149   0.349   3.891 -0.2761  0.1746 -0.2797
 7851SOL    HW135186   1.185   0.266   3.860  1.3691  0.9643 -0.4978
 7851SOL    HW235187   1.058   0.346   3.860 -0.1172 -0.1518 -0.7182
 7852SOL     OW35188   0.428   4.465   8.769 -0.3080 -0.4265  0.1698
 7852SOL    HW135189   0.399   4.538   8.715 -0.5729 -0.5977  0.0843
 7852SOL    HW235190   0.524   4.469   8.765 -0.3381 -0.3607 -0.3992
 7853SOL     OW35191   4.389   1.279   1.679 -0.3777 -0.0367 -0.2319
 7853SOL    HW135192   4.400   1.245   1.590  2.2830  1.7249 -0.6004
 7853SOL    HW235193   4.316   1.232   1.718 -0.6456  0.2675 -0.3575
 7854SOL     OW35194   2.511   3.400   7.732 -0.0786  0.6117  0.3230
 7854SOL    HW135195   2.474   3.381   7.818 -2.7051  1.8526 -0.5485
 7854SOL    HW235196   2.484   3.490   7.716 -0.5876 -0.0265 -2.4082
 7855SOL     OW35197   0.531   4.512   6.789 -0.2399  0.4173  0.5357
 7855SOL    HW135198   0.518   4.451   6.862  3.6916 -1.5065 -0.3463
 7855SOL    HW235199   0.573   4.449   6.730 -1.4748 -0.8314  0.9834
 7856SOL     OW35200   3.620   2.633   0.704  0.2069 -0.3435 -0.3834
 7856SOL    HW135201   3.552   2.618   0.769  0.7442 -1.0348  0.0136
 7856SOL    HW235202   3.692   2.624   0.766  0.7922 -2.8957 -1.4323
 7857SOL     OW35203   0.321   2.144  16.463 -0.0497 -0.0136  0.1634
 7857SOL    HW135204   0.352   2.077  16.403  0.2508 -1.3035  1.7472
 7857SOL    HW235205   0.364   2.221  16.427  1.4146  0.2083  2.3704
 7858SOL     OW35206   3.756   1.489   5.766  0.2840  0.5036 -0.5652
 7858SOL    HW135207   3.697   1.421   5.797 -0.1195  0.9737 -0.3001
 7858SOL    HW235208   3.703   1.569   5.766  0.6250  0.7224  1.6909
 7859SOL     OW35209   3.419   0.338   7.788  0.1258 -0.1969  0.0968
 7859SOL    HW135210   3.388   0.425   7.815  1.6312  0.7865 -1.4004
 7859SOL    HW235211   3.355   0.312   7.722  1.3059 -0.8669 -0.7699
 7860SOL     OW35212   0.043   2.050   6.879  0.1264 -0.2795  0.0856
 7860SOL    HW135213   4.715   2.081   6.818 -0.3442  2.1867  1.8560
 7860SOL    HW235214   0.102   2.009   6.816 -1.1549  1.6106 -2.3324
 7861SOL     OW35215   2.349   3.470   8.907 -0.4775  0.2800  0.0732
 7861SOL    HW135216   2.332   3.377   8.895  1.0788 -0.0797  0.6372
 7861SOL    HW235217   2.272   3.505   8.862 -1.2185 -0.5008  0.7252
 7862SOL     OW35218   1.581   1.987   5.588  0.0517 -0.0955  0.0694
 7862SOL    HW135219   1.634   1.981   5.667 -2.0521 -1.4945  1.3524
 7862SOL    HW235220   1.592   1.896   5.560 -2.7299 -0.1725 -0.7196
 7863SOL     OW35221   0.432   1.192   9.416  0.0559 -0.1166  0.2120
 7863SOL    HW135222   0.512   1.244   9.424  0.2402 -0.2505 -0.6715
 7863SOL    HW235223   0.464   1.102   9.412  0.6103  0.0909 -0.1145
 7864SOL     OW35224   0.331   2.887   8.538  0.2575 -0.1370  0.4811
 7864SOL    HW135225   0.362   2.831   8.467 -0.5293  1.8040 -1.3909
 7864SOL    HW235226   0.377   2.971   8.533 -0.3730  0.1846  0.1212
 7865SOL     OW35227   4.707   4.369   5.301  0.6110  0.5794 -0.1999
 7865SOL    HW135228   0.002   4.457   5.321  0.3056  0.8269 -0.7741
 7865SOL    HW235229   4.622   4.368   5.344  1.2617 -0.3827  1.0418
 7866SOL     OW35230   2.758   0.670  13.838  0.0664 -0.0026  0.3465
 7866SOL    HW135231   2.731   0.597  13.893  1.6838 -1.8182 -1.2899
 7866SOL    HW235232   2.806   0.626  13.769  1.9499  0.5623  1.3011
 7867SOL     OW35233   1.949   0.776   7.316 -0.0269 -0.3118  0.4406
 7867SOL    HW135234   2.004   0.853   7.328 -0.6280  0.4231 -1.5527
 7867SOL    HW235235   1.893   0.791   7.393  1.7396  1.5499  1.3598
 7868SOL     OW35236   3.465   2.383  11.382 -0.5556  0.8376  0.3678
 7868SOL    HW135237   3.458   2.479  11.382  1.3150  0.9522  2.2575
 7868SOL    HW235238   3.496   2.365  11.470 -0.1485  2.5913  0.5816
 7869SOL     OW35239   4.054   2.129   6.814  0.2863  0.3818  0.2593
 7869SOL    HW135240   4.104   2.210   6.823 -2.7496  2.3135 -0.0679
 7869SOL    HW235241   4.084   2.084   6.892 -1.3044  1.3796  1.4564
 7870SOL     OW35242   2.323   3.937  13.952  0.2224  0.3559 -0.5674
 7870SOL    HW135243   2.403   3.917  13.905  0.4127  1.3241 -0.6599
 7870SOL    HW235244   2.259   3.871  13.924  0.4302 -0.0526 -0.0888
 7871SOL     OW35245   2.388   4.100   7.996  0.1501  0.1694  0.6280
 7871SOL    HW135246   2.318   4.053   8.041  0.5175 -0.0684  0.9459
 7871SOL    HW235247   2.458   4.076   8.057 -1.1074  0.5184  2.2067
 7872SOL     OW35248   3.479   1.090   9.501  0.1842 -0.1520  0.3782
 7872SOL    HW135249   3.564   1.134   9.503 -0.5824  1.3239  0.6508
 7872SOL    HW235250   3.487   1.051   9.415 -1.6795 -1.5330  0.8341
 7873SOL     OW35251   4.026   2.669   8.775 -0.6282 -0.2629  0.1962
 7873SOL    HW135252   4.066   2.749   8.739 -0.9527 -0.1892 -0.0028
 7873SOL    HW235253   4.073   2.605   8.722 -0.3944 -0.0303  0.1221
 7874SOL     OW35254   4.312   1.906  16.076 -0.1221  0.2264  0.5508
 7874SOL    HW135255   4.290   1.961  16.001 -1.2404 -1.9106 -0.6998
 7874SOL    HW235256   4.407   1.911  16.068 -0.3164 -0.9513 -2.5259
 7875SOL     OW35257   3.523   3.196   1.522 -0.3036  0.0263 -0.6849
 7875SOL    HW135258   3.538   3.261   1.591 -3.6599  0.2323 -0.1222
 7875SOL    HW235259   3.503   3.249   1.444 -1.2861  0.4970 -0.1129
 7876SOL     OW35260   3.651   1.023   7.992  0.1706  0.1177 -0.6920
 7876SOL    HW135261   3.611   0.940   8.016  1.4052 -1.0391 -2.6397
 7876SOL    HW235262   3.657   1.074   8.073  1.3664  1.0667 -1.3689
 7877SOL     OW35263   0.397   1.442  14.930  0.3426 -0.5253 -0.0975
 7877SOL    HW135264   0.354   1.528  14.937 -0.9224 -0.9994 -1.9888
 7877SOL    HW235265   0.391   1.437  14.835 -2.7511 -1.5798  0.1403
 7878SOL     OW35266   4.156   0.624   1.489  0.2929 -0.1725 -0.1887
 7878SOL    HW135267   4.105   0.603   1.567 -0.1591 -1.5942 -0.8722
 7878SOL    HW235268   4.117   0.709   1.467  0.5878  0.3584  1.3033
 7879SOL     OW35269   2.129   2.571   6.300  0.2150  0.3042  0.0938
 7879SOL    HW135270   2.182   2.614   6.367  1.3163  1.3906 -1.4896
 7879SOL    HW235271   2.134   2.631   6.225  0.2795 -1.9541 -1.7028
 7880SOL     OW35272   1.809   2.544   2.478 -0.4109 -0.5369  0.1302
 7880SOL    HW135273   1.750   2.554   2.404 -2.7487  0.4469  2.1325
 7880SOL    HW235274   1.778   2.614   2.535 -0.6873 -0.8883  0.4083
 7881SOL     OW35275   2.300   4.569   7.626  0.0709 -0.0401  0.2293
 7881SOL    HW135276   2.359   4.605   7.692  0.6519 -1.0651  0.2801
 7881SOL    HW235277   2.352   4.597   7.550 -0.5276  2.8624  0.8942
 7882SOL     OW35278   4.011   2.788  14.535 -0.1613 -0.0059 -0.0183
 7882SOL    HW135279   4.102   2.797  14.564  0.0110  0.4078 -0.6954
 7882SOL    HW235280   4.019   2.800  14.441  0.9797  2.9705  0.4486
 7883SOL     OW35281   1.751   0.192  17.362 -0.0715 -0.3612 -0.1309
 7883SOL    HW135282   1.826   0.167  17.416  0.7847  0.4277 -0.9598
 7883SOL    HW235283   1.710   0.105  17.368  0.7459 -0.5546  2.4364
 7884SOL     OW35284   1.207   0.037   4.147  0.1251  0.3065  0.3335
 7884SOL    HW135285   1.165   4.690   4.158  1.2890 -0.2140  0.7970
 7884SOL    HW235286   1.284   0.012   4.095  1.1297  2.1010  0.9714
 7885SOL     OW35287   3.677   0.954   2.731  0.6763  0.1242 -0.7575
 7885SOL    HW135288   3.710   0.961   2.821 -0.8844  1.6367 -0.2728
 7885SOL    HW235289   3.732   1.014   2.682 -1.0698  0.8471 -1.8404
 7886SOL     OW35290   0.411   1.064   3.160 -0.1836 -0.1676 -0.1081
 7886SOL    HW135291   0.336   1.097   3.112  1.0975  2.0038 -0.6379
 7886SOL    HW235292   0.466   1.044   3.085 -0.0851  2.4436 -0.7537
 7887SOL     OW35293   2.349   3.893  14.224 -0.1200  0.0881  1.1813
 7887SOL    HW135294   2.275   3.833  14.218 -0.0611  0.1252  0.0667
 7887SOL    HW235295   2.368   3.911  14.132  0.1353 -1.3395  0.9470
 7888SOL     OW35296   4.381   4.548   8.999 -0.4679 -0.1762  0.2026
 7888SOL    HW135297   4.435   4.508   8.931 -0.1437 -0.4517  0.6221
 7888SOL    HW235298   4.456   4.585   9.045 -1.7655  0.0904  2.1182
 7889SOL     OW35299   0.605   1.502  15.498  0.1707  0.0671  0.3961
 7889SOL    HW135300   0.569   1.518  15.411  1.7609  0.8098 -0.1243
 7889SOL    HW235301   0.698   1.499  15.478  0.0876 -2.4194  0.3396
 7890SOL     OW35302   1.159   2.087  12.538  0.0125 -0.0773  0.6297
 7890SOL    HW135303   1.118   2.002  12.553 -0.1347 -0.2365 -0.6342
 7890SOL    HW235304   1.228   2.095  12.603  2.5196  0.3655 -2.0955
 7891SOL     OW35305   2.571   3.808   4.069  0.2814  0.5162  0.2046
 7891SOL    HW135306   2.508   3.737   4.058  0.9645 -0.1923  0.8648
 7891SOL    HW235307   2.513   3.883   4.056 -0.7906  0.1155  2.6633
 7892SOL     OW35308   4.552   3.398   3.505  0.1328  0.3909  0.1819
 7892SOL    HW135309   4.467   3.441   3.514  0.4074  0.3948  2.8009
 7892SOL    HW235310   4.562   3.386   3.411 -1.4845  0.6395 -0.0135
 7893SOL     OW35311   2.384   3.702   8.536 -0.4089  0.1179 -0.3458
 7893SOL    HW135312   2.305   3.723   8.586 -0.7989  0.5399 -1.1573
 7893SOL    HW235313   2.435   3.783   8.546 -1.2110  0.3982  1.5391
 7894SOL     OW35314   2.431   2.830  10.279  0.3798  0.4821 -0.1435
 7894SOL    HW135315   2.416   2.844  10.372  0.5430 -0.5513  0.0289
 7894SOL    HW235316   2.510   2.883  10.273  1.1382 -1.0047 -3.0660
 7895SOL     OW35317   1.371   0.726  11.491 -0.0628  0.1411  0.1961
 7895SOL    HW135318   1.466   0.722  11.481  0.2328  1.0273  2.6552
 7895SOL    HW235319   1.358   0.639  11.529  0.1996  0.4212  0.9419
 7896SOL     OW35320   1.117   2.418   7.845 -0.2633  0.1975 -0.5955
 7896SOL    HW135321   1.178   2.391   7.777  1.2754 -1.2631  1.3743
 7896SOL    HW235322   1.041   2.458   7.803 -1.1095 -1.6645 -0.8427
 7897SOL     OW35323   1.015   3.975   7.819 -0.2135 -0.0230 -0.4775
 7897SOL    HW135324   1.057   3.977   7.905  0.0622 -0.4625 -0.6031
 7897SOL    HW235325   1.000   4.069   7.803  0.3350  0.2734  0.7672
 7898SOL     OW35326   1.341   1.268   6.731 -0.5497  0.5523  0.0135
 7898SOL    HW135327   1.357   1.225   6.815  3.5560 -0.7015 -1.4303
 7898SOL    HW235328   1.396   1.217   6.671 -0.8497  1.7870 -1.3221
 7899SOL     OW35329   2.178   0.905   6.688 -0.5550 -0.1156  0.2864
 7899SOL    HW135330   2.175   0.976   6.752  1.3550  0.1130  0.1213
 7899SOL    HW235331   2.084   0.896   6.670 -0.8280  3.2586 -0.0679
 7900SOL     OW35332   1.722   0.214   3.403  0.2431  0.0411 -0.0042
 7900SOL    HW135333   1.645   0.239   3.453 -0.0631 -2.0736  0.6088
 7900SOL    HW235334   1.696   0.133   3.359  1.7915 -0.2647 -0.3669
 7901SOL     OW35335   0.625   1.478   2.805  0.3644  0.0132 -0.2246
 7901SOL    HW135336   0.655   1.391   2.830  0.0279 -0.2975 -0.8926
 7901SOL    HW235337   0.625   1.520   2.890  0.4092 -2.3277  0.9335
 7902SOL     OW35338   2.211   4.627  12.810  0.0573  0.4636  0.2633
 7902SOL    HW135339   2.207   4.620  12.906  2.1230  3.0742  0.5335
 7902SOL    HW235340   2.202   4.535  12.785 -2.6396  0.8538 -0.1732
 7903SOL     OW35341   3.666   4.071   8.737 -0.4400 -0.2481  0.6991
 7903SOL    HW135342   3.759   4.089   8.723 -0.8126  0.0122 -1.3620
 7903SOL    HW235343   3.632   4.148   8.782 -0.2819  2.0986 -3.2127
 7904SOL     OW35344   3.951   0.283   6.058 -0.2864  0.2301  0.3597
 7904SOL    HW135345   3.984   0.208   6.009  0.4702  0.8684 -0.1094
 7904SOL    HW235346   3.859   0.262   6.046 -0.6153  0.6219  2.2482
 7905SOL     OW35347   2.663   0.485   4.798  0.5189  0.4541 -0.4756
 7905SOL    HW135348   2.630   0.538   4.726  0.2764 -0.1220 -0.7839
 7905SOL    HW235349   2.718   0.554   4.834 -0.7924  0.4467  1.5403
 7906SOL     OW35350   3.449   2.346  12.505 -0.4164 -0.2980 -0.2694
 7906SOL    HW135351   3.454   2.357  12.410  1.4020  2.0808  0.0805
 7906SOL    HW235352   3.538   2.377  12.522 -1.5356  1.8445  1.6787
 7907SOL     OW35353   0.235   3.799   6.683 -0.7123 -0.3939 -0.3600
 7907SOL    HW135354   0.297   3.734   6.716  1.4002  1.2310 -1.0791
 7907SOL    HW235355   0.216   3.773   6.593 -2.9908  0.2730 -0.0774
 7908SOL     OW35356   2.257   2.539  14.776 -0.1319  0.6725  0.2384
 7908SOL    HW135357   2.226   2.600  14.843 -2.3255  1.7974 -1.7959
 7908SOL    HW235358   2.330   2.489  14.814 -0.7319 -0.0310  0.4600
 7909SOL     OW35359   0.228   3.996   9.797 -0.1452  0.0733 -0.3294
 7909SOL    HW135360   0.255   4.049   9.722  0.3848  1.9987  1.2200
 7909SOL    HW235361   0.139   4.030   9.794  0.3174  1.4777  1.7037
 7910SOL     OW35362   0.503   1.485  13.105  0.8952  0.1408 -0.1407
 7910SOL    HW135363   0.426   1.431  13.087 -1.0269  2.2280  1.9199
 7910SOL    HW235364   0.476   1.528  13.186 -2.5240  1.1027 -1.8008
 7911SOL     OW35365   1.029   2.202   1.173 -0.5510 -0.0053  0.3976
 7911SOL    HW135366   1.041   2.241   1.086 -0.6192  0.1457  0.4561
 7911SOL    HW235367   1.003   2.118   1.137 -0.4492  1.6480 -3.5339
 7912SOL     OW35368   0.599   2.556   9.354  0.0334 -0.1585 -0.2794
 7912SOL    HW135369   0.532   2.558   9.286  1.1351 -0.1902 -1.3573
 7912SOL    HW235370   0.602   2.650   9.336 -0.4526  0.3122  1.9620
 7913SOL     OW35371   1.483   1.711   0.713 -0.4394  0.1466 -0.0266
 7913SOL    HW135372   1.465   1.803   0.731  1.8484  0.6111 -0.1167
 7913SOL    HW235373   1.490   1.706   0.618 -2.3544  1.2062 -0.2114
 7914SOL     OW35374   0.832   3.587   1.723  0.0481 -0.2061 -0.3450
 7914SOL    HW135375   0.901   3.524   1.704  1.0359  0.9514 -0.6487
 7914SOL    HW235376   0.752   3.535   1.720  1.0012 -1.7532  1.5073
 7915SOL     OW35377   4.075   2.057   0.439 -0.0659 -0.9663 -0.2090
 7915SOL    HW135378   4.092   2.112   0.516  0.5991  0.3618 -1.2919
 7915SOL    HW235379   4.021   2.122   0.392 -0.5788 -2.1452 -1.2502
 7916SOL     OW35380   2.980   0.998   3.695 -0.4489  0.1374 -0.6039
 7916SOL    HW135381   3.070   1.003   3.663  0.2917  0.4832  1.5667
 7916SOL    HW235382   2.926   1.065   3.653 -0.5406 -0.3507 -1.2676
 7917SOL     OW35383   1.806   2.430  11.449 -0.3452  0.0314 -0.2239
 7917SOL    HW135384   1.826   2.359  11.510  1.0099  1.7616  1.3369
 7917SOL    HW235385   1.876   2.491  11.471 -0.8143  0.3309  0.4417
 7918SOL     OW35386   0.073   4.273   3.975  0.2036 -0.4513  0.0479
 7918SOL    HW135387   0.047   4.364   3.992  0.7364 -0.2031 -0.4536
 7918SOL    HW235388   0.044   4.262   3.885 -0.5319 -0.0024  0.2312
 7919SOL     OW35389   3.669   4.672   7.543  0.1077 -0.2688  0.6418
 7919SOL    HW135390   3.574   4.675   7.554  0.2513  2.4336  1.1645
 7919SOL    HW235391   3.682   4.588   7.499 -2.8274 -1.2740  1.7421
 7920SOL     OW35392   3.667   1.759   2.235  0.1575  0.1326 -0.2793
 7920SOL    HW135393   3.733   1.690   2.238 -1.0184 -0.9603  0.7031
 7920SOL    HW235394   3.619   1.753   2.317 -0.0744  1.4932 -0.3170
 7921SOL     OW35395   3.353   4.224   5.135  0.3566 -0.4198 -0.0159
 7921SOL    HW135396   3.401   4.218   5.218 -0.5621 -0.7524  0.4938
 7921SOL    HW235397   3.322   4.134   5.126  1.1180 -0.9428  2.6849
 7922SOL     OW35398   0.367   4.283   7.197  1.0865 -0.3140  0.0992
 7922SOL    HW135399   0.351   4.371   7.164  0.8926  0.3062  1.8981
 7922SOL    HW235400   0.289   4.267   7.249  2.1101 -1.5890  1.2543
 7923SOL     OW35401   1.304   0.422   3.398 -0.2176 -0.2452  0.0144
 7923SOL    HW135402   1.378   0.469   3.359  0.6576  0.9863  3.1914
 7923SOL    HW235403   1.346   0.355   3.451 -0.5958 -0.8279 -0.4271
 7924SOL     OW35404   2.878   1.762   7.509  0.1720 -0.3269  0.2258
 7924SOL    HW135405   2.903   1.674   7.481  0.4349  0.0949 -0.8811
 7924SOL    HW235406   2.898   1.745   7.601 -2.4025 -1.1162  0.6417
 7925SOL     OW35407   0.616   2.859   5.316 -0.0698  0.2559  0.1809
 7925SOL    HW135408   0.671   2.867   5.394 -0.2638 -2.4780  0.6213
 7925SOL    HW235409   0.639   2.769   5.292  0.4342  0.6196 -0.6571
 7926SOL     OW35410   1.074   0.287  17.011 -0.1587  0.5324 -0.3098
 7926SOL    HW135411   1.104   0.199  16.989 -1.0943  0.3053 -0.6683
 7926SOL    HW235412   0.981   0.275  16.997 -0.3236  1.7223 -0.2635
 7927SOL     OW35413   0.965   2.675   7.831  0.1011  0.1145  0.4223
 7927SOL    HW135414   0.984   2.671   7.924  1.5290 -1.6832  0.0622
 7927SOL    HW235415   0.870   2.663   7.826 -0.1297  0.8757  3.1879
 7928SOL     OW35416   1.549   1.120   7.639 -0.6726  0.4499 -0.1680
 7928SOL    HW135417   1.589   1.114   7.726 -2.4334 -0.6559  0.5741
 7928SOL    HW235418   1.508   1.034   7.632  0.9495 -0.5016  2.0839
 7929SOL     OW35419   0.012   3.918  16.634 -0.4000  0.0458  0.0915
 7929SOL    HW135420   4.673   3.965  16.606 -1.8268 -2.4630 -0.1673
 7929SOL    HW235421   0.002   3.841  16.577 -2.1873 -0.3835  0.9825
 7930SOL     OW35422   1.680   0.435  17.468 -0.0611 -0.0712  0.4646
 7930SOL    HW135423   1.601   0.435  17.413 -0.4450  0.0521  1.0137
 7930SOL    HW235424   1.708   0.345  17.453  0.9157  0.1416  1.0582
 7931SOL     OW35425   2.146   1.748   5.398  0.1509  0.2302 -0.2067
 7931SOL    HW135426   2.122   1.823   5.452  0.2540  1.2379 -1.5515
 7931SOL    HW235427   2.114   1.671   5.445  0.5717  2.0426  3.0066
 7932SOL     OW35428   1.116   3.042  14.333  0.0895  0.1298  0.0260
 7932SOL    HW135429   1.136   3.006  14.246  1.4264  0.3441  0.2478
 7932SOL    HW235430   1.180   3.113  14.337 -1.7616  1.8678 -1.6597
 7933SOL     OW35431   3.701   4.311   5.976  0.1422 -0.0150 -0.3884
 7933SOL    HW135432   3.622   4.365   5.975 -0.2068 -0.5084  0.4785
 7933SOL    HW235433   3.681   4.243   6.041 -0.0618 -1.3931 -1.8760
 7934SOL     OW35434   0.994   2.396  13.606 -0.2981  0.8261  0.4725
 7934SOL    HW135435   0.915   2.364  13.649  0.6797 -0.3082  1.4459
 7934SOL    HW235436   1.022   2.312  13.570  0.9369 -0.2295  3.8770
 7935SOL     OW35437   0.098   0.944   8.476 -0.0105 -0.6989 -0.1572
 7935SOL    HW135438   0.086   0.954   8.571  0.6165  0.5824 -0.2125
 7935SOL    HW235439   0.094   0.848   8.474  2.5471 -0.7893 -1.2864
 7936SOL     OW35440   4.439   2.152  17.267  0.0871 -0.4658 -0.3326
 7936SOL    HW135441   4.463   2.172  17.177  0.3844 -1.0528 -0.3838
 7936SOL    HW235442   4.424   2.240  17.301  0.4200  0.2181 -1.9390
 7937SOL     OW35443   1.709   3.442   3.056  0.7070 -0.2518  0.0357
 7937SOL    HW135444   1.653   3.414   3.129  1.8447  1.4695  1.5531
 7937SOL    HW235445   1.650   3.433   2.981 -1.7615 -1.0100  2.0703
 7938SOL     OW35446   2.751   1.781   6.383 -0.2895 -0.7536  0.0898
 7938SOL    HW135447   2.667   1.761   6.340 -0.2588 -0.2243 -0.2110
 7938SOL    HW235448   2.768   1.694   6.419 -0.2999 -0.5967  0.4752
 7939SOL     OW35449   2.962   0.685  17.334 -0.1689  0.3121  0.0417
 7939SOL    HW135450   2.988   0.596  17.357  0.6168  0.1391 -1.5408
 7939SOL    HW235451   2.895   0.673  17.267  0.8062  0.2696 -0.9285
 7940SOL     OW35452   4.138   2.796  12.083 -0.2666  0.0082  0.4445
 7940SOL    HW135453   4.082   2.816  12.158  0.1390  4.1101 -0.3677
 7940SOL    HW235454   4.147   2.882  12.042 -2.5479  0.2380  0.4312
 7941SOL     OW35455   4.304   0.816   7.135 -0.2143  0.5250  0.5153
 7941SOL    HW135456   4.244   0.742   7.125 -0.0063  0.8348 -3.3591
 7941SOL    HW235457   4.379   0.784   7.085  0.0535  0.6543  0.8407
 7942SOL     OW35458   2.023   3.164   2.574  0.0708  0.2100 -0.0177
 7942SOL    HW135459   2.042   3.229   2.506  0.7329  0.6018  0.5409
 7942SOL    HW235460   2.044   3.083   2.528  0.9048 -0.2465  1.1738
 7943SOL     OW35461   4.336   0.693   1.790 -0.1873  0.8208  0.0445
 7943SOL    HW135462   4.430   0.677   1.778 -0.4842 -2.1053  1.4185
 7943SOL    HW235463   4.305   0.647   1.712  1.5709  1.2264 -0.8988
 7944SOL     OW35464   0.440   0.326   8.268  0.3745 -0.1298  0.3844
 7944SOL    HW135465   0.520   0.373   8.292 -0.2253  1.4104 -0.5949
 7944SOL    HW235466   0.405   0.379   8.196  1.6848  0.8361  0.4578
 7945SOL     OW35467   4.467   1.382   2.682  0.1595  0.1656  0.2197
 7945SOL    HW135468   4.416   1.318   2.730  0.8052 -0.6989 -0.2450
 7945SOL    HW235469   4.442   1.465   2.723 -0.1332 -0.7711  1.9015
 7946SOL     OW35470   4.135   4.382  14.857 -0.2030  0.4527 -0.7723
 7946SOL    HW135471   4.074   4.372  14.784  2.3168 -3.6755 -2.2799
 7946SOL    HW235472   4.175   4.296  14.872 -1.5882 -0.0165  0.2022
 7947SOL     OW35473   0.491   0.919   9.389 -0.2670  0.6518 -0.5182
 7947SOL    HW135474   0.569   0.891   9.437 -2.0822  0.1274  2.0919
 7947SOL    HW235475   0.470   0.838   9.342  0.0749  0.4112 -0.2559
 7948SOL     OW35476   4.553   1.947   9.457 -0.1174 -0.4158 -0.2033
 7948SOL    HW135477   4.470   1.995   9.460 -0.2304 -0.5443 -1.6175
 7948SOL    HW235478   4.572   1.930   9.365 -3.1449 -1.3380 -0.6653
 7949SOL     OW35479   0.045   0.409   3.587 -0.8473  0.3260 -0.1015
 7949SOL    HW135480   0.074   0.324   3.620  1.5309  0.2174 -2.4576
 7949SOL    HW235481   4.731   0.439   3.661 -0.7927 -2.6122  1.1064
 7950SOL     OW35482   3.675   3.626   9.986  0.3846 -0.9909  0.0538
 7950SOL    HW135483   3.748   3.640   9.925  1.8808  2.1551  2.5375
 7950SOL    HW235484   3.715   3.548  10.023  0.4252 -0.8852  0.2353
 7951SOL     OW35485   1.242   2.520  10.658  0.2169  0.2158  0.0869
 7951SOL    HW135486   1.296   2.444  10.676 -0.4343 -0.5248 -1.1027
 7951SOL    HW235487   1.292   2.589  10.703 -0.1689  1.1272 -0.8658
 7952SOL     OW35488   3.127   2.205  14.721  0.0666  0.1771 -0.3366
 7952SOL    HW135489   3.059   2.150  14.681 -0.9217  1.1706 -0.0451
 7952SOL    HW235490   3.142   2.270  14.652  0.6409  1.2583  0.8063
 7953SOL     OW35491   0.461   0.229   2.540  0.3246 -0.0974  0.0080
 7953SOL    HW135492   0.480   0.185   2.622  1.0172  0.6002  0.2257
 7953SOL    HW235493   0.396   0.167   2.507  1.3980 -1.1415 -0.0952
 7954SOL     OW35494   3.126   3.226   1.716 -0.2679  0.0700  0.1986
 7954SOL    HW135495   3.171   3.278   1.649 -0.1250 -0.0545  0.1979
 7954SOL    HW235496   3.160   3.141   1.688 -1.9459  0.3367 -2.7126
 7955SOL     OW35497   3.065   3.850   8.462 -0.4326  0.0317  0.5869
 7955SOL    HW135498   3.011   3.923   8.433  0.9718 -0.0895 -2.3692
 7955SOL    HW235499   3.097   3.872   8.549 -0.2676 -0.7649  0.7331
 7956SOL     OW35500   1.556   3.717   5.750  0.0119 -0.4993 -0.0025
 7956SOL    HW135501   1.502   3.683   5.679  0.0094  0.7013 -0.5749
 7956SOL    HW235502   1.585   3.635   5.789 -1.5715 -0.0578  2.1071
 7957SOL     OW35503   1.711   1.286   1.373 -0.4292  0.0138 -0.2066
 7957SOL    HW135504   1.775   1.355   1.361 -0.6864  0.4593  1.0026
 7957SOL    HW235505   1.673   1.309   1.457 -1.1084  0.1352 -0.5438
 7958SOL     OW35506   4.057   3.410   7.586  0.8272 -0.0911 -0.2092
 7958SOL    HW135507   4.009   3.471   7.529  0.7938 -0.0015 -0.0853
 7958SOL    HW235508   4.125   3.375   7.528 -1.0054 -2.0840 -1.1786
 7959SOL     OW35509   0.974   4.273   8.547 -0.3948  0.2029 -0.1651
 7959SOL    HW135510   0.892   4.310   8.514 -1.3187 -2.5136 -0.9198
 7959SOL    HW235511   0.988   4.336   8.617  0.6582 -1.0378  0.7495
 7960SOL     OW35512   4.129   3.061   0.692 -0.0887 -0.0387  0.1500
 7960SOL    HW135513   4.044   3.103   0.680  1.1787  1.9530 -1.8334
 7960SOL    HW235514   4.108   3.003   0.765 -0.4522 -0.3085 -0.1720
 7961SOL     OW35515   3.255   0.916  15.717 -0.3707  0.0961 -0.4753
 7961SOL    HW135516   3.309   0.892  15.641 -0.5388 -0.5288 -0.3931
 7961SOL    HW235517   3.166   0.926  15.684 -0.6940  0.8603  0.6601
 7962SOL     OW35518   1.168   2.231   5.810 -0.4572  0.1455 -0.0387
 7962SOL    HW135519   1.234   2.299   5.824 -1.0105  1.0668 -1.8354
 7962SOL    HW235520   1.223   2.155   5.827 -0.8913 -0.4566 -1.3859
 7963SOL     OW35521   3.350   4.575   4.344 -0.2393  0.0796  0.2539
 7963SOL    HW135522   3.440   4.594   4.315 -0.3683  0.9342  0.4015
 7963SOL    HW235523   3.308   4.540   4.265 -1.7931  2.2802  0.1037
 7964SOL     OW35524   0.292   1.193   4.066 -0.2783 -0.3060 -0.1786
 7964SOL    HW135525   0.292   1.225   4.156  0.8517 -0.2780 -0.1973
 7964SOL    HW235526   0.289   1.282   4.029  0.0321 -1.6296 -3.3543
 7965SOL     OW35527   2.289   1.173  16.442 -0.4667 -0.0950 -0.1777
 7965SOL    HW135528   2.373   1.128  16.452  0.8507  1.9813 -1.7983
 7965SOL    HW235529   2.266   1.158  16.350  0.2139  0.7234 -0.4811
 7966SOL     OW35530   1.738   1.474  14.756  0.0252  0.2114 -0.1845
 7966SOL    HW135531   1.788   1.489  14.676  4.0544  0.8770  2.4701
 7966SOL    HW235532   1.736   1.379  14.748  3.8733  0.1264  0.2336
 7967SOL     OW35533   0.989   4.146   6.764  0.0333 -0.6150  0.0876
 7967SOL    HW135534   1.020   4.063   6.800  0.1516  0.3639  2.2534
 7967SOL    HW235535   0.943   4.165   6.846 -1.7128  0.6666 -1.1831
 7968SOL     OW35536   2.194   0.557   1.868  0.2420 -0.3895 -0.0666
 7968SOL    HW135537   2.254   0.521   1.803  0.0963 -0.3299 -0.2359
 7968SOL    HW235538   2.237   0.566   1.953 -1.1224 -1.7007  0.7567
 7969SOL     OW35539   2.077   1.161   2.385  0.2357  0.0061  0.6260
 7969SOL    HW135540   1.992   1.195   2.411  0.3138 -0.5222  1.5556
 7969SOL    HW235541   2.062   1.210   2.304  0.1134  0.0576  0.6807
 7970SOL     OW35542   4.151   0.810   2.982 -0.4402  0.3284  0.0654
 7970SOL    HW135543   4.212   0.770   2.920 -1.3513 -0.6482 -0.1902
 7970SOL    HW235544   4.139   0.741   3.047 -0.7763 -0.4737 -0.8457
 7971SOL     OW35545   0.284   1.903  14.961 -0.2069  0.6324 -0.4169
 7971SOL    HW135546   0.225   1.921  15.033  0.3478  3.6638 -0.6983
 7971SOL    HW235547   0.233   1.932  14.885 -0.4919 -0.3732 -0.6047
 7972SOL     OW35548   1.085   2.397   2.965 -0.4051  0.0812  0.1183
 7972SOL    HW135549   1.127   2.322   3.007 -0.2439  1.6979  2.8375
 7972SOL    HW235550   1.127   2.469   3.013  0.9526  0.2095 -1.2626
 7973SOL     OW35551   3.929   0.254   9.743  0.4235  0.3369 -0.2281
 7973SOL    HW135552   3.884   0.171   9.758 -0.2848  0.7101 -0.2776
 7973SOL    HW235553   4.007   0.246   9.798 -0.9207  0.2301  1.6663
 7974SOL     OW35554   2.656   2.958  10.324  0.1738 -0.4220 -1.0316
 7974SOL    HW135555   2.724   3.024  10.318 -0.6993  0.6156  0.5226
 7974SOL    HW235556   2.678   2.899  10.396 -0.5061 -0.7516 -1.0916
 7975SOL     OW35557   3.726   3.408   5.921 -0.3310  0.0558 -0.0546
 7975SOL    HW135558   3.755   3.358   5.845  0.1176 -1.7505  1.2889
 7975SOL    HW235559   3.756   3.497   5.905  0.1565  0.0578  0.8824
 7976SOL     OW35560   1.222   0.385   8.878  0.4096  0.1559  0.4112
 7976SOL    HW135561   1.246   0.402   8.969 -1.0831 -1.0792  1.0290
 7976SOL    HW235562   1.232   0.470   8.834 -0.9194  0.0610 -0.0740
 7977SOL     OW35563   3.810   1.930  15.014  0.1433  0.0364 -0.1798
 7977SOL    HW135564   3.807   1.835  15.000  1.8855  0.1886 -1.6644
 7977SOL    HW235565   3.720   1.952  14.994  0.1523  1.3119  1.2170
 7978SOL     OW35566   4.329   2.126   7.485 -0.2004 -0.2334 -0.4649
 7978SOL    HW135567   4.415   2.168   7.489 -1.1848  1.4482  2.5488
 7978SOL    HW235568   4.265   2.194   7.506 -2.7010 -2.1332 -1.9070
 7979SOL     OW35569   3.526   2.435  14.088 -0.0800 -0.0010 -0.2468
 7979SOL    HW135570   3.542   2.513  14.141  0.7210 -0.1166 -0.3122
 7979SOL    HW235571   3.476   2.474  14.017 -1.5174 -0.3639  0.5614
 7980SOL     OW35572   1.303   0.999   2.431  0.2876 -0.5022 -0.3759
 7980SOL    HW135573   1.237   0.942   2.390 -0.4723  1.2555 -1.5771
 7980SOL    HW235574   1.330   0.943   2.504  0.8022  1.0085  0.5909
 7981SOL     OW35575   2.539   0.792  12.918 -0.2514  0.5596  0.4354
 7981SOL    HW135576   2.604   0.770  12.985  0.7943  0.6776 -0.5591
 7981SOL    HW235577   2.463   0.734  12.929 -0.6880  1.1210  0.3463
 7982SOL     OW35578   1.272   4.547   8.485 -0.7067 -0.8622  0.3287
 7982SOL    HW135579   1.332   4.544   8.410  0.5579 -0.0973  1.3097
 7982SOL    HW235580   1.322   4.494   8.547 -0.0161  0.1341  0.6380
 7983SOL     OW35581   4.575   4.330   1.423 -0.3947 -0.6280  0.1087
 7983SOL    HW135582   4.496   4.383   1.429 -1.5761 -2.3387 -0.4611
 7983SOL    HW235583   4.605   4.372   1.342 -2.6993  1.8820  0.5566
 7984SOL     OW35584   1.314   4.273   3.113 -0.2301 -0.3370  0.0183
 7984SOL    HW135585   1.281   4.292   3.201  1.3750 -0.9875  0.7646
 7984SOL    HW235586   1.391   4.330   3.110 -0.1407 -0.3289  2.4629
 7985SOL     OW35587   4.497   0.195   8.503  0.3301  0.1092 -0.2459
 7985SOL    HW135588   4.457   0.186   8.417  4.1355 -1.0907 -1.9255
 7985SOL    HW235589   4.522   0.287   8.498 -0.1043  0.2964  1.0521
 7986SOL     OW35590   1.182   0.845   4.299 -0.1655 -0.1280  0.6371
 7986SOL    HW135591   1.163   0.925   4.250  0.1554 -0.1929  0.4045
 7986SOL    HW235592   1.272   0.828   4.269 -0.9384 -1.2937 -1.0117
 7987SOL     OW35593   0.933   4.389   9.261  0.1192  0.0134 -0.0432
 7987SOL    HW135594   0.886   4.342   9.191  0.9609 -1.5829  0.4503
 7987SOL    HW235595   0.889   4.473   9.261 -1.6803 -0.9034  2.2439
 7988SOL     OW35596   1.165   1.607   9.515 -0.0977  0.6975  0.1203
 7988SOL    HW135597   1.193   1.679   9.458  1.6226  0.2192  0.3488
 7988SOL    HW235598   1.247   1.587   9.560 -0.0865 -1.0417 -0.6747
 7989SOL     OW35599   0.429   1.628  15.998 -0.0108 -0.4950 -0.5351
 7989SOL    HW135600   0.450   1.583  15.916 -0.2857 -0.4825 -0.6123
 7989SOL    HW235601   0.381   1.563  16.048 -0.5364  1.4403  1.4801
 7990SOL     OW35602   0.802   4.521   6.133 -0.3860 -0.2991  0.0506
 7990SOL    HW135603   0.881   4.480   6.168  0.2574  1.3799  0.5619
 7990SOL    HW235604   0.829   4.516   6.042 -1.1692 -3.4103 -0.0098
 7991SOL     OW35605   0.203   2.264   2.886 -0.0874  0.1157  0.0441
 7991SOL    HW135606   0.264   2.328   2.924  0.1414  1.4221 -2.5147
 7991SOL    HW235607   0.179   2.311   2.806  0.9569  2.2341  0.9696
 7992SOL     OW35608   1.091   1.071   9.235 -0.2513  0.2390 -0.1577
 7992SOL    HW135609   1.069   0.979   9.219  0.3911  0.4601 -2.2108
 7992SOL    HW235610   1.007   1.104   9.204  0.0147  0.3841 -0.7079
 7993SOL     OW35611   3.385   1.659  16.821  0.2299 -0.1890  0.0788
 7993SOL    HW135612   3.324   1.730  16.800 -1.3314 -1.6934 -0.4832
 7993SOL    HW235613   3.433   1.626  16.746  1.3111  1.8138 -0.1109
 7994SOL     OW35614   0.401   4.464   4.388  0.3720 -0.5386 -0.6019
 7994SOL    HW135615   0.489   4.482   4.355  1.4391 -2.1684  1.3329
 7994SOL    HW235616   0.373   4.387   4.338  0.3393 -0.2135 -1.0788
 7995SOL     OW35617   0.128   3.128  16.072  0.1936  0.1568  0.1139
 7995SOL    HW135618   0.081   3.210  16.054  1.5716  0.9938  0.3411
 7995SOL    HW235619   0.152   3.150  16.162 -1.1855  0.2726  0.4549
 7996SOL     OW35620   1.548   0.855   8.696 -0.6101  1.1763 -0.3342
 7996SOL    HW135621   1.588   0.931   8.654 -1.3129  0.8188 -1.6632
 7996SOL    HW235622   1.502   0.820   8.620 -0.6796 -2.5085  1.4160
 7997SOL     OW35623   4.634   2.571   5.309 -0.2372  0.8755 -0.6294
 7997SOL    HW135624   4.559   2.599   5.361  0.5166 -0.5068  1.1839
 7997SOL    HW235625   4.629   2.476   5.318 -0.9044  1.2943  3.1996
 7998SOL     OW35626   2.723   2.691   8.116  0.0779 -0.1580  0.2363
 7998SOL    HW135627   2.747   2.598   8.108 -2.5642 -0.6292 -2.1447
 7998SOL    HW235628   2.739   2.721   8.027  2.0461  0.2607  0.7452
 7999SOL     OW35629   4.680   0.926   2.505 -0.4113 -0.1640  0.4481
 7999SOL    HW135630   4.705   0.848   2.456  1.2487  0.0792  0.8905
 7999SOL    HW235631   4.677   0.991   2.435  1.6294 -1.3335 -0.7313
 8000SOL     OW35632   0.890   3.212   4.600 -0.1727  0.0234  0.1240
 8000SOL    HW135633   0.811   3.218   4.653  1.3755 -0.2403  2.4746
 8000SOL    HW235634   0.865   3.271   4.529  0.3436 -0.1285 -0.1866
 8001SOL     OW35635   4.216   4.195   1.495  0.1986  0.3253  0.0424
 8001SOL    HW135636   4.188   4.107   1.470  0.6022  0.8615 -2.3616
 8001SOL    HW235637   4.168   4.244   1.427  1.7731  2.0906  0.2173
 8002SOL     OW35638   0.437   0.528  15.626 -0.1766 -0.2543 -0.3480
 8002SOL    HW135639   0.450   0.528  15.531  0.4098 -1.8277 -0.2741
 8002SOL    HW235640   0.473   0.442  15.649  0.7855  0.2369 -0.0150
 8003SOL     OW35641   1.667   3.327   3.377 -0.0230  0.3255  0.3300
 8003SOL    HW135642   1.648   3.237   3.405  1.2998 -0.6175 -1.8083
 8003SOL    HW235643   1.591   3.341   3.321  0.9493  2.0470 -0.5333
 8004SOL     OW35644   1.986   2.135   4.588  0.6450  0.3531 -0.2068
 8004SOL    HW135645   2.049   2.062   4.585  0.8346  0.5069  0.0434
 8004SOL    HW235646   1.938   2.099   4.663 -0.5301  0.2739 -1.0131
 8005SOL     OW35647   3.141   0.615  11.785 -0.4526  0.1461  0.1714
 8005SOL    HW135648   3.144   0.623  11.690 -0.7355 -1.6601  0.0109
 8005SOL    HW235649   3.157   0.704  11.816  0.9304 -0.5132  1.3163
 8006SOL     OW35650   1.780   4.311   2.296  0.5338  0.2706 -0.2153
 8006SOL    HW135651   1.709   4.375   2.297 -2.1464 -2.7686  2.6287
 8006SOL    HW235652   1.819   4.333   2.211 -0.9861  2.8301 -0.2659
 8007SOL     OW35653   4.711   0.767   7.129  0.1039 -0.1985 -0.4294
 8007SOL    HW135654   4.649   0.769   7.057 -1.7274 -1.3550  1.1225
 8007SOL    HW235655   4.655   0.786   7.204 -1.9518 -0.3901 -1.9413
 8008SOL     OW35656   1.842   3.856  17.041 -0.3870  0.4547 -0.4507
 8008SOL    HW135657   1.932   3.833  17.017 -0.6245  0.5143 -1.3799
 8008SOL    HW235658   1.874   3.930  17.094  0.9759 -0.1567 -0.4088
 8009SOL     OW35659   3.619   2.402   6.878  0.3249  0.6109 -0.2908
 8009SOL    HW135660   3.601   2.491   6.907 -1.0665  0.5861 -1.1090
 8009SOL    HW235661   3.578   2.355   6.951  0.3353  0.4554 -0.3846
 8010SOL     OW35662   3.189   0.444  11.967 -0.2399  0.3075 -0.0064
 8010SOL    HW135663   3.114   0.386  11.982  0.2938 -0.1563  0.9080
 8010SOL    HW235664   3.149   0.521  11.927  0.0855  0.0206 -0.8824
 8011SOL     OW35665   3.166   2.561   8.798 -0.0728  0.1504  0.5843
 8011SOL    HW135666   3.211   2.645   8.804 -0.5575  0.4713 -0.2971
 8011SOL    HW235667   3.097   2.588   8.737  0.9675  0.4538 -0.4535
 8012SOL     OW35668   2.129   3.064  10.273  0.5259  0.7671 -0.2985
 8012SOL    HW135669   2.131   3.112  10.191 -1.2060  0.2185 -0.6700
 8012SOL    HW235670   2.106   3.137  10.331  1.2160  1.0235 -0.3553
 8013SOL     OW35671   2.783   1.575   1.110 -0.3730  0.1785  0.4296
 8013SOL    HW135672   2.782   1.482   1.132 -0.9841  0.6420  2.3599
 8013SOL    HW235673   2.786   1.571   1.015  1.4327 -2.0409  0.5706
 8014SOL     OW35674   2.673   1.526   5.475  0.1700 -0.0765  0.7682
 8014SOL    HW135675   2.586   1.546   5.510 -0.1116 -0.0280  0.0505
 8014SOL    HW235676   2.706   1.606   5.434 -0.2439 -0.1370  0.3116
 8015SOL     OW35677   2.953   2.438  15.821 -0.2702  0.2607  0.0987
 8015SOL    HW135678   2.940   2.499  15.749  0.8350 -0.0427 -0.3578
 8015SOL    HW235679   2.948   2.352  15.780 -1.9339  1.1109 -1.4695
 8016SOL     OW35680   0.511   1.443  16.548 -0.1069  1.1759  0.4216
 8016SOL    HW135681   0.464   1.438  16.630 -2.0855  3.4161 -0.5829
 8016SOL    HW235682   0.486   1.359  16.508  1.1316  1.4460 -0.9421
 8017SOL     OW35683   3.760   4.617   4.349  0.0068 -0.4838 -0.4015
 8017SOL    HW135684   3.770   4.541   4.292  1.5918 -0.4013 -0.2294
 8017SOL    HW235685   3.668   4.634   4.328  0.0694  1.6345  1.0478
 8018SOL     OW35686   2.431   2.524   8.426  0.0977 -0.0138 -0.3485
 8018SOL    HW135687   2.431   2.599   8.367  0.7978 -1.1722 -1.8183
 8018SOL    HW235688   2.411   2.451   8.367  0.1900  0.3186 -0.7940
 8019SOL     OW35689   4.432   2.438   7.789  0.2321 -0.1855 -0.2051
 8019SOL    HW135690   4.341   2.427   7.816 -0.0290  3.3227  0.4196
 8019SOL    HW235691   4.459   2.496   7.860  0.3547 -1.5233  0.8349
 8020SOL     OW35692   2.228   4.228  11.775 -0.5966 -0.1935 -0.3198
 8020SOL    HW135693   2.286   4.159  11.807  1.0290  0.9107 -0.8547
 8020SOL    HW235694   2.172   4.233  11.853 -0.3482 -0.2573 -0.1369
 8021SOL     OW35695   2.480   1.918  13.317 -0.2920 -0.4406 -0.2374
 8021SOL    HW135696   2.411   1.984  13.322 -0.5944 -0.8078  0.3933
 8021SOL    HW235697   2.438   1.851  13.262 -1.0620  0.0233 -0.2112
 8022SOL     OW35698   1.539   1.668   8.487  0.2028  0.2672 -0.4187
 8022SOL    HW135699   1.609   1.604   8.482  0.7043  0.8496 -0.7403
 8022SOL    HW235700   1.583   1.748   8.516 -1.2495 -0.0680  2.7320
 8023SOL     OW35701   4.265   0.431   5.610  0.1959  0.2264  0.2826
 8023SOL    HW135702   4.354   0.405   5.633  0.7708  2.1504  0.2177
 8023SOL    HW235703   4.278   0.454   5.518  1.1287 -0.1465  0.3166
 8024SOL     OW35704   3.692   1.859   4.355 -0.1753  0.4516  0.0871
 8024SOL    HW135705   3.748   1.935   4.375  0.2075 -0.1579  1.3811
 8024SOL    HW235706   3.615   1.901   4.318  0.0884 -1.3553 -2.4654
 8025SOL     OW35707   3.545   3.126  16.888 -0.3676 -0.1414 -0.1802
 8025SOL    HW135708   3.578   3.191  16.950 -0.0883 -1.0083  0.5794
 8025SOL    HW235709   3.627   3.082  16.864 -1.3609 -1.6922 -0.7201
 8026SOL     OW35710   2.465   1.823   8.208  0.0594  0.4340 -0.0500
 8026SOL    HW135711   2.386   1.787   8.168  1.3464 -1.9937 -0.3805
 8026SOL    HW235712   2.466   1.766   8.285  1.0784 -0.1861 -0.5112
 8027SOL     OW35713   0.851   0.813   3.890 -0.3307 -0.0033 -0.4206
 8027SOL    HW135714   0.863   0.793   3.798  0.5648  0.4963 -0.4063
 8027SOL    HW235715   0.756   0.802   3.895 -0.6416  2.0792 -2.0989
 8028SOL     OW35716   2.989   1.100  10.750  0.0625  0.3183 -0.4347
 8028SOL    HW135717   2.909   1.089  10.700 -0.4495  1.6179  0.0860
 8028SOL    HW235718   2.976   1.033  10.817 -1.2958  1.1608  0.1514
 8029SOL     OW35719   4.189   1.435  11.259  0.1245 -0.4834  0.5528
 8029SOL    HW135720   4.201   1.341  11.247  1.2515 -0.4961  1.6829
 8029SOL    HW235721   4.211   1.449  11.352  2.1287 -3.3131  0.4748
 8030SOL     OW35722   4.505   0.749   6.943  0.1509 -0.2104  0.2894
 8030SOL    HW135723   4.481   0.665   6.903 -0.7262  0.5746 -0.8371
 8030SOL    HW235724   4.502   0.816   6.874  1.0824  0.7939  1.2255
 8031SOL     OW35725   2.625   1.770  13.473  0.0470 -0.4980 -0.0447
 8031SOL    HW135726   2.571   1.829  13.422 -0.5924 -2.8424 -2.0884
 8031SOL    HW235727   2.681   1.821  13.531 -1.1241  1.3651 -0.5561
 8032SOL     OW35728   1.358   2.199   0.456  0.6137 -0.2584  0.3372
 8032SOL    HW135729   1.366   2.113   0.416  0.3369  0.7464 -1.8312
 8032SOL    HW235730   1.308   2.246   0.390  2.2693  0.4260 -0.4180
 8033SOL     OW35731   0.362   4.104   6.829 -0.0081  0.5658 -0.2498
 8033SOL    HW135732   0.401   4.085   6.743  1.9796 -0.7674  0.9204
 8033SOL    HW235733   0.407   4.045   6.891  2.8384  1.9666 -0.9582
 8034SOL     OW35734   1.040   1.092   0.312 -0.1339  0.7159 -0.1329
 8034SOL    HW135735   0.962   1.037   0.312 -0.3943  1.0797 -0.1824
 8034SOL    HW235736   1.101   1.028   0.274 -0.1387  0.8847 -0.4263
 8035SOL     OW35737   1.995   1.279   4.225  0.5965 -0.3385 -0.6195
 8035SOL    HW135738   2.089   1.268   4.236  1.0071  0.2968 -3.4750
 8035SOL    HW235739   1.984   1.315   4.313  3.2219  0.6202 -0.6812
 8036SOL     OW35740   2.892   4.010  12.087  0.4404  0.2623  0.6556
 8036SOL    HW135741   2.803   4.039  12.105  1.0456  0.7734  2.8855
 8036SOL    HW235742   2.888   3.915  12.077 -4.5024  0.4794  0.4634
 8037SOL     OW35743   1.110   3.503  11.501 -0.0777 -0.3977  0.6276
 8037SOL    HW135744   1.029   3.472  11.542 -0.5692  0.1015  0.0322
 8037SOL    HW235745   1.140   3.580  11.549 -2.3886  0.0838  1.3321
 8038SOL     OW35746   0.340   3.899   2.953  0.3800 -0.2637 -0.2850
 8038SOL    HW135747   0.403   3.902   3.025 -0.2021 -0.6376  0.2301
 8038SOL    HW235748   0.270   3.856   3.001 -1.0370  0.0703 -2.0555
 8039SOL     OW35749   2.788   2.644   4.492 -0.1661 -0.0473 -0.5774
 8039SOL    HW135750   2.865   2.648   4.435 -1.5565  0.6743 -2.3809
 8039SOL    HW235751   2.725   2.626   4.422  0.4505  0.9323 -1.3779
 8040SOL     OW35752   0.606   3.834   5.747 -0.3291 -0.2070  0.1527
 8040SOL    HW135753   0.648   3.749   5.731  0.0537  0.3680 -1.7936
 8040SOL    HW235754   0.569   3.857   5.662 -1.6772 -1.8094  0.3101
 8041SOL     OW35755   2.522   2.087   3.272  0.3013  0.3865 -0.1063
 8041SOL    HW135756   2.509   2.102   3.365 -0.3556 -2.2409  0.2228
 8041SOL    HW235757   2.430   2.077   3.249 -0.0725  2.1947  0.6294
 8042SOL     OW35758   3.786   4.594  10.492  0.2310 -0.3080 -0.8780
 8042SOL    HW135759   3.723   4.660  10.464 -0.2955 -1.0520 -1.4574
 8042SOL    HW235760   3.770   4.532  10.421 -0.2012 -1.1332 -0.0706
 8043SOL     OW35761   0.875   1.786   5.166 -0.2683 -0.5383  0.3526
 8043SOL    HW135762   0.888   1.735   5.246  0.4910  1.6134  1.5989
 8043SOL    HW235763   0.844   1.726   5.099 -3.9467  1.8720 -0.0949
 8044SOL     OW35764   3.859   4.510  15.331 -0.6130  0.1475 -0.3511
 8044SOL    HW135765   3.928   4.512  15.265  0.7321  0.7767  1.0728
 8044SOL    HW235766   3.901   4.562  15.400 -0.9949  2.1341 -1.6376
 8045SOL     OW35767   2.044   1.892   0.649  0.1363 -0.0121  0.2006
 8045SOL    HW135768   2.135   1.867   0.663 -0.2661 -2.4966 -1.7544
 8045SOL    HW235769   2.046   1.916   0.557  1.3629 -0.0299  0.2187
 8046SOL     OW35770   1.702   0.483   4.676  0.2141 -0.3853  0.1696
 8046SOL    HW135771   1.741   0.505   4.591  0.8934 -1.1930  0.2737
 8046SOL    HW235772   1.693   0.390   4.656 -0.2796 -0.3143  0.0712
 8047SOL     OW35773   1.278   0.815   3.407 -0.5058  0.0816  0.4888
 8047SOL    HW135774   1.285   0.766   3.325  0.3783  0.0327  0.6007
 8047SOL    HW235775   1.225   0.747   3.449 -1.1022 -0.2781 -0.8554
 8048SOL     OW35776   4.299   0.226   7.015  0.2325 -0.0506  0.3897
 8048SOL    HW135777   4.294   0.149   7.072 -1.5951  2.0200  2.9958
 8048SOL    HW235778   4.314   0.185   6.930 -2.6730 -0.2096 -0.0416
 8049SOL     OW35779   3.271   0.359  14.652 -0.4892  0.4183  0.1680
 8049SOL    HW135780   3.303   0.332  14.566 -1.9563 -2.7162  0.5735
 8049SOL    HW235781   3.181   0.326  14.650 -1.0511  2.0738 -1.2275
 8050SOL     OW35782   2.880   3.131   7.876 -0.0961  0.2698  0.4806
 8050SOL    HW135783   2.921   3.091   7.953 -0.1880 -1.1871 -0.2264
 8050SOL    HW235784   2.789   3.115   7.898  0.0528  1.1882  1.7338
 8051SOL     OW35785   0.242   4.572   7.595 -0.5409  0.2729  0.0851
 8051SOL    HW135786   0.155   4.576   7.555  0.0232 -1.7388 -1.3522
 8051SOL    HW235787   0.298   4.616   7.531  0.2719  0.0732  0.6597
 8052SOL     OW35788   0.105   0.198   4.237 -0.2349 -0.3086 -0.0136
 8052SOL    HW135789   0.040   0.228   4.174 -0.1632 -1.6145 -0.7157
 8052SOL    HW235790   0.061   0.197   4.322 -0.8295 -0.0639 -0.3208
 8053SOL     OW35791   2.586   1.709  14.893 -0.0663  0.3830 -0.0688
 8053SOL    HW135792   2.656   1.665  14.846  1.1832  0.3911  1.7566
 8053SOL    HW235793   2.520   1.720  14.825  1.8223 -0.3251 -2.0131
 8054SOL     OW35794   0.858   1.540   8.568  0.5274  0.0031  0.1364
 8054SOL    HW135795   0.845   1.484   8.491  0.9506  0.1520 -0.0442
 8054SOL    HW235796   0.779   1.515   8.615  0.7101  1.0617  1.0088
 8055SOL     OW35797   1.229   3.158   8.649 -0.0620 -0.6971  0.2114
 8055SOL    HW135798   1.148   3.150   8.599  1.6177 -0.6830 -2.5240
 8055SOL    HW235799   1.207   3.238   8.697 -0.9284 -0.8365  0.0392
 8056SOL     OW35800   4.645   2.387   7.626  0.2224  0.1940 -0.2794
 8056SOL    HW135801   4.615   2.363   7.538  0.9840  1.8304 -0.9935
 8056SOL    HW235802   4.562   2.405   7.671  1.8156  0.7293  2.4143
 8057SOL     OW35803   4.369   4.044   5.553  0.2724  0.3788  0.2318
 8057SOL    HW135804   4.455   4.007   5.574  0.4005  0.2504 -0.5280
 8057SOL    HW235805   4.371   4.121   5.610 -1.1165  0.1524  0.5833
 8058SOL     OW35806   0.151   3.601   5.651 -0.0491 -0.6416  0.0104
 8058SOL    HW135807   0.231   3.639   5.615 -0.8946  1.4734  0.3685
 8058SOL    HW235808   0.115   3.570   5.568 -0.0497  0.3090 -0.3380
 8059SOL     OW35809   0.409   2.378   4.874  0.4061  0.1688 -0.0144
 8059SOL    HW135810   0.436   2.444   4.810 -2.0990  0.8703 -0.3246
 8059SOL    HW235811   0.376   2.443   4.936 -0.4603 -1.5566  1.3223
 8060SOL     OW35812   4.246   3.007   8.126 -0.2878 -0.3047  0.0309
 8060SOL    HW135813   4.197   2.939   8.172  0.1338 -0.5507  0.1188
 8060SOL    HW235814   4.250   3.078   8.190  0.0778 -0.2513 -0.0503
 8061SOL     OW35815   0.427   0.812   6.101  0.0428  0.2315 -0.1106
 8061SOL    HW135816   0.441   0.897   6.142  2.6074 -0.6287  0.8429
 8061SOL    HW235817   0.337   0.815   6.070  0.2965 -1.4164 -1.0673
 8062SOL     OW35818   0.521   0.079   5.721 -0.2931  0.2986  0.5589
 8062SOL    HW135819   0.609   0.049   5.698 -0.9767 -1.9062  0.7289
 8062SOL    HW235820   0.550   0.156   5.768  1.2337 -0.4165  0.7924
 8063SOL     OW35821   0.394   1.368   9.183 -0.4114  0.1427 -0.2945
 8063SOL    HW135822   0.441   1.379   9.266 -0.4273 -2.7715  0.1280
 8063SOL    HW235823   0.305   1.363   9.219  0.0474 -0.1369  0.7957
 8064SOL     OW35824   0.690   2.459   3.566  0.1467 -0.3836 -0.1862
 8064SOL    HW135825   0.747   2.494   3.497 -0.5410  1.7366  0.3158
 8064SOL    HW235826   0.614   2.499   3.525  1.0829 -1.2988 -2.7992
 8065SOL     OW35827   1.356   1.603   2.608 -0.2165 -0.0578 -0.7849
 8065SOL    HW135828   1.338   1.630   2.698 -0.5539  0.0599 -0.8892
 8065SOL    HW235829   1.399   1.682   2.574 -0.4276  0.2942 -0.2300
 8066SOL     OW35830   4.129   1.361   7.072  0.0441 -0.1106  0.0342
 8066SOL    HW135831   4.156   1.272   7.049 -1.1538 -0.5533  0.3585
 8066SOL    HW235832   4.203   1.420   7.054  0.7394 -0.9791  0.0565
 8067SOL     OW35833   1.362   0.619   3.200  0.3076  0.4030  0.0925
 8067SOL    HW135834   1.280   0.571   3.210  0.7465 -1.1385 -3.7204
 8067SOL    HW235835   1.366   0.628   3.105 -1.2855 -0.7313 -0.0789
 8068SOL     OW35836   3.123   2.716   6.244  0.3082 -0.4233 -0.9169
 8068SOL    HW135837   3.131   2.641   6.303 -1.4538  0.3337  0.2577
 8068SOL    HW235838   3.096   2.788   6.300 -2.1599 -1.2667 -1.0096
 8069SOL     OW35839   1.959   2.252  10.596  0.0645 -0.5023 -0.4900
 8069SOL    HW135840   1.957   2.245  10.500  1.0478  3.1865 -0.7877
 8069SOL    HW235841   2.051   2.241  10.617 -0.1055 -0.6616  0.1746
 8070SOL     OW35842   3.236   3.605   1.326  0.3079 -0.3471  0.0305
 8070SOL    HW135843   3.269   3.554   1.400 -0.6844 -0.1528  0.6109
 8070SOL    HW235844   3.270   3.557   1.251 -1.0307 -3.5534  1.4712
 8071SOL     OW35845   1.741   4.614   4.992 -0.2478  0.8568 -0.4263
 8071SOL    HW135846   1.713   4.529   4.959  0.2128 -0.5343  2.7262
 8071SOL    HW235847   1.657   4.658   4.976 -0.5138  0.6837  0.4677
 8072SOL     OW35848   4.641   2.903   3.454 -0.0610 -0.4078  0.1872
 8072SOL    HW135849   4.596   2.979   3.490  2.7221  0.9545  0.7630
 8072SOL    HW235850   4.623   2.910   3.361 -1.0909 -0.0820  0.4147
 8073SOL     OW35851   0.252   0.286   3.811 -0.1201  0.3755  0.6558
 8073SOL    HW135852   0.297   0.318   3.890 -0.2820  2.3169 -0.0431
 8073SOL    HW235853   0.163   0.273   3.843  0.3203 -0.0605  1.7231
 8074SOL     OW35854   1.183   3.933   0.210 -0.7816 -0.3448  0.6075
 8074SOL    HW135855   1.129   4.006   0.241 -0.5246  0.9807 -2.0287
 8074SOL    HW235856   1.213   3.950   0.121 -1.1830 -1.4068  0.2790
 8075SOL     OW35857   4.625   3.385   5.794 -0.2297  0.3702 -0.4858
 8075SOL    HW135858   4.605   3.374   5.887  0.6739  1.3941 -0.1641
 8075SOL    HW235859   4.661   3.473   5.778  0.6024 -0.2916 -2.2630
 8076SOL     OW35860   3.940   2.011   5.789 -0.4023  0.3509 -0.3478
 8076SOL    HW135861   3.958   1.937   5.732  2.6773  0.1479  0.9040
 8076SOL    HW235862   3.875   1.967   5.844 -0.6733  3.1494  1.5919
 8077SOL     OW35863   2.992   0.376   4.943 -0.6144  0.4078  0.2800
 8077SOL    HW135864   3.019   0.347   4.856 -1.1656  1.1675 -0.1515
 8077SOL    HW235865   2.968   0.467   4.922 -1.1481  0.1775 -0.1143
 8078SOL     OW35866   1.338   3.737   0.373  0.2622 -0.4187 -0.3750
 8078SOL    HW135867   1.265   3.798   0.366  1.6251  1.6261  2.9540
 8078SOL    HW235868   1.406   3.797   0.343  1.6698 -0.5130  2.6214
 8079SOL     OW35869   1.387   0.994   5.160 -0.2586 -0.1012  0.0957
 8079SOL    HW135870   1.372   0.959   5.248 -1.2655  0.9251  0.3288
 8079SOL    HW235871   1.401   0.909   5.118  0.4139 -0.2064  0.5174
 8080SOL     OW35872   3.173   3.270   0.977  0.1428  0.4094 -0.1427
 8080SOL    HW135873   3.080   3.295   0.982 -0.3046 -1.9358  3.1731
 8080SOL    HW235874   3.196   3.269   0.884  1.2022 -1.3162  0.1414
 8081SOL     OW35875   0.936   4.173   7.058  0.2633  0.0638  0.7079
 8081SOL    HW135876   0.925   4.119   7.137  0.2444 -0.9649  0.0146
 8081SOL    HW235877   0.904   4.255   7.095  3.1057  1.4422  0.0715
 8082SOL     OW35878   0.126   4.491  12.457  0.2464 -0.1078  0.4210
 8082SOL    HW135879   0.202   4.522  12.506  0.2166 -0.2745  0.5723
 8082SOL    HW235880   0.072   4.569  12.468 -2.1795 -1.6567 -0.4732
 8083SOL     OW35881   1.858   1.887  15.019 -0.0150  0.1197  0.0164
 8083SOL    HW135882   1.792   1.923  15.078  0.8590 -1.5285  2.0046
 8083SOL    HW235883   1.874   1.805  15.066  0.6584  2.0715  3.2750
 8084SOL     OW35884   1.315   1.506   0.430 -0.7765 -0.1574  0.0856
 8084SOL    HW135885   1.223   1.485   0.419 -1.0163 -0.8280  3.3297
 8084SOL    HW235886   1.360   1.422   0.416 -1.3200 -0.4758  0.2718
 8085SOL     OW35887   4.647   3.558   6.708 -0.4702 -0.6536 -0.1263
 8085SOL    HW135888   4.652   3.649   6.678 -1.1047 -0.8814 -0.9261
 8085SOL    HW235889   4.667   3.571   6.801  1.9809 -0.8124 -0.6304
 8086SOL     OW35890   0.218   2.957  17.145  0.1151 -0.1711 -0.1619
 8086SOL    HW135891   0.308   2.978  17.121  0.1926 -2.2458 -1.7661
 8086SOL    HW235892   0.219   2.939  17.239 -0.6508  3.2559  0.4890
 8087SOL     OW35893   3.262   0.562   4.343  0.2298 -0.0988  0.4736
 8087SOL    HW135894   3.256   0.601   4.256  1.2975 -1.3279 -0.1693
 8087SOL    HW235895   3.329   0.493   4.334  1.6222  1.1161  1.5117
 8088SOL     OW35896   4.686   3.101   3.824 -0.3477 -0.0743 -0.4573
 8088SOL    HW135897   4.663   3.100   3.731 -1.1117 -1.5436 -0.2587
 8088SOL    HW235898   4.704   3.193   3.841 -1.0570 -0.4495  2.3433
 8089SOL     OW35899   1.862   1.755   1.562 -0.6249  0.4337  0.2827
 8089SOL    HW135900   1.886   1.799   1.644  0.7880 -1.8510  1.1055
 8089SOL    HW235901   1.908   1.811   1.499  1.4988 -0.8942  0.6590
 8090SOL     OW35902   3.196   2.335   7.443  0.1782 -0.1614 -0.3863
 8090SOL    HW135903   3.222   2.415   7.397 -1.4633  0.1660 -0.7567
 8090SOL    HW235904   3.183   2.271   7.372 -0.3347 -1.0950  0.5398
 8091SOL     OW35905   2.840   1.262  16.088  0.2141 -0.0185 -0.1764
 8091SOL    HW135906   2.757   1.267  16.134  0.6528  1.5189  0.4634
 8091SOL    HW235907   2.864   1.349  16.120  0.2158 -0.2080  0.3393
 8092SOL     OW35908   0.149   1.480  12.928  0.1268  0.5126  0.0507
 8092SOL    HW135909   0.074   1.522  12.969  0.2044  0.3740  0.3427
 8092SOL    HW235910   0.202   1.440  12.998  0.0306  1.4013  0.6315
 8093SOL     OW35911   3.606   3.352  13.945  0.7061  0.0452  0.0525
 8093SOL    HW135912   3.630   3.344  13.852  1.7345 -0.3359  0.3549
 8093SOL    HW235913   3.686   3.316  13.984 -0.3422 -0.2153  1.9566
 8094SOL     OW35914   0.634   3.506   7.847 -0.4989  0.0716 -0.3067
 8094SOL    HW135915   0.609   3.598   7.837  0.6336  0.6347  2.1492
 8094SOL    HW235916   0.721   3.508   7.808 -0.0548 -0.9509  0.6425
 8095SOL     OW35917   3.793   2.407   7.295 -0.2576  0.4197  0.0797
 8095SOL    HW135918   3.709   2.378   7.259  1.4554 -1.2952 -2.5705
 8095SOL    HW235919   3.770   2.493   7.331 -1.5770 -1.5823  4.0843
 8096SOL     OW35920   2.364   4.045  16.593  0.0922 -0.2614  0.1989
 8096SOL    HW135921   2.353   3.975  16.529 -3.4216 -0.3791  0.9207
 8096SOL    HW235922   2.409   4.105  16.535 -3.3194  1.4605 -0.6620
 8097SOL     OW35923   0.683   0.369   7.574  0.2862 -0.3391  0.4652
 8097SOL    HW135924   0.637   0.294   7.538 -0.4277 -0.9834  2.7433
 8097SOL    HW235925   0.769   0.332   7.594 -1.7072 -4.5659  1.1704
 8098SOL     OW35926   1.453   1.605   3.398 -0.1509 -0.1823  0.1189
 8098SOL    HW135927   1.529   1.579   3.450  1.6682  2.1430 -1.3555
 8098SOL    HW235928   1.444   1.698   3.419  0.5602  0.1179 -0.8704
 8099SOL     OW35929   2.264   4.316   2.116  0.1618  0.5778  0.1198
 8099SOL    HW135930   2.300   4.392   2.069 -0.3523  0.1924 -0.8892
 8099SOL    HW235931   2.329   4.307   2.185 -0.4037 -0.9901  0.4465
 8100SOL     OW35932   0.935   2.010   2.093 -0.3956 -0.0368 -0.2503
 8100SOL    HW135933   0.951   1.934   2.037  1.0536  1.2642 -1.5933
 8100SOL    HW235934   0.840   2.014   2.087 -0.3897 -2.1795 -1.5610
 8101SOL     OW35935   2.140   3.653   6.185  0.1705 -0.5767 -0.0797
 8101SOL    HW135936   2.171   3.640   6.275  0.5781 -1.0807 -0.2897
 8101SOL    HW235937   2.069   3.589   6.181 -0.6690  0.3243  0.4916
 8102SOL     OW35938   1.292   2.664   0.634 -0.1578  0.0269 -0.1942
 8102SOL    HW135939   1.323   2.753   0.653 -0.9196 -0.3022  2.5581
 8102SOL    HW235940   1.372   2.612   0.625  1.1231  1.4950  2.6599
 8103SOL     OW35941   2.110   2.898  16.602  0.4600  0.3143  0.4116
 8103SOL    HW135942   2.049   2.970  16.587  0.0209 -0.5522 -1.9462
 8103SOL    HW235943   2.191   2.949  16.603  2.1156 -2.2898 -0.4696
 8104SOL     OW35944   3.455   2.560   3.353  0.3843 -0.3446  0.3271
 8104SOL    HW135945   3.411   2.562   3.439  0.4805 -0.1547  0.3724
 8104SOL    HW235946   3.449   2.466   3.336 -1.8935 -0.1200 -0.1442
 8105SOL     OW35947   3.434   4.427   3.928 -0.2904  0.4076  0.0102
 8105SOL    HW135948   3.506   4.364   3.920  0.1144  0.9718 -0.7775
 8105SOL    HW235949   3.474   4.503   3.885  0.5197  0.9136  1.6616
 8106SOL     OW35950   0.842   2.033  14.987  0.0136  0.0475  0.1740
 8106SOL    HW135951   0.791   1.990  15.055  0.2689  0.2708  0.5077
 8106SOL    HW235952   0.849   2.120  15.026  0.8153  0.6570 -1.3212
 8107SOL     OW35953   1.475   2.191   4.543  0.5004 -0.1808  0.0669
 8107SOL    HW135954   1.398   2.234   4.581  1.8800  2.5444 -0.1557
 8107SOL    HW235955   1.428   2.118   4.504 -0.1639 -0.5822  1.5951
 8108SOL     OW35956   4.426   2.634   5.486  0.4565 -0.0769  0.0076
 8108SOL    HW135957   4.401   2.618   5.577  0.9425  2.5121  0.5894
 8108SOL    HW235958   4.366   2.706   5.465 -1.8953 -1.5099  1.7860
 8109SOL     OW35959   1.673   2.315   9.996 -0.3956 -0.3056 -0.4797
 8109SOL    HW135960   1.586   2.353  10.003 -0.2949 -0.1713  0.0753
 8109SOL    HW235961   1.663   2.282   9.907  2.3002  0.6554 -1.1519
 8110SOL     OW35962   0.471   1.265   2.218  0.1786 -0.5326  0.0921
 8110SOL    HW135963   0.549   1.320   2.209  0.5131 -1.1764 -1.0224
 8110SOL    HW235964   0.472   1.201   2.146  1.8419 -1.0074  0.5315
 8111SOL     OW35965   4.592   0.745   3.208 -0.5154 -0.1126  0.0886
 8111SOL    HW135966   4.538   0.819   3.236 -1.0330 -0.3318 -0.3133
 8111SOL    HW235967   4.679   0.781   3.222 -0.4438 -0.5340  0.6779
 8112SOL     OW35968   3.943   4.214   6.454 -0.6488  0.3194 -0.4830
 8112SOL    HW135969   3.947   4.154   6.380  1.0835  0.2146 -0.3047
 8112SOL    HW235970   4.011   4.274   6.423 -0.1845  0.2435  0.3732
 8113SOL     OW35971   3.740   3.748   7.824  0.4021 -0.1916 -0.2403
 8113SOL    HW135972   3.710   3.822   7.876 -1.3841 -0.9675 -0.1591
 8113SOL    HW235973   3.656   3.701   7.821  0.8674 -1.1977  2.8065
 8114SOL     OW35974   1.697   2.121   7.450 -0.5494 -0.7800  0.5023
 8114SOL    HW135975   1.692   2.192   7.386  1.3972 -0.2349  0.9475
 8114SOL    HW235976   1.708   2.153   7.540  0.5072  0.2146  0.0152
 8115SOL     OW35977   0.620   1.441   3.912  0.3273  0.3890 -0.5249
 8115SOL    HW135978   0.669   1.435   3.830 -0.4783  0.2608 -0.9881
 8115SOL    HW235979   0.560   1.512   3.891 -2.4758 -1.5654  0.9214
 8116SOL     OW35980   4.389   2.209   0.053  0.3293 -0.2327  0.6451
 8116SOL    HW135981   4.446   2.285   0.039  1.9765 -1.6420 -0.2626
 8116SOL    HW235982   4.333   2.242   0.123 -2.4586 -1.4910 -0.9770
 8117SOL     OW35983   3.150   1.520  10.975 -0.0015  0.1959 -0.0931
 8117SOL    HW135984   3.144   1.496  11.068  0.1448 -0.6142 -0.2927
 8117SOL    HW235985   3.114   1.608  10.965  0.4354  0.3939  0.0974
 8118SOL     OW35986   2.408   2.560   6.850  0.2950 -0.2986  0.2335
 8118SOL    HW135987   2.482   2.617   6.870  1.8233 -1.2723 -2.6156
 8118SOL    HW235988   2.343   2.591   6.913 -1.5699 -0.2115 -1.7307
 8119SOL     OW35989   3.856   4.302   1.560  0.0434  0.0523 -0.1228
 8119SOL    HW135990   3.843   4.269   1.471  0.4385  1.4408 -0.6894
 8119SOL    HW235991   3.898   4.228   1.605  1.3371  1.5885  1.1593
 8120SOL     OW35992   4.521   0.105   5.464  0.3473  0.4184 -0.4459
 8120SOL    HW135993   4.577   0.087   5.389 -0.2058  1.2842 -1.0626
 8120SOL    HW235994   4.466   0.027   5.459 -1.0462  1.3015  1.2434
 8121SOL     OW35995   4.212   3.251   1.820 -0.0393  0.0737 -0.2367
 8121SOL    HW135996   4.233   3.188   1.751 -0.9843 -0.2556 -0.2213
 8121SOL    HW235997   4.116   3.253   1.814 -0.1016  0.6239  0.9819
 8122SOL     OW35998   0.030   1.785   9.531 -0.2492 -0.1639  0.0268
 8122SOL    HW135999   4.681   1.820   9.521  0.2714  1.3418  0.7146
 8122SOL    HW236000   0.083   1.809   9.455  0.2630  0.4610  0.5795
 8123SOL     OW36001   1.550   1.679  12.346  0.3962  0.1684  0.3830
 8123SOL    HW136002   1.562   1.620  12.272  1.0078  0.6583  0.0935
 8123SOL    HW236003   1.554   1.617  12.419  0.8578 -0.2785 -0.0218
 8124SOL     OW36004   4.607   4.531   8.850 -0.3581 -0.8861 -0.1518
 8124SOL    HW136005   4.672   4.485   8.796 -0.5629 -1.1067 -0.2100
 8124SOL    HW236006   4.574   4.594   8.786 -0.4537 -0.2226  0.5575
 8125SOL     OW36007   4.727   3.749   6.022  0.0048 -0.5025  0.1143
 8125SOL    HW136008   4.698   3.660   6.044 -0.1298 -0.7280 -0.9605
 8125SOL    HW236009   4.688   3.769   5.937 -1.2647 -1.0083  0.5878
 8126SOL     OW36010   1.544   1.597  17.544  0.3108 -0.1763 -0.0323
 8126SOL    HW136011   1.616   1.658  17.556  0.3300 -0.4138  1.0198
 8126SOL    HW236012   1.505   1.620  17.459  2.2623  0.6459 -0.7103
 8127SOL     OW36013   1.743   4.323  15.839  0.0237 -0.6028 -0.5749
 8127SOL    HW136014   1.773   4.370  15.917 -4.1378 -0.6638  1.0384
 8127SOL    HW236015   1.699   4.395  15.794  1.4891  0.3495 -0.4938
 8128SOL     OW36016   3.065   0.326   4.676 -0.4610 -0.0377  0.2212
 8128SOL    HW136017   3.018   0.275   4.610 -0.4014 -0.8937  0.8392
 8128SOL    HW236018   3.137   0.266   4.693  0.6539  0.2689 -3.3751
 8129SOL     OW36019   0.662   4.116   9.856 -0.3997 -0.4737 -0.8993
 8129SOL    HW136020   0.658   4.129   9.951  0.4512  0.8172 -1.0431
 8129SOL    HW236021   0.678   4.206   9.828 -1.6459  0.2403  0.7157
 8130SOL     OW36022   4.590   0.075   6.092  0.2816  0.2340  0.3800
 8130SOL    HW136023   4.598   0.028   6.008 -0.3747  0.1301  0.3741
 8130SOL    HW236024   4.654   0.020   6.137 -2.2326 -3.1060 -0.1301
 8131SOL     OW36025   3.574   2.809  11.711  0.0928 -0.5790  1.0981
 8131SOL    HW136026   3.500   2.868  11.726  1.5343  1.7784 -1.0445
 8131SOL    HW236027   3.616   2.826  11.796 -0.8802 -3.0288  2.0601
 8132SOL     OW36028   2.222   1.419   1.242  0.4869  0.0513 -0.1261
 8132SOL    HW136029   2.138   1.417   1.197  1.0832 -0.2761 -1.2320
 8132SOL    HW236030   2.217   1.497   1.297 -1.5266 -1.9147  2.4858
 8133SOL     OW36031   3.738   3.421   8.634  0.2429  0.0540 -0.3697
 8133SOL    HW136032   3.651   3.453   8.613  0.1393  0.4230  0.6245
 8133SOL    HW236033   3.719   3.334   8.669  0.6334  0.4518  0.8609
 8134SOL     OW36034   3.999   2.686   2.849  0.8840  0.5364  0.1169
 8134SOL    HW136035   4.033   2.708   2.763 -0.7829 -1.5652 -1.0776
 8134SOL    HW236036   3.990   2.775   2.881 -0.7135  0.3336  0.2387
 8135SOL     OW36037   2.710   2.010  11.435 -0.1724  0.6309  0.1006
 8135SOL    HW136038   2.642   1.948  11.410  0.6849  0.1071 -0.9355
 8135SOL    HW236039   2.696   2.018  11.530 -0.4759 -0.0708  0.1169
 8136SOL     OW36040   2.612   2.299   0.087 -0.1663 -0.3360 -0.3385
 8136SOL    HW136041   2.596   2.317  17.747  1.9956  0.4083 -0.5741
 8136SOL    HW236042   2.542   2.354   0.121  0.0402  0.8466 -1.8245
 8137SOL     OW36043   1.053   3.701   3.313 -0.0379  0.0339  0.0752
 8137SOL    HW136044   1.149   3.707   3.308 -0.0874  2.3046  2.0532
 8137SOL    HW236045   1.030   3.770   3.250  1.9288 -0.0997 -0.7811
 8138SOL     OW36046   2.761   1.236   7.797  0.1796  0.3938 -0.3248
 8138SOL    HW136047   2.714   1.202   7.720  0.0959 -1.4338  0.5195
 8138SOL    HW236048   2.835   1.180   7.821 -0.3229  0.0904  0.5000
 8139SOL     OW36049   2.929   2.143   3.354  0.8257  0.0307  0.0981
 8139SOL    HW136050   2.941   2.212   3.288  1.9192  0.1892  0.4545
 8139SOL    HW236051   2.979   2.168   3.432  0.3475  0.1794  0.3532
 8140SOL     OW36052   4.366   4.555   2.647  0.5135 -0.0734  0.2594
 8140SOL    HW136053   4.383   4.474   2.599 -0.3549 -0.6000  0.8374
 8140SOL    HW236054   4.276   4.536   2.673  0.5617 -1.4548 -0.5859
 8141SOL     OW36055   4.170   0.372   8.836  0.0006  0.5713 -0.5556
 8141SOL    HW136056   4.079   0.344   8.828  0.0928  0.3422 -0.8148
 8141SOL    HW236057   4.207   0.317   8.767  0.7231  2.4825 -1.6924
 8142SOL     OW36058   1.724   0.964  17.268  0.0763  0.2552 -0.2461
 8142SOL    HW136059   1.712   1.034  17.204  0.1267  0.7277  0.2639
 8142SOL    HW236060   1.705   0.886  17.215  0.6947  0.0598 -0.1788
 8143SOL     OW36061   0.991   3.612   8.851  0.4800  0.5574  0.5948
 8143SOL    HW136062   1.056   3.680   8.835  0.6010  0.0672 -1.0671
 8143SOL    HW236063   0.940   3.613   8.770  2.4457 -2.5665 -0.6933
 8144SOL     OW36064   3.609   2.218  10.471 -0.0923  0.6494 -0.2630
 8144SOL    HW136065   3.676   2.266  10.519 -1.7673  1.8023  0.9145
 8144SOL    HW236066   3.611   2.136  10.520 -1.0880 -0.4090 -1.9619
 8145SOL     OW36067   2.004   0.420  14.438 -0.0688 -0.4678 -0.5796
 8145SOL    HW136068   2.053   0.420  14.521 -1.2781 -0.1085  0.1404
 8145SOL    HW236069   1.996   0.514  14.419  0.3658 -0.4540 -0.6973
 8146SOL     OW36070   3.252   0.720   7.667  0.2092 -0.7028  0.2886
 8146SOL    HW136071   3.345   0.731   7.686 -0.3632  1.4149  1.9128
 8146SOL    HW236072   3.226   0.806   7.702 -2.3413 -1.4408  0.2694
 8147SOL     OW36073   1.886   2.687   8.138 -0.2298  0.6263  0.4128
 8147SOL    HW136074   1.808   2.634   8.122 -0.7719  1.3152  0.7787
 8147SOL    HW236075   1.905   2.649   8.224  0.7365 -0.3894 -0.2480
 8148SOL     OW36076   2.213   4.727   6.184 -0.0171 -0.6187  0.1322
 8148SOL    HW136077   2.260   4.676   6.250 -1.5939 -1.7542  0.3847
 8148SOL    HW236078   2.245   0.076   6.202  0.4100 -1.0214  1.3735
 8149SOL     OW36079   2.027   2.032   6.863 -0.2114  0.3410 -0.0305
 8149SOL    HW136080   2.093   1.982   6.816 -1.9688 -0.8221 -1.2749
 8149SOL    HW236081   2.090   2.085   6.912 -1.3327 -0.1223  1.9164
 8150SOL     OW36082   0.885   1.664   3.725  0.1845  0.0333  0.3037
 8150SOL    HW136083   0.827   1.721   3.674 -0.0336  0.7361  1.3368
 8150SOL    HW236084   0.952   1.724   3.757  0.1200 -0.9047  2.1878
 8151SOL     OW36085   2.964   3.904   6.606  0.4483 -0.2563 -0.3116
 8151SOL    HW136086   2.906   3.829   6.619  0.4451 -0.1700  0.1767
 8151SOL    HW236087   3.037   3.883   6.664 -1.3710  0.8467  2.3222
 8152SOL     OW36088   0.385   1.303   4.293  0.0324  0.5486 -0.1542
 8152SOL    HW136089   0.402   1.268   4.381 -0.6349 -0.6555 -0.5165
 8152SOL    HW236090   0.463   1.359   4.283 -1.9660  3.4877  0.6328
 8153SOL     OW36091   3.860   1.535  10.648  0.5101 -0.0151 -0.1556
 8153SOL    HW136092   3.847   1.465  10.584 -0.2603  0.3404 -0.3896
 8153SOL    HW236093   3.795   1.587  10.601 -1.9285 -3.1852 -0.2490
 8154SOL     OW36094   2.377   1.403   6.760 -0.0534 -0.0501 -0.2750
 8154SOL    HW136095   2.323   1.368   6.688 -1.3351  0.2871  0.5367
 8154SOL    HW236096   2.384   1.321   6.809  3.4330  0.7109  0.4507
 8155SOL     OW36097   1.776   4.056   0.539 -0.3030 -0.0913 -0.3891
 8155SOL    HW136098   1.728   4.006   0.605  1.3091 -0.4406  0.5370
 8155SOL    HW236099   1.732   4.141   0.532 -0.9926 -0.3514  0.7110
 8156SOL     OW36100   2.704   0.662   5.671  0.4495 -0.0521 -0.1058
 8156SOL    HW136101   2.708   0.567   5.673 -0.5514 -0.1197 -1.3548
 8156SOL    HW236102   2.755   0.670   5.752 -1.7588 -1.3322  1.4085
 8157SOL     OW36103   3.824   2.859   8.157 -0.1263  0.3431 -0.4313
 8157SOL    HW136104   3.859   2.797   8.221  0.5705 -1.0027 -2.1176
 8157SOL    HW236105   3.876   2.938   8.146 -1.5337  1.2116 -0.8088
 8158SOL     OW36106   1.730   1.418   5.835 -0.1109 -0.0748 -0.6497
 8158SOL    HW136107   1.780   1.400   5.756 -2.0896 -2.8019 -1.2699
 8158SOL    HW236108   1.740   1.513   5.834 -1.7245  0.0998  0.1738
 8159SOL     OW36109   4.301   1.158  11.271 -0.0988 -0.2198  0.4066
 8159SOL    HW136110   4.303   1.108  11.353 -0.2352 -2.6546 -1.0536
 8159SOL    HW236111   4.362   1.106  11.218 -0.3564  0.0528 -0.1643
 8160SOL     OW36112   0.824   4.442   6.857  0.2232 -0.5751 -0.4278
 8160SOL    HW136113   0.768   4.367   6.878  0.8235 -0.6749  0.8146
 8160SOL    HW236114   0.788   4.472   6.773  1.8805  0.0978 -0.8877
 8161SOL     OW36115   1.047   3.365   7.013 -0.1768 -0.1861 -0.0061
 8161SOL    HW136116   1.042   3.270   6.999 -0.0815 -0.4156  1.5470
 8161SOL    HW236117   0.955   3.377   7.035  0.5433  1.5028  2.0462
 8162SOL     OW36118   3.075   1.097   2.988  0.3028  0.3266 -0.1181
 8162SOL    HW136119   3.125   1.034   3.041 -1.4543 -0.8522  0.1293
 8162SOL    HW236120   3.022   1.042   2.932  2.4498 -1.0199 -0.8300
 8163SOL     OW36121   4.246   0.211   3.792 -0.6358 -0.1327 -0.2335
 8163SOL    HW136122   4.264   0.233   3.700  3.9108 -2.0260  0.1883
 8163SOL    HW236123   4.332   0.209   3.834  0.4767 -0.5265 -2.5206
 8164SOL     OW36124   3.502   0.691  10.868 -0.5439 -0.0498  0.3027
 8164SOL    HW136125   3.462   0.607  10.890 -0.5074  0.0746  0.8297
 8164SOL    HW236126   3.455   0.752  10.924  2.7070  0.1934  2.7335
 8165SOL     OW36127   2.401   2.417   1.857  0.1534  0.1314 -0.8445
 8165SOL    HW136128   2.489   2.412   1.894  0.3078  1.4991 -1.0229
 8165SOL    HW236129   2.384   2.509   1.875 -1.2540 -0.7651  2.3005
 8166SOL     OW36130   2.926   4.696   4.799  0.3504 -0.4331  0.3702
 8166SOL    HW136131   2.929   0.008   4.718  1.3080 -0.9833  0.0556
 8166SOL    HW236132   2.963   0.011   4.869 -1.1083  1.1367 -0.0848
 8167SOL     OW36133   2.582   0.866   8.211  0.3513 -0.3381  0.0872
 8167SOL    HW136134   2.501   0.896   8.170 -0.0139 -0.4918  0.7007
 8167SOL    HW236135   2.615   0.952   8.237 -0.5837  0.5916 -1.7929
 8168SOL     OW36136   1.804   1.613   6.899  0.1171  0.3175 -0.2030
 8168SOL    HW136137   1.746   1.543   6.929 -0.7142  0.3836 -1.6722
 8168SOL    HW236138   1.804   1.665   6.980  0.0312  0.4403 -0.2829
 8169SOL     OW36139   1.043   3.334   4.786 -0.5631  0.3034 -0.1132
 8169SOL    HW136140   0.974   3.289   4.738 -1.7013  0.1398  1.6931
 8169SOL    HW236141   1.118   3.292   4.742 -1.0529  0.9045 -1.5117
 8170SOL     OW36142   3.977   4.315  15.889 -0.2420 -0.0148  0.3186
 8170SOL    HW136143   4.015   4.288  15.806  0.6824  0.0316  0.7299
 8170SOL    HW236144   3.955   4.407  15.874  0.3377  0.3578  1.7275
 8171SOL     OW36145   3.309   4.518  16.576 -0.7188  0.0206 -0.0754
 8171SOL    HW136146   3.392   4.564  16.588  0.3740 -1.4255 -2.1942
 8171SOL    HW236147   3.312   4.509  16.481  0.4992  0.3659 -0.0671
 8172SOL     OW36148   3.564   2.990   6.826 -0.0425  0.6242  0.1970
 8172SOL    HW136149   3.581   3.035   6.908  1.2554  1.5418 -0.5770
 8172SOL    HW236150   3.505   2.923   6.859  0.8676  0.7543  2.0547
 8173SOL     OW36151   2.143   0.480   9.010 -0.3778 -0.0832  0.1636
 8173SOL    HW136152   2.095   0.419   9.066 -0.3282  0.6233  0.9752
 8173SOL    HW236153   2.074   0.486   8.943  0.7703 -0.2159 -1.0456
 8174SOL     OW36154   3.284   0.537   0.989 -0.2857  0.4616  0.1346
 8174SOL    HW136155   3.284   0.603   1.058 -0.1815  0.6702 -0.0663
 8174SOL    HW236156   3.311   0.581   0.909  2.9445 -2.9077 -0.6213
 8175SOL     OW36157   0.082   1.127   6.637 -0.3887  0.1905 -0.1023
 8175SOL    HW136158   0.133   1.139   6.557 -1.7529  0.5566 -0.9251
 8175SOL    HW236159   0.035   1.211   6.637 -0.6463  0.0484  0.5331
 8176SOL     OW36160   4.651   1.398  16.238  0.8236  0.0287 -0.4038
 8176SOL    HW136161   4.711   1.461  16.198  1.8176 -0.6371  0.0500
 8176SOL    HW236162   4.601   1.353  16.170  3.6235 -0.1434 -2.3366
 8177SOL     OW36163   1.054   3.096   4.980  0.4931  0.0732 -0.1954
 8177SOL    HW136164   1.075   3.063   5.067 -0.0151 -2.2042 -0.9175
 8177SOL    HW236165   1.041   3.188   5.005 -1.0329  0.0079 -0.7164
 8178SOL     OW36166   1.969   2.983   4.052  0.6465 -0.6779 -0.5576
 8178SOL    HW136167   1.959   2.962   3.959 -2.4735  1.0788 -0.6252
 8178SOL    HW236168   1.997   2.900   4.089  1.2614 -0.6767 -1.0368
 8179SOL     OW36169   1.843   1.219   4.745 -0.6739 -0.9315 -0.1787
 8179SOL    HW136170   1.767   1.239   4.800 -1.8136 -1.1500 -1.6543
 8179SOL    HW236171   1.800   1.224   4.659  0.3730  0.8483 -0.5970
 8180SOL     OW36172   2.969   1.697   7.819 -0.0338  0.1546 -0.2955
 8180SOL    HW136173   3.029   1.649   7.876 -2.2827  0.2087  2.0923
 8180SOL    HW236174   2.928   1.629   7.765 -1.0588  1.7579 -1.5576
 8181SOL     OW36175   4.736   2.968  16.389 -0.0589  0.1736  0.3558
 8181SOL    HW136176   4.676   2.991  16.317 -0.1151  1.8707  0.9504
 8181SOL    HW236177   0.074   3.013  16.355  0.4456 -0.3014  0.8740
 8182SOL     OW36178   0.353   4.733   6.903 -0.6755  0.1279  0.3025
 8182SOL    HW136179   0.274   4.731   6.849  1.3358  0.9815 -2.6317
 8182SOL    HW236180   0.429   4.722   6.846 -0.8380  2.2885 -0.3033
 8183SOL     OW36181   0.547   0.459  13.763 -0.1945  0.4380  0.1157
 8183SOL    HW136182   0.612   0.400  13.802  1.1646  1.7325 -0.2030
 8183SOL    HW236183   0.507   0.415  13.688 -2.4813  1.6812  0.6098
 8184SOL     OW36184   1.499   3.828   9.293  0.5572  0.1956  0.2619
 8184SOL    HW136185   1.515   3.739   9.323  0.7593 -0.0920 -0.7217
 8184SOL    HW236186   1.407   3.832   9.319  0.1043 -0.5483 -1.2707
 8185SOL     OW36187   2.205   1.812  15.657  0.4920 -0.1588 -0.1935
 8185SOL    HW136188   2.233   1.888  15.710  2.5532 -3.2041  3.1027
 8185SOL    HW236189   2.123   1.830  15.612 -0.1256 -0.5505  0.7867
 8186SOL     OW36190   0.759   2.109  10.963 -0.1162 -0.0033 -0.0416
 8186SOL    HW136191   0.847   2.130  10.994 -0.2831  0.0775  0.3878
 8186SOL    HW236192   0.713   2.143  11.040 -0.7323  0.5403 -0.6536
 8187SOL     OW36193   2.557   0.796   1.689 -0.2905  0.2832  0.0224
 8187SOL    HW136194   2.570   0.825   1.780 -0.9409  1.0450 -0.1252
 8187SOL    HW236195   2.620   0.727   1.669 -0.9459 -0.6314  1.1204
 8188SOL     OW36196   4.194   3.435   8.996 -0.6304 -0.4957 -0.6209
 8188SOL    HW136197   4.176   3.349   9.034  0.6968 -0.3448  0.3359
 8188SOL    HW236198   4.277   3.427   8.948  0.3915  1.1571  0.8908
 8189SOL     OW36199   3.054   1.749  16.499  0.3205  0.4013 -0.1583
 8189SOL    HW136200   2.979   1.802  16.526  1.2753  1.6614  0.0345
 8189SOL    HW236201   3.086   1.732  16.587  1.6194 -0.2690 -0.7615
 8190SOL     OW36202   2.053   1.468  11.447  0.7561 -0.7187  0.4887
 8190SOL    HW136203   2.122   1.458  11.381  0.2976 -1.3482  0.0974
 8190SOL    HW236204   2.005   1.385  11.436  0.4491 -0.5703  0.7131
 8191SOL     OW36205   2.395   0.885   5.396 -0.0899  0.1724  1.0384
 8191SOL    HW136206   2.361   0.826   5.463 -1.5854 -0.0736  0.0615
 8191SOL    HW236207   2.330   0.954   5.401 -0.5712 -0.0038 -2.3682
 8192SOL     OW36208   3.418   1.093   8.853 -0.6897 -0.2648  0.0541
 8192SOL    HW136209   3.345   1.144   8.819  0.4330  1.6240  0.4816
 8192SOL    HW236210   3.473   1.165   8.884  1.9623 -2.1702 -0.1572
 8193SOL     OW36211   4.696   3.724  16.049 -0.5745  0.3469  0.3823
 8193SOL    HW136212   4.679   3.811  16.014  1.4623  0.7628  0.4569
 8193SOL    HW236213   4.639   3.734  16.126 -0.3970 -1.6118  0.7570
 8194SOL     OW36214   0.503   3.183   4.368  0.0805  0.0196 -0.3823
 8194SOL    HW136215   0.408   3.182   4.356  0.1286 -1.3660 -0.5948
 8194SOL    HW236216   0.508   3.151   4.458 -0.5986 -0.4998 -0.5307
 8195SOL     OW36217   1.856   4.321   9.344  0.0830 -0.2926 -0.2338
 8195SOL    HW136218   1.867   4.278   9.428 -0.8358  0.7272  0.4051
 8195SOL    HW236219   1.876   4.255   9.277  2.5272  0.2847 -0.0674
 8196SOL     OW36220   2.919   4.567   5.905  0.0268  0.3359 -0.4736
 8196SOL    HW136221   2.969   4.550   5.825  2.0747 -0.5569  0.9840
 8196SOL    HW236222   2.830   4.579   5.873 -0.1477 -1.7330 -0.8077
 8197SOL     OW36223   3.638   2.519  11.776 -0.1747  0.2985 -0.7058
 8197SOL    HW136224   3.702   2.536  11.707  0.4430 -0.4774 -0.3290
 8197SOL    HW236225   3.675   2.546  11.860 -1.9685  1.8908 -0.4437
 8198SOL     OW36226   4.508   1.094   6.502 -0.5648  0.2763 -0.3538
 8198SOL    HW136227   4.457   1.134   6.573 -0.1843  0.8174 -0.3838
 8198SOL    HW236228   4.445   1.048   6.447 -0.0186 -0.4720 -0.3507
 8199SOL     OW36229   4.335   1.396   3.772  0.6283 -0.5974  0.1757
 8199SOL    HW136230   4.420   1.387   3.813  0.8999 -0.7693 -0.4218
 8199SOL    HW236231   4.281   1.440   3.837 -0.3501 -1.1869 -0.2289
 8200SOL     OW36232   2.990   2.910   2.557  0.3880 -0.4401 -0.5448
 8200SOL    HW136233   2.942   2.955   2.488 -0.8242  0.2610  0.7547
 8200SOL    HW236234   2.926   2.929   2.626  1.4089  0.0171  0.2726
 8201SOL     OW36235   4.104   3.394   0.565 -0.0975  0.1518 -0.2699
 8201SOL    HW136236   4.034   3.427   0.622 -1.1891 -0.5933 -1.1866
 8201SOL    HW236237   4.061   3.338   0.500  1.8494  0.1417 -1.5334
 8202SOL     OW36238   2.924   4.157   6.739  0.2601  0.3176  0.3278
 8202SOL    HW136239   2.905   4.089   6.675 -0.2211  2.7126 -2.0662
 8202SOL    HW236240   2.969   4.209   6.673 -0.8758 -0.1876 -0.8379
 8203SOL     OW36241   0.886   1.798  10.555 -0.8970  0.4561  0.2959
 8203SOL    HW136242   0.866   1.713  10.594  0.7891  0.7846  1.8973
 8203SOL    HW236243   0.855   1.862  10.620  1.1164  0.6324  1.0897
 8204SOL     OW36244   0.186   1.610   7.516 -0.0646 -0.0010 -0.1811
 8204SOL    HW136245   0.199   1.638   7.606  1.0751 -2.5546  0.4341
 8204SOL    HW236246   0.093   1.632   7.512 -0.0850  0.2134  1.6470
 8205SOL     OW36247   2.918   2.598  10.426  0.0486 -0.3775 -0.5121
 8205SOL    HW136248   2.947   2.525  10.481 -1.6189  0.4089  1.3884
 8205SOL    HW236249   2.998   2.641  10.397  1.4666 -1.9014  1.1007
 8206SOL     OW36250   1.711   0.186   8.463 -0.0578 -0.7873  1.2162
 8206SOL    HW136251   1.670   0.099   8.458 -1.8169  0.1466 -0.5294
 8206SOL    HW236252   1.750   0.190   8.550  2.6026 -1.1422  0.0289
 8207SOL     OW36253   1.048   2.165   2.298  0.1251 -0.7964 -0.0502
 8207SOL    HW136254   0.959   2.180   2.331  1.5476  1.8229  2.5667
 8207SOL    HW236255   1.029   2.097   2.234  0.2419  1.3622 -2.3465
 8208SOL     OW36256   1.941   1.933   0.351  0.3013  0.6620 -0.1053
 8208SOL    HW136257   1.938   1.838   0.367  0.3685  0.7525  0.4498
 8208SOL    HW236258   2.027   1.936   0.310  0.7985  2.3674  1.0958
 8209SOL     OW36259   0.867   1.869   1.726  0.3767 -0.6952  0.1216
 8209SOL    HW136260   0.866   1.819   1.644 -2.5268  2.5968 -1.8439
 8209SOL    HW236261   0.776   1.900   1.733 -0.5897 -3.1478 -1.7232
 8210SOL     OW36262   0.044   1.757   8.906  0.0357 -0.3046 -0.6161
 8210SOL    HW136263   0.029   1.727   8.995  0.8652 -1.1714 -0.7651
 8210SOL    HW236264   0.041   1.852   8.905 -0.8960 -0.3423 -0.4761
 8211SOL     OW36265   1.567   0.296   4.146  0.6489  0.4010  0.6500
 8211SOL    HW136266   1.540   0.319   4.057  4.3422 -0.5410 -0.7092
 8211SOL    HW236267   1.506   0.352   4.194 -1.6624  0.3481 -2.2469
 8212SOL     OW36268   3.671   4.603   3.746 -0.2309 -0.8758 -0.2156
 8212SOL    HW136269   3.621   4.671   3.791 -1.7025 -0.5494 -2.3716
 8212SOL    HW236270   3.750   4.653   3.725 -0.9492  0.6855  0.8030
 8213SOL     OW36271   3.658   3.789   8.679  0.3897 -0.6028 -0.2592
 8213SOL    HW136272   3.588   3.749   8.729 -0.8113  0.0039 -1.4692
 8213SOL    HW236273   3.661   3.867   8.735 -1.5957  0.5071 -1.7337
 8214SOL     OW36274   4.737   1.399   6.609  0.1820 -0.0285  0.2727
 8214SOL    HW136275   4.652   1.428   6.643 -0.7081  0.7188 -2.5144
 8214SOL    HW236276   4.715   1.387   6.516  0.7603  1.1662 -0.0254
 8215SOL     OW36277   2.453   0.907   8.689 -0.6627  0.0809 -0.2055
 8215SOL    HW136278   2.385   0.884   8.752  1.3265 -0.4075  1.7338
 8215SOL    HW236279   2.527   0.866   8.733 -1.7674  0.2391  1.7640
 8216SOL     OW36280   2.255   3.618   0.803 -0.6602  0.5895  0.2763
 8216SOL    HW136281   2.233   3.539   0.753 -0.0467  0.5403  0.0819
 8216SOL    HW236282   2.267   3.681   0.731 -1.5895 -0.1278 -0.5107
 8217SOL     OW36283   1.568   4.355   5.811  0.2615  0.2864  0.1116
 8217SOL    HW136284   1.507   4.312   5.870  1.5599 -0.3336  1.0076
 8217SOL    HW236285   1.523   4.368   5.727  2.1943 -2.1020 -1.3109
 8218SOL     OW36286   2.410   0.308   4.445 -0.3341 -0.5159  0.5375
 8218SOL    HW136287   2.389   0.401   4.441  0.8566 -0.1789  1.9003
 8218SOL    HW236288   2.424   0.291   4.538 -2.2091 -1.0011  0.7299
 8219SOL     OW36289   1.581   4.531  16.150  0.0130  0.1114  0.0047
 8219SOL    HW136290   1.589   4.594  16.221 -2.1334 -0.0036  0.3260
 8219SOL    HW236291   1.506   4.574  16.109  1.9694  0.9947 -2.6383
 8220SOL     OW36292   1.447   0.371   3.860  0.0469 -0.2962  0.1308
 8220SOL    HW136293   1.389   0.423   3.916 -0.6218 -0.3392 -0.5169
 8220SOL    HW236294   1.394   0.360   3.781 -0.0577  0.6820  0.0667
 8221SOL     OW36295   3.345   3.547   5.684  0.0034  0.4644 -0.6285
 8221SOL    HW136296   3.333   3.470   5.628 -0.2121 -0.0114  0.0739
 8221SOL    HW236297   3.412   3.594   5.635  0.0731  0.7987 -0.2106
 8222SOL     OW36298   1.232   1.661   7.384 -0.0226  0.2781  0.3113
 8222SOL    HW136299   1.182   1.737   7.414  0.7774  1.3150 -1.0027
 8222SOL    HW236300   1.165   1.593   7.391 -0.3686  0.6396  0.4709
 8223SOL     OW36301   0.144   2.795   0.641 -0.7960 -0.8331  0.1569
 8223SOL    HW136302   0.117   2.704   0.631 -1.8341 -0.7840  2.3842
 8223SOL    HW236303   0.238   2.786   0.627 -0.6843  0.1590  0.2572
 8224SOL     OW36304   0.098   4.373  11.948 -0.5894 -0.3902 -0.6225
 8224SOL    HW136305   0.102   4.342  12.038  0.6372 -2.2962 -1.3550
 8224SOL    HW236306   0.026   4.434  11.967  1.6909  1.3201  2.5166
 8225SOL     OW36307   3.579   4.228  12.928 -0.3474 -0.0903 -0.6325
 8225SOL    HW136308   3.595   4.166  12.999 -2.3041 -0.7746 -0.7823
 8225SOL    HW236309   3.488   4.201  12.913  0.3089 -2.0008 -1.1630
 8226SOL     OW36310   1.774   2.017  15.493  0.3768 -0.4869  0.0444
 8226SOL    HW136311   1.713   2.075  15.538  0.4637  0.1562 -0.6611
 8226SOL    HW236312   1.791   2.061  15.410  0.9861 -1.4474 -0.3467
 8227SOL     OW36313   0.389   1.898  16.013 -0.4399 -0.3725  0.5870
 8227SOL    HW136314   0.378   1.803  16.017  2.1087 -0.6945 -0.3639
 8227SOL    HW236315   0.410   1.904  15.920 -3.0003 -1.0555 -0.0474
 8228SOL     OW36316   2.741   3.391   8.186  0.3716 -0.1627 -0.1663
 8228SOL    HW136317   2.778   3.319   8.237  1.5213  0.8274  0.3909
 8228SOL    HW236318   2.661   3.349   8.153 -0.3244  1.3398 -0.3878
 8229SOL     OW36319   2.070   0.548   0.589 -0.0197 -0.2388  0.3126
 8229SOL    HW136320   2.071   0.643   0.573 -0.1969 -0.4185 -0.7352
 8229SOL    HW236321   2.092   0.559   0.682 -0.4896 -0.5352  0.4633
 8230SOL     OW36322   3.199   3.906   9.056  0.5716 -0.4989  0.2496
 8230SOL    HW136323   3.217   3.984   9.003  0.0644 -0.1441  0.5903
 8230SOL    HW236324   3.175   3.838   8.994 -0.4204 -0.4539  0.5793
 8231SOL     OW36325   1.511   1.489  12.109 -0.2538 -0.2313  0.0787
 8231SOL    HW136326   1.469   1.422  12.163  0.8042  0.9683  2.4020
 8231SOL    HW236327   1.448   1.501  12.038 -0.0846  0.7973  0.0942
 8232SOL     OW36328   1.249   0.109  17.573 -0.2269 -0.4748 -0.7366
 8232SOL    HW136329   1.182   0.059  17.528 -0.4545  0.3748 -1.3453
 8232SOL    HW236330   1.201   0.192  17.577  0.4103 -0.2896  3.1264
 8233SOL     OW36331   3.972   0.874   5.851 -0.3502  0.0165 -0.2298
 8233SOL    HW136332   4.066   0.882   5.832  0.0895 -2.7205  0.8264
 8233SOL    HW236333   3.932   0.936   5.790  1.1198  1.7614  0.5612
 8234SOL     OW36334   1.236   4.397   6.645 -0.1123  0.0235  0.0061
 8234SOL    HW136335   1.160   4.405   6.703 -0.6922 -1.1663 -0.5883
 8234SOL    HW236336   1.293   4.425   6.716  1.6680 -2.0209 -0.6216
 8235SOL     OW36337   0.055   2.631   8.576  0.1524  0.9426  0.2893
 8235SOL    HW136338   0.029   2.556   8.630 -0.9485 -1.7384 -3.9817
 8235SOL    HW236339   0.132   2.590   8.536 -0.5340  0.0974 -0.1647
 8236SOL     OW36340   0.171   1.703   2.957 -0.3516 -1.1304  0.2779
 8236SOL    HW136341   0.202   1.613   2.968 -0.6449 -1.6546 -3.1640
 8236SOL    HW236342   0.121   1.711   3.038 -1.3977  1.8284 -0.6600
 8237SOL     OW36343   0.648   3.416   6.379 -0.1800  0.2099  0.0655
 8237SOL    HW136344   0.702   3.368   6.316 -0.5477 -1.0315  0.6937
 8237SOL    HW236345   0.558   3.411   6.347  0.2384  0.0231 -1.0827
 8238SOL     OW36346   4.125   4.594   9.768  0.0877 -0.0837 -0.4778
 8238SOL    HW136347   4.038   4.613   9.802 -0.5773 -2.5853 -0.7492
 8238SOL    HW236348   4.112   4.530   9.698 -2.0161 -0.5947  0.3833
 8239SOL     OW36349   3.483   1.933   9.677  0.6209 -0.4516 -0.7213
 8239SOL    HW136350   3.430   1.939   9.757  0.5278  0.7026 -0.8668
 8239SOL    HW236351   3.421   1.968   9.614 -0.2524 -1.8389 -0.6388
 8240SOL     OW36352   3.357   4.621  12.847 -0.6744  0.2096  0.2451
 8240SOL    HW136353   3.289   4.647  12.909 -0.7785  0.6032 -0.0418
 8240SOL    HW236354   3.317   4.544  12.806  0.9580 -0.3548 -0.2973
 8241SOL     OW36355   4.725   1.639   8.641 -0.0958  0.5288 -0.6106
 8241SOL    HW136356   4.641   1.595   8.633  0.5237 -0.4457 -1.7272
 8241SOL    HW236357   4.711   1.703   8.711 -0.0006 -4.1287  3.6114
 8242SOL     OW36358   0.686   0.237   5.316 -0.2635 -0.7161 -0.0450
 8242SOL    HW136359   0.742   0.210   5.244 -0.3921  0.9107 -0.7740
 8242SOL    HW236360   0.748   0.228   5.387 -0.6026 -1.8232  0.1025
 8243SOL     OW36361   2.489   2.585  17.664 -0.5016 -0.0087 -0.2554
 8243SOL    HW136362   2.424   2.516  17.670 -2.2269  1.5710 -0.9085
 8243SOL    HW236363   2.492   2.611  17.572 -0.2199 -0.4983 -0.3875
 8244SOL     OW36364   3.715   0.434  10.668 -0.4975  0.3295  0.4000
 8244SOL    HW136365   3.671   0.508  10.625  0.0779 -0.4774 -1.5934
 8244SOL    HW236366   3.684   0.447  10.757 -0.5043  1.3088  0.2603
 8245SOL     OW36367   1.994   3.687  10.603 -0.1263 -0.6480 -0.3136
 8245SOL    HW136368   2.061   3.698  10.671  0.0615  1.0401 -0.7945
 8245SOL    HW236369   1.918   3.711  10.656 -0.2141  0.6519 -1.0363
 8246SOL     OW36370   2.590   3.940   2.933 -0.2913 -0.5667  0.3573
 8246SOL    HW136371   2.636   4.023   2.921 -0.3897 -0.6394 -0.5814
 8246SOL    HW236372   2.572   3.912   2.843  0.5002 -0.7789  0.2717
 8247SOL     OW36373   1.229   3.899   9.339  0.4704  0.3191 -0.0646
 8247SOL    HW136374   1.166   3.859   9.399 -0.0387 -0.5788 -1.1995
 8247SOL    HW236375   1.174   3.977   9.332  1.3108  0.7750 -1.5740
 8248SOL     OW36376   0.998   0.125   6.961 -0.9528 -0.4827  0.0370
 8248SOL    HW136377   0.912   0.097   6.993 -1.4644  0.3635 -0.6129
 8248SOL    HW236378   1.053   0.047   6.970 -0.6135 -0.2368  0.0711
 8249SOL     OW36379   3.688   4.478   6.924  0.6000 -0.4083  0.1175
 8249SOL    HW136380   3.689   4.573   6.914 -0.0098 -0.5863 -1.7520
 8249SOL    HW236381   3.716   4.478   7.015 -2.8137 -2.5475  1.1622
 8250SOL     OW36382   2.496   1.206  17.500  0.2182  0.0091 -0.0531
 8250SOL    HW136383   2.422   1.235  17.553  0.4586  1.0374 -0.2689
 8250SOL    HW236384   2.563   1.257  17.547  0.8795 -1.8374  1.0047
 8251SOL     OW36385   0.463   4.229  10.844 -0.1873 -0.4124 -0.3863
 8251SOL    HW136386   0.454   4.238  10.939 -1.4351 -0.0629 -0.5481
 8251SOL    HW236387   0.542   4.276  10.819  0.5166 -0.1329  2.3704
 8252SOL     OW36388   2.921   3.820  17.697  0.5485  0.4019 -0.4695
 8252SOL    HW136389   2.971   3.741  17.678 -2.1642 -1.9097  1.9920
 8252SOL    HW236390   2.973   3.858   0.015 -3.0469 -1.0981  3.0069
 8253SOL     OW36391   3.492   0.901  14.748  0.0281  0.0491  0.1575
 8253SOL    HW136392   3.583   0.927  14.735  0.7725 -1.5301  2.0787
 8253SOL    HW236393   3.506   0.818  14.702 -2.6681 -0.7993  0.8367
 8254SOL     OW36394   1.453   0.314  12.006  0.3188 -0.3369 -0.1917
 8254SOL    HW136395   1.514   0.241  12.004 -1.1054 -1.5388 -0.0853
 8254SOL    HW236396   1.375   0.268  12.037 -1.4745  0.4988 -3.4419
 8255SOL     OW36397   3.000   1.183   8.003  0.0763 -0.0687 -0.2815
 8255SOL    HW136398   3.036   1.233   7.930 -1.8451  2.0934  0.2799
 8255SOL    HW236399   3.063   1.207   8.071  1.2927 -3.3430 -0.2300
 8256SOL     OW36400   3.396   1.808   2.712 -0.1649 -0.1643  0.3372
 8256SOL    HW136401   3.358   1.822   2.625 -1.2900 -1.1502  0.6593
 8256SOL    HW236402   3.491   1.810   2.700 -0.4536  1.0025 -1.7317
 8257SOL     OW36403   0.662   1.377  15.253 -0.3145  0.3384 -0.8674
 8257SOL    HW136404   0.750   1.348  15.229 -0.9315  0.6863 -3.5664
 8257SOL    HW236405   0.643   1.304  15.311 -0.5481  0.3506 -0.9289
 8258SOL     OW36406   2.397   3.293   1.928 -0.2401 -0.0366  0.4989
 8258SOL    HW136407   2.433   3.296   1.840 -1.5226  2.1661  0.0396
 8258SOL    HW236408   2.464   3.249   1.980 -0.8586 -0.5868  0.8289
 8259SOL     OW36409   4.167   1.102   5.509  0.4414  0.3513 -0.1513
 8259SOL    HW136410   4.240   1.162   5.496 -0.0949  0.5785 -2.0395
 8259SOL    HW236411   4.196   1.054   5.587 -0.3129 -0.4476 -0.3609
 8260SOL     OW36412   0.987   2.221  10.204 -0.4782 -0.1984 -0.0268
 8260SOL    HW136413   0.907   2.266  10.232 -0.6958 -0.2530 -0.5494
 8260SOL    HW236414   0.945   2.143  10.169 -0.9242  0.0968 -0.1560
 8261SOL     OW36415   0.772   2.160   1.778  0.1046 -0.8040 -0.1038
 8261SOL    HW136416   0.863   2.168   1.752 -0.0201 -0.4933 -0.4419
 8261SOL    HW236417   0.783   2.194   1.867  1.9561 -1.4961 -0.0847
 8262SOL     OW36418   4.240   4.177  16.468  0.3075  0.8729 -0.4336
 8262SOL    HW136419   4.233   4.083  16.485  0.3012  1.0390  0.4865
 8262SOL    HW236420   4.209   4.193  16.558  1.4377 -0.9736  0.2775
 8263SOL     OW36421   4.164   2.366   8.843 -0.3108  0.6048 -0.5625
 8263SOL    HW136422   4.086   2.360   8.788 -1.5003  0.0828  1.1810
 8263SOL    HW236423   4.177   2.272   8.852 -2.6084  0.4746  1.2243
 8264SOL     OW36424   1.162   2.109   7.242 -0.0784  0.4529 -0.1016
 8264SOL    HW136425   1.233   2.076   7.188 -0.1494 -0.6762  0.4890
 8264SOL    HW236426   1.209   2.182   7.283  1.0179 -0.7419  0.7662
 8265SOL     OW36427   0.575   3.964   2.698  0.5214  0.1297 -0.3448
 8265SOL    HW136428   0.602   4.052   2.672 -0.5308  0.8711  1.0659
 8265SOL    HW236429   0.532   3.990   2.779  2.0333 -0.2246  0.5765
 8266SOL     OW36430   2.123   1.078  11.929 -0.0045 -0.9070 -0.4219
 8266SOL    HW136431   2.171   1.160  11.941 -1.0638 -0.0652 -1.9101
 8266SOL    HW236432   2.081   1.076  12.014  1.2598  1.3843  0.2392
 8267SOL     OW36433   0.522   2.458   8.393 -0.3397  0.4607 -0.1034
 8267SOL    HW136434   0.573   2.402   8.333 -0.0531  0.8695 -0.2423
 8267SOL    HW236435   0.590   2.492   8.451 -0.7042 -0.5356  0.8915
 8268SOL     OW36436   4.022   2.006  17.399 -0.5082 -0.2889 -0.4539
 8268SOL    HW136437   4.017   2.073  17.330 -0.4395 -2.3458 -2.4445
 8268SOL    HW236438   4.113   1.991  17.374 -0.9212 -0.1628 -2.0499
 8269SOL     OW36439   0.625   1.578   8.309  0.8566  0.0130  0.8480
 8269SOL    HW136440   0.676   1.497   8.298  0.4825 -0.2496  1.0365
 8269SOL    HW236441   0.570   1.559   8.385  0.2514  0.3098  0.4825
 8270SOL     OW36442   0.938   4.405   4.638  0.4617  0.1119  0.4276
 8270SOL    HW136443   0.863   4.365   4.594  0.2781  0.4654  0.4243
 8270SOL    HW236444   0.897   4.455   4.708  1.8318 -2.8527  3.3863
 8271SOL     OW36445   3.894   1.382   3.956  0.7219 -0.6406  0.5391
 8271SOL    HW136446   3.909   1.474   3.980 -0.2284  0.1368 -1.8670
 8271SOL    HW236447   3.839   1.393   3.879  0.8027 -1.6605  0.3372
 8272SOL     OW36448   4.344   1.374   4.439  0.4534  0.5934 -0.8618
 8272SOL    HW136449   4.323   1.338   4.353 -2.0316 -0.1318  0.0602
 8272SOL    HW236450   4.437   1.396   4.431  0.7631 -1.0208 -1.7206
 8273SOL     OW36451   1.122   1.255   0.491  0.1112  0.4761 -0.4767
 8273SOL    HW136452   1.097   1.192   0.558  1.7822 -0.5235 -0.8025
 8273SOL    HW236453   1.090   1.204   0.417 -0.9443 -2.2096  1.8488
 8274SOL     OW36454   1.935   1.852  17.161 -0.0156 -0.4890  0.0440
 8274SOL    HW136455   1.856   1.875  17.211  1.0489  1.6044  0.7670
 8274SOL    HW236456   1.994   1.828  17.232 -0.0479 -0.5657  0.0446
 8275SOL     OW36457   3.637   3.786  12.731  0.0534  0.5115 -0.1461
 8275SOL    HW136458   3.636   3.778  12.826  0.1810 -1.1442 -0.2796
 8275SOL    HW236459   3.562   3.845  12.729  0.8872  1.6310  2.1807
 8276SOL     OW36460   1.351   0.085   6.717  0.2035  0.1330  0.1703
 8276SOL    HW136461   1.405   0.155   6.682 -0.5550 -0.4507 -2.2074
 8276SOL    HW236462   1.422   0.023   6.735 -0.9166 -0.9157  0.9419
 8277SOL     OW36463   4.477   1.766   3.423  0.7861 -0.1426 -0.0436
 8277SOL    HW136464   4.513   1.724   3.501 -0.1234  0.5306  0.7341
 8277SOL    HW236465   4.518   1.721   3.350  0.7256 -1.5277  0.7834
 8278SOL     OW36466   4.273   1.877   9.400  0.6258  0.3527 -0.3640
 8278SOL    HW136467   4.272   1.958   9.349  0.6864  0.5456 -0.0608
 8278SOL    HW236468   4.207   1.900   9.466 -0.0703 -0.1242 -0.8998
 8279SOL     OW36469   3.513   1.175   5.316 -0.0803 -0.1187 -0.1089
 8279SOL    HW136470   3.449   1.198   5.384 -1.4567  0.4267 -1.5988
 8279SOL    HW236471   3.570   1.111   5.358  2.3575  2.6318  0.8178
 8280SOL     OW36472   3.503   1.372   7.206 -0.0669 -0.2628  0.2845
 8280SOL    HW136473   3.524   1.291   7.252 -0.6997 -0.5081  0.1530
 8280SOL    HW236474   3.421   1.391   7.253 -1.9973  0.9300 -3.5168
 8281SOL     OW36475   2.001   0.508   6.179  0.7291  0.0409  0.5543
 8281SOL    HW136476   1.995   0.602   6.196  1.0844  0.2714 -0.5896
 8281SOL    HW236477   1.981   0.480   6.268 -3.3491 -1.4565 -0.8584
 8282SOL     OW36478   1.275   1.263   8.732 -0.3048  0.0290 -0.5757
 8282SOL    HW136479   1.332   1.340   8.733  1.4043 -1.2509  0.9054
 8282SOL    HW236480   1.248   1.263   8.640 -2.1447 -0.5459 -0.0319
 8283SOL     OW36481   3.893   2.018   4.383 -0.0784  0.1235 -0.5250
 8283SOL    HW136482   3.955   2.020   4.311  1.5433 -1.2914  0.8225
 8283SOL    HW236483   3.941   1.982   4.458  0.6923 -2.5168 -2.3099
 8284SOL     OW36484   4.160   1.277   4.150 -0.3781 -0.2196  0.2021
 8284SOL    HW136485   4.102   1.278   4.226 -0.4586 -0.7997  0.1437
 8284SOL    HW236486   4.108   1.334   4.092 -0.9502  0.1770  1.1023
 8285SOL     OW36487   1.244   2.968   0.434  0.1739  0.1640  0.6118
 8285SOL    HW136488   1.238   3.058   0.403  0.5419 -0.6948 -2.0360
 8285SOL    HW236489   1.171   2.957   0.494  0.6022  2.4279  1.5252
 8286SOL     OW36490   2.817   0.198   2.133 -0.1984  0.1109  0.8095
 8286SOL    HW136491   2.808   0.214   2.227 -1.5810  0.1759  0.6747
 8286SOL    HW236492   2.773   0.276   2.100 -0.0652 -0.6168 -1.0534
 8287SOL     OW36493   0.169   2.158   2.155 -0.3902  0.0776  0.0106
 8287SOL    HW136494   0.247   2.206   2.183  0.5603 -0.6694 -1.3764
 8287SOL    HW236495   0.107   2.196   2.217  0.3928  1.3635  0.0127
 8288SOL     OW36496   3.071   2.576   6.601  0.6390  0.0920 -0.2298
 8288SOL    HW136497   3.095   2.488   6.572 -1.2767  0.2574 -2.2869
 8288SOL    HW236498   2.977   2.585   6.585  0.3947  0.6080  1.4788
 8289SOL     OW36499   2.298   1.895   1.983 -0.6884 -0.3387 -0.0458
 8289SOL    HW136500   2.262   1.967   1.931 -2.6931 -1.9013 -0.8026
 8289SOL    HW236501   2.226   1.833   1.987 -1.5919  0.5800 -2.1582
 8290SOL     OW36502   1.186   2.316  14.382 -0.4617  0.2045 -0.1135
 8290SOL    HW136503   1.272   2.300  14.421 -0.5652 -0.8458 -0.3296
 8290SOL    HW236504   1.181   2.235  14.332  1.3166 -0.1751  0.3292
 8291SOL     OW36505   0.462   4.229  13.843 -0.2131 -0.3095  0.6294
 8291SOL    HW136506   0.426   4.291  13.779  1.5865 -0.1282 -0.2188
 8291SOL    HW236507   0.401   4.218  13.916 -0.4514 -1.5062  0.2436
 8292SOL     OW36508   0.156   2.472   7.535  0.0248 -0.0556  0.5329
 8292SOL    HW136509   0.148   2.407   7.465 -2.0791 -0.6624  1.3400
 8292SOL    HW236510   0.076   2.459   7.585  1.7152 -0.1958  3.2314
 8293SOL     OW36511   2.699   0.829  13.140 -0.2966 -0.1306 -0.3879
 8293SOL    HW136512   2.785   0.821  13.182 -0.7371  0.7224  0.6783
 8293SOL    HW236513   2.645   0.763  13.185 -0.1068 -0.2232 -0.2959
 8294SOL     OW36514   2.194   1.879   2.849  1.0049 -0.1665 -0.5641
 8294SOL    HW136515   2.253   1.876   2.924  0.4207  0.0853 -0.0998
 8294SOL    HW236516   2.188   1.788   2.822  1.1041 -0.3552  0.0570
 8295SOL     OW36517   1.101   1.287   2.714 -0.4439  0.0823  0.0518
 8295SOL    HW136518   1.191   1.295   2.681 -0.1838  0.9664  0.9667
 8295SOL    HW236519   1.100   1.344   2.791  3.0388  1.4478 -0.9188
 8296SOL     OW36520   0.023   2.532   6.744 -0.7819 -0.0541  1.2192
 8296SOL    HW136521   0.030   2.625   6.721 -0.4042 -0.2987  0.3301
 8296SOL    HW236522   4.674   2.515   6.711  0.3925 -1.6864 -1.0499
 8297SOL     OW36523   0.077   4.726   1.768  0.0882  0.1668  0.7295
 8297SOL    HW136524   0.102   0.058   1.709  0.4657  0.1831  0.9098
 8297SOL    HW236525   0.122   0.007   1.850  1.9476 -2.0370  0.2484
 8298SOL     OW36526   0.756   2.953   4.575 -0.8144 -0.3585 -0.0287
 8298SOL    HW136527   0.788   3.043   4.578  0.7045 -0.8370 -1.6147
 8298SOL    HW236528   0.810   2.926   4.650 -0.8705 -0.4805 -0.0319
 8299SOL     OW36529   3.917   2.270   2.836 -0.6222  0.0042 -0.2395
 8299SOL    HW136530   4.010   2.283   2.851 -1.0224  1.7721  0.6606
 8299SOL    HW236531   3.911   2.277   2.741 -1.0625  0.0362 -0.2114
 8300SOL     OW36532   0.703   0.855   9.554 -0.1365 -0.4514  0.6283
 8300SOL    HW136533   0.749   0.789   9.606  1.0384 -0.7060 -0.7530
 8300SOL    HW236534   0.778   0.905   9.523  0.3429 -2.0943 -0.8929
 8301SOL     OW36535   1.499   2.432   5.386 -0.2606 -0.0376 -0.1550
 8301SOL    HW136536   1.419   2.401   5.429 -1.0703  1.1473 -0.7846
 8301SOL    HW236537   1.496   2.524   5.410 -0.5253  0.2763 -1.3643
 8302SOL     OW36538   3.686   2.450   2.024 -0.5207  0.3333 -0.0352
 8302SOL    HW136539   3.656   2.540   2.037 -3.0002 -0.5507  0.4514
 8302SOL    HW236540   3.676   2.412   2.112  0.0694  1.6197  0.5820
 8303SOL     OW36541   4.449   0.438   6.408 -0.2513 -0.2270 -0.4401
 8303SOL    HW136542   4.430   0.358   6.359 -1.7498 -1.9856  3.0384
 8303SOL    HW236543   4.359   0.462   6.429 -0.4282  0.5524 -2.0971
 8304SOL     OW36544   2.287   2.763  10.916 -0.0675  0.6049 -0.3609
 8304SOL    HW136545   2.360   2.776  10.856 -0.4662  0.6976 -0.8264
 8304SOL    HW236546   2.276   2.849  10.958  0.3473  0.6846 -0.4164
 8305SOL     OW36547   4.324   1.207   2.858  0.7544  0.2362  0.3832
 8305SOL    HW136548   4.273   1.163   2.926 -1.3327  3.1708  0.7183
 8305SOL    HW236549   4.285   1.165   2.781  0.9837  2.5551 -0.9876
 8306SOL     OW36550   1.751   2.991   3.826  0.3581 -0.2801 -0.7213
 8306SOL    HW136551   1.723   2.923   3.886 -1.0522 -0.2266 -1.3255
 8306SOL    HW236552   1.659   3.010   3.807 -0.0475 -2.6309 -1.0650
 8307SOL     OW36553   3.922   4.578   1.635  0.5609 -0.5759 -0.2107
 8307SOL    HW136554   3.840   4.608   1.674  0.9974 -1.2750  1.2389
 8307SOL    HW236555   3.892   4.499   1.589  2.0065 -1.7570  0.8518
 8308SOL     OW36556   2.476   2.433   3.041  0.1900  0.1683  0.1543
 8308SOL    HW136557   2.465   2.338   3.029 -0.3518  0.3541 -0.8359
 8308SOL    HW236558   2.445   2.454   2.953 -1.3366 -1.7758  0.2167
 8309SOL     OW36559   2.168   1.506   8.959 -0.2602  0.4900  0.6675
 8309SOL    HW136560   2.115   1.564   8.905  0.5677  0.2595 -0.3881
 8309SOL    HW236561   2.100   1.460   9.008  0.0503 -0.4830  0.1732
 8310SOL     OW36562   1.041   2.010   8.567  0.2957  0.3193 -0.4917
 8310SOL    HW136563   1.116   2.069   8.574  1.2563 -1.0574  0.8079
 8310SOL    HW236564   0.987   2.054   8.633  0.6921  1.0708 -0.6647
 8311SOL     OW36565   3.092   1.969   5.026  0.6202 -0.9834 -0.1977
 8311SOL    HW136566   3.155   2.022   5.075  1.9908 -1.1545 -1.7625
 8311SOL    HW236567   3.084   1.897   5.088 -3.3552 -1.5579 -1.4096
 8312SOL     OW36568   3.690   0.600   0.035 -0.6391  0.2206  0.2674
 8312SOL    HW136569   3.780   0.568   0.024  0.1932  2.7860 -0.3558
 8312SOL    HW236570   3.698   0.643   0.119 -1.6221 -1.0832  1.0335
 8313SOL     OW36571   2.780   1.922  17.106 -0.1565 -0.2951  0.2714
 8313SOL    HW136572   2.717   1.853  17.083 -0.7139  0.7577 -1.3601
 8313SOL    HW236573   2.804   1.900  17.197 -0.8270  1.3933  0.8560
 8314SOL     OW36574   3.994   3.143   8.825  0.8553 -0.5626  0.2471
 8314SOL    HW136575   3.973   3.114   8.736 -0.9224  1.8516 -0.1203
 8314SOL    HW236576   4.089   3.139   8.828  0.8672  0.2901  1.1545
 8315SOL     OW36577   1.381   0.048   5.628 -0.0738  0.4746  0.3000
 8315SOL    HW136578   1.459   0.034   5.682 -0.4012  1.8221  1.1077
 8315SOL    HW236579   1.365   0.140   5.645 -0.1514  0.4715  0.2438
 8316SOL     OW36580   0.566   4.057   1.880 -0.4804  0.4364 -0.2690
 8316SOL    HW136581   0.519   4.122   1.933 -0.3438  0.7084 -0.4786
 8316SOL    HW236582   0.635   4.035   1.943  1.3403  0.3249 -2.2943
 8317SOL     OW36583   1.108   3.411   7.893 -0.2245  0.9931 -0.1251
 8317SOL    HW136584   1.166   3.349   7.938  0.5485  0.2159 -2.1829
 8317SOL    HW236585   1.022   3.383   7.925  0.7373 -0.8307  0.8627
 8318SOL     OW36586   0.879   4.542   9.786 -0.2971  0.0781 -0.0968
 8318SOL    HW136587   0.958   4.561   9.836 -1.0344  0.4777  0.9166
 8318SOL    HW236588   0.903   4.528   9.695 -1.7382  2.3835 -0.8422
 8319SOL     OW36589   4.046   0.382   9.343 -0.7310 -0.0846  0.6822
 8319SOL    HW136590   4.117   0.364   9.405  1.3899  1.2326 -1.3375
 8319SOL    HW236591   4.090   0.454   9.298  0.5195 -2.2110 -1.4683
 8320SOL     OW36592   3.535   3.741  10.659 -0.3744  0.1447 -0.1994
 8320SOL    HW136593   3.567   3.657  10.626  2.0535  0.3119  1.6529
 8320SOL    HW236594   3.548   3.801  10.587 -1.2334  1.0460  0.3980
 8321SOL     OW36595   4.729   0.722  17.662  0.2492  0.2843  0.1480
 8321SOL    HW136596   0.074   0.696  17.623 -0.2083 -0.5664 -0.2464
 8321SOL    HW236597   4.681   0.752  17.585  1.4044  2.7057  0.3648
 8322SOL     OW36598   0.184   4.499   3.308 -0.2206 -0.0504 -0.3283
 8322SOL    HW136599   0.144   4.584   3.290 -1.6261 -0.7597 -0.6400
 8322SOL    HW236600   0.263   4.513   3.257  0.5767 -0.4615  0.7963
 8323SOL     OW36601   3.398   2.325   0.425  0.6755  0.4391  0.4067
 8323SOL    HW136602   3.370   2.400   0.478  0.9724  1.3093 -0.6574
 8323SOL    HW236603   3.336   2.336   0.353  0.9489  0.6112  0.1990
 8324SOL     OW36604   1.886   1.811   7.090 -0.0909  0.6073  0.5855
 8324SOL    HW136605   1.877   1.783   7.181 -0.2001  1.9722  0.9948
 8324SOL    HW236606   1.956   1.876   7.099  1.4203 -0.7416 -1.3028
 8325SOL     OW36607   1.745   2.234   1.767  0.1552  0.7463  0.1145
 8325SOL    HW136608   1.771   2.144   1.784  0.1746  0.8424  0.5745
 8325SOL    HW236609   1.694   2.213   1.688  0.5209  2.5425 -0.6043
 8326SOL     OW36610   4.467   3.766  12.664  0.1608  0.2366  0.3336
 8326SOL    HW136611   4.387   3.732  12.625 -0.4251  1.1858  0.7126
 8326SOL    HW236612   4.445   3.853  12.698  2.4623  0.4395  1.3337
 8327SOL     OW36613   1.833   4.571   9.242  0.3319 -0.2141  0.3189
 8327SOL    HW136614   1.853   4.488   9.287 -1.1519 -0.4189  0.5795
 8327SOL    HW236615   1.852   4.630   9.315  1.3782 -0.9579  0.6671
 8328SOL     OW36616   3.379   2.628  11.731 -0.8593 -0.0243 -0.4792
 8328SOL    HW136617   3.469   2.659  11.740 -1.4574  1.8868 -1.0335
 8328SOL    HW236618   3.359   2.587  11.815 -0.8831 -0.2277 -0.5829
 8329SOL     OW36619   2.992   4.371  10.855 -0.0599  0.6061  0.1331
 8329SOL    HW136620   2.932   4.297  10.859 -0.8596  1.1475 -2.1978
 8329SOL    HW236621   3.074   4.324  10.839 -1.4080 -1.5011 -0.4622
 8330SOL     OW36622   3.121   0.052   7.673 -0.2254  0.4572 -0.4728
 8330SOL    HW136623   3.061   4.720   7.650  1.1538 -1.6643  2.4652
 8330SOL    HW236624   3.082   0.081   7.756  1.2895  0.8323  0.1121
 8331SOL     OW36625   1.964   3.853   3.777 -0.2832 -0.6293 -0.2763
 8331SOL    HW136626   1.976   3.759   3.761  0.5896 -0.8780  1.8284
 8331SOL    HW236627   1.922   3.853   3.863 -1.2137 -0.3416 -0.7342
 8332SOL     OW36628   1.150   3.801  12.170  0.7993  0.0432 -0.4751
 8332SOL    HW136629   1.161   3.710  12.198 -1.4773  0.1496  0.7667
 8332SOL    HW236630   1.190   3.849  12.242 -2.2223 -1.3376  2.0931
 8333SOL     OW36631   0.088   0.732  11.607 -0.5850 -0.0809 -0.2196
 8333SOL    HW136632   0.079   0.808  11.664  4.4761  0.6866 -0.4469
 8333SOL    HW236633   0.007   0.681  11.615 -1.2519  1.2061  1.3083
 8334SOL     OW36634   1.526   4.056   2.570  0.4420  0.3714 -0.7067
 8334SOL    HW136635   1.571   3.987   2.522 -0.8934 -0.2678 -1.0382
 8334SOL    HW236636   1.441   4.018   2.549  0.3368  0.0351  0.3053
 8335SOL     OW36637   4.171   1.307  10.132  0.4469  0.2318 -0.3515
 8335SOL    HW136638   4.100   1.287  10.193  0.8693  1.9715  0.6816
 8335SOL    HW236639   4.141   1.270  10.048 -0.3242 -1.5933  0.7144
 8336SOL     OW36640   1.862   4.313   5.263 -0.2702  0.3113  0.0332
 8336SOL    HW136641   1.887   4.225   5.292  1.1107  0.5391 -0.4710
 8336SOL    HW236642   1.924   4.363   5.316 -2.2676  0.4206  2.2268
 8337SOL     OW36643   4.586   3.900   4.000  0.0787  0.0138 -0.2469
 8337SOL    HW136644   4.639   3.927   3.925  1.4195 -0.7370  0.4307
 8337SOL    HW236645   4.517   3.850   3.956  0.6634 -0.3454 -0.7494
 8338SOL     OW36646   0.124   0.020  10.731 -0.1027  0.0126  0.3723
 8338SOL    HW136647   0.097   4.679  10.686 -0.2853 -0.7004  1.7423
 8338SOL    HW236648   0.044   0.050  10.776 -0.6662  0.5203 -0.9696
 8339SOL     OW36649   3.488   4.232   5.388 -0.7112 -0.5102 -0.4673
 8339SOL    HW136650   3.510   4.241   5.480 -1.3543 -0.2876 -0.3343
 8339SOL    HW236651   3.523   4.309   5.343  0.4510 -0.6035  0.2861
 8340SOL     OW36652   2.285   3.096   5.354  0.2323 -0.2042 -0.1370
 8340SOL    HW136653   2.205   3.068   5.308  0.6896  0.8383 -1.5745
 8340SOL    HW236654   2.343   3.027   5.321 -0.3423 -0.6901 -0.1312
 8341SOL     OW36655   3.852   2.963   1.879 -0.3868  0.1366  0.3118
 8341SOL    HW136656   3.850   2.979   1.784 -2.6795 -0.6486  0.2261
 8341SOL    HW236657   3.946   2.976   1.890 -0.3280 -0.4019  0.4336
 8342SOL     OW36658   2.574   0.508   5.412  0.0731 -0.2970 -0.2443
 8342SOL    HW136659   2.589   0.581   5.471 -0.3820  1.1841 -1.9565
 8342SOL    HW236660   2.663   0.477   5.393 -0.3404 -2.2183  0.9644
 8343SOL     OW36661   4.032   4.427   3.066 -0.3995 -1.2045  0.2635
 8343SOL    HW136662   4.031   4.333   3.047 -0.8669 -1.2873  0.7133
 8343SOL    HW236663   4.123   4.437   3.095 -0.4813  0.7482 -0.1206
 8344SOL     OW36664   3.044   2.643   3.296 -0.1688  0.7073  0.3922
 8344SOL    HW136665   3.074   2.565   3.250 -1.5278 -0.1733  1.0030
 8344SOL    HW236666   3.074   2.715   3.240  0.9153  1.1009  1.4957
 8345SOL     OW36667   1.986   4.064   9.699  0.2212 -0.7018 -0.2412
 8345SOL    HW136668   1.989   4.072   9.604 -0.1628 -1.3782 -0.3062
 8345SOL    HW236669   1.891   4.074   9.709  0.3872 -0.0093  0.6660
 8346SOL     OW36670   4.690   0.075   8.081  0.3110 -0.5793  0.2106
 8346SOL    HW136671   0.024   0.132   8.055 -0.5698  0.5003  0.1290
 8346SOL    HW236672   4.705   4.734   8.031  1.3020  0.6376 -1.4583
 8347SOL     OW36673   4.448   1.750  17.538  0.5451  0.0539 -0.4801
 8347SOL    HW136674   4.512   1.800  17.488  1.9031  0.0968  1.2889
 8347SOL    HW236675   4.452   1.794  17.623 -2.8556  0.0354 -0.2893
 8348SOL     OW36676   0.270   3.373   8.524 -0.2618  0.6917  0.0362
 8348SOL    HW136677   0.200   3.435   8.548 -0.1495  1.9194 -2.8096
 8348SOL    HW236678   0.235   3.329   8.447 -1.6987  0.7906  0.6215
 8349SOL     OW36679   1.468   4.101   8.926 -0.2031 -0.0842  0.0239
 8349SOL    HW136680   1.505   4.052   8.999 -1.5492  0.7936  1.3052
 8349SOL    HW236681   1.479   4.036   8.857 -1.3705 -1.3997  1.0815
 8350SOL     OW36682   0.665   1.453   7.963 -0.2463  0.4183 -0.4251
 8350SOL    HW136683   0.737   1.392   7.947 -1.1342 -1.1266  1.5381
 8350SOL    HW236684   0.629   1.418   8.044 -0.6843  1.1170 -0.3188
 8351SOL     OW36685   0.006   3.429   5.434 -0.5696  0.2763 -0.3913
 8351SOL    HW136686   0.054   3.464   5.359  1.5406 -1.4175  0.1497
 8351SOL    HW236687   0.017   3.335   5.415 -1.1442  0.2833 -0.7611
 8352SOL     OW36688   0.268   4.254  10.658  0.4184  0.5583 -0.6647
 8352SOL    HW136689   0.339   4.221  10.603 -0.2558  1.9872 -2.3624
 8352SOL    HW236690   0.310   4.257  10.744 -1.9502  0.8723  0.4810
 8353SOL     OW36691   3.603   4.005   8.464  0.1104  0.1386  0.1381
 8353SOL    HW136692   3.523   3.952   8.468 -0.7205  1.3823  0.0256
 8353SOL    HW236693   3.606   4.034   8.555  3.3105 -1.8917  0.6686
 8354SOL     OW36694   4.630   1.562  14.359  0.5703 -0.0585  0.4778
 8354SOL    HW136695   4.576   1.619  14.414  0.9331 -0.6008  1.3999
 8354SOL    HW236696   4.652   1.622  14.288  2.9867  0.8316  1.9695
 8355SOL     OW36697   0.525   2.131   9.217  0.1490  0.3620 -0.4350
 8355SOL    HW136698   0.572   2.101   9.139 -1.0633 -1.1337 -0.5772
 8355SOL    HW236699   0.573   2.079   9.282 -1.4707 -2.0014 -1.1405
 8356SOL     OW36700   3.529   4.028   2.462 -0.8831  0.3515 -0.1839
 8356SOL    HW136701   3.563   4.014   2.550  0.9118  4.1461 -0.2410
 8356SOL    HW236702   3.465   3.958   2.459 -0.3230 -0.1406 -0.7387
 8357SOL     OW36703   1.193   3.669   6.116 -0.2237  0.3710  0.1442
 8357SOL    HW136704   1.181   3.575   6.132  3.8028 -0.2286 -0.3313
 8357SOL    HW236705   1.134   3.677   6.042 -0.6549 -0.4880  0.3954
 8358SOL     OW36706   3.007   0.108   0.496  0.2290  0.2666  0.2079
 8358SOL    HW136707   3.084   0.165   0.498 -1.1831  2.1496  0.9347
 8358SOL    HW236708   3.023   0.052   0.420 -2.5785  0.0174 -0.1927
 8359SOL     OW36709   1.175   3.054  11.527  0.0566  0.6780 -0.0582
 8359SOL    HW136710   1.237   2.989  11.495  0.4813  0.1695  1.7622
 8359SOL    HW236711   1.211   3.069  11.615 -0.3347 -0.5256  0.3011
 8360SOL     OW36712   4.139   4.642   9.295 -0.0560 -0.1138 -0.0436
 8360SOL    HW136713   4.211   4.655   9.356  0.9753 -2.1021 -0.8645
 8360SOL    HW236714   4.159   4.571   9.235 -0.8396  0.2791 -0.7691
 8361SOL     OW36715   3.414   2.808  13.162  0.2645 -0.2271 -0.2585
 8361SOL    HW136716   3.332   2.855  13.143  1.7492  2.3910 -0.0844
 8361SOL    HW236717   3.461   2.836  13.084 -0.6776  0.8567 -0.4342
 8362SOL     OW36718   1.984   3.975   2.992 -0.0463  0.2880  0.3742
 8362SOL    HW136719   1.931   3.896   2.979 -0.4895  0.7515 -0.5575
 8362SOL    HW236720   2.029   3.994   2.910 -0.4086 -2.6757 -0.5195
 8363SOL     OW36721   1.001   4.387   6.257 -0.1779 -0.0169 -0.1853
 8363SOL    HW136722   1.069   4.329   6.223  0.0929 -0.0300  0.3769
 8363SOL    HW236723   1.043   4.423   6.335  0.7765 -1.7555  0.1028
 8364SOL     OW36724   4.402   4.629  13.535  0.2654 -0.1520 -0.4904
 8364SOL    HW136725   4.326   4.582  13.570  1.5234 -0.0535  2.3758
 8364SOL    HW236726   4.365   4.679  13.462  2.2195  0.3581 -1.1385
 8365SOL     OW36727   3.843   2.255   5.161  0.4241 -0.0561 -0.1780
 8365SOL    HW136728   3.783   2.328   5.173 -0.7150 -1.0328  0.1540
 8365SOL    HW236729   3.928   2.298   5.157  0.3501  0.0198 -0.9105
 8366SOL     OW36730   3.506   0.782   4.911 -0.5613 -0.0243  0.3447
 8366SOL    HW136731   3.480   0.691   4.899 -0.7225  0.1039 -0.2971
 8366SOL    HW236732   3.534   0.776   5.002 -1.5436 -0.1351  0.6437
 8367SOL     OW36733   2.000   2.374   5.044  0.4090  0.2546  0.0501
 8367SOL    HW136734   1.960   2.406   4.963 -1.2855  1.1557  1.2483
 8367SOL    HW236735   2.014   2.462   5.079 -1.2390 -0.1110  1.6157
 8368SOL     OW36736   2.108   0.844   0.609 -0.0810  0.3404 -0.1506
 8368SOL    HW136737   2.119   0.908   0.539 -0.9496  1.8509  1.0989
 8368SOL    HW236738   2.145   0.889   0.685  2.9485 -1.1982 -0.7129
 8369SOL     OW36739   1.831   0.571   5.536 -0.1812  0.1544 -0.2052
 8369SOL    HW136740   1.924   0.556   5.556 -0.4158  1.8394  2.1439
 8369SOL    HW236741   1.785   0.501   5.582 -1.4969 -0.6357 -2.6973
 8370SOL     OW36742   4.089   0.009   2.371  0.3180 -0.0567  1.2325
 8370SOL    HW136743   4.150   0.058   2.426  0.0009  1.9357 -0.1786
 8370SOL    HW236744   4.140   4.738   2.291 -1.0186 -1.3204  0.5164
 8371SOL     OW36745   2.069   4.017  16.553 -0.0627 -0.6344 -0.0675
 8371SOL    HW136746   2.122   3.952  16.507  0.8364  0.9091 -1.2121
 8371SOL    HW236747   2.125   4.094  16.546 -1.5700  0.4072 -0.4885
 8372SOL     OW36748   3.532   1.063  16.731 -0.0670 -0.4593  0.0661
 8372SOL    HW136749   3.586   1.024  16.662  0.8022 -1.2352  1.1857
 8372SOL    HW236750   3.484   1.126  16.678 -0.5767  0.3602  1.5033
 8373SOL     OW36751   4.129   2.377   6.845 -0.0229  0.0590 -0.3763
 8373SOL    HW136752   4.062   2.430   6.802 -3.1801 -1.3819  2.7951
 8373SOL    HW236753   4.114   2.392   6.938 -1.0246  2.6140 -0.9550
 8374SOL     OW36754   1.249   4.395   9.548  0.3422 -0.5613  0.0125
 8374SOL    HW136755   1.305   4.364   9.619  0.3214 -0.1886  0.1886
 8374SOL    HW236756   1.268   4.489   9.554  0.2261 -0.5657  0.4616
 8375SOL     OW36757   3.490   2.165   3.609 -0.3696 -0.1403  0.1431
 8375SOL    HW136758   3.559   2.106   3.640 -2.2567 -2.5707 -0.3621
 8375SOL    HW236759   3.547   2.237   3.582  0.2574 -0.8763 -0.4713
 8376SOL     OW36760   0.856   2.443   7.634 -0.2292  0.8839  0.1474
 8376SOL    HW136761   0.921   2.416   7.569  0.3078 -1.6780  1.7247
 8376SOL    HW236762   0.792   2.373   7.622 -0.1372  0.6566  1.0009
 8377SOL     OW36763   0.627   2.628   6.321  0.4355 -0.1571 -0.6651
 8377SOL    HW136764   0.595   2.562   6.381  1.7976 -0.0948  0.1329
 8377SOL    HW236765   0.583   2.593   6.243 -0.6835 -1.7852  0.7129
 8378SOL     OW36766   3.813   0.482  15.037 -0.8069 -0.2251 -0.1284
 8378SOL    HW136767   3.758   0.416  15.078 -2.5330  2.3524  1.6961
 8378SOL    HW236768   3.882   0.488  15.104 -1.0070  0.4949  0.0171
 8379SOL     OW36769   3.524   3.375   6.095  0.3327  0.1746  0.2228
 8379SOL    HW136770   3.557   3.325   6.170  0.4894 -0.2517 -0.1339
 8379SOL    HW236771   3.592   3.366   6.029 -1.3699  2.9846 -1.9260
 8380SOL     OW36772   1.159   2.518  17.459  0.3569  0.3760  0.0788
 8380SOL    HW136773   1.192   2.428  17.456 -0.6995  0.0232 -1.2357
 8380SOL    HW236774   1.213   2.554  17.530 -0.1356 -1.0770  1.1824
 8381SOL     OW36775   4.536   1.248   9.680 -0.8328  0.6360 -0.3640
 8381SOL    HW136776   4.623   1.283   9.661 -1.2461  1.1499 -1.3616
 8381SOL    HW236777   4.522   1.267   9.772  2.9308 -0.0360  0.3271
 8382SOL     OW36778   2.280   0.333   2.843  0.4362  0.6737 -0.1546
 8382SOL    HW136779   2.302   0.265   2.780  0.9361  0.5983  0.1012
 8382SOL    HW236780   2.297   0.270   2.914  0.3956  0.2039 -0.5577
 8383SOL     OW36781   4.315   4.669  14.402  0.4096  0.1826 -0.5215
 8383SOL    HW136782   4.379   4.598  14.403  0.6581  0.3912 -1.5682
 8383SOL    HW236783   4.361   0.000  14.449 -1.3375  0.6929  0.4146
 8384SOL     OW36784   2.591   2.761   6.857 -0.2186 -0.6549  0.0263
 8384SOL    HW136785   2.529   2.798   6.921 -0.2786  1.6947 -1.4094
 8384SOL    HW236786   2.602   2.840   6.804 -0.3817 -1.4943 -1.2563
 8385SOL     OW36787   4.486   3.585   5.253 -0.2086  0.0460  0.2206
 8385SOL    HW136788   4.567   3.636   5.247  1.5924 -3.0645 -2.0724
 8385SOL    HW236789   4.500   3.506   5.200 -0.4705  1.2677 -1.6490
 8386SOL     OW36790   4.276   3.221   8.317 -0.0027  0.6204  0.3374
 8386SOL    HW136791   4.344   3.207   8.383 -0.0875 -0.6962  0.1474
 8386SOL    HW236792   4.217   3.272   8.373 -1.2042 -2.3306  1.7573
 8387SOL     OW36793   2.570   4.725   7.120  0.3315  0.5500 -0.0791
 8387SOL    HW136794   2.517   0.065   7.127  0.1185  0.3188  0.9396
 8387SOL    HW236795   2.641   0.028   7.170  0.3718 -0.9753  1.1543
 8388SOL     OW36796   2.669   4.700   4.900 -0.3157  0.0149  0.4854
 8388SOL    HW136797   2.758   4.681   4.871 -0.7762  0.7704 -1.4749
 8388SOL    HW236798   2.637   0.014   4.826 -1.1726  0.3154  1.0743
 8389SOL     OW36799   2.593   4.311   5.429  0.4297 -0.5484 -0.2743
 8389SOL    HW136800   2.506   4.273   5.442 -0.1890  1.0609  0.2199
 8389SOL    HW236801   2.573   4.403   5.415  0.1209 -0.3894  1.1839
 8390SOL     OW36802   0.737   3.561   2.164  0.3599 -0.2265 -0.5156
 8390SOL    HW136803   0.766   3.503   2.234 -2.2032  1.0760  1.6436
 8390SOL    HW236804   0.645   3.539   2.149  0.0737  0.0555  0.7991
 8391SOL     OW36805   2.717   0.128   3.108  0.7771 -0.6420  0.1492
 8391SOL    HW136806   2.675   0.053   3.149 -1.2019  0.2576 -0.2626
 8391SOL    HW236807   2.709   0.108   3.015  0.1058  0.5436 -0.0480
 8392SOL     OW36808   1.201   3.507   0.688 -0.2865 -0.1619  0.0648
 8392SOL    HW136809   1.189   3.601   0.697  0.6912 -0.0155 -0.1603
 8392SOL    HW236810   1.283   3.487   0.735  0.9657 -0.6816 -2.3607
 8393SOL     OW36811   3.930   0.945   6.823 -0.5926 -0.2155  0.2658
 8393SOL    HW136812   4.025   0.933   6.821 -0.7959 -1.6897 -1.0293
 8393SOL    HW236813   3.903   0.866   6.869 -1.1004 -1.2079 -1.7246
 8394SOL     OW36814   1.323   1.029  11.458  0.7874 -0.3021 -0.4644
 8394SOL    HW136815   1.364   1.064  11.537  2.0078  1.0195 -1.6829
 8394SOL    HW236816   1.341   0.936  11.470 -0.3709 -0.2526  1.6359
 8395SOL     OW36817   4.462   4.563   7.419  0.4262 -0.2169 -0.3886
 8395SOL    HW136818   4.403   4.632   7.448  0.6036  0.3781 -1.4553
 8395SOL    HW236819   4.424   4.491   7.471 -0.0174  0.6520  0.4890
 8396SOL     OW36820   0.374   1.363  10.517  0.0099  0.0648 -0.4321
 8396SOL    HW136821   0.397   1.374  10.609  3.2678 -0.0848 -1.2340
 8396SOL    HW236822   0.453   1.357  10.463  0.1881  2.6505 -0.4811
 8397SOL     OW36823   0.229   3.503  15.271  0.4514  0.0255  0.0551
 8397SOL    HW136824   0.224   3.547  15.356  0.0593  0.3505 -0.1345
 8397SOL    HW236825   0.159   3.440  15.286 -1.1600  1.1728 -2.5640
 8398SOL     OW36826   1.031   2.713   2.736  0.2778 -0.0521 -0.2266
 8398SOL    HW136827   0.951   2.682   2.694  0.6858 -1.2368 -0.1301
 8398SOL    HW236828   1.016   2.751   2.823 -0.2400 -1.1145  0.1624
 8399SOL     OW36829   0.637   2.204   1.197  0.1446  0.3362 -0.0208
 8399SOL    HW136830   0.599   2.116   1.201 -0.1513  0.4593 -0.1632
 8399SOL    HW236831   0.636   2.224   1.291  1.4395 -0.0337  0.0764
 8400SOL     OW36832   1.581   4.170   1.775 -0.2554 -0.5074 -0.2771
 8400SOL    HW136833   1.599   4.083   1.811  1.3798 -0.3528 -0.7359
 8400SOL    HW236834   1.638   4.222   1.832 -1.5571 -1.7265  2.1265
 8401SOL     OW36835   2.033   3.685  14.055 -0.4755  0.4188  0.3936
 8401SOL    HW136836   2.061   3.710  13.967 -1.6374  2.8333  0.7217
 8401SOL    HW236837   2.011   3.770  14.094 -0.2816  1.5634 -1.9700
 8402SOL     OW36838   0.636   0.915   8.411  0.1701 -0.0860 -0.0646
 8402SOL    HW136839   0.611   0.936   8.321 -0.6309  1.5080  0.5526
 8402SOL    HW236840   0.553   0.934   8.453  0.1175 -0.9882  0.2486
 8403SOL     OW36841   2.010   0.899  11.057  0.3353 -0.3860  0.3929
 8403SOL    HW136842   2.082   0.892  11.120  1.2432  1.7847 -0.4403
 8403SOL    HW236843   2.039   0.966  10.996 -0.4959  0.6500  1.1534
 8404SOL     OW36844   4.537   1.043   4.002 -0.4356 -0.4891 -0.0494
 8404SOL    HW136845   4.625   1.027   4.036 -0.6074  0.0137  0.6217
 8404SOL    HW236846   4.564   1.079   3.918  3.2496 -1.3114  0.8059
 8405SOL     OW36847   1.207   0.737   0.849 -0.3117 -0.6067  0.4968
 8405SOL    HW136848   1.176   0.826   0.866 -0.0462 -0.3098 -0.5345
 8405SOL    HW236849   1.291   0.763   0.810 -0.7160 -0.8874 -0.5701
 8406SOL     OW36850   3.529   3.601   8.514  0.6284 -0.1182  0.4761
 8406SOL    HW136851   3.591   3.666   8.548  1.9207 -1.5035  0.7676
 8406SOL    HW236852   3.461   3.663   8.486  1.3100  0.4680  0.1096
 8407SOL     OW36853   3.235   0.683   3.709 -0.0604 -0.0993  0.1616
 8407SOL    HW136854   3.158   0.652   3.660  0.6024  1.3781 -1.7933
 8407SOL    HW236855   3.203   0.760   3.756 -0.6509  1.0385 -2.1029
 8408SOL     OW36856   2.184   3.810  10.415  0.5780 -0.4600  0.3468
 8408SOL    HW136857   2.138   3.750  10.356  0.8175  0.2452 -0.5698
 8408SOL    HW236858   2.115   3.852  10.465 -0.3053 -0.0177 -1.2315
 8409SOL     OW36859   3.569   0.744   9.029  0.4137 -0.4166  0.0730
 8409SOL    HW136860   3.512   0.712   9.100  1.4841 -2.8090 -0.1437
 8409SOL    HW236861   3.657   0.721   9.058 -0.7537 -1.3205  2.9819
 8410SOL     OW36862   1.296   0.533   4.119  0.3553 -0.3662  0.3179
 8410SOL    HW136863   1.281   0.495   4.206  0.9608 -0.2611  0.4701
 8410SOL    HW236864   1.210   0.532   4.078  0.3870 -0.3845  0.2518
 8411SOL     OW36865   1.995   2.369   5.814 -0.3299 -0.0892  0.7169
 8411SOL    HW136866   2.001   2.454   5.771 -1.5417 -0.8685 -1.0280
 8411SOL    HW236867   1.964   2.402   5.898  1.4342 -1.0946  1.7630
 8412SOL     OW36868   4.218   2.280   5.737  0.8640 -0.8365  0.2000
 8412SOL    HW136869   4.276   2.306   5.666  0.0182  0.3528 -0.0428
 8412SOL    HW236870   4.141   2.257   5.686  0.7610 -0.6122  0.2536
 8413SOL     OW36871   0.070   4.468   6.829 -0.4057  0.2772 -0.6453
 8413SOL    HW136872   0.127   4.430   6.762 -1.5615 -0.4012 -1.2398
 8413SOL    HW236873   0.027   4.532   6.773  0.6010 -1.1990 -3.0992
 8414SOL     OW36874   3.950   1.428   9.180 -0.2489 -0.4747 -0.1571
 8414SOL    HW136875   3.898   1.348   9.172 -0.6389  0.0008 -2.4408
 8414SOL    HW236876   3.887   1.499   9.171  1.7347  1.0745 -1.8772
 8415SOL     OW36877   2.757   2.205  17.175  0.0206 -0.0088  0.0748
 8415SOL    HW136878   2.840   2.250  17.190  0.2099  0.3436 -2.0445
 8415SOL    HW236879   2.773   2.113  17.194  0.2178 -0.4794 -2.3194
 8416SOL     OW36880   4.546   0.451   8.963  0.4881 -0.0261 -0.0699
 8416SOL    HW136881   4.597   0.372   8.982 -0.7598 -0.5615  0.9791
 8416SOL    HW236882   4.468   0.419   9.008 -0.0299  2.1838  0.5916
 8417SOL     OW36883   3.516   0.549  13.963 -0.2637 -0.1941  0.0472
 8417SOL    HW136884   3.575   0.574  14.034  1.0940 -3.5514  0.1354
 8417SOL    HW236885   3.567   0.497  13.901 -0.7125  0.4612 -0.8583
 8418SOL     OW36886   2.369   1.431   4.890  0.1530 -0.4760 -0.0754
 8418SOL    HW136887   2.392   1.520   4.915 -3.2563  0.7286 -1.2249
 8418SOL    HW236888   2.348   1.444   4.797 -0.2854 -0.8447 -0.0275
 8419SOL     OW36889   3.212   0.953   5.267  0.3467  0.1054  0.2620
 8419SOL    HW136890   3.260   0.988   5.192  0.7559 -1.3886 -0.1844
 8419SOL    HW236891   3.125   0.992   5.259 -0.2122 -0.9758  1.0661
 8420SOL     OW36892   3.664   1.767  11.741  0.8440 -0.5648  0.4968
 8420SOL    HW136893   3.602   1.821  11.790 -1.1457 -0.8451 -1.7548
 8420SOL    HW236894   3.726   1.742  11.810 -0.7511 -1.4226  1.6233
 8421SOL     OW36895   0.648   4.377   9.791 -0.1510 -0.4191 -0.4730
 8421SOL    HW136896   0.733   4.416   9.813 -0.4093  1.4352 -2.8270
 8421SOL    HW236897   0.595   4.444   9.749 -1.0878 -0.3807  0.7555
 8422SOL     OW36898   4.649   3.414   4.827  0.3688 -0.1934 -0.0973
 8422SOL    HW136899   4.588   3.391   4.757  1.7108 -1.7784 -0.7387
 8422SOL    HW236900   4.603   3.394   4.908 -0.9768  0.4906 -0.6905
 8423SOL     OW36901   4.443   2.715   4.687  0.0056 -0.0878  0.0657
 8423SOL    HW136902   4.481   2.798   4.659 -0.4355 -0.1208 -0.6482
 8423SOL    HW236903   4.433   2.740   4.779  2.0403 -0.8563  0.4853
 8424SOL     OW36904   3.436   1.396   8.287  0.1310 -0.2519  0.1014
 8424SOL    HW136905   3.482   1.476   8.315  1.0911 -0.4548 -0.8831
 8424SOL    HW236906   3.469   1.387   8.198 -1.7675 -2.3428 -0.3812
 8425SOL     OW36907   2.570   2.086   4.524  0.4057 -0.8789  0.0821
 8425SOL    HW136908   2.639   2.110   4.462 -0.4963  0.0885 -0.5451
 8425SOL    HW236909   2.486   2.108   4.484  0.4881  1.1310  1.0334
 8426SOL     OW36910   4.145   2.699   1.466  0.2427 -0.0845  0.4921
 8426SOL    HW136911   4.190   2.731   1.544  3.1531  0.5308 -1.4393
 8426SOL    HW236912   4.117   2.609   1.483 -2.9119  0.4585 -2.0036
 8427SOL     OW36913   2.076   0.530   1.097 -0.3967  0.5243 -0.0764
 8427SOL    HW136914   2.150   0.575   1.136 -1.3412  0.4177  1.8316
 8427SOL    HW236915   1.999   0.581   1.123 -1.9961 -1.1477 -1.4950
 8428SOL     OW36916   2.545   0.404   3.039 -0.5706  0.7033  0.1549
 8428SOL    HW136917   2.512   0.384   2.951 -0.1161  0.8034 -0.0408
 8428SOL    HW236918   2.544   0.499   3.050  0.7852  0.8190 -0.6249
 8429SOL     OW36919   0.053   3.949   4.231 -0.0916  0.1474  0.0571
 8429SOL    HW136920   0.147   3.961   4.218  0.0121  0.0988  0.7676
 8429SOL    HW236921   0.032   3.960   4.138 -0.1914  0.4171  0.1117
 8430SOL     OW36922   3.410   2.186   1.875  0.4449  0.5109 -0.3760
 8430SOL    HW136923   3.347   2.207   1.944  1.7271 -0.4822  1.0973
 8430SOL    HW236924   3.461   2.122   1.925  0.5256  0.0809 -0.9926
 8431SOL     OW36925   2.137   0.239   7.453 -0.1949  0.2993 -0.6633
 8431SOL    HW136926   2.086   0.280   7.383 -0.6136 -0.7905 -0.9920
 8431SOL    HW236927   2.077   0.239   7.528 -2.8122 -1.9412 -2.7549
 8432SOL     OW36928   1.286   1.062  16.765  0.9368 -0.5459 -0.3443
 8432SOL    HW136929   1.240   1.136  16.727 -2.1234 -0.1814  4.0214
 8432SOL    HW236930   1.220   1.013  16.814  0.8213  0.5863  0.6413
 8433SOL     OW36931   3.356   0.479   2.263  0.0606  0.1308 -0.4695
 8433SOL    HW136932   3.360   0.555   2.205  0.5281 -0.6358 -1.4347
 8433SOL    HW236933   3.372   0.525   2.345 -0.9442  0.6356 -0.5545
 8434SOL     OW36934   4.215   2.993   4.860 -0.2291  0.0720  0.0521
 8434SOL    HW136935   4.191   3.058   4.926 -0.8095 -1.6065  1.4975
 8434SOL    HW236936   4.260   3.037   4.788  0.2186  1.5673  1.2324
 8435SOL     OW36937   4.063   2.391   4.334  0.2237  0.4383  0.0065
 8435SOL    HW136938   4.022   2.358   4.414  0.6559 -0.7974 -0.2833
 8435SOL    HW236939   3.980   2.383   4.286 -0.6401  3.8435  0.9228
 8436SOL     OW36940   2.353   0.704   6.700 -0.3773  0.2149 -0.0249
 8436SOL    HW136941   2.313   0.643   6.639 -0.3217  1.7554 -1.6008
 8436SOL    HW236942   2.302   0.785   6.701 -0.1592  0.3436  0.9215
 8437SOL     OW36943   1.868   0.730   5.083  0.7309 -0.5279 -0.0355
 8437SOL    HW136944   1.878   0.728   4.988  1.4747  0.6739  0.0129
 8437SOL    HW236945   1.889   0.639   5.106  2.4215  0.2689  1.5778
 8438SOL     OW36946   3.385   0.422   2.756 -0.3771 -0.0423  0.0416
 8438SOL    HW136947   3.305   0.439   2.805 -0.4503  0.5089 -0.2694
 8438SOL    HW236948   3.429   0.378   2.829 -0.9665  0.6449  0.8077
 8439SOL     OW36949   1.117   3.474  14.180 -0.2896 -0.6482  0.1231
 8439SOL    HW136950   1.137   3.567  14.179 -0.5430 -0.5932  0.1027
 8439SOL    HW236951   1.029   3.470  14.143 -1.4402  2.6734  2.5130
 8440SOL     OW36952   0.922   1.091   2.737 -0.1957 -0.1979  0.0950
 8440SOL    HW136953   0.990   1.157   2.727 -0.5645  0.2203  0.3541
 8440SOL    HW236954   0.906   1.092   2.642  0.9124  0.2486 -0.0863
 8441SOL     OW36955   1.588   1.244   3.553 -0.5109  0.5268  0.3527
 8441SOL    HW136956   1.562   1.152   3.545 -2.7019  1.2487 -0.8530
 8441SOL    HW236957   1.554   1.285   3.473  0.4948 -3.2920 -2.0041
 8442SOL     OW36958   1.207   0.834   6.317 -0.5799  0.0175  0.2320
 8442SOL    HW136959   1.287   0.856   6.269 -0.6787  0.7103  0.3826
 8442SOL    HW236960   1.138   0.895   6.293 -1.4614 -1.2892 -0.5282
 8443SOL     OW36961   0.862   3.895  12.358  0.1364 -0.5569  0.5694
 8443SOL    HW136962   0.949   3.886  12.396 -1.6330 -1.5816  4.3448
 8443SOL    HW236963   0.821   3.813  12.386 -0.5853 -0.3631  0.0804
 8444SOL     OW36964   3.492   1.513   1.753  0.1016  0.0440  0.0845
 8444SOL    HW136965   3.437   1.574   1.705 -0.5016  1.0786  2.1098
 8444SOL    HW236966   3.530   1.574   1.816 -1.2661  1.4447 -0.4478
 8445SOL     OW36967   2.540   3.883  10.885 -0.2903  0.2218 -0.0206
 8445SOL    HW136968   2.550   3.977  10.871  0.7601  0.0554 -0.4058
 8445SOL    HW236969   2.487   3.860  10.809 -0.2793  1.3537 -0.3732
 8446SOL     OW36970   0.133   4.304   4.605 -0.4885  0.1222 -0.0573
 8446SOL    HW136971   0.141   4.320   4.511 -0.7293  0.6081  0.0067
 8446SOL    HW236972   0.142   4.208   4.606  2.0999  0.3704 -0.2477
 8447SOL     OW36973   3.406   3.806   3.281  0.3780 -0.0480 -0.2254
 8447SOL    HW136974   3.417   3.714   3.304 -0.5714  0.0878  0.7859
 8447SOL    HW236975   3.314   3.801   3.256  0.2004  1.3925  0.1610
 8448SOL     OW36976   3.604   3.471  10.701  0.4158 -0.0377  0.6979
 8448SOL    HW136977   3.636   3.380  10.699 -0.5885 -0.3525 -1.4219
 8448SOL    HW236978   3.540   3.468  10.772 -0.0108  1.1702  0.3538
 8449SOL     OW36979   0.622   1.467   6.071 -0.0456  0.1514 -0.2731
 8449SOL    HW136980   0.691   1.505   6.016 -0.1303 -0.9163 -1.1183
 8449SOL    HW236981   0.616   1.510   6.156 -1.3147 -2.8311  1.1278
 8450SOL     OW36982   2.627   3.166   7.963  0.0930 -0.0153  0.3656
 8450SOL    HW136983   2.593   3.097   8.019  0.7807  0.3166  1.1782
 8450SOL    HW236984   2.549   3.221   7.960  0.6141  0.8470  3.7984
 8451SOL     OW36985   3.485   1.777   5.510  0.2701  0.3799 -0.3636
 8451SOL    HW136986   3.482   1.869   5.484 -1.8771  0.7179  1.0934
 8451SOL    HW236987   3.549   1.745   5.447 -0.9839 -2.8790  0.0082
 8452SOL     OW36988   2.637   0.903  16.183  0.0985  0.0397  0.1792
 8452SOL    HW136989   2.677   0.836  16.238 -0.4536  0.8209  1.5200
 8452SOL    HW236990   2.707   0.906  16.116  0.0356  2.7705  0.2073
 8453SOL     OW36991   4.012   2.841   1.291 -0.2404 -0.7060 -0.0228
 8453SOL    HW136992   4.060   2.783   1.350  0.0872 -0.9494 -0.5238
 8453SOL    HW236993   4.087   2.889   1.255  0.5077 -1.4806  0.5113
 8454SOL     OW36994   3.758   2.020   5.494  0.4712 -0.0455 -0.6185
 8454SOL    HW136995   3.730   1.943   5.544  0.4904  1.1081  1.1937
 8454SOL    HW236996   3.827   2.060   5.547  0.1195  2.0493 -1.7398
 8455SOL     OW36997   4.154   1.548   1.447 -0.7084 -0.0281  0.0119
 8455SOL    HW136998   4.153   1.635   1.486  0.9698  0.0221 -0.0558
 8455SOL    HW236999   4.241   1.558   1.407 -0.7545 -1.7382 -0.5169
 8456SOL     OW37000   4.718   0.233   2.209  0.0015  0.3684 -0.3155
 8456SOL    HW137001   4.636   0.215   2.255  0.0060 -2.9228 -1.5899
 8456SOL    HW237002   4.712   0.158   2.151  1.2145  0.5650 -0.6962
 8457SOL     OW37003   0.839   2.975   2.178  0.0940  0.0693 -0.0199
 8457SOL    HW137004   0.930   3.004   2.175  0.4185 -1.0298 -0.5023
 8457SOL    HW237005   0.806   3.044   2.236  1.0760  0.1862  0.4120
 8458SOL     OW37006   3.922   0.457  17.721 -0.2883 -0.2686  0.0728
 8458SOL    HW137007   3.964   0.447  17.636 -0.9673  3.1758 -0.6930
 8458SOL    HW237008   3.902   0.367  17.745 -2.8942 -0.2997 -2.2085
 8459SOL     OW37009   4.191   0.113   1.864 -0.4133 -0.3077  0.4179
 8459SOL    HW137010   4.177   0.099   1.770  0.5295  2.1965 -0.1016
 8459SOL    HW237011   4.163   0.204   1.869  1.7014  0.3066  0.9508
 8460SOL     OW37012   2.974   1.883   3.728 -0.6010 -0.0061  0.0322
 8460SOL    HW137013   3.069   1.900   3.728 -0.7567  0.8982  1.0228
 8460SOL    HW237014   2.985   1.810   3.789 -1.3607 -0.2748 -0.1574
 8461SOL     OW37015   2.529   3.168   6.734 -0.4421 -0.1186  0.1088
 8461SOL    HW137016   2.458   3.157   6.671 -0.1449 -0.4626 -0.1617
 8461SOL    HW237017   2.568   3.248   6.699 -0.9651  0.7737  1.5541
 8462SOL     OW37018   1.873   1.800   8.645 -0.2898  0.0565 -0.5178
 8462SOL    HW137019   1.781   1.816   8.624 -0.7662  0.2733  1.6844
 8462SOL    HW237020   1.904   1.889   8.626  1.1822 -0.7931 -2.1496
 8463SOL     OW37021   4.722   1.252  11.181 -0.3167  0.1543  0.4212
 8463SOL    HW137022   4.650   1.313  11.198 -0.7712 -0.9993  2.6558
 8463SOL    HW237023   4.715   1.236  11.087  0.7927  0.6196  0.2492
 8464SOL     OW37024   2.018   3.613  10.354 -0.5455 -0.4049 -0.1067
 8464SOL    HW137025   2.090   3.552  10.367 -0.5260 -0.3054  0.2354
 8464SOL    HW237026   2.002   3.640  10.444  0.0722 -1.7071  0.3886
 8465SOL     OW37027   3.932   2.265  17.286 -0.6694  0.4122 -0.0690
 8465SOL    HW137028   3.908   2.264  17.193 -1.6539 -0.6093  0.1988
 8465SOL    HW237029   3.995   2.337  17.287  0.2454 -0.3421 -2.3081
 8466SOL     OW37030   2.940   2.113   4.834  0.6586  0.7867 -0.5982
 8466SOL    HW137031   3.005   2.079   4.896 -1.2739 -1.7475  0.0648
 8466SOL    HW237032   2.861   2.069   4.866  1.1406 -0.2356 -0.7863
 8467SOL     OW37033   1.792   3.620   7.607  0.5673  0.4807  0.2620
 8467SOL    HW137034   1.748   3.616   7.693  3.1847 -0.5033  1.5587
 8467SOL    HW237035   1.873   3.664   7.630  0.6038 -0.7046  2.4654
 8468SOL     OW37036   3.115   2.377   1.776 -0.4060  0.0848 -0.0523
 8468SOL    HW137037   3.066   2.367   1.695  1.2898  3.8150 -1.5367
 8468SOL    HW237038   3.075   2.310   1.831  1.1955 -1.4716 -0.7847
 8469SOL     OW37039   2.665   1.133   3.792 -0.0408  0.2406 -0.1083
 8469SOL    HW137040   2.739   1.155   3.734  0.1722  0.1206  0.1165
 8469SOL    HW237041   2.629   1.060   3.741  0.0845 -0.2570  0.5144
 8470SOL     OW37042   2.868   0.858  16.641 -0.2527 -0.4133 -0.1989
 8470SOL    HW137043   2.946   0.880  16.693 -0.9467 -2.5778  1.7220
 8470SOL    HW237044   2.888   0.919  16.569  3.5670  1.3826  2.3659
 8471SOL     OW37045   0.234   1.348   8.255  0.3886 -0.4932 -0.3611
 8471SOL    HW137046   0.244   1.258   8.286 -1.6150  0.1804  2.2716
 8471SOL    HW237047   0.148   1.361   8.294  0.8240 -1.0169  0.7961
 8472SOL     OW37048   1.066   4.116   4.638  0.6014 -0.5351  0.5731
 8472SOL    HW137049   0.980   4.082   4.613  0.3001 -0.6510  1.7280
 8472SOL    HW237050   1.041   4.194   4.687  0.4188 -1.8162  2.5659
 8473SOL     OW37051   4.270   0.608   8.017 -0.1336  0.0520  0.3261
 8473SOL    HW137052   4.287   0.701   8.029 -2.3296  0.2299  2.0912
 8473SOL    HW237053   4.175   0.612   8.026 -0.0731  1.0220  0.4778
 8474SOL     OW37054   1.508   3.556   4.707  0.3911 -0.2563  0.2417
 8474SOL    HW137055   1.562   3.500   4.763  1.3539  0.9039  0.4550
 8474SOL    HW237056   1.556   3.638   4.714 -0.4159  0.1970  0.5185
 8475SOL     OW37057   2.582   0.807   3.750  0.0301  0.0597  0.5089
 8475SOL    HW137058   2.645   0.737   3.765 -3.0092 -2.6790  0.5212
 8475SOL    HW237059   2.531   0.812   3.831  0.4159  1.9325  0.6436
 8476SOL     OW37060   4.112   2.254   1.973 -0.9806  0.0009 -0.0187
 8476SOL    HW137061   4.072   2.190   1.914 -0.9952  0.8230 -0.9016
 8476SOL    HW237062   4.205   2.231   1.973 -0.7590  0.9596 -2.0000
 8477SOL     OW37063   1.056   2.002   9.212 -0.1438  0.6746 -0.0817
 8477SOL    HW137064   1.004   2.074   9.177  0.6258  0.3126 -1.9212
 8477SOL    HW237065   1.123   2.051   9.259  1.5198  0.5881 -2.4120
 8478SOL     OW37066   1.095   4.027   1.700  0.2706  0.1259 -0.0121
 8478SOL    HW137067   1.052   3.944   1.675 -0.2368  0.8859 -1.6773
 8478SOL    HW237068   1.176   3.998   1.741 -0.1056 -0.3050  0.4232
 8479SOL     OW37069   2.561   2.931   3.888  0.0674 -0.0716  0.7299
 8479SOL    HW137070   2.644   2.928   3.840  0.8460  0.6008  2.0022
 8479SOL    HW237071   2.589   2.897   3.973 -1.2743 -2.6120  0.1268
 8480SOL     OW37072   2.465   0.552  12.743  0.3668 -0.2692 -0.8629
 8480SOL    HW137073   2.521   0.616  12.698  1.7740  0.6993  2.2578
 8480SOL    HW237074   2.523   0.512  12.807 -0.1702  1.6108  0.7899
 8481SOL     OW37075   4.366   3.203   9.292 -0.0521  0.4562  0.1272
 8481SOL    HW137076   4.271   3.193   9.291  0.1230 -1.0213 -2.4923
 8481SOL    HW237077   4.375   3.289   9.251 -1.1509  0.4684 -0.0662
 8482SOL     OW37078   3.688   4.446   7.406  1.0730 -0.4686 -0.6424
 8482SOL    HW137079   3.599   4.416   7.384  0.5540  0.7326 -0.1521
 8482SOL    HW237080   3.721   4.498   7.333 -0.0723  1.9059  0.5268
 8483SOL     OW37081   1.122   1.865   0.184 -0.5091  0.0288  0.7911
 8483SOL    HW137082   1.204   1.837   0.226 -0.0667  1.3204  0.7853
 8483SOL    HW237083   1.077   1.782   0.172 -0.1123 -0.2509  1.2193
 8484SOL     OW37084   0.994   3.404   1.561 -0.7583 -0.1459 -0.1648
 8484SOL    HW137085   1.039   3.475   1.516 -0.8680  0.1168  0.1452
 8484SOL    HW237086   1.065   3.365   1.612 -1.4142  0.0317  0.8776
 8485SOL     OW37087   3.671   0.645   7.543  0.6467  0.1254 -0.3432
 8485SOL    HW137088   3.629   0.560   7.555 -1.2067  1.1444  0.4257
 8485SOL    HW237089   3.630   0.686   7.620  0.9361 -0.7610  0.2781
 8486SOL     OW37090   1.183   1.628  13.002  0.1549  0.1988 -0.0923
 8486SOL    HW137091   1.159   1.571  12.929 -1.2162  0.1068  0.4157
 8486SOL    HW237092   1.137   1.710  12.983  3.1590  1.8791 -0.0626
 8487SOL     OW37093   4.450   1.271   4.869  0.2875  0.6370  0.6643
 8487SOL    HW137094   4.459   1.356   4.911  1.1423  1.2022 -0.6288
 8487SOL    HW237095   4.403   1.216   4.931  0.4510 -0.0069  0.2288
 8488SOL     OW37096   4.013   2.307   2.561 -0.7203  0.8022 -0.2919
 8488SOL    HW137097   3.961   2.382   2.534  0.2287  1.7929  0.6106
 8488SOL    HW237098   4.080   2.307   2.492 -0.6154  0.4658 -0.1895
 8489SOL     OW37099   2.889   3.292   3.854  0.2428 -0.7066  0.0534
 8489SOL    HW137100   2.802   3.268   3.824 -0.3757  0.9160  0.5486
 8489SOL    HW237101   2.934   3.226   3.802  1.6961 -0.5909  1.1296
 8490SOL     OW37102   0.956   1.004   1.705 -0.2799  0.5728 -0.0969
 8490SOL    HW137103   0.965   1.089   1.748  0.5251 -0.5847  2.0129
 8490SOL    HW237104   1.037   0.960   1.731  0.9823  1.6031 -2.2407
 8491SOL     OW37105   4.331   0.754   9.507  0.4833  0.1948 -0.5260
 8491SOL    HW137106   4.304   0.832   9.555 -0.1298  0.0603 -0.6502
 8491SOL    HW237107   4.400   0.719   9.563  0.0068 -1.1139 -0.7732
 8492SOL     OW37108   4.651   1.795   4.165 -0.6475  0.4863 -0.4487
 8492SOL    HW137109   4.637   1.890   4.159 -0.4982  0.4431 -1.4144
 8492SOL    HW237110   4.643   1.778   4.259 -1.0129 -0.8044 -0.7162
 8493SOL     OW37111   3.478   3.206   0.892  0.2303 -0.2047 -0.0677
 8493SOL    HW137112   3.521   3.202   0.807 -1.3774  0.2814 -0.8905
 8493SOL    HW237113   3.392   3.234   0.862 -0.0139  0.2049  1.0176
 8494SOL     OW37114   0.123   4.568   3.745 -0.6547  0.0050  0.2417
 8494SOL    HW137115   0.139   4.558   3.838 -0.3950 -1.4567  0.0364
 8494SOL    HW237116   0.166   4.492   3.706  0.0681 -1.2410  3.4628
 8495SOL     OW37117   1.221   1.160  13.496 -0.3194 -0.3045  0.2635
 8495SOL    HW137118   1.178   1.103  13.433  0.4671  0.0109 -0.5450
 8495SOL    HW237119   1.155   1.230  13.500  2.7378  2.7350 -2.5683
 8496SOL     OW37120   2.512   4.587   5.103  0.2542 -0.0423 -0.4938
 8496SOL    HW137121   2.533   4.642   5.027 -2.0613  1.0083 -0.3854
 8496SOL    HW237122   2.597   4.556   5.132 -0.7355 -3.5782 -1.3894
 8497SOL     OW37123   4.133   2.002   5.085 -1.2082 -0.2064  0.4868
 8497SOL    HW137124   4.086   2.005   5.167 -0.1267  0.3069  1.0910
 8497SOL    HW237125   4.209   2.060   5.094 -0.5746 -0.8479 -0.7005
 8498SOL     OW37126   0.093   0.727   1.921  0.1450 -0.0402 -0.0138
 8498SOL    HW137127   0.128   0.647   1.881  0.5026  0.3381 -0.4595
 8498SOL    HW237128   0.104   0.719   2.016 -1.1975  1.0533  0.2417
 8499SOL     OW37129   4.160   3.977  10.854 -0.4560  0.4340  0.0988
 8499SOL    HW137130   4.066   3.991  10.861 -0.8760 -2.2330 -0.0924
 8499SOL    HW237131   4.175   3.907  10.919 -0.2865 -0.8045 -1.2805
 8500SOL     OW37132   2.018   4.023  16.844  0.1773 -0.6583  0.7544
 8500SOL    HW137133   2.024   4.015  16.748 -0.8440  2.5828  0.4227
 8500SOL    HW237134   2.042   3.936  16.876  0.3280 -0.0606  2.2774
 8501SOL     OW37135   1.089   0.178   1.627 -0.0025 -0.1580 -0.1440
 8501SOL    HW137136   0.998   0.149   1.626 -0.3271  0.8633  0.0198
 8501SOL    HW237137   1.107   0.236   1.701  0.0212 -0.3533  0.0012
 8502SOL     OW37138   1.050   3.741   2.614  0.6229  0.2993  0.3356
 8502SOL    HW137139   0.994   3.818   2.619  1.9688  1.2871  0.1786
 8502SOL    HW237140   0.985   3.686   2.570  0.6902 -0.5154  1.2652
 8503SOL     OW37141   2.371   3.935   2.323 -0.0532 -0.6799  0.1364
 8503SOL    HW137142   2.306   3.986   2.274  1.3119 -0.3168 -1.2847
 8503SOL    HW237143   2.421   3.904   2.248 -0.1391 -0.4938  0.0036
 8504SOL     OW37144   1.275   0.962   8.347 -0.2335  0.0397  0.2396
 8504SOL    HW137145   1.282   0.997   8.258 -2.2060  0.7779  0.3777
 8504SOL    HW237146   1.188   0.996   8.366  0.3713  0.9714  1.3074
 8505SOL     OW37147   0.231   0.004   0.730  0.5346  0.1997 -0.4267
 8505SOL    HW137148   0.149   4.695   0.742 -0.2741  2.2322  2.2038
 8505SOL    HW237149   0.262   0.004   0.820 -0.5128 -1.9343 -0.0590
 8506SOL     OW37150   0.793   3.332   1.367  0.2374 -0.2625  0.1945
 8506SOL    HW137151   0.855   3.374   1.426  1.4283  2.1811 -2.8505
 8506SOL    HW237152   0.841   3.303   1.290  0.7697 -0.4349  0.5916
 8507SOL     OW37153   4.424   2.912   3.826  0.4168  0.0283 -0.3803
 8507SOL    HW137154   4.427   2.836   3.768 -0.8210 -1.5527  1.6502
 8507SOL    HW237155   4.469   2.881   3.904 -0.7352 -0.2565  0.1629
 8508SOL     OW37156   1.319   2.848   1.945 -0.2780  0.7513 -0.6957
 8508SOL    HW137157   1.398   2.841   1.998 -0.5712  0.8614 -0.2416
 8508SOL    HW237158   1.363   2.867   1.862 -1.5147  0.8890 -1.3262
 8509SOL     OW37159   4.287   4.009   1.897 -0.0470 -0.1127  0.0981
 8509SOL    HW137160   4.319   4.079   1.954 -1.1415 -1.8282  2.8351
 8509SOL    HW237161   4.274   3.936   1.958 -1.1045  0.7434  0.8854
 8510SOL     OW37162   2.454   1.560  13.670  0.4275  0.2233 -0.4694
 8510SOL    HW137163   2.526   1.611  13.633  0.4995  0.5105  0.0711
 8510SOL    HW237164   2.401   1.560  13.590  1.1641 -2.2852 -0.9478
 8511SOL     OW37165   1.067   2.172  11.446 -0.2714 -0.1556  0.4970
 8511SOL    HW137166   1.087   2.214  11.362 -1.3255  1.0714  0.8589
 8511SOL    HW237167   1.010   2.104  11.410  0.9765 -0.5904 -0.6838
 8512SOL     OW37168   2.726   0.349  12.356 -0.1831  0.0306  0.0613
 8512SOL    HW137169   2.669   0.423  12.340  0.7715  0.2777 -2.1542
 8512SOL    HW237170   2.749   0.360  12.449 -2.6134  2.4827  0.3668
 8513SOL     OW37171   1.767   2.261  10.975 -0.6929  0.2281  0.1506
 8513SOL    HW137172   1.825   2.222  11.040  0.7357  3.1143  0.5596
 8513SOL    HW237173   1.685   2.244  11.022  0.1967 -0.8021  1.3197
 8514SOL     OW37174   4.732   3.626   2.032 -0.2108  0.6588 -0.3299
 8514SOL    HW137175   0.054   3.604   1.962 -0.9888  0.1709 -0.8459
 8514SOL    HW237176   4.719   3.537   2.063 -2.2061  0.5050 -1.6360
 8515SOL     OW37177   0.006   0.535   2.925 -0.0517  0.4373 -0.1398
 8515SOL    HW137178   0.042   0.539   3.013 -0.6004 -3.3107  0.2531
 8515SOL    HW237179   0.035   0.619   2.888 -0.1477  1.2689  1.6594
 8516SOL     OW37180   3.122   4.270  12.228  0.2102  0.1054 -0.3202
 8516SOL    HW137181   3.155   4.324  12.156  1.0629 -0.1996 -0.1543
 8516SOL    HW237182   3.125   4.331  12.302  2.6019 -0.7145  0.2340
 8517SOL     OW37183   4.665   0.887  12.305  0.0543  0.1788  0.1845
 8517SOL    HW137184   4.730   0.818  12.296  0.6926  0.8512 -0.4027
 8517SOL    HW237185   4.701   0.952  12.244 -0.3154  0.3004  0.0897
 8518SOL     OW37186   3.654   2.482   0.422  0.1445 -0.1888  0.3222
 8518SOL    HW137187   3.575   2.434   0.446 -0.3260  0.9637  1.0620
 8518SOL    HW237188   3.710   2.474   0.499 -0.0761  1.7066  0.6785
 8519SOL     OW37189   1.795   1.101  11.297 -0.3601  0.1859  0.2476
 8519SOL    HW137190   1.734   1.030  11.278 -0.4579  0.3984 -0.2267
 8519SOL    HW237191   1.732   1.170  11.316 -0.0566  0.3638  0.6106
 8520SOL     OW37192   2.200   2.838   9.507  0.2099  0.2271 -0.2719
 8520SOL    HW137193   2.118   2.801   9.474  0.6090 -1.6418  0.7869
 8520SOL    HW237194   2.237   2.766   9.558  0.3107  2.0574  2.2554
 8521SOL     OW37195   0.930   0.673  17.144 -0.1803  0.3897  0.3951
 8521SOL    HW137196   0.865   0.714  17.200  0.8684  0.8376  1.3001
 8521SOL    HW237197   0.879   0.594  17.125 -0.5526  0.8933 -0.7006
 8522SOL     OW37198   1.182   3.727   7.523 -0.2769  0.2026  0.6912
 8522SOL    HW137199   1.222   3.717   7.437  0.6511  3.0565  0.7732
 8522SOL    HW237200   1.094   3.732   7.487 -0.2697  0.4537  0.7081
 8523SOL     OW37201   1.602   4.031   6.538 -0.6272  0.2491  0.1849
 8523SOL    HW137202   1.536   4.084   6.494  0.8375  2.4204  0.6258
 8523SOL    HW237203   1.686   4.062   6.505 -0.4293  0.9883  1.3752
 8524SOL     OW37204   1.529   0.336   3.561 -0.7707  0.1837  0.0531
 8524SOL    HW137205   1.549   0.296   3.645  0.8015 -1.5866 -1.1592
 8524SOL    HW237206   1.504   0.425   3.586 -0.9735  0.4786 -1.1857
 8525SOL     OW37207   3.085   2.076   5.654  0.3003  0.4398  0.2608
 8525SOL    HW137208   3.115   1.984   5.654 -0.5787  0.1614  1.0561
 8525SOL    HW237209   3.174   2.112   5.647 -0.1659  1.5246 -0.0001
 8526SOL     OW37210   1.807   1.493   1.731 -0.1391 -0.2499 -0.2221
 8526SOL    HW137211   1.739   1.558   1.748 -0.9100 -1.9176  3.2030
 8526SOL    HW237212   1.764   1.409   1.747 -0.3125 -0.0782  0.2174
 8527SOL     OW37213   1.486   0.303   6.523  0.3050  0.1230  0.6896
 8527SOL    HW137214   1.508   0.395   6.510 -1.5242  0.7066  1.6944
 8527SOL    HW237215   1.461   0.270   6.437  0.3108  1.7538  0.0697
 8528SOL     OW37216   1.800   4.660  12.049 -0.0374  0.4908 -0.5826
 8528SOL    HW137217   1.857   4.656  12.126  0.1179  1.1471 -0.6622
 8528SOL    HW237218   1.871   4.669  11.985 -0.7642  0.7559 -1.3426
 8529SOL     OW37219   1.753   0.580   5.909  0.0410 -0.2171 -0.2177
 8529SOL    HW137220   1.754   0.577   6.004  2.7960  2.6237 -0.1863
 8529SOL    HW237221   1.844   0.573   5.882 -0.1204 -1.8051 -0.3688
 8530SOL     OW37222   1.971   0.833  15.851  0.0203  0.4435  0.3014
 8530SOL    HW137223   1.923   0.893  15.909  1.4960  1.1830  0.7422
 8530SOL    HW237224   2.060   0.835  15.885  1.0061 -0.4722 -2.2215
 8531SOL     OW37225   3.216   3.189   6.054  0.1781  0.0881 -0.7941
 8531SOL    HW137226   3.309   3.180   6.030  0.4820 -1.9889  1.2064
 8531SOL    HW237227   3.178   3.110   6.015 -2.2046  1.1819 -0.6628
 8532SOL     OW37228   4.452   0.843  11.612  0.5195 -0.4122  0.3290
 8532SOL    HW137229   4.389   0.772  11.624 -0.0347 -0.2040 -1.2820
 8532SOL    HW237230   4.449   0.860  11.518 -2.4309 -1.0779  0.2992
 8533SOL     OW37231   4.692   2.390  15.467  0.2071  0.2296 -0.0861
 8533SOL    HW137232   4.623   2.331  15.496 -0.3652 -0.0306 -1.9552
 8533SOL    HW237233   4.734   2.342  15.395 -0.6703  0.6907 -0.9075
 8534SOL     OW37234   4.075   2.368  12.990  0.5119  0.1860  0.1245
 8534SOL    HW137235   3.986   2.354  12.958  1.0925 -2.2171 -0.4742
 8534SOL    HW237236   4.073   2.304  13.061  0.7139 -2.7640 -2.4780
 8535SOL     OW37237   3.375   4.350   6.883 -0.4376  0.3911 -0.1368
 8535SOL    HW137238   3.405   4.264   6.853  1.0523  1.0369 -0.4984
 8535SOL    HW237239   3.460   4.393   6.896  0.1998 -1.1321  0.7224
 8536SOL     OW37240   2.417   0.096   6.594  0.4545 -0.2818  0.0294
 8536SOL    HW137241   2.473   0.065   6.523  1.3244 -0.1953  0.6764
 8536SOL    HW237242   2.481   0.158   6.627  0.5438 -0.4106  0.0973
 8537SOL     OW37243   0.885   4.432   5.887  0.2707 -0.0393  0.5776
 8537SOL    HW137244   0.844   4.351   5.856  1.1828 -0.3631  0.2179
 8537SOL    HW237245   0.912   4.470   5.804 -1.9043 -3.0349 -1.5055
 8538SOL     OW37246   3.873   3.684   2.030 -0.3604  0.1734 -0.5625
 8538SOL    HW137247   3.949   3.631   2.052 -0.7220 -0.8156 -1.7278
 8538SOL    HW237248   3.901   3.712   1.942  0.9229 -0.2951 -0.2860
 8539SOL     OW37249   2.530   1.761   8.888  0.2170  0.2799 -0.5471
 8539SOL    HW137250   2.507   1.721   8.971  1.1677  2.1692  0.6139
 8539SOL    HW237251   2.570   1.691   8.836  0.4346 -1.8056  2.4793
 8540SOL     OW37252   1.799   4.224   7.579  0.2814  0.1027 -0.1215
 8540SOL    HW137253   1.741   4.205   7.653  0.7195  2.2901  0.7819
 8540SOL    HW237254   1.881   4.207   7.624  0.9135 -0.8061 -1.6233
 8541SOL     OW37255   2.797   1.800   2.635  0.1421 -0.6416  0.5177
 8541SOL    HW137256   2.846   1.831   2.559  1.0466  1.0634  1.8073
 8541SOL    HW237257   2.789   1.888   2.671  1.4909  0.0712 -0.9399
 8542SOL     OW37258   1.504   2.897   8.822 -0.2924  0.0636 -0.0984
 8542SOL    HW137259   1.507   2.990   8.845  1.2391 -0.1508  0.5736
 8542SOL    HW237260   1.479   2.863   8.909  2.3803  0.6406  0.8773
 8543SOL     OW37261   2.980   3.987  11.179  0.5617  0.7946  0.0747
 8543SOL    HW137262   2.901   3.945  11.215  0.0142  1.4007 -0.4066
 8543SOL    HW237263   2.972   3.976  11.084 -2.3456  2.5666  0.1117
 8544SOL     OW37264   2.626   1.678   2.437  0.2235  0.3044 -0.6560
 8544SOL    HW137265   2.694   1.732   2.478 -0.4795  1.1494 -0.5960
 8544SOL    HW237266   2.635   1.599   2.490  1.1023  0.6532 -0.2925
 8545SOL     OW37267   0.132   2.657   9.059  0.0246  0.0749 -0.7838
 8545SOL    HW137268   0.050   2.619   9.091  0.6058 -1.3581 -1.0206
 8545SOL    HW237269   0.112   2.749   9.041  0.7465  0.5659  0.8776
 8546SOL     OW37270   3.981   2.182   0.728  0.6272 -0.3335  0.3893
 8546SOL    HW137271   3.953   2.265   0.767 -1.5833 -0.9646  0.1628
 8546SOL    HW237272   4.073   2.198   0.708  1.0500 -0.3756  2.2522
 8547SOL     OW37273   3.824   0.007   5.033  0.5956  0.4916 -0.1289
 8547SOL    HW137274   3.816   0.057   5.114  0.2680  0.2653 -0.0242
 8547SOL    HW237275   3.913   0.030   5.005  1.4135  1.6663  3.3971
 8548SOL     OW37276   4.142   3.906   2.110  0.3393 -0.7015 -0.3447
 8548SOL    HW137277   4.197   3.956   2.170 -0.4543  1.1120 -1.1295
 8548SOL    HW237278   4.096   3.979   2.069  2.5795  1.8775  1.7217
 8549SOL     OW37279   4.497   1.425  11.172 -0.3691  0.2009 -0.2499
 8549SOL    HW137280   4.410   1.399  11.204  0.2858  2.3758  3.2735
 8549SOL    HW237281   4.483   1.519  11.188 -1.3718  0.0261 -0.0540
 8550SOL     OW37282   3.080   1.581   5.577 -0.1740 -0.0390 -0.0656
 8550SOL    HW137283   3.135   1.538   5.512 -1.4126 -1.9863  0.1355
 8550SOL    HW237284   3.005   1.521   5.581  0.1926 -0.5035 -0.1967
 8551SOL     OW37285   2.876   1.015   4.296  0.1618 -0.4125  0.7834
 8551SOL    HW137286   2.845   0.980   4.212  2.7652  0.2508 -0.4405
 8551SOL    HW237287   2.928   0.947   4.340  0.6056 -0.3912  0.2899
 8552SOL     OW37288   0.302   0.482   4.217  0.2603  0.0143 -0.1419
 8552SOL    HW137289   0.236   0.419   4.246  0.8608  0.2675  1.7587
 8552SOL    HW237290   0.365   0.425   4.171 -0.9817 -0.5185 -1.1655
 8553SOL     OW37291   1.964   2.312   8.170 -0.6728  0.4097 -0.0675
 8553SOL    HW137292   2.026   2.368   8.123 -0.2714  0.0485  0.0217
 8553SOL    HW237293   2.008   2.289   8.252  2.1998  0.4452 -1.5855
 8554SOL     OW37294   1.683   0.677   3.761  0.2466 -0.2936  0.0903
 8554SOL    HW137295   1.761   0.647   3.809 -0.2388 -0.3133  0.8616
 8554SOL    HW237296   1.712   0.673   3.669 -2.0790 -1.9328 -0.5598
 8555SOL     OW37297   1.803   0.152   4.926  0.0329  0.5126  0.3118
 8555SOL    HW137298   1.855   0.169   4.847  1.5587 -1.5021  0.8711
 8555SOL    HW237299   1.802   0.056   4.924 -1.8349  0.5706 -1.6789
 8556SOL     OW37300   3.076   1.826   6.891  0.1073 -0.5098  0.0112
 8556SOL    HW137301   3.027   1.753   6.852 -0.2868 -0.3807  0.2674
 8556SOL    HW237302   3.162   1.806   6.852  1.3357  2.9062  0.9935
 8557SOL     OW37303   3.298   3.441   4.101 -0.5401 -0.0246  0.2119
 8557SOL    HW137304   3.291   3.499   4.024 -2.6333  1.5247  1.5799
 8557SOL    HW237305   3.347   3.370   4.059 -0.5215 -0.3057  0.7192
 8558SOL     OW37306   3.111   4.218   4.977  0.1762  0.6727  0.4025
 8558SOL    HW137307   3.125   4.244   5.068  0.1318 -1.6836  1.0826
 8558SOL    HW237308   3.111   4.307   4.942  1.8111  0.6942  0.4841
 8559SOL     OW37309   0.564   1.254   7.089 -0.0540 -0.6155  0.0138
 8559SOL    HW137310   0.564   1.178   7.030  2.4002  0.6562 -1.6082
 8559SOL    HW237311   0.474   1.284   7.076 -0.0137  0.3903  1.9682
 8560SOL     OW37312   2.153   1.948   8.338  0.6954 -0.0627  0.1630
 8560SOL    HW137313   2.139   1.878   8.402 -0.1349 -0.6841 -0.6832
 8560SOL    HW237314   2.105   1.911   8.264 -2.2231  0.7101  1.6803
 8561SOL     OW37315   1.914   0.677   6.575 -0.1195  0.0788  0.9173
 8561SOL    HW137316   1.911   0.769   6.602  0.2359  0.8914 -1.8855
 8561SOL    HW237317   1.942   0.636   6.657  1.6820 -0.1793  0.1809
 8562SOL     OW37318   0.135   3.800   0.271  0.3595  0.1836  0.2288
 8562SOL    HW137319   0.139   3.895   0.265  0.6671  0.2731  2.1026
 8562SOL    HW237320   0.114   3.779   0.361  0.7430 -1.1812  0.0115
 8563SOL     OW37321   3.671   4.512  10.215 -0.4479  0.0509 -0.3194
 8563SOL    HW137322   3.593   4.552  10.177 -0.5285 -0.5382 -0.7664
 8563SOL    HW237323   3.747   4.537  10.163  0.0025  3.6318  2.0432
 8564SOL     OW37324   1.517   1.232   5.919  0.0018  0.4214 -0.3873
 8564SOL    HW137325   1.597   1.182   5.908  0.1222  0.6385 -0.5086
 8564SOL    HW237326   1.547   1.312   5.875  1.5854  0.1084  0.1263
 8565SOL     OW37327   4.425   4.593  17.473 -0.0028 -0.6307  0.2285
 8565SOL    HW137328   4.404   4.505  17.504 -0.4226 -1.2841 -1.9179
 8565SOL    HW237329   4.452   4.619  17.561  0.3807  2.4470 -0.8000
 8566SOL     OW37330   2.284   3.028   9.328 -0.0365 -0.4832 -0.6335
 8566SOL    HW137331   2.263   2.954   9.385 -0.5056  1.0632  1.2104
 8566SOL    HW237332   2.211   3.085   9.354  0.8182  0.0993  0.5298
 8567SOL     OW37333   1.728   2.882  17.386  0.7064 -1.0289 -0.3352
 8567SOL    HW137334   1.718   2.968  17.345 -0.9788  0.0729  2.3507
 8567SOL    HW237335   1.792   2.897  17.456 -0.3453 -1.1793  0.6679
 8568SOL     OW37336   3.207   0.865  14.812  0.3789 -0.1423  0.4249
 8568SOL    HW137337   3.289   0.892  14.771  0.6640  1.0646  1.8011
 8568SOL    HW237338   3.242   0.842  14.898  0.2093  1.2370  0.8622
 8569SOL     OW37339   3.978   0.365  10.541  0.3240 -0.2104  0.3791
 8569SOL    HW137340   3.905   0.420  10.512  2.3281  2.7479  1.0018
 8569SOL    HW237341   4.020   0.430  10.598 -0.8679 -0.8919  2.0547
 8570SOL     OW37342   4.048   3.511   6.095  0.2728 -0.2165  0.1022
 8570SOL    HW137343   4.031   3.419   6.113 -1.4337  0.5296  2.3994
 8570SOL    HW237344   4.073   3.498   6.004 -0.2153 -2.4355  0.3019
 8571SOL     OW37345   1.341   3.720   3.322  0.0552  0.4600 -0.0421
 8571SOL    HW137346   1.416   3.771   3.291  0.6002 -1.5699 -2.1272
 8571SOL    HW237347   1.349   3.734   3.416 -1.0622  1.6385 -0.1219
 8572SOL     OW37348   3.227   3.693  14.064  0.3968  0.1542 -0.2884
 8572SOL    HW137349   3.309   3.738  14.043  1.4122 -2.0126 -0.9892
 8572SOL    HW237350   3.164   3.765  14.065 -0.6575 -0.8052  1.3796
 8573SOL     OW37351   0.355   0.223   6.564 -0.4945  0.3093  0.3485
 8573SOL    HW137352   0.385   0.267   6.644  1.7874 -0.0375 -0.3174
 8573SOL    HW237353   0.380   0.134   6.587 -0.2248 -0.3113 -2.3710
 8574SOL     OW37354   0.741   2.002  14.751  0.6417  0.0990 -0.5926
 8574SOL    HW137355   0.786   2.005  14.835  1.9762  1.7703 -1.3768
 8574SOL    HW237356   0.748   1.907  14.738  1.9499  0.5073 -2.8529
 8575SOL     OW37357   2.008   4.615   4.937 -0.3243  0.2720 -0.1260
 8575SOL    HW137358   2.008   4.595   5.030 -1.2867  0.6133 -0.0588
 8575SOL    HW237359   1.913   4.606   4.927  0.0932 -2.2940 -2.0681
 8576SOL     OW37360   3.389   4.035   6.545 -0.0142  0.9287 -0.2127
 8576SOL    HW137361   3.455   4.055   6.612 -1.2157  1.1299  0.9009
 8576SOL    HW237362   3.319   4.011   6.605 -0.4972 -0.1109 -1.2082
 8577SOL     OW37363   0.442   1.890   6.902 -0.2228 -0.3599 -0.3971
 8577SOL    HW137364   0.432   1.805   6.944  0.4156 -0.4466 -0.4150
 8577SOL    HW237365   0.371   1.877   6.839 -1.4892  0.6023  0.8219
 8578SOL     OW37366   3.375   2.468   8.668  0.0693 -0.1812  0.5019
 8578SOL    HW137367   3.302   2.512   8.712  0.1148  0.0947  0.3024
 8578SOL    HW237368   3.406   2.418   8.743  1.6495  1.2583  0.8171
 8579SOL     OW37369   3.383   1.171   6.081 -0.0672  0.0418  0.3683
 8579SOL    HW137370   3.412   1.236   6.144  0.8496  0.3080 -0.3338
 8579SOL    HW237371   3.417   1.091   6.121 -1.7280 -0.5411  0.5973
 8580SOL     OW37372   3.522   1.443  17.078  0.0617 -0.0858  0.1928
 8580SOL    HW137373   3.549   1.352  17.073  1.4146  0.3232  0.1817
 8580SOL    HW237374   3.561   1.480  17.157 -2.3124 -2.6965  2.6042
 8581SOL     OW37375   1.517   3.536   6.975 -0.2910  0.3140 -0.0590
 8581SOL    HW137376   1.508   3.585   7.056  2.9500 -1.3794  1.2985
 8581SOL    HW237377   1.432   3.560   6.937 -0.6801 -0.3511  0.3890
 8582SOL     OW37378   0.447   4.432   1.154  0.3270  0.2705 -0.5600
 8582SOL    HW137379   0.512   4.437   1.224 -0.0165  1.1885 -0.2982
 8582SOL    HW237380   0.385   4.499   1.184 -0.2070 -0.1940 -0.6373
 8583SOL     OW37381   3.428   2.978  10.843  0.2460  0.5601 -0.3203
 8583SOL    HW137382   3.462   2.897  10.881  0.5821  0.2280 -1.3464
 8583SOL    HW237383   3.499   3.009  10.787  1.3978 -1.1850  0.1863
 8584SOL     OW37384   2.802   4.734  10.638  0.2207  0.1193 -0.1187
 8584SOL    HW137385   2.829   4.671  10.571  0.0335 -0.0530 -0.0320
 8584SOL    HW237386   2.735   4.682  10.682  1.6236  0.7439  2.7108
 8585SOL     OW37387   4.046   2.992   5.509 -0.2961  0.0870 -0.0681
 8585SOL    HW137388   4.019   3.082   5.490  1.5632  0.5639 -0.4254
 8585SOL    HW237389   3.962   2.957   5.538 -0.2202 -0.3016 -0.3208
 8586SOL     OW37390   3.089   3.876   7.005  0.3193 -0.1833 -0.0224
 8586SOL    HW137391   2.998   3.902   6.989  0.2695 -0.0561  0.4915
 8586SOL    HW237392   3.124   3.964   7.016 -0.0604  0.0281 -0.4452
 8587SOL     OW37393   3.953   3.262   5.568  0.0329  0.1763  0.4731
 8587SOL    HW137394   4.040   3.300   5.571  0.3407 -0.5698  0.9790
 8587SOL    HW237395   3.919   3.302   5.488 -0.2659  0.5258  0.7733
 8588SOL     OW37396   3.496   2.179   6.145  0.0066 -0.6510  0.0251
 8588SOL    HW137397   3.533   2.249   6.092 -2.5947  0.0781 -0.8198
 8588SOL    HW237398   3.558   2.108   6.131  0.4983 -0.1203 -0.5289
 8589SOL     OW37399   3.540   0.252  14.398 -0.5301 -0.2629 -0.1877
 8589SOL    HW137400   3.571   0.162  14.408 -0.7722 -0.1847  1.2099
 8589SOL    HW237401   3.553   0.255  14.303  1.3802 -1.5841  0.0146
 8590SOL     OW37402   1.102   3.397   9.788 -0.0217 -0.1807  0.5074
 8590SOL    HW137403   1.154   3.433   9.860 -2.0197  0.2157  1.7639
 8590SOL    HW237404   1.042   3.333   9.825  0.8422  0.0882  2.3784
 8591SOL     OW37405   2.928   2.299   5.126 -1.2154 -0.2236 -0.5398
 8591SOL    HW137406   2.954   2.374   5.072  0.6442  0.2564  1.0165
 8591SOL    HW237407   2.993   2.311   5.196 -2.6235 -0.5309  0.8031
 8592SOL     OW37408   4.158   4.142  11.063  0.4102  0.0949  0.9918
 8592SOL    HW137409   4.192   4.113  10.979  0.9442 -0.1298  1.2888
 8592SOL    HW237410   4.088   4.079  11.076  1.5974 -0.7749  3.0620
 8593SOL     OW37411   3.347   0.528  15.173  0.4805  0.3518 -0.4504
 8593SOL    HW137412   3.316   0.442  15.147 -1.2813  0.3536  1.5961
 8593SOL    HW237413   3.367   0.574  15.091  1.0038  0.5744 -0.1974
 8594SOL     OW37414   4.556   3.081  15.630 -0.1950 -0.0955  0.9889
 8594SOL    HW137415   4.466   3.103  15.608 -0.7099 -3.1492  0.0939
 8594SOL    HW237416   4.600   3.164  15.613  0.5475 -0.7246 -0.2011
 8595SOL     OW37417   0.533   3.260  11.878  0.2404 -0.4002  0.2950
 8595SOL    HW137418   0.553   3.186  11.821 -0.6180 -1.1001  0.8959
 8595SOL    HW237419   0.557   3.212  11.957 -1.7603  0.2735  1.3177
 8596SOL     OW37420   2.958   3.496   4.459 -0.0592 -0.6909  0.2388
 8596SOL    HW137421   2.884   3.450   4.419  0.1136 -1.2115  0.5108
 8596SOL    HW237422   2.916   3.538   4.534 -0.1935 -1.4661  0.6056
 8597SOL     OW37423   1.482   4.705   2.143  0.7849 -0.6198 -0.4696
 8597SOL    HW137424   1.572   4.686   2.119  1.0095 -0.4967  0.2667
 8597SOL    HW237425   1.495   0.039   2.205 -0.5084  1.3002 -2.4766
 8598SOL     OW37426   2.456   4.237   1.408 -0.0143 -0.1856  0.2223
 8598SOL    HW137427   2.496   4.201   1.488 -1.7064  0.1678  1.2221
 8598SOL    HW237428   2.506   4.192   1.340  0.4633 -0.1523  0.5471
 8599SOL     OW37429   1.055   2.433   6.387  0.3664  0.6436 -0.0581
 8599SOL    HW137430   1.038   2.522   6.358  0.9045  0.9344  0.5222
 8599SOL    HW237431   1.017   2.428   6.475 -0.7742 -0.5531 -0.5994
 8600SOL     OW37432   4.524   0.695   9.654  0.2813  0.0017  0.3581
 8600SOL    HW137433   4.584   0.628   9.685  1.1229 -0.1512 -1.6160
 8600SOL    HW237434   4.580   0.773   9.658 -0.0048  0.3090 -1.3114
 8601SOL     OW37435   3.508   4.087   5.771 -0.2700  0.3399 -0.6081
 8601SOL    HW137436   3.555   4.075   5.689  0.8754  0.1804  0.0604
 8601SOL    HW237437   3.563   4.022   5.816  0.4356  2.8457  2.1767
 8602SOL     OW37438   0.773   1.820   3.530 -0.1273  0.4002  0.3180
 8602SOL    HW137439   0.802   1.769   3.454 -2.3107  0.4481 -0.5387
 8602SOL    HW237440   0.717   1.887   3.491  0.1600 -0.4223 -1.5174
 8603SOL     OW37441   2.071   3.636  13.528  0.3495 -0.5096  0.4062
 8603SOL    HW137442   2.051   3.723  13.494  0.4515  0.2388  2.2442
 8603SOL    HW237443   1.992   3.627  13.582  1.2932 -5.7174  1.0129
 8604SOL     OW37444   0.377   3.057   2.938  0.2916  0.4114 -0.1110
 8604SOL    HW137445   0.460   3.038   2.893  0.3843 -1.2496  0.7483
 8604SOL    HW237446   0.414   3.062   3.026  0.8887  3.4782 -0.5457
 8605SOL     OW37447   2.635   3.569   5.103 -0.5019 -0.9149  0.0645
 8605SOL    HW137448   2.629   3.652   5.055  0.7392 -0.8128  0.0909
 8605SOL    HW237449   2.708   3.593   5.160  0.1296 -0.1515 -1.0587
 8606SOL     OW37450   2.506   3.104   6.240 -0.0048 -0.0587  0.1742
 8606SOL    HW137451   2.463   3.185   6.268  1.2619 -0.2741  2.6828
 8606SOL    HW237452   2.518   3.128   6.148  0.6290  1.4198  0.6409
 8607SOL     OW37453   2.237   2.888   4.721 -0.2687 -0.2537 -0.4975
 8607SOL    HW137454   2.315   2.933   4.689  0.2661  0.9827  2.4883
 8607SOL    HW237455   2.230   2.806   4.673 -1.1139  0.7772 -2.1080
 8608SOL     OW37456   0.291   2.734   7.423 -0.0973 -0.0586 -0.5190
 8608SOL    HW137457   0.339   2.660   7.460  0.2095 -1.1715 -3.1313
 8608SOL    HW237458   0.222   2.758   7.484 -0.7807  1.2273 -1.7722
 8609SOL     OW37459   4.459   0.764   3.897 -0.2354 -0.3590 -0.5169
 8609SOL    HW137460   4.366   0.784   3.906  0.4062  2.5273 -0.3084
 8609SOL    HW237461   4.497   0.848   3.923  1.8254 -2.3731  2.9632
 8610SOL     OW37462   1.739   4.652   3.410  0.1320  0.4291  0.2865
 8610SOL    HW137463   1.742   4.627   3.318  0.2054  0.4533  0.2821
 8610SOL    HW237464   1.703   4.574   3.452 -1.2334  1.4816  1.0505
 8611SOL     OW37465   4.022   2.719   2.141 -0.4673  0.0491  0.2210
 8611SOL    HW137466   4.112   2.714   2.107 -0.3381  0.7971  0.4353
 8611SOL    HW237467   3.993   2.637   2.102  1.8795 -0.0114 -1.4360
 8612SOL     OW37468   2.332   1.596   3.570 -0.0657  0.2792 -0.1892
 8612SOL    HW137469   2.251   1.639   3.596 -0.9778 -0.1394 -2.2991
 8612SOL    HW237470   2.331   1.627   3.479  0.8827 -0.2577 -0.3871
 8613SOL     OW37471   4.206   2.516   2.466  0.2117 -0.1010  0.2920
 8613SOL    HW137472   4.117   2.550   2.478 -1.2472 -2.9534 -2.3795
 8613SOL    HW237473   4.233   2.495   2.556 -0.2062  1.5930  0.8038
 8614SOL     OW37474   0.551   3.986   4.643 -0.4966  0.3951 -0.1007
 8614SOL    HW137475   0.545   3.931   4.565  1.2738 -1.3355  0.9875
 8614SOL    HW237476   0.470   3.969   4.692 -0.8419  1.1829 -0.4023
 8615SOL     OW37477   2.746   1.152   2.613  0.0744 -0.2436  0.0046
 8615SOL    HW137478   2.740   1.237   2.569  1.5787 -0.1407  0.0036
 8615SOL    HW237479   2.715   1.179   2.700 -0.7255  0.2987 -0.4460
 8616SOL     OW37480   4.373   2.912  17.736 -0.9818 -0.7580  0.1485
 8616SOL    HW137481   4.305   2.914  17.668 -2.0472  0.6427  1.2534
 8616SOL    HW237482   4.327   2.944   0.060 -0.1955 -0.1940  0.3869
 8617SOL     OW37483   0.538   1.146   4.939 -0.8555 -0.1196 -0.0219
 8617SOL    HW137484   0.484   1.225   4.934  1.1490  1.2218 -0.4762
 8617SOL    HW237485   0.606   1.170   4.876 -0.7386 -1.2552 -0.3254
 8618SOL     OW37486   0.521   3.652  10.099  0.0175 -0.4164  0.1664
 8618SOL    HW137487   0.605   3.678  10.138  0.6807 -1.0480 -0.8395
 8618SOL    HW237488   0.545   3.625  10.011 -1.5891 -0.4221 -0.2715
 8619SOL     OW37489   1.907   3.817  13.643 -0.2107 -0.0206 -0.3617
 8619SOL    HW137490   1.937   3.877  13.575  3.1634 -0.8582  0.4190
 8619SOL    HW237491   1.812   3.830  13.647 -0.0571  1.4729 -1.2951
 8620SOL     OW37492   1.398   0.037   9.474 -0.1376 -0.1740  0.4264
 8620SOL    HW137493   1.415   4.726   9.554  2.8252  1.5058  0.8524
 8620SOL    HW237494   1.483   0.081   9.473  0.1998 -0.8259  0.5875
 8621SOL     OW37495   0.008   1.895   7.704 -1.0558 -0.0298 -0.0147
 8621SOL    HW137496   4.723   1.865   7.616 -0.0047  0.6152 -0.5259
 8621SOL    HW237497   4.666   1.879   7.752  0.0961  0.8668  2.2148
 8622SOL     OW37498   0.346   0.356  11.618  0.3497  0.3586 -0.4386
 8622SOL    HW137499   0.289   0.328  11.546 -2.3715  0.7021  1.5753
 8622SOL    HW237500   0.348   0.451  11.603 -0.5485  0.4835  0.2409
 8623SOL     OW37501   4.598   1.280  13.169 -0.2058  0.1938  0.4881
 8623SOL    HW137502   4.578   1.186  13.161  2.4110  0.0135 -4.5120
 8623SOL    HW237503   4.572   1.302  13.258  0.2315  1.1218  0.3846
 8624SOL     OW37504   3.495   1.355  16.821  0.0522  0.4903 -0.2195
 8624SOL    HW137505   3.493   1.386  16.911  0.5439 -3.9643  1.3129
 8624SOL    HW237506   3.489   1.260  16.829  1.6330  0.3869 -0.1765
 8625SOL     OW37507   4.333   3.475  17.531 -0.2737 -0.0412 -0.1094
 8625SOL    HW137508   4.270   3.460  17.602  0.9331 -1.3642  0.6917
 8625SOL    HW237509   4.389   3.544  17.568  0.9881 -0.4533 -1.2868
 8626SOL     OW37510   1.400   2.303   3.197  0.4872  0.7910  0.5153
 8626SOL    HW137511   1.374   2.213   3.184  0.5561  0.6824  1.1241
 8626SOL    HW237512   1.315   2.344   3.185  0.5791  1.2827  1.4542
 8627SOL     OW37513   1.330   2.011   5.933 -0.1950 -0.0472  0.4392
 8627SOL    HW137514   1.356   2.082   5.992  0.8744 -1.3424  1.5300
 8627SOL    HW237515   1.370   1.938   5.981 -1.4083 -2.3496 -2.0454
 8628SOL     OW37516   1.424   4.715   7.197  0.5636  0.3247  0.0915
 8628SOL    HW137517   1.343   4.664   7.189  0.5378  0.4609 -0.5205
 8628SOL    HW237518   1.408   0.035   7.271 -3.2580 -0.8884  0.1920
 8629SOL     OW37519   1.770   0.656   8.027  0.0388 -0.0547 -0.7218
 8629SOL    HW137520   1.699   0.716   8.005 -0.7838 -1.5607 -2.1956
 8629SOL    HW237521   1.839   0.722   8.017 -1.1245  1.3667  0.6356
 8630SOL     OW37522   2.612   1.917   5.783  0.0092  0.0699  0.4844
 8630SOL    HW137523   2.637   1.880   5.698 -2.6064  1.2151 -0.8125
 8630SOL    HW237524   2.700   1.918   5.819 -0.1638 -0.1594  0.9114
 8631SOL     OW37525   1.805   2.990   2.553  0.1877 -0.8366  0.1711
 8631SOL    HW137526   1.825   3.081   2.575 -1.6218 -0.3071 -0.3148
 8631SOL    HW237527   1.823   2.989   2.459  1.9553 -0.4226  0.5020
 8632SOL     OW37528   0.641   4.026   8.678  0.1880  0.0275  0.4927
 8632SOL    HW137529   0.660   4.083   8.752 -1.4135 -1.6965  2.2708
 8632SOL    HW237530   0.555   3.992   8.703 -0.6242  0.1556 -2.0824
 8633SOL     OW37531   3.465   3.819  16.890 -0.0674 -0.5181  0.2524
 8633SOL    HW137532   3.422   3.865  16.819  0.5070  0.8226  0.7853
 8633SOL    HW237533   3.490   3.895  16.942 -2.5485  0.9811 -0.7468
 8634SOL     OW37534   3.542   0.672  15.338  0.3490  0.0035 -0.1495
 8634SOL    HW137535   3.483   0.632  15.275 -0.4304 -1.4021  1.4784
 8634SOL    HW237536   3.592   0.736  15.287  0.5671 -1.0541 -1.2384
 8635SOL     OW37537   2.196   2.262  16.061 -0.2670  0.5386  0.4208
 8635SOL    HW137538   2.147   2.213  15.995  0.1799  1.7359 -0.7752
 8635SOL    HW237539   2.128   2.327  16.076 -0.7387 -0.4056  2.4523
 8636SOL     OW37540   1.722   1.025   5.817  0.2657 -0.4615 -0.3782
 8636SOL    HW137541   1.748   0.934   5.805 -2.4874 -1.1326 -1.1105
 8636SOL    HW237542   1.699   1.054   5.729  0.9804 -0.4772 -0.5693
 8637SOL     OW37543   1.670   3.482   9.988  0.4575  0.9961 -0.1270
 8637SOL    HW137544   1.698   3.392   9.971 -0.7535  0.5582  0.1427
 8637SOL    HW237545   1.717   3.503  10.069 -0.5167 -3.3858  1.5926
 8638SOL     OW37546   0.866   2.026  12.278 -0.1423  0.0788  0.5282
 8638SOL    HW137547   0.947   2.068  12.251 -0.6441  1.9262  1.9153
 8638SOL    HW237548   0.816   2.009  12.198  0.5702 -0.6254  0.2347
 8639SOL     OW37549   1.550   1.011   4.587 -0.4787 -0.5912  0.4928
 8639SOL    HW137550   1.588   1.095   4.612 -1.3740  1.0643 -3.8634
 8639SOL    HW237551   1.561   0.973   4.675  0.5946 -0.8867  0.2258
 8640SOL     OW37552   2.459   0.478   4.159  0.2643 -0.3515 -0.9280
 8640SOL    HW137553   2.547   0.442   4.171  0.3840  0.8530  1.7578
 8640SOL    HW237554   2.435   0.434   4.077 -3.9907 -1.1615  0.7532
 8641SOL     OW37555   3.439   1.792  10.198 -0.3330  0.1664  0.0482
 8641SOL    HW137556   3.364   1.781  10.257 -1.1136  0.9321 -0.7957
 8641SOL    HW237557   3.458   1.882  10.225 -1.7979  0.4805  0.0563
 8642SOL     OW37558   1.844   0.822  11.735  0.1186  0.0940 -0.3800
 8642SOL    HW137559   1.852   0.765  11.811 -1.3838  3.3192  2.2240
 8642SOL    HW237560   1.768   0.782  11.694 -1.0419  1.3846  0.5100
 8643SOL     OW37561   4.331   3.722   2.841  0.7301  0.1814  0.2433
 8643SOL    HW137562   4.420   3.695   2.860  0.9599 -1.1276 -2.6488
 8643SOL    HW237563   4.291   3.640   2.811 -0.1523 -0.1901  2.4480
 8644SOL     OW37564   3.151   4.038   0.377 -0.2025  0.0221  0.2416
 8644SOL    HW137565   3.136   4.010   0.467  1.9477 -1.6756  0.0722
 8644SOL    HW237566   3.204   4.114   0.398  0.2545 -0.5470  1.1398
 8645SOL     OW37567   3.335   3.729   7.406 -0.1200 -0.5106  0.0609
 8645SOL    HW137568   3.321   3.707   7.314  0.1320  0.2634 -0.1645
 8645SOL    HW237569   3.244   3.721   7.433  0.1339  1.7261  1.5330
 8646SOL     OW37570   1.377   0.762   8.473  0.2310  0.2236  0.2883
 8646SOL    HW137571   1.433   0.747   8.397  1.3286 -1.0978  1.3512
 8646SOL    HW237572   1.308   0.818   8.436  0.8880 -0.2170 -1.6254
 8647SOL     OW37573   4.616   1.797  13.168  0.0870  0.4128 -0.2555
 8647SOL    HW137574   4.594   1.751  13.087  1.0319 -0.2397 -0.1407
 8647SOL    HW237575   4.648   1.728  13.227  0.1246  0.5868 -0.0725
 8648SOL     OW37576   3.946   2.267   8.449  0.1764 -0.3375 -0.0276
 8648SOL    HW137577   4.009   2.322   8.402  0.7408 -0.8968  0.0740
 8648SOL    HW237578   3.951   2.294   8.541 -1.7559  1.5157 -0.4701
 8649SOL     OW37579   0.671   0.268   3.740  0.2152 -0.4622  0.4394
 8649SOL    HW137580   0.594   0.266   3.683  0.2104  0.4718  0.4121
 8649SOL    HW237581   0.643   0.198   3.798 -0.3707 -0.7517 -0.1860
 8650SOL     OW37582   1.176   0.237   2.823  0.4653 -0.3403 -0.1503
 8650SOL    HW137583   1.210   0.196   2.743  0.9808  0.0327 -0.1236
 8650SOL    HW237584   1.143   0.315   2.780  0.0627  0.3139  1.3462
 8651SOL     OW37585   1.529   4.487   3.932  0.6046 -0.6128 -0.4288
 8651SOL    HW137586   1.458   4.460   3.991  0.0036  1.9135  0.0039
 8651SOL    HW237587   1.519   4.582   3.930  1.2037 -0.5188  1.2121
 8652SOL     OW37588   4.137   4.300   8.190 -0.3246 -0.4422 -0.1416
 8652SOL    HW137589   4.131   4.387   8.230  3.4533  0.2651 -1.1695
 8652SOL    HW237590   4.230   4.279   8.199 -0.4114 -0.4978  0.6835
 8653SOL     OW37591   0.921   3.244  16.544 -0.2660  0.3350  0.1666
 8653SOL    HW137592   1.011   3.248  16.574 -0.6451  0.1612  1.3219
 8653SOL    HW237593   0.906   3.339  16.537  1.1519  0.5517  0.0275
 8654SOL     OW37594   4.682   1.312   2.548 -0.1059 -0.3324  0.0335
 8654SOL    HW137595   4.641   1.322   2.462  0.5097 -2.4349 -0.4844
 8654SOL    HW237596   4.606   1.314   2.607  0.2386 -1.0575  0.4958
 8655SOL     OW37597   0.736   0.246   8.766 -0.3534 -0.0602  0.0272
 8655SOL    HW137598   0.778   0.162   8.785  1.2802  0.8657  0.4548
 8655SOL    HW237599   0.778   0.286   8.690  1.6133  0.2903  1.3262
 8656SOL     OW37600   2.839   0.026   8.119 -0.5699  0.3706 -0.5914
 8656SOL    HW137601   2.788   0.106   8.128  0.4278  1.0859 -1.2909
 8656SOL    HW237602   2.868   0.015   8.209  0.4242 -1.2326 -1.1062
 8657SOL     OW37603   1.153   1.333   2.033  0.3350 -0.1949 -0.2298
 8657SOL    HW137604   1.104   1.366   1.958  1.5121  3.0179  0.4063
 8657SOL    HW237605   1.223   1.289   1.985 -0.1378 -0.6307 -0.5205
 8658SOL     OW37606   3.913   4.241   0.780 -0.2166 -0.2106 -0.4325
 8658SOL    HW137607   3.858   4.164   0.788 -0.3607  0.0651  1.1843
 8658SOL    HW237608   3.892   4.283   0.863 -1.3081  1.7427 -1.6984
 8659SOL     OW37609   0.298   4.661  17.663 -0.1843 -0.2897 -0.0186
 8659SOL    HW137610   0.324   0.012  17.682 -2.0881  0.2898 -0.1642
 8659SOL    HW237611   0.277   4.629  17.750  0.6667  0.1716  0.3611
 8660SOL     OW37612   2.066   0.197   8.756  0.5519  0.0156  0.1567
 8660SOL    HW137613   2.058   0.290   8.777  0.6487 -0.5253  2.5619
 8660SOL    HW237614   2.160   0.197   8.774  0.2599 -0.7674  1.6408
 8661SOL     OW37615   3.523   2.431  16.757  0.0553 -0.5294 -0.0018
 8661SOL    HW137616   3.542   2.407  16.848 -2.0716 -1.0277  0.3088
 8661SOL    HW237617   3.556   2.520  16.746 -1.0729  0.1637  2.2961
 8662SOL     OW37618   3.924   3.839   7.618 -0.2138 -0.2663  0.1011
 8662SOL    HW137619   3.859   3.804   7.680 -0.3169 -0.2064  0.0270
 8662SOL    HW237620   3.924   3.779   7.544 -0.1514  0.1518 -0.2357
 8663SOL     OW37621   3.314   0.416   3.938  0.2717  0.0199  0.4398
 8663SOL    HW137622   3.346   0.485   3.996  1.2886  0.0027 -0.1016
 8663SOL    HW237623   3.269   0.465   3.868  0.9238  0.7202  0.5011
 8664SOL     OW37624   1.629   2.338   2.189  0.7523  0.3048 -0.2053
 8664SOL    HW137625   1.621   2.428   2.159 -0.0972  0.5837  0.8467
 8664SOL    HW237626   1.547   2.328   2.238  1.1409 -0.0672  0.3725
 8665SOL     OW37627   3.162   2.717   6.792 -0.2893  0.7527 -0.1389
 8665SOL    HW137628   3.084   2.769   6.811 -1.4653 -0.3725 -1.9482
 8665SOL    HW237629   3.122   2.655   6.732 -0.2257  1.0509 -0.4899
 8666SOL     OW37630   3.415   2.350  12.239 -0.5525 -0.1408 -0.1958
 8666SOL    HW137631   3.395   2.264  12.203  2.6690 -0.8286 -0.3281
 8666SOL    HW237632   3.486   2.375  12.179 -1.2727  0.7643 -0.6760
 8667SOL     OW37633   1.852   0.316  16.444 -0.2751 -0.1544 -0.0741
 8667SOL    HW137634   1.773   0.299  16.393  0.3173 -1.2734 -0.6224
 8667SOL    HW237635   1.876   0.224  16.460 -0.4347 -0.1910 -0.0458
 8668SOL     OW37636   3.849   3.358  12.405  0.2562  0.2180 -0.3665
 8668SOL    HW137637   3.820   3.315  12.325  0.2901 -0.7073  0.1154
 8668SOL    HW237638   3.908   3.291  12.438  0.1549  0.1742 -0.2757
 8669SOL     OW37639   0.230   2.188  12.508 -0.2268 -0.3511 -0.3372
 8669SOL    HW137640   0.304   2.207  12.450  0.2847  1.2895  0.8343
 8669SOL    HW237641   0.152   2.218  12.462 -0.5949 -1.6298 -0.5399
 8670SOL     OW37642   0.523   1.395  10.746 -0.3722  0.2339 -0.0136
 8670SOL    HW137643   0.604   1.350  10.724 -1.0634 -0.7599 -0.5286
 8670SOL    HW237644   0.517   1.400  10.841  2.8107 -3.0022  0.3418
 8671SOL     OW37645   0.683   4.269   5.516  0.3981 -0.4917 -0.1838
 8671SOL    HW137646   0.744   4.204   5.481  2.2169  0.3759  1.3778
 8671SOL    HW237647   0.747   4.340   5.523  0.1171 -0.1865 -0.7108
 8672SOL     OW37648   0.599   0.274  11.039  0.2683  0.4473 -0.4603
 8672SOL    HW137649   0.685   0.309  11.062 -0.0376  0.9459 -0.0918
 8672SOL    HW237650   0.592   0.332  10.964 -2.1806  1.2131  0.3779
 8673SOL     OW37651   3.610   3.993   2.743  0.4875  0.3655  0.0831
 8673SOL    HW137652   3.701   4.012   2.764  0.0698  0.9838  1.3640
 8673SOL    HW237653   3.557   4.023   2.818 -0.5899  0.5244 -0.7451
 8674SOL     OW37654   4.127   3.899   8.756 -0.3909  0.1829 -0.0823
 8674SOL    HW137655   4.071   3.881   8.681 -2.0089  0.2449  1.1278
 8674SOL    HW237656   4.076   3.965   8.803 -0.5342  0.5718 -0.7875
 8675SOL     OW37657   4.332   4.012   3.517 -0.6582  0.3534  0.1819
 8675SOL    HW137658   4.259   4.008   3.456 -0.2069  0.9687 -0.3903
 8675SOL    HW237659   4.382   3.932   3.503 -2.6404 -1.0539  1.0893
 8676SOL     OW37660   1.030   3.109   6.957 -0.1149  0.1167 -0.2515
 8676SOL    HW137661   0.939   3.081   6.947 -0.4982  2.5040 -3.3843
 8676SOL    HW237662   1.061   3.037   7.013 -1.6799  1.0489  1.8046
 8677SOL     OW37663   3.578   0.728  15.866 -0.6124 -0.0928  0.1794
 8677SOL    HW137664   3.647   0.666  15.887 -0.3010  0.4548  0.7619
 8677SOL    HW237665   3.560   0.712  15.773 -0.1218  1.3206 -0.1528
 8678SOL     OW37666   1.029   1.503   0.402  0.6358 -0.3437 -0.3444
 8678SOL    HW137667   1.010   1.458   0.319 -0.6887  0.1935 -0.3257
 8678SOL    HW237668   1.033   1.429   0.463 -3.2302  0.0394  0.3805
 8679SOL     OW37669   3.082   1.024   9.898 -0.2872 -0.3756 -0.1154
 8679SOL    HW137670   3.170   1.024   9.935  0.0763 -1.5702 -0.9680
 8679SOL    HW237671   3.097   0.984   9.812  1.4667 -0.2644  0.1418
 8680SOL     OW37672   3.206   4.709  17.162  0.2783 -0.1673  0.2336
 8680SOL    HW137673   3.223   0.053  17.206 -0.1959  0.2872 -0.4263
 8680SOL    HW237674   3.187   4.727  17.070  1.2728 -0.7773 -0.0844
 8681SOL     OW37675   4.498   2.243   4.317  0.5997  0.0986  0.1259
 8681SOL    HW137676   4.551   2.314   4.353 -0.0767 -0.0758  1.4794
 8681SOL    HW237677   4.432   2.285   4.261  0.1725 -0.3829  0.2668
 8682SOL     OW37678   1.796   0.237   6.236 -0.0548  0.5626  0.1437
 8682SOL    HW137679   1.811   0.314   6.291  1.0523  1.2557 -1.1345
 8682SOL    HW237680   1.890   0.227   6.220 -0.3024  0.6576 -1.4434
 8683SOL     OW37681   1.598   4.267  12.210  0.3320 -0.1886  0.4802
 8683SOL    HW137682   1.596   4.359  12.183  0.1506 -1.1338 -2.7603
 8683SOL    HW237683   1.557   4.217  12.139  2.3746 -1.8938  0.4733
 8684SOL     OW37684   0.436   0.270   3.605 -0.7160 -0.1311  0.0655
 8684SOL    HW137685   0.421   0.352   3.558  0.6952 -0.3112 -0.6854
 8684SOL    HW237686   0.356   0.270   3.658 -0.5541  3.0037  0.3059
 8685SOL     OW37687   3.551   4.642   5.059  0.2750 -0.2438  0.6321
 8685SOL    HW137688   3.630   4.696   5.061 -0.0211  0.1820  0.7915
 8685SOL    HW237689   3.521   4.666   4.971  1.5797  1.2811  0.5868
 8686SOL     OW37690   0.420   4.369  12.775  0.0467  0.2615 -0.0608
 8686SOL    HW137691   0.344   4.317  12.800  0.1192  0.5831  0.8057
 8686SOL    HW237692   0.437   4.420  12.854  1.5578 -0.1525 -0.1125
 8687SOL     OW37693   0.005   3.672  12.281  0.3555  0.1472  0.5324
 8687SOL    HW137694   4.715   3.583  12.304  1.5969 -1.0340 -2.5314
 8687SOL    HW237695   0.007   3.709  12.369 -1.4679 -1.3753  1.2240
 8688SOL     OW37696   1.489   3.991   6.110 -0.0710  0.6540 -0.1484
 8688SOL    HW137697   1.416   3.947   6.153 -0.3489  0.9334 -0.3382
 8688SOL    HW237698   1.507   4.066   6.167  1.1337  0.4832 -0.3111
 8689SOL     OW37699   1.123   4.613   7.211 -0.0598  0.1567 -0.2238
 8689SOL    HW137700   1.170   4.559   7.275  1.7771  1.7299 -0.2361
 8689SOL    HW237701   1.043   4.635   7.259  0.9870  0.9155  1.1956
 8690SOL     OW37702   2.040   3.662   4.945  0.5847  0.0328  0.2697
 8690SOL    HW137703   2.021   3.724   5.015  2.5510  0.1288  0.7272
 8690SOL    HW237704   2.116   3.695   4.897  1.2879 -1.0477  0.6293
 8691SOL     OW37705   3.458   3.291   6.961 -0.2357  0.5002  0.1588
 8691SOL    HW137706   3.455   3.315   6.868 -1.0892 -0.8126 -0.1483
 8691SOL    HW237707   3.372   3.251   6.955 -0.0816 -0.2873  3.2782
 8692SOL     OW37708   0.797   2.987   8.531  0.0675 -0.2195 -0.4908
 8692SOL    HW137709   0.858   3.029   8.592  0.3132 -1.4529  0.0952
 8692SOL    HW237710   0.826   3.018   8.445  2.7161  1.5030  1.0421
 8693SOL     OW37711   2.764   4.380  13.727 -0.1629 -0.7374  0.2871
 8693SOL    HW137712   2.761   4.462  13.678 -0.8120  0.0729  1.6630
 8693SOL    HW237713   2.673   4.350  13.739 -0.7915  1.3893  0.8942
 8694SOL     OW37714   0.926   2.252  17.443  0.5594 -0.2682 -0.1227
 8694SOL    HW137715   0.911   2.281  17.353  0.4108 -0.1042 -0.0440
 8694SOL    HW237716   0.963   2.164  17.430  1.4074  0.1717 -0.6869
 8695SOL     OW37717   3.382   2.759   2.744 -0.2573  0.1482 -0.4319
 8695SOL    HW137718   3.366   2.825   2.810  0.6630 -1.6095  1.5377
 8695SOL    HW237719   3.348   2.801   2.665 -1.4230 -0.4126 -0.2262
 8696SOL     OW37720   1.362   2.436   5.829  0.1133 -0.3361 -0.8949
 8696SOL    HW137721   1.450   2.399   5.827 -0.2251 -1.1721 -0.0407
 8696SOL    HW237722   1.364   2.485   5.911  1.8560  1.2256 -1.8774
 8697SOL     OW37723   1.442   1.777   5.774 -0.0411 -0.0595  0.2296
 8697SOL    HW137724   1.444   1.872   5.760  0.6717 -0.2302 -0.8327
 8697SOL    HW237725   1.534   1.751   5.776 -0.3259 -1.0845 -0.4216
 8698SOL     OW37726   0.698   4.307   4.557  0.3366 -0.5694 -0.8574
 8698SOL    HW137727   0.607   4.285   4.539  0.9335 -1.2991 -2.9889
 8698SOL    HW237728   0.721   4.254   4.633 -0.9783  0.3397  0.1660
 8699SOL     OW37729   4.635   2.713  11.993  0.0781 -0.4690 -0.5282
 8699SOL    HW137730   4.592   2.747  11.914  1.3549  1.1398 -0.5085
 8699SOL    HW237731   4.597   2.775  12.054 -1.5827 -2.0410  0.0552
 8700SOL     OW37732   2.291   2.621   5.644  0.0042  0.8096 -0.3129
 8700SOL    HW137733   2.289   2.531   5.612 -0.5214  1.1142 -1.1376
 8700SOL    HW237734   2.198   2.642   5.633 -0.7931 -2.5351 -0.0078
 8701SOL     OW37735   3.156   1.993   0.855 -0.1385 -0.1698  0.4907
 8701SOL    HW137736   3.063   1.975   0.869 -0.9622  3.5091 -0.2348
 8701SOL    HW237737   3.167   1.922   0.792 -1.1191 -0.4981  0.6931
 8702SOL     OW37738   4.332   0.903   7.926  0.6949  0.1229  0.0682
 8702SOL    HW137739   4.287   0.987   7.914 -1.3405 -0.7819  1.1926
 8702SOL    HW237740   4.282   0.846   7.868  1.6610 -0.5794 -0.0692
 8703SOL     OW37741   0.733   1.364   9.017 -0.0935  0.2165 -0.1532
 8703SOL    HW137742   0.788   1.381   8.941 -1.0486  0.6487 -0.7427
 8703SOL    HW237743   0.701   1.453   9.033  1.1524  0.0911  3.0618
 8704SOL     OW37744   0.935   4.307   1.153  0.2830 -0.3809 -0.5000
 8704SOL    HW137745   1.020   4.309   1.197 -0.3451 -1.1795  0.7486
 8704SOL    HW237746   0.931   4.391   1.108  0.6543 -0.3838 -0.5368
 8705SOL     OW37747   3.628   1.606   8.297 -0.3657 -0.1937 -0.3106
 8705SOL    HW137748   3.706   1.662   8.291 -1.7431  1.8351  0.6199
 8705SOL    HW237749   3.670   1.524   8.325 -1.8797 -0.3112  1.6187
 8706SOL     OW37750   3.953   0.979   8.999  0.0714 -0.1804 -0.0651
 8706SOL    HW137751   3.951   0.987   8.904 -1.4343  0.0928 -0.0162
 8706SOL    HW237752   4.005   0.900   9.015 -1.2746 -0.9669  0.4868
 8707SOL     OW37753   2.119   1.509  14.447  0.5711  0.3404 -0.3373
 8707SOL    HW137754   2.187   1.571  14.471 -1.6584  1.5326  2.9194
 8707SOL    HW237755   2.157   1.495  14.361  0.3003  2.4171 -0.7849
 8708SOL     OW37756   4.096   2.498   3.531  0.3554  0.3439 -0.2158
 8708SOL    HW137757   4.038   2.426   3.508 -0.3179  1.1500 -1.0033
 8708SOL    HW237758   4.162   2.506   3.463  0.0921  1.3983 -0.3493
 8709SOL     OW37759   1.792   2.453   6.039  0.1551 -0.6457  0.6546
 8709SOL    HW137760   1.839   2.436   6.120  1.3871  0.5631  0.2014
 8709SOL    HW237761   1.792   2.549   6.044  0.4613 -0.7748  3.1137
 8710SOL     OW37762   4.592   3.218  16.521  0.1481 -0.2844  0.1930
 8710SOL    HW137763   4.645   3.196  16.597  1.6223 -2.4606 -1.4524
 8710SOL    HW237764   4.579   3.135  16.475  1.1341 -0.0601 -0.4913
 8711SOL     OW37765   2.512   4.456   7.853  0.0196  0.7802 -0.1570
 8711SOL    HW137766   2.550   4.484   7.770  1.6011 -2.6274 -0.5614
 8711SOL    HW237767   2.559   4.503   7.922 -0.0833 -2.3586  2.0603
 8712SOL     OW37768   1.859   2.884  10.017 -0.1320  0.1299 -0.0201
 8712SOL    HW137769   1.842   2.915  10.106  0.5979  1.0119 -0.1796
 8712SOL    HW237770   1.896   2.962   9.976  2.7303 -0.8872  0.6422
 8713SOL     OW37771   1.185   3.805   4.589 -0.6296  0.5983 -0.3090
 8713SOL    HW137772   1.274   3.823   4.557 -0.2331  1.1326  1.0707
 8713SOL    HW237773   1.152   3.895   4.594 -0.9274  0.4323  0.7717
 8714SOL     OW37774   1.936   1.696  11.528 -0.1159 -0.1129  0.8874
 8714SOL    HW137775   2.020   1.733  11.554  0.1060 -1.7356  2.4206
 8714SOL    HW237776   1.961   1.609  11.498  2.4935  0.9688 -0.0856
 8715SOL     OW37777   2.239   3.172   3.256  0.1889  0.1843 -0.1646
 8715SOL    HW137778   2.217   3.163   3.164 -2.1075 -0.9737  0.5019
 8715SOL    HW237779   2.168   3.145   3.314 -1.4292 -0.6538 -2.5595
 8716SOL     OW37780   1.510   3.858   7.503  0.2531  0.2938 -0.1625
 8716SOL    HW137781   1.510   3.763   7.499 -1.1415  0.2735  0.4336
 8716SOL    HW237782   1.499   3.872   7.597  3.1566  1.9300 -0.0481
 8717SOL     OW37783   1.649   2.278   4.354  0.1416 -0.2046  0.1393
 8717SOL    HW137784   1.677   2.356   4.402  1.0618 -0.3442 -0.1670
 8717SOL    HW237785   1.602   2.238   4.427 -0.7750 -1.8839 -1.3734
 8718SOL     OW37786   0.493   4.152  11.414 -0.1652  0.2065  0.7387
 8718SOL    HW137787   0.480   4.067  11.372 -0.3928  0.3198  0.5790
 8718SOL    HW237788   0.575   4.149  11.463  1.6840 -1.7648 -2.4686
 8719SOL     OW37789   2.603   1.316  14.618  0.0280 -0.2666 -0.0234
 8719SOL    HW137790   2.691   1.281  14.635  0.7740  0.6761 -1.9390
 8719SOL    HW237791   2.560   1.240  14.580 -0.5873  0.2520 -0.3503
 8720SOL     OW37792   2.630   0.774   9.905  0.0933  0.2116  0.1234
 8720SOL    HW137793   2.562   0.715   9.872  0.3426 -0.1037  0.1762
 8720SOL    HW237794   2.702   0.715   9.923  1.2709  1.5610 -0.1592
 8721SOL     OW37795   4.530   1.157  12.010  0.4015 -0.6085  0.4259
 8721SOL    HW137796   4.619   1.192  12.021 -0.9371  2.4759  1.5069
 8721SOL    HW237797   4.527   1.132  11.918 -0.5287 -0.6796  0.4825
 8722SOL     OW37798   1.768   0.036   2.361 -0.1631  0.0750 -0.4301
 8722SOL    HW137799   1.692   0.003   2.409  1.3108 -1.6006  0.7512
 8722SOL    HW237800   1.721   0.066   2.283 -0.8689  0.9030  0.3077
 8723SOL     OW37801   1.250   4.475   5.788  0.2586 -0.0924 -0.1964
 8723SOL    HW137802   1.275   4.528   5.863 -0.4887 -2.0520  1.4344
 8723SOL    HW237803   1.229   4.389   5.825 -1.7234  0.1238 -0.8105
 8724SOL     OW37804   3.316   1.558   2.414 -0.0409  0.1475  0.1958
 8724SOL    HW137805   3.315   1.621   2.486  1.9938  0.6637 -0.2413
 8724SOL    HW237806   3.312   1.475   2.463  0.3589  0.2642  0.4282
 8725SOL     OW37807   1.633   0.096   7.584  0.0783  0.3350  0.3660
 8725SOL    HW137808   1.699   0.083   7.653 -0.5888 -2.0201  0.5682
 8725SOL    HW237809   1.623   0.008   7.548 -0.5191  0.1730  0.9278
 8726SOL     OW37810   1.826   0.600   9.070 -0.4594 -0.1149 -0.0722
 8726SOL    HW137811   1.731   0.593   9.073 -0.4189 -0.6215  0.2126
 8726SOL    HW237812   1.848   0.519   9.118  0.0164 -1.0387 -1.8539
 8727SOL     OW37813   0.059   4.137   5.373 -0.4119  0.1692  0.7703
 8727SOL    HW137814   0.036   4.222   5.337 -1.9438 -1.0955 -1.2430
 8727SOL    HW237815   0.030   4.148   5.464 -3.0266  1.0688 -0.1955
 8728SOL     OW37816   4.441   1.580   7.536  0.4047 -0.2121 -0.9432
 8728SOL    HW137817   4.345   1.576   7.534  0.3308  1.0665  0.5021
 8728SOL    HW237818   4.451   1.578   7.631  0.2505  1.0107 -0.9125
 8729SOL     OW37819   1.378   4.231   4.667 -0.6242  0.2824  0.4713
 8729SOL    HW137820   1.315   4.162   4.644 -1.3340  0.5532  1.6099
 8729SOL    HW237821   1.383   4.281   4.586 -0.0404 -0.2866  0.1609
 8730SOL     OW37822   4.641   0.938   9.791 -0.2361  0.0328  0.3591
 8730SOL    HW137823   4.699   1.000   9.746  0.0806 -0.4840  0.0516
 8730SOL    HW237824   4.701   0.874   9.829 -1.6303 -0.9978  0.8082
 8731SOL     OW37825   2.676   3.322   2.316 -0.5421 -0.0118  0.0376
 8731SOL    HW137826   2.771   3.323   2.329 -0.4495  1.5023 -0.8441
 8731SOL    HW237827   2.671   3.378   2.239 -1.6890 -0.5355 -0.2612
 8732SOL     OW37828   3.012   2.541   7.249 -0.0603 -0.1539  0.5855
 8732SOL    HW137829   3.053   2.499   7.173  0.4458  0.1664  0.6857
 8732SOL    HW237830   2.987   2.466   7.303 -2.5349  0.8330  0.8032
 8733SOL     OW37831   0.866   1.311  16.549 -0.5789 -0.2253  0.7881
 8733SOL    HW137832   0.894   1.224  16.578 -0.0965  0.1441  1.4317
 8733SOL    HW237833   0.848   1.341  16.638 -0.4835 -1.1461  1.1181
 8734SOL     OW37834   2.981   3.745   3.820 -0.0269 -0.2893 -0.0397
 8734SOL    HW137835   2.999   3.662   3.864  0.2004 -0.4944 -0.5105
 8734SOL    HW237836   2.887   3.758   3.831 -0.1408 -2.8062  1.9295
 8735SOL     OW37837   1.906   0.516  16.291 -0.6000 -0.7554 -0.6224
 8735SOL    HW137838   1.885   0.456  16.362 -1.9741 -1.0812 -1.2946
 8735SOL    HW237839   1.855   0.478  16.220 -0.1232 -0.4712 -1.1179
 8736SOL     OW37840   1.582   0.846   7.888  0.3653 -0.3293 -0.3185
 8736SOL    HW137841   1.627   0.930   7.878 -0.1953  0.0781  0.6196
 8736SOL    HW237842   1.579   0.817   7.796 -2.0327  0.2315 -0.4245
 8737SOL     OW37843   0.378   4.547   4.027 -0.0508  0.0821  0.0367
 8737SOL    HW137844   0.322   4.622   4.045  1.1283  0.1517  3.3221
 8737SOL    HW237845   0.457   4.571   4.077  0.3700 -0.0248 -0.5688
 8738SOL     OW37846   1.074   0.759   6.010 -0.4963  0.7083  0.1616
 8738SOL    HW137847   1.068   0.844   5.966 -0.2750  0.2517 -0.7551
 8738SOL    HW237848   1.164   0.764   6.042 -0.8543  0.5707  1.1859
 8739SOL     OW37849   4.491   2.961   5.148 -0.5704  0.3502  0.0305
 8739SOL    HW137850   4.513   2.999   5.063 -0.9711  2.0913  0.6992
 8739SOL    HW237851   4.574   2.928   5.181 -0.2785  1.4948  0.4309
 8740SOL     OW37852   0.034   4.491   7.412 -0.1506  0.1172 -0.7551
 8740SOL    HW137853   0.054   4.525   7.324  0.3358 -0.2606 -0.7868
 8740SOL    HW237854   4.681   4.516   7.420 -0.5087 -1.8373  1.1627
 8741SOL     OW37855   2.748   2.477  17.568  0.0041  0.1169  0.2201
 8741SOL    HW137856   2.770   2.472  17.475  2.8007 -0.8104  0.9507
 8741SOL    HW237857   2.660   2.515  17.563  0.0079  0.1854  0.7044
 8742SOL     OW37858   3.119   3.880   5.871 -0.6324 -0.5120 -0.7225
 8742SOL    HW137859   3.197   3.831   5.893 -2.4626 -2.6015  1.1082
 8742SOL    HW237860   3.160   3.929   5.800 -1.7110  0.2300 -0.8403
 8743SOL     OW37861   3.648   1.535   1.309  0.7185 -0.3036  0.1732
 8743SOL    HW137862   3.744   1.542   1.313  0.7119  0.4787 -1.0573
 8743SOL    HW237863   3.635   1.453   1.357  2.5755 -0.5460  0.2616
 8744SOL     OW37864   0.808   3.195  13.487 -0.9056 -0.3635  0.1098
 8744SOL    HW137865   0.864   3.139  13.541  0.7747  1.0520 -0.1642
 8744SOL    HW237866   0.769   3.262  13.543 -0.3480 -0.2185  0.3289
 8745SOL     OW37867   4.223   2.737   8.309  0.6321  0.2713  0.2576
 8745SOL    HW137868   4.232   2.701   8.221  2.4002  0.4821  0.3403
 8745SOL    HW237869   4.314   2.764   8.324  0.1057  1.8780  0.4778
 8746SOL     OW37870   3.699   0.988   8.418  0.7404 -0.1645  0.4577
 8746SOL    HW137871   3.683   1.010   8.510 -0.4912  0.7678  0.0222
 8746SOL    HW237872   3.751   0.908   8.414  0.5238 -0.2695 -0.3183
 8747SOL     OW37873   2.743   4.600   2.228 -0.0091 -0.8140 -0.5401
 8747SOL    HW137874   2.784   4.640   2.151 -0.8468 -0.1733 -0.6480
 8747SOL    HW237875   2.816   4.604   2.288  0.5375 -1.7853 -1.1270
 8748SOL     OW37876   1.911   3.828  16.170 -0.0690 -0.6956 -0.0301
 8748SOL    HW137877   1.877   3.830  16.081  1.8586  1.7106 -0.7054
 8748SOL    HW237878   1.866   3.902  16.210 -0.2505  0.2325 -1.9661
 8749SOL     OW37879   0.801   2.676   1.941 -0.2744  0.1779  0.0796
 8749SOL    HW137880   0.788   2.626   1.861  1.8235  1.1450 -0.8710
 8749SOL    HW237881   0.888   2.713   1.925  0.5192 -0.4582  2.8752
 8750SOL     OW37882   0.793   3.340   8.737 -0.3548 -0.4057  0.0407
 8750SOL    HW137883   0.746   3.423   8.741  1.5686  0.6430  1.2247
 8750SOL    HW237884   0.723   3.288   8.698  0.3735 -0.8250 -0.7266
 8751SOL     OW37885   3.609   1.766  14.021  0.2222 -0.6555  0.1111
 8751SOL    HW137886   3.548   1.804  13.958  0.2993 -2.8238 -1.2739
 8751SOL    HW237887   3.616   1.837  14.086 -1.1128 -0.6161  0.2304
 8752SOL     OW37888   3.180   0.306   0.447 -0.0617 -0.0407 -0.1893
 8752SOL    HW137889   3.102   0.339   0.401 -1.2592 -0.3922  1.5530
 8752SOL    HW237890   3.222   0.392   0.446  1.1148 -0.6349 -1.0199
 8753SOL     OW37891   0.661   2.004   2.040  0.0460  0.8020 -0.0984
 8753SOL    HW137892   0.665   2.059   2.118 -1.4503  1.3597 -0.4163
 8753SOL    HW237893   0.580   2.033   1.998  0.7323  0.9897 -1.3003
 8754SOL     OW37894   2.982   4.670   1.313  0.0430 -0.6339  0.3803
 8754SOL    HW137895   2.917   4.688   1.246  0.1245  2.0129  0.9981
 8754SOL    HW237896   2.954   4.586   1.347 -0.1077 -0.8784 -0.3497
 8755SOL     OW37897   4.583   1.204   9.133 -0.3925  0.7742 -0.5687
 8755SOL    HW137898   4.559   1.213   9.225  1.2319  1.9688 -0.2616
 8755SOL    HW237899   4.677   1.189   9.143 -0.2137  1.5141 -1.1171
 8756SOL     OW37900   3.335   0.163   2.614  0.2629 -0.2193  0.2366
 8756SOL    HW137901   3.313   0.256   2.611 -2.4394 -0.8193  1.1263
 8756SOL    HW237902   3.429   0.163   2.598  0.1381  1.7958 -0.3954
 8757SOL     OW37903   2.368   3.844  12.731 -0.3998  0.3502 -0.0613
 8757SOL    HW137904   2.359   3.832  12.825  1.2145 -0.8385 -0.0644
 8757SOL    HW237905   2.345   3.760  12.692  1.3314  0.1117 -0.5641
 8758SOL     OW37906   2.389   0.397  17.518  0.5151  0.1713 -0.3477
 8758SOL    HW137907   2.300   0.431  17.518  1.1463  1.8055  3.3795
 8758SOL    HW237908   2.384   0.313  17.563  0.8183  0.9490  1.1443
 8759SOL     OW37909   1.791   3.593   2.500 -0.1600 -0.4461  0.0064
 8759SOL    HW137910   1.705   3.562   2.531 -1.5069  1.5860 -1.7243
 8759SOL    HW237911   1.777   3.604   2.406  0.4883  3.0859  0.3431
 8760SOL     OW37912   3.044   2.248  17.681 -0.5671  0.2460 -0.6187
 8760SOL    HW137913   2.999   2.286   0.004  0.9493 -0.3017  0.5445
 8760SOL    HW237914   3.113   2.311  17.659 -0.4468 -0.5266 -2.4412
 8761SOL     OW37915   1.143   0.228   7.186 -0.5337  0.0882 -0.1351
 8761SOL    HW137916   1.056   0.200   7.160 -1.0713  2.4178 -0.8146
 8761SOL    HW237917   1.187   0.240   7.101 -1.7011  1.4019 -0.5363
 8762SOL     OW37918   3.949   1.069   7.068 -0.4211 -0.0265  0.4498
 8762SOL    HW137919   4.038   1.093   7.092 -0.0906 -0.7716 -0.0452
 8762SOL    HW237920   3.957   1.065   6.973 -0.7062 -2.1272  0.5310
 8763SOL     OW37921   2.138   1.713   3.750  0.0539 -0.1903 -0.3029
 8763SOL    HW137922   2.060   1.762   3.776 -0.3712  0.5843 -2.9938
 8763SOL    HW237923   2.122   1.631   3.797 -1.6268  0.4960  0.3336
 8764SOL     OW37924   2.556   1.009   4.908  0.0756  0.2172  0.4614
 8764SOL    HW137925   2.505   0.957   4.970  1.1919  1.1107  2.1163
 8764SOL    HW237926   2.524   0.983   4.821 -1.8038  2.1945  0.5787
 8765SOL     OW37927   2.710   3.731   3.829 -0.0747 -0.6487  0.0626
 8765SOL    HW137928   2.646   3.672   3.789 -1.1305  0.5072  0.0521
 8765SOL    HW237929   2.672   3.754   3.913  0.1303  1.9314 -0.5618
 8766SOL     OW37930   3.022   0.384   3.831  0.0065  0.1981  0.1793
 8766SOL    HW137931   3.108   0.409   3.865 -0.2420  0.4015  0.6525
 8766SOL    HW237932   2.977   0.359   3.911 -0.4609  0.8248  0.1158
 8767SOL     OW37933   2.842   2.164   5.588 -0.1101 -0.3929  0.4038
 8767SOL    HW137934   2.806   2.250   5.613  0.1046  0.1460 -1.1360
 8767SOL    HW237935   2.931   2.156   5.621 -0.5947 -1.9561  1.3194
 8768SOL     OW37936   1.023   3.710   2.975 -0.0476  0.0009  0.4566
 8768SOL    HW137937   1.010   3.786   3.032 -0.8693 -1.3531  2.0608
 8768SOL    HW237938   1.019   3.759   2.893 -1.1023 -0.8431  0.0123
 8769SOL     OW37939   1.108   0.251   9.976  0.0885  0.6834  0.4498
 8769SOL    HW137940   1.154   0.216   9.900 -0.3917  1.3800 -0.1655
 8769SOL    HW237941   1.186   0.272  10.028 -0.7500  1.7557  1.2767
 8770SOL     OW37942   1.725   2.462   7.990  0.2596 -0.0216 -0.2314
 8770SOL    HW137943   1.811   2.441   7.956  0.7503 -0.7443  1.4544
 8770SOL    HW237944   1.701   2.538   7.937 -1.9179  1.5159  2.9060
 8771SOL     OW37945   1.496   3.255   3.916 -0.1144 -0.1852 -0.4765
 8771SOL    HW137946   1.453   3.305   3.986  0.2620  0.1852 -0.5139
 8771SOL    HW237947   1.438   3.182   3.893  1.6331 -1.2550 -1.3901
 8772SOL     OW37948   3.519   3.976   5.301 -0.1632 -0.4530 -0.0957
 8772SOL    HW137949   3.570   4.002   5.225 -2.4637  2.6831 -0.5340
 8772SOL    HW237950   3.522   4.058   5.350 -0.7209 -0.9618  0.7844
 8773SOL     OW37951   2.176   4.498   5.993  0.3074 -0.3529 -0.3430
 8773SOL    HW137952   2.217   4.562   6.052 -0.4713  0.6709 -0.9050
 8773SOL    HW237953   2.245   4.448   5.951 -0.8146  0.3652 -3.0616
 8774SOL     OW37954   0.660   3.097  13.266  0.2780 -0.3515 -0.3078
 8774SOL    HW137955   0.753   3.084  13.248 -0.1969 -2.3637 -1.3363
 8774SOL    HW237956   0.672   3.164  13.334  1.1711  0.9420 -1.7443
 8775SOL     OW37957   2.778   2.349   8.379 -0.4006  0.4583  0.0065
 8775SOL    HW137958   2.774   2.402   8.459  0.2293  0.5240 -0.0056
 8775SOL    HW237959   2.685   2.330   8.362 -0.4467  1.2060 -0.5701
 8776SOL     OW37960   0.759   4.578  14.682 -0.1245 -0.1663  0.6581
 8776SOL    HW137961   0.839   4.547  14.726 -0.3942 -0.8802  0.6430
 8776SOL    HW237962   0.804   4.642  14.627 -1.2444  0.5862  0.6327
 8777SOL     OW37963   3.370   1.635   8.011 -0.1309  0.4620  0.0079
 8777SOL    HW137964   3.450   1.660   7.965  0.1605 -1.8342 -0.7448
 8777SOL    HW237965   3.367   1.692   8.088  3.4275 -1.1045  1.3293
 8778SOL     OW37966   1.780   3.734  16.561  0.5892  0.2030  0.1743
 8778SOL    HW137967   1.839   3.681  16.614  0.5556  0.5519  0.5625
 8778SOL    HW237968   1.730   3.780  16.629 -0.7075  0.0957 -0.7138
 8779SOL     OW37969   3.805   1.481   6.138  0.3811  0.0245 -0.2128
 8779SOL    HW137970   3.731   1.421   6.132  1.1388 -0.8424 -0.9043
 8779SOL    HW237971   3.863   1.425   6.190  0.3691  0.4415  0.2489
 8780SOL     OW37972   1.418   1.129   6.971 -0.2336  0.1915  0.1415
 8780SOL    HW137973   1.428   1.074   7.048  3.2820 -1.0313 -1.1835
 8780SOL    HW237974   1.510   1.144   6.947 -0.4333 -1.5266 -1.6721
 8781SOL     OW37975   1.849   3.971   2.362  0.0684  0.2296 -0.5845
 8781SOL    HW137976   1.935   3.930   2.356  0.2815  0.4059  1.2017
 8781SOL    HW237977   1.873   4.064   2.366 -0.9232  0.4929 -0.8585
 8782SOL     OW37978   3.033   1.216   4.460 -0.2408 -0.1088  0.5134
 8782SOL    HW137979   2.994   1.291   4.503  0.8970 -0.5584  2.3388
 8782SOL    HW237980   2.983   1.218   4.378 -1.6554 -2.3266  1.3154
 8783SOL     OW37981   2.487   4.604   3.220 -0.1119  0.5236 -0.1792
 8783SOL    HW137982   2.564   4.577   3.170 -1.3324  1.5499 -2.5981
 8783SOL    HW237983   2.419   4.552   3.176  0.6636  1.2599 -2.2418
 8784SOL     OW37984   4.052   1.636   3.584 -0.7630 -0.2849  0.0797
 8784SOL    HW137985   4.095   1.686   3.515  0.4654 -1.0504  0.3014
 8784SOL    HW237986   3.969   1.614   3.541 -0.9728  0.7296 -0.0485
 8785SOL     OW37987   2.199   3.988  17.552 -0.8365 -0.1588 -0.5689
 8785SOL    HW137988   2.130   3.990  17.618 -0.1233  1.7373  0.1216
 8785SOL    HW237989   2.162   4.055  17.494  1.2184  1.8071  0.4011
 8786SOL     OW37990   3.082   0.078   2.108  0.2704 -0.1958  0.1685
 8786SOL    HW137991   3.070   0.101   2.015  0.0871  1.7234  0.6633
 8786SOL    HW237992   2.993   0.064   2.141  0.4056 -0.0741  0.5797
 8787SOL     OW37993   1.121   2.035   6.528  0.8611  0.3949 -0.1879
 8787SOL    HW137994   1.143   1.989   6.609 -0.9654 -1.6330 -0.8605
 8787SOL    HW237995   1.137   1.967   6.464  0.5035 -0.5710  0.7470
 8788SOL     OW37996   4.035   3.940   6.350  0.2314 -0.4563  0.3198
 8788SOL    HW137997   4.104   3.931   6.415 -1.1613 -1.1327  1.7106
 8788SOL    HW237998   4.084   3.971   6.273 -0.4937 -1.3454 -0.4986
 8789SOL     OW37999   4.619   3.322   8.104  0.4106 -0.2348 -0.4368
 8789SOL    HW138000   4.530   3.347   8.078  1.3110 -0.3588 -3.6590
 8789SOL    HW238001   4.620   3.227   8.093  1.5796 -0.1920 -0.7038
 8790SOL     OW38002   3.873   3.865  12.495 -0.2111 -0.2525 -1.3514
 8790SOL    HW138003   3.875   3.777  12.456  0.1523 -2.1479  2.8866
 8790SOL    HW238004   3.810   3.852  12.567  1.4773  2.6971  0.6286
 8791SOL     OW38005   2.939   0.997   9.264  0.3630 -0.0598 -0.4540
 8791SOL    HW138006   2.951   0.977   9.171  2.2242  1.5282 -0.5611
 8791SOL    HW238007   2.843   1.000   9.267  0.3584  0.4238 -0.9465
 8792SOL     OW38008   3.706   2.320  15.527  0.0540 -0.2712 -0.0239
 8792SOL    HW138009   3.736   2.279  15.608 -3.1569  0.4927  1.5486
 8792SOL    HW238010   3.688   2.404  15.569  1.3524  0.0168 -0.0330
 8793SOL     OW38011   4.191   2.140   4.598 -0.4430  0.4384  0.0304
 8793SOL    HW138012   4.134   2.213   4.573 -0.6467  0.5693  0.8756
 8793SOL    HW238013   4.132   2.065   4.591  0.1503 -0.1195  0.9906
 8794SOL     OW38014   2.436   0.388   2.366 -0.3683 -0.4866  0.0945
 8794SOL    HW138015   2.502   0.441   2.321  0.9445 -0.0267  2.5940
 8794SOL    HW238016   2.369   0.456   2.378  0.6494  0.6506 -0.6561
 8795SOL     OW38017   1.822   1.544   3.786  0.1238  0.2859  0.1721
 8795SOL    HW138018   1.804   1.626   3.832 -0.4754 -0.6023  1.5331
 8795SOL    HW238019   1.836   1.487   3.862  1.6752 -1.1841 -1.2109
 8796SOL     OW38020   2.451   3.943   9.090 -0.0090  0.2409  1.0780
 8796SOL    HW138021   2.405   3.864   9.062 -0.0503  0.4936  0.4252
 8796SOL    HW238022   2.407   4.008   9.036  2.7311  1.1612 -0.0573
 8797SOL     OW38023   2.070   0.002   7.564 -0.4923  0.3722 -0.4812
 8797SOL    HW138024   2.123   4.662   7.559 -0.3228  0.4812 -0.3814
 8797SOL    HW238025   2.124   0.051   7.502 -0.1186 -1.5379 -1.6669
 8798SOL     OW38026   0.923   4.163  17.520  0.4104  0.3373  0.1810
 8798SOL    HW138027   0.952   4.079  17.556  0.7146 -0.0317 -0.9579
 8798SOL    HW238028   1.004   4.206  17.493  1.0333 -1.0116 -0.0970
 8799SOL     OW38029   4.519   1.569   8.936  0.2735 -0.1191  0.4574
 8799SOL    HW138030   4.505   1.592   9.028  1.1168 -0.2187  0.6053
 8799SOL    HW238031   4.570   1.648   8.917  0.8105 -0.8423 -1.0441
 8800SOL     OW38032   2.088   2.991   7.013 -0.2164  0.0759  0.3544
 8800SOL    HW138033   2.147   3.064   6.995 -0.6042 -0.5561 -3.3949
 8800SOL    HW238034   2.023   3.001   6.944 -0.1808 -0.8288  0.1824
 8801SOL     OW38035   0.510   2.609  15.993 -0.0836 -0.1684 -0.1813
 8801SOL    HW138036   0.462   2.530  16.020  0.6571 -0.9328 -1.1344
 8801SOL    HW238037   0.560   2.580  15.917 -1.5049 -0.1479 -1.1153
 8802SOL     OW38038   3.213   2.667   5.646  0.2742 -0.0366  0.7249
 8802SOL    HW138039   3.197   2.739   5.585  2.4082  0.9602  1.3302
 8802SOL    HW238040   3.122   2.636   5.650  0.9013 -1.9836 -0.4902
 8803SOL     OW38041   0.103   2.237   6.092 -0.2599  0.3889  0.2862
 8803SOL    HW138042   0.174   2.211   6.150  1.6909  1.4230 -1.6487
 8803SOL    HW238043   0.133   2.200   6.008  0.4555  0.2107  0.6236
 8804SOL     OW38044   4.215   0.188   8.593  0.3137  0.0946 -0.4671
 8804SOL    HW138045   4.301   0.230   8.590  0.9602 -1.2977 -1.3993
 8804SOL    HW238046   4.166   0.239   8.527 -0.8669 -1.0139 -0.4510
 8805SOL     OW38047   1.428   4.285   8.434 -0.5955 -0.2202  0.0209
 8805SOL    HW138048   1.506   4.274   8.488  0.4093  0.4722 -1.2895
 8805SOL    HW238049   1.360   4.235   8.480  1.2372 -1.1288  1.7118
 8806SOL     OW38050   0.923   0.423  10.648  0.7239 -0.1116 -0.2538
 8806SOL    HW138051   0.966   0.373  10.578 -0.1915  2.1847 -2.4628
 8806SOL    HW238052   0.976   0.405  10.726  0.5371  0.4993  0.0143
 8807SOL     OW38053   1.766   3.405  11.580  0.2820  0.3699  0.0280
 8807SOL    HW138054   1.836   3.441  11.635 -1.3329  2.3728  0.7578
 8807SOL    HW238055   1.709   3.359  11.640  0.8727 -0.2698  0.0980
 8808SOL     OW38056   4.600   3.829   7.816  0.8294 -0.4508  0.4241
 8808SOL    HW138057   4.671   3.887   7.843  1.9376 -1.4481 -0.3617
 8808SOL    HW238058   4.540   3.898   7.787  0.7334  1.2460  4.6087
 8809SOL     OW38059   2.826   1.538   8.495  0.5083  0.1578 -0.2882
 8809SOL    HW138060   2.913   1.500   8.481  0.6178  0.2819  0.0492
 8809SOL    HW238061   2.852   1.626   8.522 -0.7920  0.2530  0.7124
 8810SOL     OW38062   4.401   3.565  15.761  0.3962 -0.1877 -0.2410
 8810SOL    HW138063   4.452   3.615  15.698  1.4054  0.7697  1.3156
 8810SOL    HW238064   4.329   3.532  15.709  0.5804 -1.0859  0.0745
 8811SOL     OW38065   3.358   2.583   0.586 -0.4837 -0.0738 -0.9023
 8811SOL    HW138066   3.449   2.573   0.614 -0.8410  0.1111  0.3117
 8811SOL    HW238067   3.355   2.679   0.582  0.8513  0.0000 -0.2260
 8812SOL     OW38068   2.939   1.179   5.820  0.2505  0.0268  0.0394
 8812SOL    HW138069   3.010   1.239   5.796  0.5563  0.4975  2.1812
 8812SOL    HW238070   2.955   1.142   5.906 -1.1911  0.7144  0.6003
 8813SOL     OW38071   1.657   2.489   3.535 -0.1146  0.1231  0.3021
 8813SOL    HW138072   1.654   2.475   3.440  0.4054  1.7403  0.0519
 8813SOL    HW238073   1.752   2.491   3.545  0.0304  0.3168 -1.0164
 8814SOL     OW38074   3.398   0.350   1.952 -0.0812 -0.0172  0.4197
 8814SOL    HW138075   3.326   0.362   2.014  1.5761 -1.5502  2.6427
 8814SOL    HW238076   3.385   0.429   1.899  0.0000 -0.3956 -0.1605
 8815SOL     OW38077   0.606   0.106   4.687 -0.1166  0.1360 -0.1893
 8815SOL    HW138078   0.568   0.018   4.694 -2.0802  0.9208 -0.9932
 8815SOL    HW238079   0.538   0.157   4.730  0.3615 -0.1331  0.8935
 8816SOL     OW38080   4.533   1.736  13.953  0.2474 -0.7639  0.5487
 8816SOL    HW138081   4.443   1.727  13.921 -0.0871  0.1492  1.2195
 8816SOL    HW238082   4.552   1.822  13.916  0.5863 -0.3065  1.7657
 8817SOL     OW38083   0.396   3.588  14.415  0.4450 -0.3349  0.1020
 8817SOL    HW138084   0.399   3.671  14.366 -0.9013 -0.6996 -0.5857
 8817SOL    HW238085   0.395   3.617  14.506  0.9769  2.0213 -0.6303
 8818SOL     OW38086   1.702   1.517   7.166 -0.5075  0.0249  0.5532
 8818SOL    HW138087   1.623   1.471   7.196  0.6110 -1.7735  0.7954
 8818SOL    HW238088   1.741   1.556   7.244 -0.4079 -1.2661  1.1554
 8819SOL     OW38089   3.047   0.667   3.433  0.0400  0.2377 -0.2304
 8819SOL    HW138090   3.042   0.628   3.346  1.6615  0.0690 -0.2573
 8819SOL    HW238091   3.047   0.591   3.492 -0.2957  0.2458 -0.2250
 8820SOL     OW38092   0.142   4.155   1.135 -0.3655 -0.1004 -0.0364
 8820SOL    HW138093   0.107   4.160   1.224 -1.5712  0.8734 -0.5749
 8820SOL    HW238094   0.168   4.064   1.147 -3.5804 -1.0916 -0.4694
 8821SOL     OW38095   3.849   2.655   6.193 -0.2712  0.0249  0.0798
 8821SOL    HW138096   3.820   2.568   6.220 -0.3196 -0.6296 -2.0934
 8821SOL    HW238097   3.925   2.667   6.249  1.0447 -1.2495 -1.4222
 8822SOL     OW38098   2.445   2.241   9.494  0.1874  0.0312 -0.0010
 8822SOL    HW138099   2.388   2.308   9.457 -1.4809 -0.5977  1.4079
 8822SOL    HW238100   2.407   2.231   9.581  1.3209  0.3428  0.5229
 8823SOL     OW38101   2.305   3.555   4.685  0.2806 -0.0196  0.4279
 8823SOL    HW138102   2.381   3.571   4.629 -0.2892 -0.6964 -0.5527
 8823SOL    HW238103   2.270   3.643   4.696  1.5564  0.6145 -0.5891
 8824SOL     OW38104   3.827   3.626   5.031 -0.5280 -0.5715 -0.4394
 8824SOL    HW138105   3.763   3.651   4.964 -0.2374 -0.1631 -0.5662
 8824SOL    HW238106   3.838   3.708   5.079  4.2539 -0.8984 -1.0108
 8825SOL     OW38107   3.456   3.696   5.330  0.2209 -0.2124  0.3916
 8825SOL    HW138108   3.509   3.638   5.384 -0.2783  1.8361  3.1075
 8825SOL    HW238109   3.497   3.783   5.327 -1.3056  0.4951 -0.4515
 8826SOL     OW38110   3.048   2.104   6.880 -0.4209  0.7175 -0.1997
 8826SOL    HW138111   3.028   2.110   6.787  1.3479  1.1004 -0.5518
 8826SOL    HW238112   3.089   2.017   6.880  1.4277  1.6063 -1.2459
 8827SOL     OW38113   2.763   4.424   3.527  0.0989  0.2235 -0.5062
 8827SOL    HW138114   2.843   4.468   3.498 -0.2826  1.1898 -0.0891
 8827SOL    HW238115   2.800   4.364   3.593  2.8355  1.9657 -0.4642
 8828SOL     OW38116   3.838   0.491  14.444 -0.5662  0.5759  0.0142
 8828SOL    HW138117   3.761   0.468  14.496 -0.6096 -1.7088 -1.0433
 8828SOL    HW238118   3.855   0.575  14.486 -1.2136  0.8664 -0.3011
 8829SOL     OW38119   3.819   4.589   3.114 -0.2138  0.1396 -0.4705
 8829SOL    HW138120   3.796   4.565   3.204 -0.5502  0.2771 -0.5195
 8829SOL    HW238121   3.897   4.535   3.101  0.2719  0.5424  0.7579
 8830SOL     OW38122   4.596   3.505   6.385 -0.2444 -0.8191 -0.2178
 8830SOL    HW138123   4.560   3.588   6.354 -1.6681 -0.3364  2.7887
 8830SOL    HW238124   4.578   3.498   6.478 -0.0494 -1.4028 -0.2219
 8831SOL     OW38125   2.343   3.802  10.686  0.5407  0.3456  0.5035
 8831SOL    HW138126   2.280   3.873  10.670 -0.6139 -0.7595  0.1480
 8831SOL    HW238127   2.285   3.754  10.745 -2.4632  0.3891 -2.4045
 8832SOL     OW38128   3.196   2.371   6.234  0.1144  0.1422 -0.3167
 8832SOL    HW138129   3.100   2.362   6.232  0.1277  0.1858 -1.4220
 8832SOL    HW238130   3.224   2.331   6.316  3.2049  0.2972 -1.3069
 8833SOL     OW38131   0.747   0.900   7.963 -0.0887 -0.4337 -0.3881
 8833SOL    HW138132   0.707   0.975   7.919  2.3403  0.2393 -1.4319
 8833SOL    HW238133   0.668   0.861   7.999  1.3899 -1.7403  1.4169
 8834SOL     OW38134   3.929   4.149   2.014  0.5266  0.2588 -0.7663
 8834SOL    HW138135   3.966   4.223   2.061 -1.4097  0.0730  1.0514
 8834SOL    HW238136   3.881   4.105   2.085  0.6616  1.5279  0.1029
 8835SOL     OW38137   1.261   1.123   4.940 -0.0536  0.3302  0.6703
 8835SOL    HW138138   1.292   1.213   4.947  1.5238 -0.1621 -0.0226
 8835SOL    HW238139   1.312   1.093   5.016 -0.4316  2.1662  1.6459
 8836SOL     OW38140   2.200   4.561   2.784  0.4612 -0.1810 -0.1634
 8836SOL    HW138141   2.147   4.506   2.841  1.1097 -0.2438  0.3789
 8836SOL    HW238142   2.287   4.537   2.816 -0.2957 -2.6568  0.0469
 8837SOL     OW38143   2.538   1.410   5.257 -0.0061  0.0734 -0.7218
 8837SOL    HW138144   2.499   1.486   5.214  2.0818  0.6911 -1.5173
 8837SOL    HW238145   2.586   1.458   5.323 -1.7575  0.1729  0.4861
 8838SOL     OW38146   2.330   1.566  14.786  0.4015  0.5222  0.6165
 8838SOL    HW138147   2.252   1.623  14.787 -0.5306 -0.7463  0.2476
 8838SOL    HW238148   2.294   1.486  14.749  1.0003 -0.3841  1.9931
 8839SOL     OW38149   4.594   2.304  13.420  0.0530  0.1052 -0.2617
 8839SOL    HW138150   4.593   2.215  13.385 -0.5986  0.5358 -1.3383
 8839SOL    HW238151   4.577   2.353  13.340 -0.5701  0.1534 -0.0997
 8840SOL     OW38152   0.169   3.121  12.674 -0.2994  0.3549 -0.2398
 8840SOL    HW138153   0.194   3.213  12.677  1.5137 -0.0594 -2.1718
 8840SOL    HW238154   0.156   3.109  12.580 -0.8234  0.7371 -0.2142
 8841SOL     OW38155   3.877   2.707   5.933 -0.4451 -0.1003 -0.0436
 8841SOL    HW138156   3.888   2.702   6.028  0.7379 -0.6652 -0.2191
 8841SOL    HW238157   3.791   2.670   5.914 -0.2061 -0.0342 -1.2490
 8842SOL     OW38158   1.194   3.797   7.252  0.4640 -0.4018  0.5356
 8842SOL    HW138159   1.115   3.847   7.276 -0.3790 -1.0713 -0.8834
 8842SOL    HW238160   1.153   3.721   7.211 -0.9102  1.0913 -0.8820
 8843SOL     OW38161   2.982   1.412  14.844 -0.0439  0.3869  0.1904
 8843SOL    HW138162   2.909   1.443  14.898  0.5069  3.2233 -0.6771
 8843SOL    HW238163   2.945   1.325  14.828 -0.8229  0.8405 -0.4779
 8844SOL     OW38164   1.145   3.487   8.302 -0.0257  0.7963 -0.2017
 8844SOL    HW138165   1.189   3.543   8.238  1.2286  0.0471  0.0058
 8844SOL    HW238166   1.193   3.519   8.378 -0.4225  0.7352  0.0783
 8845SOL     OW38167   1.187   4.004   6.572 -0.3328  0.5053 -0.1831
 8845SOL    HW138168   1.139   3.941   6.519  0.8266 -0.3833 -0.1811
 8845SOL    HW238169   1.115   4.054   6.610 -0.9928  0.5533 -1.5057
 8846SOL     OW38170   1.345   1.536  11.901 -0.3461  0.2238  0.1252
 8846SOL    HW138171   1.307   1.619  11.874  1.4653  1.4702  1.3720
 8846SOL    HW238172   1.299   1.470  11.848 -2.1490  0.5543  1.2711
 8847SOL     OW38173   0.553   1.146   4.476 -0.3177  0.0573  0.8632
 8847SOL    HW138174   0.497   1.072   4.501  0.4246 -0.3296  1.3771
 8847SOL    HW238175   0.595   1.112   4.397 -2.2291 -1.8157  0.6490
 8848SOL     OW38176   4.435   4.732   4.589 -0.3908  0.4790 -0.0873
 8848SOL    HW138177   4.348   4.700   4.564  0.4143  1.0102 -3.4784
 8848SOL    HW238178   4.424   4.715   4.683 -1.0663 -1.8156 -0.5665
 8849SOL     OW38179   0.889   2.098   4.625 -0.5087 -0.5902 -0.0966
 8849SOL    HW138180   0.803   2.100   4.582 -0.0478 -0.8479 -1.0453
 8849SOL    HW238181   0.881   2.169   4.689 -0.8553 -0.0161 -0.7756
 8850SOL     OW38182   1.006   4.607   5.186  0.2159 -0.4367  0.2344
 8850SOL    HW138183   1.054   4.559   5.253  0.3042 -2.4310 -1.2329
 8850SOL    HW238184   1.002   4.696   5.220  0.6440 -0.3911  0.1606
 8851SOL     OW38185   3.686   2.637   2.244  0.4417  0.2737 -0.1466
 8851SOL    HW138186   3.598   2.676   2.244  0.6316  0.6811  2.2170
 8851SOL    HW238187   3.741   2.715   2.243  0.1603  0.5001  1.9199
 8852SOL     OW38188   0.201   2.128   5.852  0.7927 -0.2453 -0.4694
 8852SOL    HW138189   0.231   2.038   5.862  1.3159  0.2464  2.5712
 8852SOL    HW238190   0.247   2.163   5.776 -1.5730  0.1099 -1.7451
 8853SOL     OW38191   1.367   1.212   1.434 -0.1111  0.2875 -0.0407
 8853SOL    HW138192   1.379   1.214   1.339  0.5004  2.7473  0.0821
 8853SOL    HW238193   1.412   1.292   1.461  1.0049 -0.3160 -0.1471
 8854SOL     OW38194   0.059   0.719   7.565  0.2642  0.0627 -0.1750
 8854SOL    HW138195   0.074   0.636   7.519 -0.7627 -1.0474  1.4958
 8854SOL    HW238196   0.040   0.777   7.492  0.3862 -0.4839 -0.6446
 8855SOL     OW38197   1.721   1.067   7.857 -0.4340  0.0944  0.5409
 8855SOL    HW138198   1.689   1.144   7.903 -0.4758  0.7313 -0.5606
 8855SOL    HW238199   1.814   1.079   7.877 -0.2339 -0.1050 -0.2562
 8856SOL     OW38200   0.459   3.871   6.442 -0.1725  0.1729 -0.3611
 8856SOL    HW138201   0.370   3.837   6.446  0.2872 -1.0141 -0.2724
 8856SOL    HW238202   0.491   3.816   6.371 -1.4278 -0.7679 -0.1986
 8857SOL     OW38203   4.555   4.406   4.181  0.0862  0.1711  0.0337
 8857SOL    HW138204   4.552   4.481   4.122 -2.6335 -2.0693 -2.7133
 8857SOL    HW238205   4.629   4.440   4.230  1.3867 -1.5114 -0.7725
 8858SOL     OW38206   0.252   1.724   8.714  0.0382  0.3202  0.7910
 8858SOL    HW138207   0.183   1.739   8.779 -0.7689 -1.7006  0.4182
 8858SOL    HW238208   0.207   1.660   8.658 -0.1213  1.2327 -0.1270
 8859SOL     OW38209   4.144   2.913   6.056  0.0159 -0.2786 -0.1193
 8859SOL    HW138210   4.143   2.973   5.982 -2.0957 -1.1644 -0.8344
 8859SOL    HW238211   4.222   2.859   6.039 -2.5006 -2.9481 -3.3436
 8860SOL     OW38212   3.894   3.434   4.734 -0.4923  0.5971  0.4557
 8860SOL    HW138213   3.803   3.410   4.754 -0.5649 -0.2631 -0.9378
 8860SOL    HW238214   3.895   3.505   4.671 -0.3564 -0.3152 -0.5650
 8861SOL     OW38215   3.524   3.032  12.722 -0.0001  0.6613 -0.3780
 8861SOL    HW138216   3.528   3.002  12.631  3.2243  0.7757 -0.2875
 8861SOL    HW238217   3.533   3.127  12.718 -3.0203  1.0636  2.5457
 8862SOL     OW38218   2.373   2.598  11.131 -0.1568  0.5964  0.0069
 8862SOL    HW138219   2.348   2.626  11.043 -2.0009 -1.0562  0.0074
 8862SOL    HW238220   2.464   2.627  11.130  0.9827 -2.9624 -0.3321
 8863SOL     OW38221   1.911   3.613  11.949 -0.0941 -0.6975  0.0654
 8863SOL    HW138222   1.925   3.707  11.953 -1.3865 -0.5503  0.9182
 8863SOL    HW238223   1.827   3.613  11.903 -0.6818 -0.8467  1.1512
 8864SOL     OW38224   0.308   2.893   8.849 -0.0537  0.1714  0.3348
 8864SOL    HW138225   0.311   2.916   8.756 -0.9986  1.4252  0.6143
 8864SOL    HW238226   0.297   2.967   8.908 -0.6014  1.2311 -1.0926
 8865SOL     OW38227   3.142   4.377   2.777 -0.5203 -0.2872 -0.1722
 8865SOL    HW138228   3.139   4.318   2.702  0.9459 -2.8187  1.7461
 8865SOL    HW238229   3.228   4.417   2.764 -0.7170  0.8954  2.1020
 8866SOL     OW38230   2.064   1.738   7.510  0.0209 -0.1815  0.3831
 8866SOL    HW138231   2.062   1.707   7.600 -2.1519 -1.7059 -0.1961
 8866SOL    HW238232   2.071   1.832   7.527  0.6195 -0.9841  4.4993
 8867SOL     OW38233   2.219   2.419   4.260 -0.6792  0.0667  0.2542
 8867SOL    HW138234   2.142   2.365   4.273 -1.0923  0.8156  0.9179
 8867SOL    HW238235   2.198   2.439   4.169  3.2801  0.7936 -0.5111
 8868SOL     OW38236   2.210   4.360   8.413  0.0798  0.1559  0.4569
 8868SOL    HW138237   2.254   4.432   8.366 -0.7468  1.0523  1.0760
 8868SOL    HW238238   2.262   4.286   8.381 -0.4687  0.3134 -0.8014
 8869SOL     OW38239   0.304   0.523   1.847 -0.0234  0.1526 -0.6303
 8869SOL    HW138240   0.388   0.559   1.877 -0.8171  1.2076  0.3017
 8869SOL    HW238241   0.310   0.543   1.753  2.4596 -1.2017 -0.7686
 8870SOL     OW38242   3.088   1.305   9.279  0.1218 -0.1680  0.1192
 8870SOL    HW138243   3.156   1.347   9.332 -0.0792 -2.0245  1.8588
 8870SOL    HW238244   3.106   1.213   9.300 -1.4855 -0.4531  0.2675
 8871SOL     OW38245   4.175   4.103  13.821 -0.4501 -0.1163 -0.7261
 8871SOL    HW138246   4.221   4.185  13.839 -0.1531 -0.1956 -1.1184
 8871SOL    HW238247   4.246   4.040  13.819 -0.5816 -0.3871  2.9806
 8872SOL     OW38248   4.378   1.298   8.420 -0.2632  0.0261 -0.2922
 8872SOL    HW138249   4.350   1.229   8.480  0.1334 -0.1963 -0.3611
 8872SOL    HW238250   4.430   1.349   8.483  0.8815 -1.2547 -0.1942
 8873SOL     OW38251   2.334   2.692   1.807 -0.1708  0.6568 -0.0559
 8873SOL    HW138252   2.415   2.694   1.755 -1.4713 -1.9416 -2.1927
 8873SOL    HW238253   2.269   2.695   1.737  1.0851 -1.2532 -1.3201
 8874SOL     OW38254   2.508   0.659  10.474 -0.4138  0.3308 -0.4657
 8874SOL    HW138255   2.440   0.710  10.430  1.0278  3.4395  0.8553
 8874SOL    HW238256   2.458   0.590  10.517  1.1352  0.1135  0.9945
 8875SOL     OW38257   4.566   0.242  17.090  0.1185  0.3649 -0.2634
 8875SOL    HW138258   4.532   0.331  17.089 -2.9707 -0.8288 -1.7432
 8875SOL    HW238259   4.510   0.191  17.150  2.7680 -0.8972  1.1129
 8876SOL     OW38260   1.412   2.272  15.418 -0.6032  0.1095  0.2244
 8876SOL    HW138261   1.385   2.278  15.327 -3.0065  0.1830  0.9332
 8876SOL    HW238262   1.330   2.287  15.466 -0.1898 -0.1654  1.0230
 8877SOL     OW38263   2.907   3.253  12.031 -0.4492  0.1054  0.3357
 8877SOL    HW138264   2.949   3.220  11.951  1.2313 -0.5138  1.4755
 8877SOL    HW238265   2.819   3.268  11.997 -0.5405  1.2717  1.1056
 8878SOL     OW38266   0.406   3.107   2.399 -0.1911 -0.1427 -0.3577
 8878SOL    HW138267   0.345   3.079   2.467 -1.9132 -0.0716 -1.8737
 8878SOL    HW238268   0.358   3.064   2.328 -1.3798  0.7107 -0.0772
 8879SOL     OW38269   1.278   3.013   3.894  0.2934  0.5557  0.2383
 8879SOL    HW138270   1.228   3.080   3.942  1.0445  1.8759 -0.8230
 8879SOL    HW238271   1.265   2.927   3.933 -0.8227  1.2544  1.4092
 8880SOL     OW38272   4.585   0.527   3.774  0.2043  0.2411 -0.3521
 8880SOL    HW138273   4.544   0.602   3.817  2.1777 -1.0074  3.7056
 8880SOL    HW238274   4.554   0.446   3.813  2.3205 -0.1244  0.5735
 8881SOL     OW38275   3.837   3.467   8.040  0.1257 -0.0480 -0.0475
 8881SOL    HW138276   3.786   3.441   7.964 -0.4749  0.0914  0.3133
 8881SOL    HW238277   3.783   3.536   8.077 -0.9383  0.0492 -1.8105
 8882SOL     OW38278   1.657   3.698   0.338  0.3347  0.3337  0.0871
 8882SOL    HW138279   1.742   3.739   0.324  0.2334  0.6861  0.4982
 8882SOL    HW238280   1.671   3.637   0.410  0.4954  0.8401  0.4878
 8883SOL     OW38281   0.828   3.927  16.357 -0.3483  0.6232 -0.0206
 8883SOL    HW138282   0.745   3.939  16.312 -0.5741 -0.9058 -0.0238
 8883SOL    HW238283   0.802   3.918  16.449 -3.9347  0.2645 -1.0526
 8884SOL     OW38284   0.611   1.888   8.663  0.5077 -0.7303  0.1655
 8884SOL    HW138285   0.562   1.862   8.585  1.4239 -0.5771 -0.4608
 8884SOL    HW238286   0.696   1.850   8.643  1.0952 -0.3598  1.9549
 8885SOL     OW38287   0.872   3.123  13.041 -0.0167  0.3976  0.2225
 8885SOL    HW138288   0.851   3.185  12.972  0.2408 -1.1222 -1.2398
 8885SOL    HW238289   0.960   3.100  13.010  1.2384  2.9283  1.9578
 8886SOL     OW38290   0.813   1.985   3.769  0.4589 -0.3449  0.1624
 8886SOL    HW138291   0.841   2.066   3.727  0.9037 -0.5675  0.0286
 8886SOL    HW238292   0.775   1.940   3.694 -2.3910  0.5008  1.1063
 8887SOL     OW38293   0.399   0.917   4.501  0.6580  0.0593  0.2312
 8887SOL    HW138294   0.403   0.847   4.436 -0.2313  0.8896 -0.7236
 8887SOL    HW238295   0.317   0.899   4.547  0.7434  1.6726  1.0252
 8888SOL     OW38296   3.468   3.985  10.175 -0.6966  0.1357  0.0896
 8888SOL    HW138297   3.383   3.981  10.130 -0.0780  1.9099 -1.2221
 8888SOL    HW238298   3.488   4.078  10.169  1.9559 -0.6468 -3.1717
 8889SOL     OW38299   2.732   1.968  14.958  0.7789  0.5855  0.5806
 8889SOL    HW138300   2.727   1.910  15.034  0.6077  1.4496  1.2413
 8889SOL    HW238301   2.755   1.907  14.888 -0.7334  1.1714 -0.4108
 8890SOL     OW38302   2.571   3.910   8.509 -0.8761  0.3468 -0.0888
 8890SOL    HW138303   2.609   3.883   8.425 -2.4375 -2.3783  0.0725
 8890SOL    HW238304   2.634   3.973   8.545  1.3949 -1.9359 -0.0388
 8891SOL     OW38305   3.110   3.421  15.026 -0.2212 -0.1708  0.1068
 8891SOL    HW138306   3.145   3.390  14.943 -0.5518  1.1302 -0.5139
 8891SOL    HW238307   3.181   3.456  15.080 -0.6749  0.5836  0.2134
 8892SOL     OW38308   0.634   3.646   7.466  0.3021  0.3836 -0.3288
 8892SOL    HW138309   0.611   3.605   7.382 -0.4523 -1.0493  0.5620
 8892SOL    HW238310   0.546   3.654   7.503 -0.3221  0.2759 -1.7478
 8893SOL     OW38311   2.072   4.508  10.750  0.4676  0.3163  0.1111
 8893SOL    HW138312   1.987   4.548  10.767 -0.4825 -1.5101 -0.3460
 8893SOL    HW238313   2.077   4.543  10.660 -1.7834 -1.3403 -0.6358
 8894SOL     OW38314   4.242   4.531   6.440  0.5732 -0.4787 -0.2483
 8894SOL    HW138315   4.197   4.473   6.379  0.6093 -1.2766  0.4798
 8894SOL    HW238316   4.223   4.469   6.511  0.5241 -0.6139 -0.3789
 8895SOL     OW38317   0.143   1.133  11.374  0.0622  0.0037 -0.0549
 8895SOL    HW138318   0.082   1.176  11.314 -0.1276  0.8195  0.7320
 8895SOL    HW238319   0.092   1.053  11.384 -2.7493  1.5614 -1.8651
 8896SOL     OW38320   0.746   3.154   7.048  0.1833  0.1168 -0.1117
 8896SOL    HW138321   0.734   3.099   7.126  0.1331  1.2337  0.6665
 8896SOL    HW238322   0.738   3.095   6.973  0.0252 -1.5731  1.2494
 8897SOL     OW38323   3.620   4.482  11.220  0.4649  0.2421  0.1400
 8897SOL    HW138324   3.605   4.525  11.305  1.2415  1.3573 -0.2785
 8897SOL    HW238325   3.540   4.504  11.173  0.2054 -0.6923  0.1586
 8898SOL     OW38326   2.291   1.563  11.323 -0.7454 -0.0381  0.6751
 8898SOL    HW138327   2.292   1.541  11.230 -1.3747 -0.0720  0.6719
 8898SOL    HW238328   2.341   1.493  11.365 -2.1106 -1.3315  0.1696
 8899SOL     OW38329   1.614   1.152  17.078  0.0534  0.1937  0.0647
 8899SOL    HW138330   1.538   1.150  17.135  0.9439 -0.3914  1.2282
 8899SOL    HW238331   1.574   1.140  16.992  2.4866 -0.0713 -1.0295
 8900SOL     OW38332   2.601   4.044   7.143  0.1069 -0.0245  0.0465
 8900SOL    HW138333   2.597   4.017   7.051 -2.4951 -0.8895  0.3979
 8900SOL    HW238334   2.645   4.126   7.123  0.2068  0.0543  0.5737
 8901SOL     OW38335   1.990   2.867  14.421  0.6437  0.0561 -0.0891
 8901SOL    HW138336   1.982   2.823  14.336 -2.3731  1.3526 -0.4675
 8901SOL    HW238337   2.085   2.878  14.417  0.7935 -0.6307  1.5840
 8902SOL     OW38338   2.377   4.412  11.470  0.0801 -0.0342  0.4971
 8902SOL    HW138339   2.423   4.366  11.541 -1.2636 -0.8318  0.8391
 8902SOL    HW238340   2.311   4.351  11.438  0.8224 -0.9515  0.6854
 8903SOL     OW38341   1.973   3.143   6.314 -0.8312  0.1573  0.0255
 8903SOL    HW138342   1.981   3.051   6.338 -3.1313  0.2658  1.2513
 8903SOL    HW238343   1.878   3.138   6.298 -1.0388 -0.0016  1.2384
 8904SOL     OW38344   0.676   0.209   9.631 -0.3578  0.0602  0.3092
 8904SOL    HW138345   0.652   0.141   9.694  0.5417  0.4771  1.0890
 8904SOL    HW238346   0.770   0.191   9.628  0.1443  2.7201  0.7988
 8905SOL     OW38347   3.859   2.260   1.697  0.8448  0.2035  0.1018
 8905SOL    HW138348   3.768   2.284   1.715  1.5489  2.5295  0.5779
 8905SOL    HW238349   3.881   2.185   1.752 -0.7782 -0.9366 -0.8030
 8906SOL     OW38350   1.800   3.108   7.838 -0.0788  0.3448  0.3461
 8906SOL    HW138351   1.804   3.204   7.840  0.1839  0.3211  0.9121
 8906SOL    HW238352   1.729   3.103   7.774  0.6573 -0.7105 -0.3841
 8907SOL     OW38353   1.910   0.676   3.141 -0.3138 -0.4032  0.3814
 8907SOL    HW138354   1.900   0.702   3.233  1.6414  0.6545  0.3077
 8907SOL    HW238355   1.932   0.584   3.159  1.3330  0.3073  2.0038
 8908SOL     OW38356   1.219   1.359   5.496 -0.4205 -0.2808  0.5705
 8908SOL    HW138357   1.292   1.326   5.444 -1.5018 -1.4869 -0.2124
 8908SOL    HW238358   1.253   1.448   5.503  1.0911 -0.5966 -2.5684
 8909SOL     OW38359   0.217   3.567   8.808 -0.0856 -0.0544  0.2359
 8909SOL    HW138360   0.264   3.485   8.826 -2.2399 -1.1245  0.9876
 8909SOL    HW238361   0.235   3.628   8.879 -1.0302 -0.5881  0.9193
 8910SOL     OW38362   4.454   4.221   3.652  0.2071  0.0149  0.4430
 8910SOL    HW138363   4.445   4.130   3.625 -0.7075  1.0079 -2.4895
 8910SOL    HW238364   4.439   4.272   3.573 -3.8048 -1.3866  0.3346
 8911SOL     OW38365   1.911   4.268   5.710  0.2978  0.2431 -0.6515
 8911SOL    HW138366   1.957   4.294   5.790  2.3216  0.0129 -1.7287
 8911SOL    HW238367   1.852   4.202   5.746  0.8400 -0.0697 -0.3351
 8912SOL     OW38368   2.461   1.681   0.879  0.9936 -0.1705  0.3407
 8912SOL    HW138369   2.519   1.739   0.928 -0.3715  1.2010  0.3112
 8912SOL    HW238370   2.526   1.611   0.865  0.1640 -0.9836  0.5629
 8913SOL     OW38371   2.394   0.229   7.680  0.1562 -0.2264 -0.4972
 8913SOL    HW138372   2.359   0.265   7.599 -1.3086  3.1142  1.5806
 8913SOL    HW238373   2.483   0.207   7.652 -0.3218 -1.0117 -1.3818
 8914SOL     OW38374   1.362   4.348   4.095 -0.2662  0.4474 -0.1793
 8914SOL    HW138375   1.328   4.300   4.020 -0.1095 -0.0828  0.0865
 8914SOL    HW238376   1.281   4.392   4.120 -0.3353 -1.6249  3.2664
 8915SOL     OW38377   1.623   0.555   4.930  1.0790  0.4709 -0.4467
 8915SOL    HW138378   1.667   0.540   4.847  1.4278  0.6198 -0.2868
 8915SOL    HW238379   1.602   0.464   4.951 -0.2201  1.2851  1.8574
 8916SOL     OW38380   0.712   2.363   8.650 -0.2332 -0.0369  0.9941
 8916SOL    HW138381   0.663   2.444   8.667  2.3769  1.5004  1.2926
 8916SOL    HW238382   0.770   2.405   8.586  0.2300 -0.4328  1.1617
 8917SOL     OW38383   3.081   2.855   5.487  0.5348 -0.0256 -0.1000
 8917SOL    HW138384   2.989   2.870   5.464  0.2965 -0.4716  0.5587
 8917SOL    HW238385   3.109   2.820   5.403  0.6268 -0.1731 -0.0068
 8918SOL     OW38386   0.535   3.418   8.433 -0.1696 -0.5108 -0.0208
 8918SOL    HW138387   0.458   3.372   8.467  0.1428 -0.1076  1.2139
 8918SOL    HW238388   0.507   3.474   8.360 -1.8621 -0.0670  0.9883
 8919SOL     OW38389   1.724   3.881   1.419  0.3568 -0.4524  0.4896
 8919SOL    HW138390   1.799   3.934   1.393  0.8742 -1.9217 -1.0140
 8919SOL    HW238391   1.651   3.902   1.362  0.5447  0.1982  0.4973
 8920SOL     OW38392   1.917   0.833   7.670  0.0674  0.2559  0.3129
 8920SOL    HW138393   1.841   0.854   7.617 -1.9037 -0.1628  2.9798
 8920SOL    HW238394   1.900   0.885   7.749 -0.8430  0.7947 -0.2442
 8921SOL     OW38395   1.549   1.339  16.828 -0.8875 -0.0415  0.7972
 8921SOL    HW138396   1.458   1.366  16.838 -0.9219  0.1043  0.1359
 8921SOL    HW238397   1.540   1.244  16.834  1.1801 -0.1464  2.1863
 8922SOL     OW38398   1.503   0.563   2.031 -0.1360 -0.4765 -0.2322
 8922SOL    HW138399   1.581   0.592   1.984 -1.1296 -1.9105 -2.7216
 8922SOL    HW238400   1.495   0.470   2.009  1.5515 -0.5239 -0.6733
 8923SOL     OW38401   1.905   1.119   1.620  0.4850  0.2211 -0.1268
 8923SOL    HW138402   1.912   1.207   1.582 -3.3678  0.2721 -0.7378
 8923SOL    HW238403   1.889   1.138   1.712  0.7232  0.6105 -0.1667
 8924SOL     OW38404   2.623   0.756   5.270 -0.3026 -0.1632  0.0287
 8924SOL    HW138405   2.549   0.797   5.314  0.2106 -0.3493  1.0686
 8924SOL    HW238406   2.578   0.699   5.208  0.2553  0.5919 -1.0678
 8925SOL     OW38407   2.772   3.755   8.390  0.0905  0.0270 -0.4409
 8925SOL    HW138408   2.805   3.755   8.300 -0.0807  0.4930 -0.5018
 8925SOL    HW238409   2.841   3.803   8.434  0.9300 -0.1567 -1.5470
 8926SOL     OW38410   1.035   4.467  13.857 -0.6350 -0.4785  0.0498
 8926SOL    HW138411   0.989   4.540  13.899 -0.2278 -0.1146 -0.1375
 8926SOL    HW238412   0.967   4.400  13.857  0.3160 -1.4366 -0.9494
 8927SOL     OW38413   3.078   4.241   8.685  0.4113 -0.1422  0.3681
 8927SOL    HW138414   3.051   4.150   8.697  2.5168 -0.7743  0.2337
 8927SOL    HW238415   3.013   4.270   8.621  0.1078 -1.2121  0.1959
 8928SOL     OW38416   0.107   3.043  12.416  0.1323 -0.4091 -0.3486
 8928SOL    HW138417   0.023   3.087  12.429  0.9466  1.1892 -0.4871
 8928SOL    HW238418   0.165   3.116  12.394 -0.5789 -0.2651 -1.7745
 8929SOL     OW38419   0.464   2.407   5.656 -0.2740 -0.4042 -0.0453
 8929SOL    HW138420   0.548   2.439   5.624  0.2442 -2.3207 -0.6540
 8929SOL    HW238421   0.487   2.394   5.748 -1.0518  1.6451  0.4357
 8930SOL     OW38422   0.481   2.565   4.698  0.6004  0.2880  0.1249
 8930SOL    HW138423   0.554   2.545   4.639 -0.5692  0.5190 -1.4172
 8930SOL    HW238424   0.493   2.658   4.717 -0.6552  0.4087  0.3321
 8931SOL     OW38425   3.261   3.797   3.737  0.2532 -0.1975 -0.2865
 8931SOL    HW138426   3.166   3.792   3.729  0.0921  0.6588  0.9404
 8931SOL    HW238427   3.253   3.889   3.764  0.1535 -0.2309 -0.2031
 8932SOL     OW38428   2.412   2.119   5.857 -0.3080  0.4212 -0.1742
 8932SOL    HW138429   2.442   2.190   5.800 -0.9214 -1.0725 -2.3472
 8932SOL    HW238430   2.482   2.055   5.844 -0.1806  0.8780 -1.7299
 8933SOL     OW38431   0.028   4.016   8.467 -0.8317 -0.0585  0.0809
 8933SOL    HW138432   4.715   3.955   8.415  1.4809 -1.9451  0.0067
 8933SOL    HW238433   4.715   4.020   8.548 -0.2603 -0.0326  0.4469
 8934SOL     OW38434   4.008   2.777  14.208  0.2392 -0.0179  0.2280
 8934SOL    HW138435   4.025   2.864  14.243 -1.0846  0.9505 -1.5042
 8934SOL    HW238436   4.085   2.755  14.155 -0.1777  0.9901 -0.8046
 8935SOL     OW38437   4.390   0.462   9.376 -0.3904  0.4320 -0.0195
 8935SOL    HW138438   4.321   0.520   9.343  0.8674  1.1517 -1.3766
 8935SOL    HW238439   4.390   0.466   9.471  2.0673  1.6447 -0.0702
 8936SOL     OW38440   3.869   3.161   6.729 -0.2284 -0.4617 -0.4216
 8936SOL    HW138441   3.922   3.237   6.706  2.3364 -2.2687 -0.5236
 8936SOL    HW238442   3.789   3.207   6.754  0.7102  0.8307  0.2653
 8937SOL     OW38443   2.633   1.545   9.961  0.0735 -0.0138  0.1966
 8937SOL    HW138444   2.594   1.487  10.026  0.5019 -0.2515  0.2413
 8937SOL    HW238445   2.718   1.506   9.943  0.6542  0.4259  2.0943
 8938SOL     OW38446   3.050   1.203   2.427  0.2133  0.6044 -0.0858
 8938SOL    HW138447   3.134   1.188   2.385 -0.0664  1.3155 -0.9120
 8938SOL    HW238448   3.044   1.298   2.435 -1.0336  0.3717  1.7275
 8939SOL     OW38449   2.392   4.439   2.950 -0.0087 -0.1352 -0.1151
 8939SOL    HW138450   2.346   4.419   3.031 -1.1472 -0.3640 -0.8204
 8939SOL    HW238451   2.467   4.381   2.967 -0.6054 -1.2437 -1.2597
 8940SOL     OW38452   1.083   3.724   9.642  0.1925 -0.3482 -0.3761
 8940SOL    HW138453   1.056   3.636   9.665  0.0505  0.4425  2.4911
 8940SOL    HW238454   1.172   3.726   9.678  0.4423 -0.5420 -0.9890
 8941SOL     OW38455   4.087   0.734   4.107  0.7318 -0.5614  0.3651
 8941SOL    HW138456   4.128   0.768   4.027 -1.1559  0.9272  0.0325
 8941SOL    HW238457   4.094   0.810   4.165  0.0681  0.0148 -0.3036
 8942SOL     OW38458   2.784   1.429  13.143  0.5907  0.3261  0.6692
 8942SOL    HW138459   2.870   1.466  13.160  0.7945 -0.8220  2.1179
 8942SOL    HW238460   2.735   1.509  13.164 -3.0817 -1.8357  0.3256
 8943SOL     OW38461   4.186   0.430   9.580  0.0581  0.2237 -0.1432
 8943SOL    HW138462   4.191   0.517   9.621 -0.9379  0.1436  0.1328
 8943SOL    HW238463   4.101   0.399   9.608 -0.2726  2.5516  1.4602
 8944SOL     OW38464   2.497   0.924   1.956  0.3863 -0.4232 -0.0593
 8944SOL    HW138465   2.516   0.919   2.050  0.0456 -0.6788 -0.0050
 8944SOL    HW238466   2.436   0.998   1.953  2.4133  1.2496 -0.0707
 8945SOL     OW38467   1.388   2.275   0.724 -0.2874  0.2411  0.1419
 8945SOL    HW138468   1.308   2.264   0.776 -1.3216  2.7495 -0.9694
 8945SOL    HW238469   1.359   2.247   0.637  1.6488 -0.0809 -0.3979
 8946SOL     OW38470   3.201   2.790   5.240  0.3477 -0.1465  0.4345
 8946SOL    HW138471   3.121   2.740   5.223  1.6481 -0.7021 -4.1917
 8946SOL    HW238472   3.183   2.866   5.184 -1.1776  1.3079  2.9162
 8947SOL     OW38473   4.130   0.010   2.877 -0.2149 -0.5236  0.4185
 8947SOL    HW138474   4.162   4.712   2.959  1.3457  0.5609  0.2831
 8947SOL    HW238475   4.137   4.677   2.814 -1.9919  2.0221 -2.6565
 8948SOL     OW38476   4.670   4.066   7.079 -0.0762 -0.1692  0.3206
 8948SOL    HW138477   4.721   4.030   7.007 -0.8468  0.0244 -0.3138
 8948SOL    HW238478   0.006   4.108   7.124 -0.5298 -0.5242  1.4021
 8949SOL     OW38479   0.464   3.397   7.005  0.1104  0.5696 -0.1482
 8949SOL    HW138480   0.539   3.383   7.063 -0.3169 -0.5784  0.1377
 8949SOL    HW238481   0.498   3.363   6.923 -1.9371 -0.5297 -0.5406
 8950SOL     OW38482   3.329   1.095   9.960  0.3708  0.3042 -0.4637
 8950SOL    HW138483   3.365   1.025  10.015  0.4000 -0.8429 -1.9380
 8950SOL    HW238484   3.305   1.167  10.018 -1.0233 -1.5302  1.2371
 8951SOL     OW38485   4.018   3.953  13.351 -0.5325  0.0364  0.1049
 8951SOL    HW138486   4.084   4.012  13.315 -0.1076 -0.0092  0.8213
 8951SOL    HW238487   4.002   3.996  13.434 -3.9499 -2.7122  0.8798
 8952SOL     OW38488   4.241   0.623   5.797 -0.3517  0.3915  0.0863
 8952SOL    HW138489   4.266   0.570   5.721 -0.6619  0.6734 -0.2199
 8952SOL    HW238490   4.294   0.592   5.870 -0.4710  0.0660  0.0349
 8953SOL     OW38491   0.028   1.420   5.067 -0.2412 -0.1870  0.0490
 8953SOL    HW138492   0.049   1.356   5.135 -0.3897  0.7950  1.0392
 8953SOL    HW238493   0.115   1.423   5.027  0.1951 -3.1301  0.7726
 8954SOL     OW38494   3.894   4.041   7.858 -0.0679  0.1981  0.0604
 8954SOL    HW138495   3.831   4.010   7.794  1.4357 -0.4808 -1.0812
 8954SOL    HW238496   3.843   4.011   7.934 -1.7173  0.3509 -0.9853
 8955SOL     OW38497   2.525   2.323  17.275  0.1170 -0.0830 -0.7796
 8955SOL    HW138498   2.495   2.264  17.206  0.2118 -0.3195 -0.6193
 8955SOL    HW238499   2.618   2.324  17.252  0.4465 -1.4086  0.5104
 8956SOL     OW38500   3.455   1.992   2.946 -0.2951 -0.0478 -0.2603
 8956SOL    HW138501   3.438   1.899   2.932  1.2427 -0.4702  0.7298
 8956SOL    HW238502   3.511   1.998   3.022  0.8486  3.1757 -1.3602
 8957SOL     OW38503   0.782   0.649  13.841 -0.6512 -0.2709 -0.3293
 8957SOL    HW138504   0.717   0.615  13.779  0.1408 -1.2658 -0.6106
 8957SOL    HW238505   0.730   0.675  13.917  2.4976 -0.3883  1.8605
 8958SOL     OW38506   0.209   1.565  15.758 -0.7450  0.5657  1.0086
 8958SOL    HW138507   0.272   1.627  15.722 -0.5276 -0.3645 -0.1765
 8958SOL    HW238508   0.137   1.580  15.697 -1.1077  0.5976  1.4434
 8959SOL     OW38509   3.570   1.334  10.302 -0.1811 -0.0245  0.0589
 8959SOL    HW138510   3.603   1.378  10.224  2.2221 -1.7331  0.1119
 8959SOL    HW238511   3.479   1.322  10.277  0.1627 -1.8522 -0.2820
 8960SOL     OW38512   0.230   1.973  14.671  0.4463  0.9675 -0.0081
 8960SOL    HW138513   0.212   1.884  14.642 -1.8155  1.6067 -0.5684
 8960SOL    HW238514   0.247   2.011  14.584 -0.1639  2.2412  0.4256
 8961SOL     OW38515   3.143   3.444   7.083  0.1765 -0.0753 -0.5284
 8961SOL    HW138516   3.173   3.354   7.073 -1.0374 -0.6149  0.6592
 8961SOL    HW238517   3.061   3.435   7.133 -0.9991  0.0833 -2.4122
 8962SOL     OW38518   2.648   2.667  15.279  0.6622  0.0340  0.6889
 8962SOL    HW138519   2.572   2.667  15.221  0.4855  0.8376  0.9289
 8962SOL    HW238520   2.639   2.757  15.310  3.1860  1.0109 -1.4058
 8963SOL     OW38521   4.712   0.324   2.533  0.2436 -0.6468  0.4652
 8963SOL    HW138522   4.687   0.355   2.446  2.4536 -0.7560 -0.2177
 8963SOL    HW238523   4.632   0.290   2.574 -0.0025 -0.2438  0.3167
 8964SOL     OW38524   4.268   4.215   2.087 -0.6027  0.2271 -0.3079
 8964SOL    HW138525   4.270   4.309   2.107  0.5379 -0.0371  0.7756
 8964SOL    HW238526   4.312   4.174   2.161 -2.9448  2.2380  2.2313
 8965SOL     OW38527   3.884   3.599   4.525 -0.4899 -0.6734  0.1805
 8965SOL    HW138528   3.963   3.647   4.499 -0.2314  0.2157  2.5950
 8965SOL    HW238529   3.851   3.580   4.438  2.6565  3.6638 -1.9792
 8966SOL     OW38530   1.279   2.312  15.175  0.0473 -0.6257  0.1312
 8966SOL    HW138531   1.239   2.250  15.114 -0.8479 -0.0084  0.0819
 8966SOL    HW238532   1.353   2.324  15.116 -0.2589  0.2736 -0.0684
 8967SOL     OW38533   3.126   3.786   3.216 -0.4326  0.1769 -0.1503
 8967SOL    HW138534   3.154   3.698   3.191  0.4173 -0.2044  2.1184
 8967SOL    HW238535   3.031   3.772   3.220 -0.7781  2.0542 -1.9978
 8968SOL     OW38536   1.060   2.688   6.326  0.2531 -0.0876  0.2519
 8968SOL    HW138537   1.104   2.719   6.247 -1.3145  0.4784 -0.3842
 8968SOL    HW238538   1.127   2.719   6.387 -2.0629 -0.5103  3.0011
 8969SOL     OW38539   4.663   0.966   5.936  0.2843 -0.1011 -0.0862
 8969SOL    HW138540   4.613   0.887   5.914 -0.3272  0.7858 -1.8522
 8969SOL    HW238541   4.601   1.039   5.930 -0.3100 -0.5547  0.5341
 8970SOL     OW38542   0.354   3.141   8.954 -0.2533 -0.3844 -0.9580
 8970SOL    HW138543   0.408   3.216   8.931 -2.6502  1.8403  0.6149
 8970SOL    HW238544   0.282   3.154   8.892  1.7753  1.5533 -2.9273
 8971SOL     OW38545   3.326   3.900   1.906  0.3240 -0.4481  0.7908
 8971SOL    HW138546   3.239   3.907   1.868 -0.1937  2.1458  2.4753
 8971SOL    HW238547   3.374   3.974   1.870 -1.8503  1.3907  1.7231
 8972SOL     OW38548   3.755   0.743   7.305  0.1713 -0.5096  0.1546
 8972SOL    HW138549   3.743   0.665   7.251  3.0523 -0.6023 -0.3505
 8972SOL    HW238550   3.739   0.705   7.392  1.2650  2.6265  1.7168
 8973SOL     OW38551   4.547   1.525   0.668  0.2627 -0.3629  0.4880
 8973SOL    HW138552   4.535   1.434   0.697  1.5200 -1.0380 -1.1112
 8973SOL    HW238553   4.587   1.505   0.583  1.5438 -1.5577  1.3795
 8974SOL     OW38554   2.459   1.154  11.292  0.1199 -0.3749 -0.1495
 8974SOL    HW138555   2.373   1.125  11.264  0.3766  0.0522 -1.3846
 8974SOL    HW238556   2.432   1.226  11.349  0.2732  0.9686 -1.7801
 8975SOL     OW38557   2.698   3.758   7.228 -0.5092  0.3883  0.2274
 8975SOL    HW138558   2.772   3.787   7.176 -0.6512 -1.5143 -1.0533
 8975SOL    HW238559   2.681   3.835   7.282 -0.4524  1.2150 -0.9271
 8976SOL     OW38560   2.691   1.236   3.333  0.2909  0.1993  0.3245
 8976SOL    HW138561   2.597   1.241   3.314  0.1574 -1.3160  0.6253
 8976SOL    HW238562   2.727   1.304   3.275 -0.8393 -0.5515 -1.2687
 8977SOL     OW38563   3.774   1.831   1.768 -0.1712  0.0065 -0.4151
 8977SOL    HW138564   3.712   1.853   1.699  0.7111 -0.6544 -1.4288
 8977SOL    HW238565   3.721   1.762   1.808 -0.8118  0.5600 -0.3080
 8978SOL     OW38566   2.152   1.124   6.853 -0.1631  0.3877 -0.6577
 8978SOL    HW138567   2.103   1.076   6.920  1.0772  0.8145  0.5608
 8978SOL    HW238568   2.166   1.210   6.892 -0.0106  0.3755 -0.6854
 8979SOL     OW38569   0.367   0.618   7.656  0.7298 -0.1043 -0.3410
 8979SOL    HW138570   0.292   0.567   7.624  0.5654  1.6514 -2.7291
 8979SOL    HW238571   0.345   0.710   7.666 -1.6157 -0.4482 -2.2512
 8980SOL     OW38572   1.205   2.083   2.501  0.2530 -0.0024  0.4044
 8980SOL    HW138573   1.172   2.161   2.456 -0.2151  0.4356  1.5266
 8980SOL    HW238574   1.154   2.015   2.457 -0.4264  1.0328 -0.4402
 8981SOL     OW38575   0.278   3.808   2.057  0.6956 -0.1955 -0.0916
 8981SOL    HW138576   0.349   3.802   1.993 -0.1691  1.9788 -1.2510
 8981SOL    HW238577   0.247   3.718   2.053 -0.8898  0.2921  1.3474
 8982SOL     OW38578   1.989   0.278   3.474  0.4879 -0.0415  0.1119
 8982SOL    HW138579   1.898   0.253   3.459  0.1358  0.8402  0.8062
 8982SOL    HW238580   2.006   0.267   3.567  0.6072 -2.1461 -0.1476
 8983SOL     OW38581   2.579   3.746   0.422 -0.0335 -0.0376  0.0861
 8983SOL    HW138582   2.538   3.736   0.508 -0.4069 -2.3394 -0.3423
 8983SOL    HW238583   2.505   3.718   0.369 -0.2344 -0.5369  0.6294
 8984SOL     OW38584   2.409   1.072   0.037  0.1071 -0.0000  0.6208
 8984SOL    HW138585   2.352   1.122  17.731  1.7434  1.8943  0.6487
 8984SOL    HW238586   2.446   1.146   0.084 -1.8488  2.0828 -1.1196
 8985SOL     OW38587   1.038   4.130   9.327  0.0799 -0.0288  0.2893
 8985SOL    HW138588   0.983   4.123   9.249 -0.7904 -2.0634  1.0480
 8985SOL    HW238589   1.045   4.225   9.323  0.8304 -0.1897 -1.7486
 8986SOL     OW38590   3.583   0.472   3.537  0.4731 -0.0789 -0.3982
 8986SOL    HW138591   3.596   0.555   3.582  1.1524  0.6808 -1.9935
 8986SOL    HW238592   3.533   0.500   3.460  2.5692 -0.6698 -1.9737
 8987SOL     OW38593   0.780   0.855   2.757  0.5843  0.1601 -0.2419
 8987SOL    HW138594   0.841   0.919   2.794  0.0974  1.2253 -1.2922
 8987SOL    HW238595   0.697   0.900   2.746  1.2975  1.5776  0.2171
 8988SOL     OW38596   4.317   1.510   4.683  0.3099  0.3637  0.8721
 8988SOL    HW138597   4.329   1.465   4.600  0.4231  1.4006  0.3258
 8988SOL    HW238598   4.286   1.436   4.735  0.4023  0.6440  1.3270
 8989SOL     OW38599   0.978   2.997   5.593  0.3462  0.5085 -0.5832
 8989SOL    HW138600   1.070   2.970   5.589  0.3418 -0.0209  2.6341
 8989SOL    HW238601   0.993   3.045   5.675 -0.2603  0.6737 -0.5737
 8990SOL     OW38602   1.919   2.576   2.154  0.7414 -0.0468 -0.4228
 8990SOL    HW138603   1.921   2.490   2.196 -0.3254  0.9712  1.6895
 8990SOL    HW238604   2.007   2.584   2.117  1.0334 -0.8203  0.0916
 8991SOL     OW38605   2.347   1.193   5.258 -0.7002  0.4530 -0.0424
 8991SOL    HW138606   2.295   1.215   5.181  0.6263  0.4166 -0.9481
 8991SOL    HW238607   2.408   1.267   5.258  0.0378 -0.1667  1.5961
 8992SOL     OW38608   3.179   0.554   2.010  0.0891  0.7569  0.1107
 8992SOL    HW138609   3.210   0.612   2.079  0.9527  0.9130 -0.4055
 8992SOL    HW238610   3.094   0.525   2.043  1.3976 -1.9470  1.0700
 8993SOL     OW38611   4.114   0.387   1.890  0.0115  0.5263  0.2858
 8993SOL    HW138612   4.183   0.436   1.935 -0.5541  1.5882 -0.0182
 8993SOL    HW238613   4.036   0.426   1.930  0.4119  3.4449 -1.7941
 8994SOL     OW38614   2.233   4.356   4.366 -0.0298  0.8862  0.2790
 8994SOL    HW138615   2.254   4.263   4.376  0.1639  0.8709 -0.2648
 8994SOL    HW238616   2.276   4.391   4.444 -0.8233 -1.0811  1.6044
 8995SOL     OW38617   2.691   2.285   8.728  0.5138  0.1872 -0.0875
 8995SOL    HW138618   2.636   2.246   8.660  2.6324  0.0468 -1.7147
 8995SOL    HW238619   2.679   2.221   8.798 -2.1166  0.9083  0.1221
 8996SOL     OW38620   0.650   2.759   0.354 -0.1529 -0.1338 -0.1863
 8996SOL    HW138621   0.636   2.725   0.265 -0.7640 -1.9862  0.6369
 8996SOL    HW238622   0.651   2.685   0.414 -0.0730 -0.2730 -0.3596
 8997SOL     OW38623   2.736   3.183  15.269  0.8006 -0.6061 -0.4311
 8997SOL    HW138624   2.741   3.243  15.343 -0.2756 -0.7350 -0.2575
 8997SOL    HW238625   2.730   3.247  15.198 -2.1744 -1.6263 -1.0710
 8998SOL     OW38626   0.560   3.050   6.425  0.3738  0.0893  0.1547
 8998SOL    HW138627   0.601   3.045   6.512 -0.0960 -0.8703  0.3189
 8998SOL    HW238628   0.481   3.102   6.438  0.2707 -0.1780  0.6158
 8999SOL     OW38629   1.280   2.986   4.274  0.0419  0.6193  0.1443
 8999SOL    HW138630   1.314   2.901   4.302 -0.3814  0.4462  0.1327
 8999SOL    HW238631   1.346   3.045   4.237 -0.0384  0.9938  0.6042
 9000SOL     OW38632   1.198   2.635   9.182  0.0180 -0.6347  0.1806
 9000SOL    HW138633   1.106   2.619   9.205  0.5386 -1.7822  1.4652
 9000SOL    HW238634   1.215   2.561   9.124 -1.9309 -3.0839  2.7490
 9001SOL     OW38635   0.409   3.171   6.072 -0.4286  0.3523 -0.0389
 9001SOL    HW138636   0.502   3.150   6.060 -0.2070 -0.3126  2.9981
 9001SOL    HW238637   0.381   3.096   6.124  1.3095  0.9387  1.7396
 9002SOL     OW38638   1.004   0.446  16.648 -0.2619 -0.2232 -0.4989
 9002SOL    HW138639   1.089   0.411  16.674 -0.2493  0.1641 -0.0284
 9002SOL    HW238640   0.978   0.388  16.576 -2.1535 -2.2034  1.7522
 9003SOL     OW38641   3.879   2.558  16.738  0.1177 -0.7878 -0.6419
 9003SOL    HW138642   3.911   2.479  16.694  0.8857 -0.7535 -0.1469
 9003SOL    HW238643   3.833   2.603  16.668  0.4043 -0.2008 -0.4525
 9004SOL     OW38644   0.454   1.677   8.875  0.3104 -0.7878 -0.3424
 9004SOL    HW138645   0.385   1.685   8.808  0.1247  0.9663  0.0575
 9004SOL    HW238646   0.522   1.681   8.808  2.0765  1.6559  1.6200
 9005SOL     OW38647   0.082   0.694   8.418 -0.0050 -0.0565 -0.7446
 9005SOL    HW138648   0.021   0.658   8.354  0.2715  1.0190 -1.6013
 9005SOL    HW238649   0.169   0.668   8.387  0.3784  0.0940  0.1789
 9006SOL     OW38650   0.669   0.684   6.444 -0.4844  0.0016 -0.3981
 9006SOL    HW138651   0.636   0.698   6.355 -1.3442 -0.0728 -0.0916
 9006SOL    HW238652   0.723   0.763   6.446 -0.5250  0.0688 -2.1136
 9007SOL     OW38653   0.611   1.774  15.590  0.0367  0.1087 -0.4584
 9007SOL    HW138654   0.688   1.778  15.532 -0.9469  0.8331 -1.7271
 9007SOL    HW238655   0.582   1.688  15.560 -1.8964 -0.0064  1.7198
 9008SOL     OW38656   3.955   4.637   8.979  0.2848 -0.3253  0.0106
 9008SOL    HW138657   4.010   4.625   9.056 -1.6683  0.6404  1.5402
 9008SOL    HW238658   4.011   4.596   8.913  0.7243 -1.9340  1.3767
 9009SOL     OW38659   4.536   2.062  16.080 -0.1669 -0.1320 -0.1987
 9009SOL    HW138660   4.608   2.023  16.130  0.1458 -3.3545 -3.0832
 9009SOL    HW238661   4.526   2.150  16.115  0.9727  0.0859 -0.4137
 9010SOL     OW38662   1.944   2.716  14.194 -0.5541  0.8386  0.3304
 9010SOL    HW138663   1.854   2.745  14.178 -0.4056 -0.0023 -2.0885
 9010SOL    HW238664   1.969   2.678  14.109  0.7253 -1.0668  1.5692
 9011SOL     OW38665   2.144   1.915   7.171 -0.1109  0.4468 -0.2897
 9011SOL    HW138666   2.212   1.904   7.104  0.9688  0.3452  0.8062
 9011SOL    HW238667   2.199   1.940   7.245  0.5074 -1.0437 -0.2256
 9012SOL     OW38668   4.723   1.267   8.425 -0.5028  0.5473 -0.1859
 9012SOL    HW138669   4.698   1.195   8.368  3.2579 -0.7770 -0.1334
 9012SOL    HW238670   4.724   1.228   8.513 -2.1551  0.7922 -0.0701
 9013SOL     OW38671   4.021   1.385   3.194  0.3284  0.1822 -0.2723
 9013SOL    HW138672   4.047   1.293   3.192 -1.2923 -0.2051 -2.8605
 9013SOL    HW238673   3.978   1.401   3.110 -0.2371  0.6047  0.0926
 9014SOL     OW38674   2.485   4.709   2.543  0.3071 -0.7572  0.3763
 9014SOL    HW138675   2.575   0.003   2.551  0.2574 -0.3826 -0.6369
 9014SOL    HW238676   2.484   4.641   2.610  1.1097  0.1295  1.2778
 9015SOL     OW38677   1.316   2.234   6.353  0.7573  0.3102 -0.6865
 9015SOL    HW138678   1.365   2.205   6.429  1.2719  1.6940 -0.4968
 9015SOL    HW238679   1.230   2.203   6.382  0.3668 -0.1108 -2.2903
 9016SOL     OW38680   4.207   0.177   2.585 -0.4436  0.0288  0.3172
 9016SOL    HW138681   4.186   0.247   2.524 -0.1695 -0.1928 -0.0296
 9016SOL    HW238682   4.190   0.218   2.670 -1.9788  2.1238 -1.0262
 9017SOL     OW38683   3.332   1.956   7.067 -0.2299  0.6793 -0.1867
 9017SOL    HW138684   3.423   1.969   7.096  0.5066 -0.0932 -2.1620
 9017SOL    HW238685   3.329   1.917   6.980 -0.9487 -0.3372  0.2856
 9018SOL     OW38686   0.198   1.132   2.464  0.0695 -0.0339 -0.3447
 9018SOL    HW138687   0.125   1.187   2.435 -0.6559 -0.2572  1.0343
 9018SOL    HW238688   0.272   1.193   2.458 -0.6972  1.1312  2.1698
 9019SOL     OW38689   0.814   1.274  15.850  0.9703 -0.4909 -0.0476
 9019SOL    HW138690   0.733   1.231  15.878  1.6965 -0.5804  1.8879
 9019SOL    HW238691   0.817   1.343  15.916  0.9546  1.1974 -1.8015
 9020SOL     OW38692   4.703   1.677  16.096  0.0376  0.1372  0.4059
 9020SOL    HW138693   4.640   1.696  16.166 -1.1179  1.3405 -0.9567
 9020SOL    HW238694   4.721   1.769  16.074  0.0006 -0.3456 -1.6042
 9021SOL     OW38695   3.038   0.653  14.993  0.3044 -0.0175  0.1675
 9021SOL    HW138696   3.102   0.591  14.956  1.6607  0.7052  1.3350
 9021SOL    HW238697   3.099   0.698  15.051 -2.3823  1.4545  1.8263
 9022SOL     OW38698   1.469   0.755   5.056 -0.5594  0.6155  0.2733
 9022SOL    HW138699   1.543   0.714   5.012 -0.9231  1.2903 -0.9667
 9022SOL    HW238700   1.417   0.679   5.081 -0.1305  0.3028  0.2049
 9023SOL     OW38701   1.974   3.151   3.802 -0.5409  0.1228  0.1658
 9023SOL    HW138702   1.909   3.221   3.809 -2.5247 -1.6282 -0.6883
 9023SOL    HW238703   1.917   3.074   3.810 -1.7515  1.0349  0.3546
 9024SOL     OW38704   0.325   3.982   0.907 -0.0551 -0.0947  0.0441
 9024SOL    HW138705   0.375   4.062   0.926 -0.7884 -0.0892  1.9639
 9024SOL    HW238706   0.385   3.916   0.873  0.7255 -0.5434  2.2502
 9025SOL     OW38707   2.317   3.100  16.412 -0.0723  0.2650 -0.4770
 9025SOL    HW138708   2.358   3.185  16.425 -2.1946  1.1571  0.2674
 9025SOL    HW238709   2.365   3.042  16.472  0.4333  2.1745  0.9416
 9026SOL     OW38710   3.378   0.050  14.800 -0.6475  0.3488 -0.1027
 9026SOL    HW138711   3.461   0.006  14.783 -0.6976 -0.1618  0.9320
 9026SOL    HW238712   3.407   0.117  14.863  0.5647  0.1724 -0.4792
 9027SOL     OW38713   0.305   4.294   4.130 -0.3045  0.0486  0.2022
 9027SOL    HW138714   0.215   4.282   4.100  0.0179 -1.8175 -0.0286
 9027SOL    HW238715   0.319   4.387   4.113 -2.4486  0.3100 -0.0639
 9028SOL     OW38716   4.320   3.367  13.350  0.5840 -0.5664 -0.4500
 9028SOL    HW138717   4.308   3.344  13.442  0.6527 -0.6952 -0.4734
 9028SOL    HW238718   4.411   3.394  13.358  0.5260 -0.3192 -0.6222
 9029SOL     OW38719   3.539   0.683  10.577  0.3320  0.2334  0.5753
 9029SOL    HW138720   3.530   0.690  10.672 -0.0624 -1.4722  0.6582
 9029SOL    HW238721   3.577   0.767  10.553  3.4775 -2.2181 -2.8979
 9030SOL     OW38722   3.240   2.925   1.131  0.3048  0.1787 -0.6059
 9030SOL    HW138723   3.310   2.989   1.141 -0.2015  0.6491 -0.0393
 9030SOL    HW238724   3.287   2.841   1.140 -2.1221 -0.9030  2.2224
 9031SOL     OW38725   0.991   1.251   4.105 -0.1118  0.9379 -0.3875
 9031SOL    HW138726   1.025   1.327   4.059  1.7435  0.7504  0.6897
 9031SOL    HW238727   0.936   1.297   4.170  1.4011 -1.1642  2.3742
 9032SOL     OW38728   0.192   3.276  12.304 -0.6389 -0.3716 -0.3009
 9032SOL    HW138729   0.276   3.263  12.350 -0.8369  0.1228  0.1998
 9032SOL    HW238730   0.225   3.320  12.226  2.3346 -0.3957  0.9096
 9033SOL     OW38731   2.341   2.794  12.616 -0.1483  0.2246  0.4676
 9033SOL    HW138732   2.390   2.755  12.688 -1.2211  0.7643  1.4868
 9033SOL    HW238733   2.398   2.866  12.589  0.4800 -0.2007  0.6651
 9034SOL     OW38734   0.789   3.475   9.558  0.1837  0.0264 -0.0446
 9034SOL    HW138735   0.709   3.522   9.535  0.4508  0.6535  0.3053
 9034SOL    HW238736   0.828   3.517   9.635 -1.8238 -0.4582  1.2507
 9035SOL     OW38737   0.111   1.589   9.734 -0.1307  0.5370  0.3059
 9035SOL    HW138738   0.050   1.635   9.677  1.8295  1.8367 -0.7476
 9035SOL    HW238739   0.114   1.644   9.813 -0.1088 -0.2896  0.8896
 9036SOL     OW38740   3.470   4.114   1.809 -0.0437  0.5466 -0.0749
 9036SOL    HW138741   3.556   4.144   1.841 -0.8979  2.1968  0.6436
 9036SOL    HW238742   3.455   4.164   1.729  2.3448  1.3492 -0.0234
 9037SOL     OW38743   2.966   2.125  15.919  0.3504  0.3421 -0.1509
 9037SOL    HW138744   2.958   2.191  15.988 -1.4590 -0.4751  0.4206
 9037SOL    HW238745   2.942   2.055  15.979  1.5374 -0.0916 -0.1925
 9038SOL     OW38746   0.922   0.965   9.480 -0.2839  0.0852  0.0663
 9038SOL    HW138747   0.997   0.974   9.539  0.5834 -2.0654 -0.7254
 9038SOL    HW238748   0.954   1.032   9.420 -0.8624  1.7746  1.6488
 9039SOL     OW38749   4.020   3.565   8.309 -0.2096 -0.2815  0.1283
 9039SOL    HW138750   4.074   3.643   8.301  0.6642 -1.3231 -4.0332
 9039SOL    HW238751   3.937   3.611   8.317 -1.2016 -2.0098 -0.1536
 9040SOL     OW38752   1.548   0.186   7.034 -0.9679  0.1713  0.1062
 9040SOL    HW138753   1.478   0.251   7.027 -1.6529 -0.8315 -2.0813
 9040SOL    HW238754   1.490   0.115   7.061  0.8034 -1.6533 -0.8912
 9041SOL     OW38755   3.253   3.386  14.786  0.1504  0.4517  0.2056
 9041SOL    HW138756   3.218   3.319  14.727 -0.0684  1.7874 -1.1897
 9041SOL    HW238757   3.247   3.469  14.739 -0.1187  0.5785  0.4640
 9042SOL     OW38758   3.810   3.669  13.471  0.9511  0.4348 -0.1012
 9042SOL    HW138759   3.902   3.659  13.497  0.9267  1.9273  0.5720
 9042SOL    HW238760   3.774   3.722  13.542  0.4122 -1.9202  1.3448
 9043SOL     OW38761   2.483   3.223   5.974  0.3115  0.3179  0.2888
 9043SOL    HW138762   2.400   3.265   5.997  0.4684  0.8041 -0.0297
 9043SOL    HW238763   2.543   3.298   5.979 -2.7102  2.7550  0.1621
 9044SOL     OW38764   2.222   0.920   7.190 -0.2957  0.1423 -0.3602
 9044SOL    HW138765   2.232   0.845   7.131 -1.5897 -0.3759  0.1040
 9044SOL    HW238766   2.141   0.961   7.161  0.8151  1.3874 -1.7560
 9045SOL     OW38767   3.806   3.194   5.775 -0.7806 -0.1568 -0.0468
 9045SOL    HW138768   3.872   3.218   5.711 -0.7184  0.2822  0.1833
 9045SOL    HW238769   3.832   3.105   5.799 -1.2569 -0.4722 -0.6908
 9046SOL     OW38770   4.358   0.916  10.859  0.3766  0.8599  0.6828
 9046SOL    HW138771   4.364   0.991  10.918 -0.7515  1.0726  0.5269
 9046SOL    HW238772   4.441   0.875  10.883  0.7199  0.6258 -0.8772
 9047SOL     OW38773   0.221   1.456   9.508  0.6667  0.6081  0.0634
 9047SOL    HW138774   0.298   1.407   9.536 -2.1199 -2.7938  1.7343
 9047SOL    HW238775   0.194   1.511   9.581 -2.2921  0.0373 -0.6007
 9048SOL     OW38776   1.695   0.063   4.169 -0.1284 -0.0549 -0.0927
 9048SOL    HW138777   1.652   0.148   4.175 -1.5136 -0.8294  0.7544
 9048SOL    HW238778   1.669   0.039   4.080 -0.4409 -0.1988  0.0376
 9049SOL     OW38779   0.244   3.484   6.574 -0.1229 -0.1721  0.9746
 9049SOL    HW138780   0.245   3.485   6.478  0.8894  1.2970  1.0050
 9049SOL    HW238781   0.156   3.446   6.580 -0.7299  1.1715  0.6787
 9050SOL     OW38782   2.016   3.711   4.315  0.1129  0.2778 -0.4762
 9050SOL    HW138783   2.025   3.806   4.314 -2.8298  0.5675  1.1445
 9050SOL    HW238784   1.929   3.697   4.278  1.0690  1.0297 -2.9447
 9051SOL     OW38785   3.025   1.129   7.258 -0.6915  0.2401  0.2157
 9051SOL    HW138786   2.991   1.057   7.204  2.0525 -0.3876 -0.6906
 9051SOL    HW238787   2.986   1.204   7.212 -2.9880  0.2973  2.3003
 9052SOL     OW38788   3.014   2.153   1.906 -0.1628 -0.5952  0.3481
 9052SOL    HW138789   2.940   2.148   1.845 -1.3192 -1.7637  1.8353
 9052SOL    HW238790   2.966   2.188   1.981 -0.6741 -1.2491  0.3284
 9053SOL     OW38791   1.668   3.493   6.754  0.3081 -1.0775 -0.6319
 9053SOL    HW138792   1.622   3.507   6.837 -1.2151 -0.3747 -1.5978
 9053SOL    HW238793   1.721   3.573   6.754  0.7087 -1.3451  0.1354
 9054SOL     OW38794   1.806   1.896   7.615 -0.4098 -0.0032  0.3836
 9054SOL    HW138795   1.872   1.914   7.549  2.6586 -3.1907  2.5684
 9054SOL    HW238796   1.772   1.980   7.647 -0.4579 -1.1945  3.4632
 9055SOL     OW38797   3.543   1.779   9.389  0.3827  0.2685  0.4779
 9055SOL    HW138798   3.549   1.875   9.389 -0.9807  0.3496 -1.4428
 9055SOL    HW238799   3.458   1.763   9.348  0.3639 -0.8549  0.9502
 9056SOL     OW38800   2.846   4.256   6.049 -0.5046  0.6076 -0.7822
 9056SOL    HW138801   2.858   4.334   6.103  1.5716  0.3097 -0.8093
 9056SOL    HW238802   2.752   4.251   6.030  0.1260 -1.8791 -3.3629
 9057SOL     OW38803   0.364   3.433   9.842 -0.4937  0.3168  0.3671
 9057SOL    HW138804   0.424   3.360   9.827 -1.0899  0.1297 -1.0697
 9057SOL    HW238805   0.303   3.420   9.769  1.2318  1.0321 -1.2162
 9058SOL     OW38806   4.519   1.945   2.112 -0.1631 -0.2258 -0.8975
 9058SOL    HW138807   4.496   2.029   2.151  2.5297 -0.0222  0.2070
 9058SOL    HW238808   4.613   1.954   2.100  0.0562 -1.1182  0.1638
 9059SOL     OW38809   0.287   2.027   8.890 -0.0334 -0.2251  0.5845
 9059SOL    HW138810   0.284   2.078   8.808 -1.9240 -1.0053  0.1924
 9059SOL    HW238811   0.198   1.994   8.888 -1.2920  3.1843 -1.2836
 9060SOL     OW38812   1.801   3.816   5.640 -0.3415 -0.3192  0.7127
 9060SOL    HW138813   1.706   3.808   5.637 -0.4560  1.2398  0.2071
 9060SOL    HW238814   1.813   3.892   5.583  0.9276 -0.6759  0.4807
 9061SOL     OW38815   4.228   0.037   7.219  0.4514  0.1006  0.1288
 9061SOL    HW138816   4.293   0.061   7.285  1.6006  0.0888 -0.9981
 9061SOL    HW238817   4.202   4.686   7.242  1.9084  0.3263  2.6945
 9062SOL     OW38818   2.315   3.268   2.725 -0.3978  0.2887 -0.1994
 9062SOL    HW138819   2.369   3.308   2.658  0.5165  0.3534  0.5757
 9062SOL    HW238820   2.290   3.193   2.671  0.3538 -2.2195  2.8706
 9063SOL     OW38821   0.413   1.824   0.480  0.2734 -0.1808 -0.1414
 9063SOL    HW138822   0.345   1.882   0.447  0.6003  0.4182  0.2392
 9063SOL    HW238823   0.446   1.877   0.552 -3.7207  0.8635  0.9016
 9064SOL     OW38824   2.720   2.287  16.905 -0.6716  0.2228 -0.1942
 9064SOL    HW138825   2.656   2.218  16.887 -1.4488  0.8685  0.1042
 9064SOL    HW238826   2.748   2.268  16.995 -1.0718 -1.5507 -0.4515
 9065SOL     OW38827   1.119   1.920   7.425 -0.2017 -0.6165 -0.1959
 9065SOL    HW138828   1.123   1.982   7.353 -2.2547  0.5087  0.6815
 9065SOL    HW238829   1.026   1.906   7.408  0.0034  0.5933 -2.3046
 9066SOL     OW38830   0.193   3.801   1.300  0.0375  0.7920  0.5019
 9066SOL    HW138831   0.119   3.857   1.324 -1.0596 -1.2989  2.0291
 9066SOL    HW238832   0.257   3.870   1.283  2.0749 -1.5189 -1.1762
 9067SOL     OW38833   0.741   4.345  17.455 -0.8167 -0.0786  0.0752
 9067SOL    HW138834   0.791   4.268  17.483 -2.1564 -1.9205 -2.5713
 9067SOL    HW238835   0.648   4.325  17.468 -1.3057  1.7677 -0.6746
 9068SOL     OW38836   0.545   1.764   5.671 -0.1850  0.2705  0.9311
 9068SOL    HW138837   0.461   1.799   5.701  0.0281  2.1356 -0.6099
 9068SOL    HW238838   0.523   1.671   5.680  2.0967 -0.5197 -1.7946
 9069SOL     OW38839   2.978   0.350   6.227 -0.1871 -1.0285 -0.3073
 9069SOL    HW138840   2.896   0.325   6.269 -1.6050  1.3068 -1.6291
 9069SOL    HW238841   3.048   0.336   6.290 -1.2718  0.0715  1.1406
 9070SOL     OW38842   2.466   2.691   4.952 -0.0260  0.4242 -0.3020
 9070SOL    HW138843   2.428   2.662   5.035 -0.6984  1.6077 -0.1987
 9070SOL    HW238844   2.447   2.785   4.957 -1.3742  0.0291  1.9995
 9071SOL     OW38845   2.290   2.134   3.121 -0.3744  0.2250 -0.1835
 9071SOL    HW138846   2.286   2.157   3.028 -1.1710 -1.7922 -0.6599
 9071SOL    HW238847   2.265   2.208   3.176  2.5352  0.9794  0.0931
 9072SOL     OW38848   1.176   3.500  11.222 -0.5577 -0.2543  0.3017
 9072SOL    HW138849   1.139   3.498  11.310  0.2949 -1.4946  0.6267
 9072SOL    HW238850   1.255   3.447  11.227  0.0055  0.4545 -0.8452
 9073SOL     OW38851   4.638   2.830  12.914 -0.1263  0.1118 -0.2261
 9073SOL    HW138852   4.732   2.834  12.898  0.2635 -1.9462  1.6645
 9073SOL    HW238853   4.632   2.915  12.958  0.9933 -0.4925  1.0997
 9074SOL     OW38854   0.462   0.298   5.066  0.2706  0.4368  0.1366
 9074SOL    HW138855   0.530   0.318   5.002 -1.3938 -0.2178 -1.8561
 9074SOL    HW238856   0.390   0.347   5.026  2.5555  4.5162  1.0632
 9075SOL     OW38857   4.656   3.503   0.442 -0.1695  0.0950 -0.1204
 9075SOL    HW138858   4.701   3.420   0.428  0.0485 -0.3180  2.9934
 9075SOL    HW238859   4.659   3.544   0.355  1.1980  0.8485  0.2842
 9076SOL     OW38860   4.291   2.346   4.199 -0.3632 -0.3104 -0.0037
 9076SOL    HW138861   4.217   2.351   4.259 -0.7239 -0.7048 -0.4126
 9076SOL    HW238862   4.245   2.372   4.119 -1.9660 -1.7094  0.4457
 9077SOL     OW38863   2.359   1.726  13.187  0.5940 -0.7113 -0.1244
 9077SOL    HW138864   2.271   1.700  13.216  0.8075 -1.7597 -0.4221
 9077SOL    HW238865   2.357   1.731  13.092  0.2353 -0.1562 -0.0868
 9078SOL     OW38866   2.892   2.707  15.145 -0.0313  0.3381  0.9923
 9078SOL    HW138867   2.883   2.802  15.140 -3.9076 -0.1593 -1.2282
 9078SOL    HW238868   2.814   2.679  15.191  0.2577  1.8040  2.3731
 9079SOL     OW38869   0.994   1.569   2.777  0.4208 -0.3101  0.4513
 9079SOL    HW138870   0.955   1.610   2.854 -0.0053  2.0736 -1.0498
 9079SOL    HW238871   0.975   1.624   2.701 -2.1546  0.6018  1.7833
 9080SOL     OW38872   3.205   2.086   7.258  0.5031 -0.0502 -0.3475
 9080SOL    HW138873   3.242   2.050   7.177 -0.4311 -1.7497 -0.0085
 9080SOL    HW238874   3.121   2.044   7.240 -0.5748  1.3600  1.4847
 9081SOL     OW38875   1.913   3.511   9.460 -0.2683  0.2074  0.0091
 9081SOL    HW138876   1.848   3.515   9.390 -1.6842  1.5460  1.4081
 9081SOL    HW238877   1.929   3.417   9.467 -1.6256 -0.0229 -0.1832
 9082SOL     OW38878   2.327   1.007   8.172 -0.4949  0.0353 -0.5640
 9082SOL    HW138879   2.288   1.078   8.223  0.1488  0.1870 -0.2758
 9082SOL    HW238880   2.365   1.050   8.095  2.0210  1.0699  1.2284
 9083SOL     OW38881   3.869   4.735   5.533  0.0149 -0.3666 -0.3670
 9083SOL    HW138882   3.852   4.688   5.614  1.2186 -1.4310 -0.7283
 9083SOL    HW238883   3.782   4.731   5.494 -0.6840 -1.4875  1.3194
 9084SOL     OW38884   4.435   4.662   6.562 -0.2463 -0.1433  0.1260
 9084SOL    HW138885   4.466   4.607   6.634 -2.0723 -2.5369 -0.9412
 9084SOL    HW238886   4.380   4.606   6.508 -0.0994  1.5035 -1.7318
 9085SOL     OW38887   0.724   2.959   3.938 -0.0417  0.7153  0.3513
 9085SOL    HW138888   0.672   2.881   3.917  0.5314  0.5292 -0.3627
 9085SOL    HW238889   0.795   2.963   3.875 -0.9781  0.0677 -0.7506
 9086SOL     OW38890   2.889   2.422   6.275  0.5941  0.7892 -0.5014
 9086SOL    HW138891   2.895   2.340   6.324  1.5352  1.1879  0.0425
 9086SOL    HW238892   2.843   2.481   6.335  2.5164  0.6052  1.1318
 9087SOL     OW38893   0.703   0.522   5.543 -0.2747  0.2672 -0.1299
 9087SOL    HW138894   0.764   0.591   5.517  0.2377 -0.7750 -1.6801
 9087SOL    HW238895   0.742   0.442   5.508 -1.8452  1.2069 -4.0012
 9088SOL     OW38896   0.095   3.224   2.512 -0.1286  0.0280 -0.2456
 9088SOL    HW138897   0.119   3.225   2.604 -1.3649 -0.2482  0.0815
 9088SOL    HW238898   0.111   3.132   2.490  2.8241 -0.1141  2.4952
 9089SOL     OW38899   3.473   3.610   0.346 -0.0818 -0.3721  0.7178
 9089SOL    HW138900   3.556   3.585   0.386 -0.4331 -3.0416 -0.2634
 9089SOL    HW238901   3.445   3.528   0.307 -1.4380  0.1370  0.5988
 9090SOL     OW38902   0.950   2.630   4.249 -0.1636 -0.5234  0.3866
 9090SOL    HW138903   0.943   2.713   4.297 -0.1574 -0.1353 -0.2814
 9090SOL    HW238904   0.919   2.655   4.162  0.6234 -0.5133  0.1108
 9091SOL     OW38905   4.011   1.924   4.864 -0.2013 -0.1958  0.1516
 9091SOL    HW138906   4.057   1.965   4.937  1.0496  1.4723 -1.5425
 9091SOL    HW238907   3.927   1.906   4.904 -0.1609 -0.3715  0.1547
 9092SOL     OW38908   4.324   2.375   1.674 -0.3470 -0.4212 -0.1620
 9092SOL    HW138909   4.321   2.316   1.750  0.0538  0.5761  0.6161
 9092SOL    HW238910   4.369   2.314   1.616  2.0893  1.1564  0.1078
 9093SOL     OW38911   1.204   2.763   6.099 -0.4998 -0.4430  0.1811
 9093SOL    HW138912   1.269   2.706   6.058 -0.6843  0.1794 -0.9521
 9093SOL    HW238913   1.140   2.772   6.029  2.5839  2.2575 -2.2841
 9094SOL     OW38914   1.808   4.522   4.598  0.3010  0.4577 -0.5540
 9094SOL    HW138915   1.752   4.449   4.624  1.1203  0.9907  2.6551
 9094SOL    HW238916   1.790   4.527   4.504 -1.9843  1.9570 -0.0536
 9095SOL     OW38917   0.346   0.536   0.985  0.4799  0.2153  0.6100
 9095SOL    HW138918   0.321   0.541   0.893  1.6554 -0.1351  0.2760
 9095SOL    HW238919   0.273   0.480   1.010  1.5891 -1.1228  0.8189
 9096SOL     OW38920   2.182   4.705   2.262  0.0659 -0.0289 -0.5414
 9096SOL    HW138921   2.240   0.042   2.269  1.2066 -1.0031  0.5391
 9096SOL    HW238922   2.253   4.650   2.229 -0.4791 -1.0472  0.0023
 9097SOL     OW38923   1.407   4.491   3.295 -0.4170  0.3052 -0.6675
 9097SOL    HW138924   1.462   4.480   3.217  0.6090 -0.5954  0.1853
 9097SOL    HW238925   1.341   4.557   3.272 -0.3626  0.7091  0.3275
 9098SOL     OW38926   3.036   0.790   7.425  0.6572 -0.0683 -0.1812
 9098SOL    HW138927   3.009   0.819   7.512 -0.7530 -0.5224 -0.4761
 9098SOL    HW238928   3.085   0.711   7.448  0.2040 -0.0858  0.7313
 9099SOL     OW38929   2.963   0.649   2.493  0.6078 -0.0768 -0.0684
 9099SOL    HW138930   2.925   0.730   2.459 -2.6244 -0.7110  2.1145
 9099SOL    HW238931   3.057   0.667   2.490  0.1475  2.1907 -0.4875
 9100SOL     OW38932   0.361   1.458  14.641  0.4663  0.5596 -0.3897
 9100SOL    HW138933   0.338   1.424  14.555 -1.3637 -3.3357  1.6039
 9100SOL    HW238934   0.361   1.553  14.627  0.7414  0.6536  0.2438
 9101SOL     OW38935   3.685   1.608   6.533  0.1170 -0.3311  0.4441
 9101SOL    HW138936   3.654   1.519   6.549  0.2444 -0.5534 -0.4933
 9101SOL    HW238937   3.711   1.627   6.622 -0.5084  2.0602  0.1032
 9102SOL     OW38938   3.186   4.211   2.136 -0.3417  0.3631 -0.0899
 9102SOL    HW138939   3.153   4.213   2.046  2.4471  3.0635 -1.0533
 9102SOL    HW238940   3.153   4.127   2.168 -1.5247  0.4030 -1.2125
 9103SOL     OW38941   0.803   3.663  10.151 -0.0272 -0.7499 -0.4100
 9103SOL    HW138942   0.843   3.671  10.065  2.5086 -1.1110  0.7595
 9103SOL    HW238943   0.829   3.753  10.171 -0.4702 -0.7377  0.1092
 9104SOL     OW38944   3.430   1.123   7.879  0.2433  0.5555  0.1810
 9104SOL    HW138945   3.436   1.210   7.919  0.2722  0.1531  1.0560
 9104SOL    HW238946   3.510   1.082   7.912 -1.7648 -3.3723  0.2385
 9105SOL     OW38947   0.185   2.365   4.324 -0.0955 -0.2335  0.3069
 9105SOL    HW138948   0.135   2.432   4.277 -0.1961  1.2182  2.4353
 9105SOL    HW238949   0.260   2.417   4.353 -0.4386  0.6980 -0.4721
 9106SOL     OW38950   3.439   0.496   1.537  0.1919 -0.2984  0.7712
 9106SOL    HW138951   3.381   0.516   1.611  0.0324 -1.1677  0.8705
 9106SOL    HW238952   3.376   0.451   1.481 -1.3915  1.5123  1.0966
 9107SOL     OW38953   2.412   3.594   1.535  0.4186 -0.0944  0.0881
 9107SOL    HW138954   2.477   3.659   1.562 -0.3774  0.0424  1.6290
 9107SOL    HW238955   2.329   3.641   1.533 -0.0623 -0.9332  0.5097
 9108SOL     OW38956   2.639   0.882   6.030 -0.7219  0.5372 -0.2368
 9108SOL    HW138957   2.648   0.950   5.963 -0.2141  1.3642  0.6745
 9108SOL    HW238958   2.730   0.863   6.052 -0.6378 -0.2377 -1.2278
 9109SOL     OW38959   2.169   4.346   7.727  0.1178 -0.3803 -0.0054
 9109SOL    HW138960   2.209   4.423   7.688 -0.9859 -0.5233 -1.4053
 9109SOL    HW238961   2.220   4.346   7.809  1.2353 -0.6321 -0.7036
 9110SOL     OW38962   2.123   4.273  14.301  0.1853  0.2979  0.2975
 9110SOL    HW138963   2.076   4.281  14.219 -0.7171 -2.1820  0.5823
 9110SOL    HW238964   2.077   4.330  14.362 -2.0701  2.9600 -3.9377
 9111SOL     OW38965   2.366   0.316   5.369  0.1136  0.0780  0.0284
 9111SOL    HW138966   2.432   0.383   5.385 -2.0659  1.9831  1.2203
 9111SOL    HW238967   2.424   0.245   5.396  1.5070  1.5320  0.8371
 9112SOL     OW38968   3.522   2.978   8.741  0.0959  0.1434  0.1043
 9112SOL    HW138969   3.568   2.929   8.810  1.9899  1.1741 -0.4284
 9112SOL    HW238970   3.567   3.062   8.741 -0.7804  0.6055  0.2467
 9113SOL     OW38971   0.492   0.454   0.678  0.2356  0.0914  0.3985
 9113SOL    HW138972   0.437   0.523   0.716 -0.9818 -0.6670  0.0141
 9113SOL    HW238973   0.424   0.392   0.652  1.3877 -0.6028 -0.9420
 9114SOL     OW38974   4.137   3.448  16.689  0.0304 -0.3660  0.3081
 9114SOL    HW138975   4.083   3.389  16.637  1.8385 -0.6015 -1.3316
 9114SOL    HW238976   4.222   3.407  16.673  0.0683 -0.1169 -0.1345
 9115SOL     OW38977   0.315   3.264   5.799 -0.0508  0.2387  0.1314
 9115SOL    HW138978   0.262   3.336   5.832 -1.0993  1.1338 -3.5731
 9115SOL    HW238979   0.318   3.209   5.877 -1.6100 -0.8199 -0.5740
 9116SOL     OW38980   3.139   4.103  12.020 -0.0892 -0.5836 -0.3201
 9116SOL    HW138981   3.077   4.032  12.033 -0.4353 -0.3775 -0.8445
 9116SOL    HW238982   3.135   4.142  12.107  1.5610 -1.0355 -0.0411
 9117SOL     OW38983   3.958   4.459  17.539 -0.1841 -0.4995 -0.0433
 9117SOL    HW138984   3.864   4.460  17.551  0.0893  2.6950  1.8574
 9117SOL    HW238985   3.991   4.447  17.628  0.6894 -0.1626 -0.3147
 9118SOL     OW38986   1.739   4.594   5.302 -0.2099 -0.0771 -0.1715
 9118SOL    HW138987   1.668   4.537   5.331  0.0473 -0.4984 -0.3628
 9118SOL    HW238988   1.740   4.581   5.208  1.2432 -0.1887 -0.1482
 9119SOL     OW38989   0.505   3.083  14.939  0.0373  0.1360 -0.8701
 9119SOL    HW138990   0.459   3.157  14.979  0.4740  1.0005 -1.9755
 9119SOL    HW238991   0.574   3.064  15.003  0.1784  0.6467 -0.8653
 9120SOL     OW38992   4.241   2.603  11.050  0.0078 -0.5675  0.2227
 9120SOL    HW138993   4.161   2.651  11.074 -0.3924 -0.9241 -0.4011
 9120SOL    HW238994   4.263   2.569  11.137  1.6252  0.9667  0.4197
 9121SOL     OW38995   2.624   4.065  16.189  0.6684 -0.0508 -0.8248
 9121SOL    HW138996   2.573   4.096  16.263  2.4896 -0.2703  0.5080
 9121SOL    HW238997   2.656   4.150  16.157  0.2576  0.3413 -0.2038
 9122SOL     OW38998   3.160   0.851   6.201 -0.3117 -0.1490  0.2532
 9122SOL    HW138999   3.213   0.779   6.234 -0.1640 -0.5014 -0.7533
 9122SOL    HW239000   3.218   0.926   6.219 -1.0305  0.4093  0.2496
 9123SOL     OW39001   0.342   0.036   3.061  0.7300  0.2323  0.1620
 9123SOL    HW139002   0.429   0.039   3.103  1.3914  1.7751 -1.3479
 9123SOL    HW239003   0.366   0.077   2.979 -0.9061  1.6778  0.4267
 9124SOL     OW39004   1.237   3.581   5.351 -0.1612  0.3940  0.1882
 9124SOL    HW139005   1.172   3.585   5.422  0.0523  0.2050  0.3955
 9124SOL    HW239006   1.296   3.516   5.390  2.0780  1.5143 -1.3828
 9125SOL     OW39007   2.959   1.511   3.021 -0.1730 -0.0727 -0.0997
 9125SOL    HW139008   2.921   1.570   2.956  1.2904 -0.3416 -1.1782
 9125SOL    HW239009   2.947   1.568   3.097  1.7863 -0.5072  0.5193
 9126SOL     OW39010   4.126   3.113   5.852  0.0041 -0.1584 -0.3014
 9126SOL    HW139011   4.175   3.044   5.807  0.8382  0.2373 -0.0027
 9126SOL    HW239012   4.041   3.114   5.809  0.1781  3.8305 -0.5619
 9127SOL     OW39013   2.971   2.986   9.600  0.6645 -0.3043 -0.2674
 9127SOL    HW139014   3.032   2.917   9.627 -0.5317 -0.6365  1.5808
 9127SOL    HW239015   2.915   2.936   9.541 -1.5243 -0.0881  1.6389
 9128SOL     OW39016   1.412   1.881   1.542  0.1609  0.0331  0.3645
 9128SOL    HW139017   1.407   1.920   1.629 -1.1863  0.3405  0.1515
 9128SOL    HW239018   1.334   1.915   1.499 -0.3429 -0.4139  0.9372
 9129SOL     OW39019   2.888   1.297   1.817 -0.2671 -0.3902 -0.6485
 9129SOL    HW139020   2.882   1.249   1.735 -0.8342  1.3379 -1.6025
 9129SOL    HW239021   2.828   1.243   1.868  0.5059 -1.0441 -0.4147
 9130SOL     OW39022   1.070   1.498  10.248  0.3610 -0.6402 -0.5512
 9130SOL    HW139023   1.042   1.517  10.158  0.7581 -0.6490 -0.6752
 9130SOL    HW239024   1.076   1.584  10.288  2.8156 -0.7964 -0.5796
 9131SOL     OW39025   1.770   2.320   1.178 -0.7462  0.0429  0.1743
 9131SOL    HW139026   1.821   2.297   1.256 -0.6607  2.2463  0.7897
 9131SOL    HW239027   1.689   2.359   1.210  0.8845  2.9587  0.7736
 9132SOL     OW39028   2.568   3.799  11.831  0.4699  0.1476  0.0770
 9132SOL    HW139029   2.613   3.730  11.783 -1.4867 -0.0991 -1.4080
 9132SOL    HW239030   2.600   3.774  11.918  4.7256 -0.5435 -1.6673
 9133SOL     OW39031   4.472   4.409   5.421  0.2854  0.2957  0.5625
 9133SOL    HW139032   4.426   4.337   5.379 -0.3521  0.7073  0.5537
 9133SOL    HW239033   4.412   4.477   5.389 -2.4781 -2.8113 -0.8349
 9134SOL     OW39034   4.069   2.797   5.158 -0.0212 -0.3274 -0.2075
 9134SOL    HW139035   4.035   2.887   5.158  1.4553  0.2265 -2.0674
 9134SOL    HW239036   4.038   2.760   5.075 -2.8310 -0.5930  0.9860
 9135SOL     OW39037   1.372   4.458   6.883  0.6316 -0.5627  0.1357
 9135SOL    HW139038   1.403   4.403   6.955  1.2283 -1.5017 -0.8326
 9135SOL    HW239039   1.282   4.464   6.915  0.2482 -0.6730 -0.9472
 9136SOL     OW39040   4.642   2.586   4.442 -0.1484 -0.5299  0.5737
 9136SOL    HW139041   4.648   2.574   4.347 -0.1582 -0.0373  0.5083
 9136SOL    HW239042   4.663   2.676   4.465 -1.2534 -0.6908  2.1926
 9137SOL     OW39043   2.440   0.962  12.229 -0.3832  0.7481 -0.0044
 9137SOL    HW139044   2.347   0.977  12.245 -0.1813  2.2864 -0.3373
 9137SOL    HW239045   2.435   0.931  12.139  1.0550 -0.4878  0.3376
 9138SOL     OW39046   1.623   3.385   9.390 -0.9352  0.1229  0.6298
 9138SOL    HW139047   1.530   3.383   9.412 -1.6138  0.6858 -2.1124
 9138SOL    HW239048   1.625   3.451   9.320 -1.4666  0.4609  0.9324
 9139SOL     OW39049   2.185   0.153  15.804  0.4699 -0.8387  0.0936
 9139SOL    HW139050   2.278   0.160  15.782  1.3434 -2.7375  3.1921
 9139SOL    HW239051   2.194   0.087  15.873 -2.0583 -1.3710 -0.0731
 9140SOL     OW39052   0.697   4.159   3.420 -0.4063  0.0265  0.1980
 9140SOL    HW139053   0.621   4.206   3.455 -0.6377 -1.9906  2.4216
 9140SOL    HW239054   0.707   4.205   3.337 -2.1999  1.1339  0.6044
 9141SOL     OW39055   3.482   3.804  14.048  0.0056 -0.1384 -0.1710
 9141SOL    HW139056   3.543   3.877  14.036 -0.3649 -0.0087 -1.2812
 9141SOL    HW239057   3.534   3.755  14.111 -0.1857 -0.7261 -0.4727
 9142SOL     OW39058   2.143   4.278  13.226  0.2262  0.1991  0.5164
 9142SOL    HW139059   2.089   4.347  13.264  1.7427  1.3879  0.5248
 9142SOL    HW239060   2.231   4.315  13.236  0.8715 -1.8668  2.6184
 9143SOL     OW39061   1.484   2.511   6.864  1.0610 -0.2274  0.0255
 9143SOL    HW139062   1.504   2.583   6.924 -0.9291  2.9952 -3.1724
 9143SOL    HW239063   1.396   2.539   6.837  1.4153 -0.2252 -1.1173
 9144SOL     OW39064   2.840   0.448   9.330 -0.2762 -0.5947 -0.1504
 9144SOL    HW139065   2.881   0.515   9.385 -1.4615 -1.1123  1.3576
 9144SOL    HW239066   2.907   0.427   9.265 -1.0865 -1.3114 -0.7592
 9145SOL     OW39067   0.192   1.676   4.029  0.0239 -0.1440 -0.4391
 9145SOL    HW139068   0.209   1.712   4.116 -0.4848  0.2127 -0.4844
 9145SOL    HW239069   0.144   1.740   3.976 -0.2560 -1.0641 -1.2976
 9146SOL     OW39070   3.787   1.662  14.979  0.0170 -0.3352  0.6613
 9146SOL    HW139071   3.815   1.597  15.044 -0.2576  0.2527  1.3719
 9146SOL    HW239072   3.780   1.614  14.897  1.8380  2.3687 -1.0836
 9147SOL     OW39073   3.645   3.423   8.287 -0.1058  0.2643 -0.0138
 9147SOL    HW139074   3.582   3.456   8.351  2.4359  0.4566  2.4074
 9147SOL    HW239075   3.685   3.504   8.254  0.9701  0.5860  2.0475
 9148SOL     OW39076   2.330   0.090   2.942 -0.5737  0.1664 -0.0614
 9148SOL    HW139077   2.288   0.037   2.874 -0.4310 -0.9273  0.6910
 9148SOL    HW239078   2.285   0.065   3.023 -1.7082  2.5612  0.0312
 9149SOL     OW39079   3.448   1.629   6.244 -0.1161  0.4331  0.1856
 9149SOL    HW139080   3.403   1.701   6.288 -0.4674  0.2601  0.1113
 9149SOL    HW239081   3.540   1.644   6.267 -0.0390 -0.2872  0.3580
 9150SOL     OW39082   4.306   0.580   2.482  0.7248 -0.1682 -0.0265
 9150SOL    HW139083   4.240   0.519   2.516  1.6075 -2.6062 -2.6548
 9150SOL    HW239084   4.270   0.621   2.403  1.9762  1.7788  0.4141
 9151SOL     OW39085   3.814   4.525   8.218 -0.1904  0.4921  0.1105
 9151SOL    HW139086   3.752   4.597   8.226 -1.0160 -0.1041 -0.9287
 9151SOL    HW239087   3.771   4.463   8.278 -1.3625 -0.8569 -2.1219
 9152SOL     OW39088   0.230   3.630   7.982 -0.6717 -0.4914 -0.0927
 9152SOL    HW139089   0.285   3.554   7.998 -0.9698 -0.3914  1.3471
 9152SOL    HW239090   0.163   3.598   7.922  0.1391 -2.5991  0.1355
 9153SOL     OW39091   2.007   0.500   5.916 -0.3757 -0.3338 -0.3782
 9153SOL    HW139092   2.101   0.490   5.901 -0.3777 -1.8280  0.6610
 9153SOL    HW239093   1.992   0.490   6.010  1.9987 -0.4264 -0.0111
 9154SOL     OW39094   1.180   2.805   4.025 -0.3781  0.0655  0.2321
 9154SOL    HW139095   1.146   2.853   4.101  1.1781 -0.7569  1.4507
 9154SOL    HW239096   1.102   2.778   3.976  0.5253 -0.3226 -0.9914
 9155SOL     OW39097   0.352   4.194   6.369  0.2372 -0.6002  0.4192
 9155SOL    HW139098   0.381   4.146   6.292 -0.9252 -0.4818 -0.0918
 9155SOL    HW239099   0.406   4.147   6.433 -0.3850 -0.3162  1.1513
 9156SOL     OW39100   3.167   3.740  12.850 -0.2175  0.4313 -0.2182
 9156SOL    HW139101   3.206   3.678  12.789 -0.3212  0.5676 -0.4211
 9156SOL    HW239102   3.248   3.783  12.876 -1.5352  2.9651 -0.3596
 9157SOL     OW39103   2.293   3.195   6.953  0.5331  0.8688  0.9482
 9157SOL    HW139104   2.331   3.282   6.941  0.9038  0.8209  1.7916
 9157SOL    HW239105   2.340   3.145   6.887  2.0257  2.6521  0.6739
 9158SOL     OW39106   3.897   1.047   6.564  0.4088  0.8397  0.2410
 9158SOL    HW139107   3.895   0.996   6.644  3.0254  2.2027  1.1838
 9158SOL    HW239108   3.881   1.132   6.606 -0.9672  0.4146  0.5836
 9159SOL     OW39109   3.817   0.698  10.898 -0.1388  0.0239 -0.2913
 9159SOL    HW139110   3.815   0.645  10.978  0.7569 -1.3294 -1.1794
 9159SOL    HW239111   3.726   0.700  10.869 -0.8770 -2.6523  1.7622
 9160SOL     OW39112   3.569   2.509   2.626 -0.0518 -0.7615  0.6011
 9160SOL    HW139113   3.615   2.586   2.659  0.8381 -1.0989  0.1346
 9160SOL    HW239114   3.594   2.436   2.682 -1.5971 -1.6385  0.1547
 9161SOL     OW39115   2.542   4.049   7.709 -0.3158 -0.3206  0.1585
 9161SOL    HW139116   2.510   4.055   7.799  2.1282  2.7616  0.8317
 9161SOL    HW239117   2.527   4.134   7.668  0.4414 -0.4860 -0.4737
 9162SOL     OW39118   1.040   3.334   2.652  0.2649  0.7182  0.2273
 9162SOL    HW139119   0.952   3.334   2.613 -0.4184  1.3218  1.7476
 9162SOL    HW239120   1.028   3.366   2.741 -0.4650 -1.0261  0.7568
 9163SOL     OW39121   1.314   4.382   4.439 -0.2608 -0.0474  0.4850
 9163SOL    HW139122   1.372   4.449   4.402 -1.6757  0.7195 -0.3415
 9163SOL    HW239123   1.249   4.443   4.474 -1.0718  0.4007 -1.7620
 9164SOL     OW39124   3.677   2.335   3.387 -0.4637  0.4586 -0.0668
 9164SOL    HW139125   3.593   2.301   3.356 -0.1466 -0.6471  0.2828
 9164SOL    HW239126   3.711   2.398   3.324  1.5414  0.1118  0.6510
 9165SOL     OW39127   1.824   3.517   5.398 -0.4298 -0.0244  0.5610
 9165SOL    HW139128   1.755   3.493   5.459 -0.2500 -4.4701 -0.9459
 9165SOL    HW239129   1.787   3.479   5.319 -0.4623 -3.0533  2.0233
 9166SOL     OW39130   0.250   0.372   9.701 -0.4092  0.4977  0.6517
 9166SOL    HW139131   0.312   0.316   9.655 -0.8515 -0.0543  0.7224
 9166SOL    HW239132   0.258   0.341   9.792 -2.2601  2.1729  1.3760
 9167SOL     OW39133   4.370   2.105   5.906 -0.0128  0.3739  0.3563
 9167SOL    HW139134   4.423   2.182   5.922  1.0408 -0.5263  1.2224
 9167SOL    HW239135   4.302   2.153   5.859  1.8147  1.7410 -0.8948
 9168SOL     OW39136   2.141   0.034   4.718  0.1681  0.4507  0.5375
 9168SOL    HW139137   2.110   0.049   4.807 -0.5133 -0.1446  0.4013
 9168SOL    HW239138   2.197   4.696   4.730 -0.6528 -0.3002 -0.4218
 9169SOL     OW39139   3.690   4.672  16.417 -0.5422 -0.7048 -0.3957
 9169SOL    HW139140   3.708   4.659  16.510 -3.0748 -0.2177  0.1626
 9169SOL    HW239141   3.665   4.583  16.394 -0.2470 -1.4209  2.0708
 9170SOL     OW39142   1.823   2.426   0.265 -0.8755  0.3650 -0.0354
 9170SOL    HW139143   1.834   2.385   0.179  1.4892  0.3531  0.2729
 9170SOL    HW239144   1.737   2.469   0.265 -1.4138 -0.7229  0.2701
 9171SOL     OW39145   2.317   1.678  14.359 -0.1601  0.0760  0.1276
 9171SOL    HW139146   2.379   1.645  14.423  1.2176  0.3318 -1.0677
 9171SOL    HW239147   2.367   1.667  14.278 -0.0450  1.2242  0.0369
 9172SOL     OW39148   0.578   4.466  15.295  0.3277 -0.0175  0.7232
 9172SOL    HW139149   0.646   4.462  15.227 -0.3445 -1.8426  0.1519
 9172SOL    HW239150   0.611   4.549  15.328  1.7633 -0.1366 -0.3811
 9173SOL     OW39151   0.611   1.192   2.453  0.0126  0.2708  0.3892
 9173SOL    HW139152   0.563   1.254   2.508 -1.0735  0.3493 -0.6369
 9173SOL    HW239153   0.553   1.186   2.377  0.1541  0.9174  0.2279
 9174SOL     OW39154   1.246   4.128  11.907  0.5890 -0.5128  0.5556
 9174SOL    HW139155   1.200   4.124  11.823 -0.8995  1.6993  1.2688
 9174SOL    HW239156   1.198   4.061  11.954  0.9169 -0.4493  0.9843
 9175SOL     OW39157   1.144   0.775   4.578 -0.3868 -0.2485 -0.1066
 9175SOL    HW139158   1.121   0.807   4.490 -1.2284 -1.8014 -0.4465
 9175SOL    HW239159   1.228   0.730   4.565 -0.8419 -0.8512 -0.9303
 9176SOL     OW39160   2.732   2.229   0.757 -0.0157  0.7257  0.0672
 9176SOL    HW139161   2.819   2.189   0.752 -0.5378 -0.3399 -0.5022
 9176SOL    HW239162   2.729   2.273   0.673  0.1982  1.8271  0.6334
 9177SOL     OW39163   2.325   1.871  16.777 -0.2420 -0.5705 -0.2729
 9177SOL    HW139164   2.295   1.900  16.691  2.1986  1.5782 -0.4140
 9177SOL    HW239165   2.353   1.780  16.761  2.5470  0.0352  1.0786
 9178SOL     OW39166   2.329   2.984   4.442  0.7775  0.3688 -0.4467
 9178SOL    HW139167   2.253   3.019   4.395 -0.6413 -0.8985  0.8557
 9178SOL    HW239168   2.393   3.045   4.408  1.5613 -0.3501 -0.2661
 9179SOL     OW39169   3.151   1.654   9.952 -0.4601  0.1742 -0.1124
 9179SOL    HW139170   3.160   1.709   9.874  0.3061 -0.4719 -0.4815
 9179SOL    HW239171   3.156   1.706  10.032 -0.7272 -2.5849  1.6858
 9180SOL     OW39172   3.829   4.407   8.577  0.8662  0.5671 -0.8633
 9180SOL    HW139173   3.851   4.320   8.610 -1.0912  0.0654 -0.8597
 9180SOL    HW239174   3.865   4.403   8.489  0.2859 -1.1509 -1.0118
 9181SOL     OW39175   2.088   0.642   4.394  0.3048 -0.3162  0.1003
 9181SOL    HW139176   2.162   0.628   4.453  0.6737  0.0128 -0.2806
 9181SOL    HW239177   2.119   0.595   4.316 -1.2705  0.2647 -0.8836
 9182SOL     OW39178   4.587   0.159  12.421 -0.2007 -0.0180  0.6229
 9182SOL    HW139179   4.647   0.098  12.465 -0.5693 -0.4894  0.4672
 9182SOL    HW239180   4.556   0.109  12.346 -1.2758 -0.9167  1.6765
 9183SOL     OW39181   3.890   2.734  10.792  0.2879 -0.0766  0.2247
 9183SOL    HW139182   3.959   2.712  10.730 -0.2089 -1.5822  0.2100
 9183SOL    HW239183   3.823   2.763  10.729  1.8436  0.9608 -0.9408
 9184SOL     OW39184   2.388   3.427   6.621  0.2927  0.3266 -0.2110
 9184SOL    HW139185   2.371   3.447   6.713 -1.0437 -1.1887 -0.1191
 9184SOL    HW239186   2.482   3.439   6.608  0.8024 -2.0909  1.1289
 9185SOL     OW39187   1.112   0.858   0.122 -0.5339 -0.2103  0.0857
 9185SOL    HW139188   1.147   0.786   0.069  1.3030  0.9252 -0.2269
 9185SOL    HW239189   1.102   0.825   0.211  0.8444  0.4501  0.4800
 9186SOL     OW39190   4.700   1.215   4.201 -0.5117  0.6244 -0.0075
 9186SOL    HW139191   4.615   1.176   4.226  0.5902 -1.8311 -0.0484
 9186SOL    HW239192   0.001   1.131   4.178  0.3482  1.0499 -0.0653
 9187SOL     OW39193   4.265   0.766   8.374 -0.5682 -0.3691  0.1503
 9187SOL    HW139194   4.309   0.758   8.458  2.0439  1.7039 -1.0087
 9187SOL    HW239195   4.330   0.810   8.319 -1.0660  0.7711  0.4643
 9188SOL     OW39196   4.039   4.410   6.909  0.0422 -0.3090  0.1654
 9188SOL    HW139197   4.043   4.490   6.857 -0.8664 -0.6173 -0.3686
 9188SOL    HW239198   4.085   4.437   6.989  0.1255  1.5768 -0.5210
 9189SOL     OW39199   4.295   1.454   3.312 -0.2145  0.2248  0.1553
 9189SOL    HW139200   4.328   1.405   3.388  0.1685 -3.2179 -2.2163
 9189SOL    HW239201   4.202   1.456   3.335 -0.6108 -0.0812 -1.3879
 9190SOL     OW39202   4.306   2.783   2.920  0.1299 -0.3684  0.4172
 9190SOL    HW139203   4.306   2.875   2.946 -1.2363  0.1849 -1.5176
 9190SOL    HW239204   4.242   2.783   2.849 -1.0043 -1.6655  1.4405
 9191SOL     OW39205   1.557   0.855   3.927  0.6102  0.1527  0.5898
 9191SOL    HW139206   1.570   0.792   3.857  2.4734  1.0166  0.1436
 9191SOL    HW239207   1.638   0.838   3.974  1.0922 -1.5079 -0.8489
 9192SOL     OW39208   0.046   3.827   5.458  0.7815  0.4225  0.0911
 9192SOL    HW139209   4.737   3.807   5.378 -2.0176 -0.8099  2.0645
 9192SOL    HW239210   0.138   3.812   5.437  0.4992  0.9450 -1.5256
 9193SOL     OW39211   2.603   4.522   7.588  0.2740 -0.5738 -0.2807
 9193SOL    HW139212   2.693   4.506   7.558  0.2369 -0.3844 -0.4951
 9193SOL    HW239213   2.557   4.492   7.510 -0.9379 -2.8259  1.3088
 9194SOL     OW39214   0.309   4.346  17.685 -0.0945  0.4813 -0.4226
 9194SOL    HW139215   0.298   4.410   0.002 -3.0922  1.1862 -1.5223
 9194SOL    HW239216   0.215   4.339  17.665  0.0149  0.2675 -0.8586
 9195SOL     OW39217   3.332   1.782   6.847  0.3369 -0.0967 -0.7675
 9195SOL    HW139218   3.398   1.714   6.859 -0.7775 -1.1378 -0.5228
 9195SOL    HW239219   3.321   1.774   6.752 -1.9795 -0.8651 -0.4320
 9196SOL     OW39220   0.252   3.669   0.683  0.2955 -0.5183  0.6385
 9196SOL    HW139221   0.303   3.747   0.704  0.4847  0.0619 -1.9877
 9196SOL    HW239222   0.166   3.700   0.654  1.2924 -0.3563 -2.1547
 9197SOL     OW39223   0.198   4.733   2.000 -0.4278  0.2439 -0.1802
 9197SOL    HW139224   0.257   0.052   2.048  2.8431 -3.4124  0.1622
 9197SOL    HW239225   0.253   4.656   1.981 -0.1398 -0.4515  3.4142
 9198SOL     OW39226   1.228   2.401   7.027 -0.0650  0.2503  0.1312
 9198SOL    HW139227   1.146   2.352   7.031  0.6257 -0.8243  1.0555
 9198SOL    HW239228   1.271   2.356   6.955  1.0807  1.7510 -0.1221
 9199SOL     OW39229   4.367   4.217   4.043  0.3639 -0.8714  0.0402
 9199SOL    HW139230   4.434   4.258   4.098  0.9890 -0.2221 -1.2253
 9199SOL    HW239231   4.378   4.125   4.070 -0.3443 -0.5864  1.2872
 9200SOL     OW39232   2.467   1.852   4.604 -0.5078  0.2904 -0.7392
 9200SOL    HW139233   2.442   1.795   4.531  0.0799 -2.7698  1.4345
 9200SOL    HW239234   2.523   1.916   4.561  0.2832  1.1111  1.5382
 9201SOL     OW39235   1.777   2.041   5.825  0.1733  0.1499  0.3643
 9201SOL    HW139236   1.848   2.066   5.766 -1.6592  2.2352 -0.9446
 9201SOL    HW239237   1.824   1.983   5.885 -0.5170  0.0390  0.7920
 9202SOL     OW39238   3.658   2.546  14.595  0.2638 -0.0587  0.2329
 9202SOL    HW139239   3.724   2.563  14.662 -0.3278  1.8016  0.3296
 9202SOL    HW239240   3.628   2.636  14.592  0.8947  0.1700  0.8183
 9203SOL     OW39241   2.094   0.599   7.583 -0.5340  0.1607  0.3661
 9203SOL    HW139242   2.018   0.658   7.587 -0.9902 -0.4006 -0.0021
 9203SOL    HW239243   2.069   0.518   7.627  1.2927 -1.1310 -0.9847
 9204SOL     OW39244   2.820   4.399   7.466  0.2215  0.8039  0.7992
 9204SOL    HW139245   2.820   4.307   7.442  2.0044  1.1528 -0.5235
 9204SOL    HW239246   2.773   4.436   7.391  1.3701  0.4793 -0.0567
 9205SOL     OW39247   4.283   3.916   4.745 -0.2611 -0.9979  0.2209
 9205SOL    HW139248   4.299   3.889   4.655 -4.6346 -0.3561 -0.7417
 9205SOL    HW239249   4.372   3.930   4.779 -1.2591 -0.6272  2.6682
 9206SOL     OW39250   1.380   4.329   8.733 -0.3271 -0.3425 -0.3993
 9206SOL    HW139251   1.346   4.383   8.804 -0.7074 -0.0978 -0.7627
 9206SOL    HW239252   1.433   4.268   8.784 -1.3368 -0.2152  0.8084
 9207SOL     OW39253   2.100   1.352   7.383 -0.3903 -0.3317  0.2457
 9207SOL    HW139254   2.182   1.346   7.431 -0.0252  0.4764 -0.2870
 9207SOL    HW239255   2.102   1.443   7.353 -0.1501 -0.7651 -1.0710
 9208SOL     OW39256   3.535   0.519   6.071  0.1207  0.4182  0.1809
 9208SOL    HW139257   3.577   0.513   6.157 -0.6735 -2.5336  0.3774
 9208SOL    HW239258   3.598   0.570   6.021 -1.3568  1.0504 -1.0568
 9209SOL     OW39259   2.695   2.787   5.719  0.3546 -0.5121  0.0457
 9209SOL    HW139260   2.628   2.855   5.727  0.4238 -0.6522  1.7306
 9209SOL    HW239261   2.709   2.780   5.814 -3.3143  1.1200  0.7046
 9210SOL     OW39262   3.964   0.981  14.590 -0.1525 -0.3032  0.6907
 9210SOL    HW139263   4.003   1.041  14.526  2.1179 -0.9848  1.4344
 9210SOL    HW239264   4.029   0.976  14.660  0.1888  0.1565  0.4021
 9211SOL     OW39265   1.810   4.088  16.159  0.3062  0.3419  0.2228
 9211SOL    HW139266   1.741   4.139  16.117  0.6009  1.6092  1.2443
 9211SOL    HW239267   1.786   4.090  16.252  3.0100  1.4003  0.8849
 9212SOL     OW39268   2.875   3.542   7.389 -0.4464 -0.8161 -0.3452
 9212SOL    HW139269   2.798   3.509   7.436  0.4470 -2.4908 -0.0462
 9212SOL    HW239270   2.867   3.488   7.310 -3.0450  0.2978 -0.8500
 9213SOL     OW39271   3.432   2.462   4.277  0.2058  0.2586 -0.6013
 9213SOL    HW139272   3.477   2.546   4.269  1.2021 -0.2434 -0.2236
 9213SOL    HW239273   3.351   2.487   4.321  0.9797 -0.1949  1.0734
 9214SOL     OW39274   1.605   0.744   4.526 -0.1187 -0.1145 -0.5383
 9214SOL    HW139275   1.601   0.840   4.523 -0.9599 -0.1163  0.9088
 9214SOL    HW239276   1.682   0.739   4.582 -0.4112  0.2017 -0.1105
 9215SOL     OW39277   2.439   4.015  11.785  0.1502 -0.1890  0.2520
 9215SOL    HW139278   2.356   3.974  11.808  0.6072 -0.3345  1.6978
 9215SOL    HW239279   2.497   3.939  11.790  1.5293  0.7798 -1.0370
 9216SOL     OW39280   0.032   4.238   4.345 -0.3835  0.0255  0.1834
 9216SOL    HW139281   4.706   4.261   4.279  1.5615 -0.3510 -1.8683
 9216SOL    HW239282   0.037   4.145   4.322  0.8575  0.7325 -2.4862
 9217SOL     OW39283   0.405   1.884   8.209  0.5842  0.6139 -0.0869
 9217SOL    HW139284   0.489   1.928   8.226 -0.5230  2.6242  0.2093
 9217SOL    HW239285   0.377   1.847   8.292  1.2039 -0.9139 -0.5665
 9218SOL     OW39286   4.383   2.800   4.940  0.4472  0.7860 -0.0562
 9218SOL    HW139287   4.312   2.863   4.930 -0.4501 -0.3378 -0.8186
 9218SOL    HW239288   4.400   2.806   5.034  0.6434  2.3806 -0.2008
 9219SOL     OW39289   2.810   2.680  12.194  0.0582  0.1924 -0.7498
 9219SOL    HW139290   2.899   2.650  12.176  0.0487  0.5029 -1.3063
 9219SOL    HW239291   2.796   2.670  12.288  0.2084 -0.1003 -0.7596
 9220SOL     OW39292   4.166   4.058   8.017 -0.3832 -0.3960 -0.3864
 9220SOL    HW139293   4.082   4.033   7.980 -0.4235  0.9216 -1.1668
 9220SOL    HW239294   4.144   4.118   8.088 -0.8108  0.3983 -1.1973
 9221SOL     OW39295   4.422   4.321  10.086 -0.3873  0.1894 -0.1762
 9221SOL    HW139296   4.362   4.362  10.025 -0.2966  4.7353  2.7668
 9221SOL    HW239297   4.449   4.240  10.043  1.2061  0.5195  0.2085
 9222SOL     OW39298   4.392   4.216  13.991  0.1871 -0.1082 -0.1999
 9222SOL    HW139299   4.416   4.308  13.983  1.3101 -0.4672 -1.0557
 9222SOL    HW239300   4.469   4.186  13.942 -0.6240  0.8141 -2.0487
 9223SOL     OW39301   0.809   2.696   7.492  0.2927 -0.0164  0.8350
 9223SOL    HW139302   0.732   2.739   7.531  1.9435  0.4894  3.5168
 9223SOL    HW239303   0.799   2.617   7.546 -3.4934  0.0406  0.2210
 9224SOL     OW39304   4.443   4.466  14.248 -0.5414  0.3873  0.1578
 9224SOL    HW139305   4.510   4.399  14.245 -0.0894  0.8120  0.7740
 9224SOL    HW239306   4.441   4.479  14.153 -1.3791 -0.4914  0.0504
 9225SOL     OW39307   0.048   2.140  17.283  0.1809 -0.6174  0.3410
 9225SOL    HW139308   4.721   2.185  17.229  1.5565  0.6018 -0.3136
 9225SOL    HW239309   4.734   2.133  17.362 -1.1262  0.8186 -0.3949
 9226SOL     OW39310   1.410   0.441  15.914 -0.0049  0.3761 -0.1476
 9226SOL    HW139311   1.423   0.511  15.851  0.6590 -0.2422 -0.7108
 9226SOL    HW239312   1.424   0.368  15.854 -0.7819 -0.5941  0.8509
 9227SOL     OW39313   1.164   2.458   4.934  0.6556  0.2074  0.5918
 9227SOL    HW139314   1.217   2.538   4.935  2.3534 -0.9384  1.0895
 9227SOL    HW239315   1.080   2.497   4.958  1.5069  1.0775  2.1579
 9228SOL     OW39316   4.557   1.845   8.341 -0.2208  0.1612  0.4494
 9228SOL    HW139317   4.624   1.871   8.404  0.4744  0.3591 -0.3775
 9228SOL    HW239318   4.602   1.835   8.257 -2.0191 -2.1543 -0.2496
 9229SOL     OW39319   3.358   2.141   4.998 -0.0162  0.1864 -0.2450
 9229SOL    HW139320   3.335   2.072   4.936 -0.1044 -1.8509  2.0402
 9229SOL    HW239321   3.327   2.218   4.950  0.0532 -0.3182 -1.1041
 9230SOL     OW39322   3.048   0.546   1.517  0.4783 -0.5689  0.2683
 9230SOL    HW139323   3.007   0.479   1.571  1.2914 -1.7320 -0.5768
 9230SOL    HW239324   3.128   0.505   1.484 -1.2036 -1.0209 -3.2331
 9231SOL     OW39325   0.069   3.901   9.474  0.6468 -0.0890 -0.5268
 9231SOL    HW139326   0.115   3.907   9.391  0.5465 -2.2508 -0.7540
 9231SOL    HW239327   0.043   3.809   9.481  1.1682 -0.1880  0.1412
 9232SOL     OW39328   1.310   0.427   4.881  0.5101  0.0870 -0.2995
 9232SOL    HW139329   1.388   0.372   4.868  0.2400 -0.4955  0.5436
 9232SOL    HW239330   1.262   0.414   4.799 -0.0778  0.9208 -0.0920
 9233SOL     OW39331   0.502   1.188   3.862 -0.3572  0.1612 -0.4597
 9233SOL    HW139332   0.442   1.189   3.937 -2.2174  1.9787 -1.9832
 9233SOL    HW239333   0.510   1.282   3.847  0.0204  0.0209 -1.1445
 9234SOL     OW39334   3.345   3.940  11.753  0.5873  0.5422 -0.4759
 9234SOL    HW139335   3.376   3.993  11.679  0.2049  0.1356 -0.9249
 9234SOL    HW239336   3.278   3.898  11.700  1.4545  2.4763 -3.1533
 9235SOL     OW39337   1.275   2.383   7.322 -0.2485  0.1950  0.0175
 9235SOL    HW139338   1.259   2.429   7.239 -0.3061  0.3045  0.0889
 9235SOL    HW239339   1.322   2.447   7.375  0.9768 -0.3986 -0.3607
 9236SOL     OW39340   3.317   4.417   7.144  0.1619 -0.1583  0.0767
 9236SOL    HW139341   3.371   4.496   7.137  0.4000 -0.2007  1.6159
 9236SOL    HW239342   3.338   4.371   7.062  2.1256  0.1505  0.3860
 9237SOL     OW39343   2.331   3.634  15.195  0.0647  0.3446  0.1625
 9237SOL    HW139344   2.349   3.644  15.288 -2.8244 -2.9949  1.0772
 9237SOL    HW239345   2.253   3.578  15.201  0.4408  0.0222  1.9096
 9238SOL     OW39346   0.233   4.707   9.063  0.1698 -0.2381 -0.5178
 9238SOL    HW139347   0.197   4.720   8.975 -0.8985 -0.2210 -0.0845
 9238SOL    HW239348   0.165   0.006   9.119  1.2039  1.2356 -0.2672
 9239SOL     OW39349   1.968   3.409   1.584  0.5063  0.1864 -0.5045
 9239SOL    HW139350   2.007   3.462   1.654 -0.1409 -0.0706  0.0510
 9239SOL    HW239351   1.948   3.479   1.523 -1.7355  0.6408  0.7580
 9240SOL     OW39352   4.671   1.159   2.940 -0.8638 -0.4321 -0.6119
 9240SOL    HW139353   4.610   1.091   2.911 -1.5424  0.9287 -2.3514
 9240SOL    HW239354   4.617   1.225   2.984  0.2032 -1.5194  2.3606
 9241SOL     OW39355   4.320   2.589   6.570  0.0604  0.1364  0.5356
 9241SOL    HW139356   4.357   2.675   6.587 -1.7902  0.6576  1.9769
 9241SOL    HW239357   4.244   2.581   6.628 -0.1447  0.7354  0.3546
 9242SOL     OW39358   3.114   0.193   3.420  0.6091 -0.0010 -0.4559
 9242SOL    HW139359   3.124   0.208   3.326 -1.2905 -0.6538 -0.7699
 9242SOL    HW239360   3.108   0.283   3.451  0.9058  0.3571 -1.4493
 9243SOL     OW39361   1.161   0.677   8.088 -0.1939 -0.1011 -0.0947
 9243SOL    HW139362   1.118   0.656   8.005 -1.1741  0.6524  0.2247
 9243SOL    HW239363   1.250   0.676   8.053 -0.6103 -0.5215 -1.1478
 9244SOL     OW39364   3.264   1.703   3.295 -0.4807 -0.0778 -0.2694
 9244SOL    HW139365   3.228   1.658   3.219 -1.1356 -0.0391  0.0121
 9244SOL    HW239366   3.279   1.788   3.253  1.8896 -0.8215 -0.8837
 9245SOL     OW39367   4.460   2.099   9.018 -0.3338  0.1551 -0.1095
 9245SOL    HW139368   4.492   2.043   9.089 -1.3685 -0.5619 -0.1946
 9245SOL    HW239369   4.399   2.154   9.066 -0.1727  1.1645 -1.0490
 9246SOL     OW39370   1.710   1.768  11.685 -0.1087  0.6458 -0.3827
 9246SOL    HW139371   1.798   1.741  11.659 -0.2075 -1.3479  1.4035
 9246SOL    HW239372   1.728   1.767  11.779 -0.4222  0.8970 -0.3198
 9247SOL     OW39373   0.457   3.511  11.098  0.1249  0.2879  0.1480
 9247SOL    HW139374   0.521   3.508  11.169  1.3257  3.1648 -0.8487
 9247SOL    HW239375   0.429   3.602  11.096 -0.3706  0.1610  0.9461
 9248SOL     OW39376   0.168   4.596   2.954  0.3194 -0.1887  0.4778
 9248SOL    HW139377   0.098   4.643   2.908  1.5446  0.3366 -0.8664
 9248SOL    HW239378   0.203   4.661   3.014  1.0974 -0.0382 -0.1402
 9249SOL     OW39379   0.585   4.281  15.523  0.0740 -0.2946  0.2756
 9249SOL    HW139380   0.589   4.345  15.452  1.4363  0.7555  1.3007
 9249SOL    HW239381   0.556   4.208  15.469 -0.1068 -0.6228  0.8106
 9250SOL     OW39382   0.053   2.408  17.481  0.3521 -0.3201  0.6465
 9250SOL    HW139383   4.717   2.349  17.479  0.0419  0.0474  1.1953
 9250SOL    HW239384   0.081   2.404  17.390  0.3283 -0.9226  0.6663
 9251SOL     OW39385   2.766   2.794  10.509  0.2693  0.7526  0.4166
 9251SOL    HW139386   2.842   2.834  10.551  0.8469  0.2295 -0.1199
 9251SOL    HW239387   2.806   2.708  10.497 -1.4583 -0.2063  1.5792
 9252SOL     OW39388   2.311   1.245   7.957  0.4844  0.1483 -0.1784
 9252SOL    HW139389   2.332   1.176   7.893  1.0690 -2.0789  2.4141
 9252SOL    HW239390   2.402   1.268   7.977 -0.4024  2.5628  1.1085
 9253SOL     OW39391   1.212   1.061   4.629  0.3500 -0.2232 -0.1032
 9253SOL    HW139392   1.232   1.069   4.722  2.4579 -0.0871 -0.5461
 9253SOL    HW239393   1.245   0.975   4.603  0.6860 -0.0227 -0.3480
 9254SOL     OW39394   4.626   0.330   5.112 -0.1928 -0.1926  0.2029
 9254SOL    HW139395   4.628   0.418   5.148  2.8318  0.5709 -1.9124
 9254SOL    HW239396   4.533   0.317   5.129 -0.1209 -2.4525 -1.0922
 9255SOL     OW39397   4.421   1.245   4.129  0.1533  0.7792 -0.4215
 9255SOL    HW139398   4.330   1.232   4.102  1.0186 -3.6345 -1.1692
 9255SOL    HW239399   4.469   1.174   4.087 -1.5021 -0.5409 -0.0528
 9256SOL     OW39400   1.938   3.943  14.159  0.0310  0.3249  0.2844
 9256SOL    HW139401   1.931   3.936  14.255 -1.6467 -0.4746  0.1063
 9256SOL    HW239402   1.940   4.038  14.146 -1.3325  0.4171  0.8164
 9257SOL     OW39403   0.857   1.780   4.230 -0.3604  0.2495  0.4804
 9257SOL    HW139404   0.771   1.821   4.236 -0.9507 -0.7653 -1.1219
 9257SOL    HW239405   0.879   1.780   4.137  0.7465  2.4509  0.7296
 9258SOL     OW39406   1.533   0.161  10.988  0.1335 -0.3040 -0.0923
 9258SOL    HW139407   1.577   0.190  11.068  1.7800 -1.4806 -0.5654
 9258SOL    HW239408   1.578   0.217  10.925 -0.5996 -1.4410 -1.6257
 9259SOL     OW39409   2.449   2.109   5.343 -0.2866 -0.1357  0.0314
 9259SOL    HW139410   2.468   2.034   5.286  1.6987 -0.8482  1.6069
 9259SOL    HW239411   2.354   2.108   5.349 -0.3844  2.1696 -1.0075
 9260SOL     OW39412   1.303   4.363  16.062 -0.2707  0.8252 -0.5856
 9260SOL    HW139413   1.262   4.449  16.052  0.1201  0.9325 -1.2404
 9260SOL    HW239414   1.276   4.332  16.148 -1.8796 -0.6330 -1.6129
 9261SOL     OW39415   1.165   2.569  13.720 -0.3695  0.1017  0.2296
 9261SOL    HW139416   1.233   2.578  13.653 -0.3705  0.5033  0.2822
 9261SOL    HW239417   1.098   2.504  13.697 -0.0722 -1.3445  3.4108
 9262SOL     OW39418   2.222   0.966   0.397  0.1766 -0.0515  0.2010
 9262SOL    HW139419   2.220   0.959   0.301 -0.7556 -0.6087  0.2613
 9262SOL    HW239420   2.282   1.040   0.407  0.6381 -0.5953  1.4472
 9263SOL     OW39421   1.664   4.651   8.498  0.6911  0.4590 -0.1142
 9263SOL    HW139422   1.750   4.612   8.512  0.6441 -0.0450 -1.1901
 9263SOL    HW239423   1.616   4.622   8.575  1.3861 -0.1454  0.0925
 9264SOL     OW39424   0.076   3.480  12.593  0.3505 -0.4071 -0.4656
 9264SOL    HW139425   0.026   3.453  12.671  0.5416  0.1453 -0.1561
 9264SOL    HW239426   0.008   3.454  12.531  0.2673 -0.3521 -0.3965
 9265SOL     OW39427   2.153   1.734  15.046 -0.2019  0.2582  0.5625
 9265SOL    HW139428   2.078   1.716  15.102 -1.5649 -2.1435 -2.0451
 9265SOL    HW239429   2.117   1.749  14.958  1.5758 -1.6653 -0.4778
 9266SOL     OW39430   2.733   1.541   3.440 -0.2498  0.1862 -0.5110
 9266SOL    HW139431   2.723   1.516   3.349 -0.3129  1.2755 -0.8024
 9266SOL    HW239432   2.689   1.625   3.431  1.6212  1.0378 -1.7368
 9267SOL     OW39433   3.050   0.892  17.570 -0.2311 -0.1066 -0.1239
 9267SOL    HW139434   3.010   0.832  17.506  1.1028  0.3031 -1.3242
 9267SOL    HW239435   3.006   0.975  17.551 -2.2807 -1.0092  0.5956
 9268SOL     OW39436   0.018   3.035   7.308 -0.0428 -0.3180 -0.3023
 9268SOL    HW139437   4.678   3.088   7.295 -0.4680 -0.9904 -0.5005
 9268SOL    HW239438   0.042   3.019   7.217 -0.3262  2.3182 -0.8257
 9269SOL     OW39439   0.845   0.399  15.510 -0.2157  0.2412  0.0839
 9269SOL    HW139440   0.765   0.451  15.518 -0.3057 -0.4115  3.2749
 9269SOL    HW239441   0.903   0.458  15.558  0.5102  0.1382 -0.6649
 9270SOL     OW39442   2.096   0.472   7.843 -0.2392 -0.2628  0.4663
 9270SOL    HW139443   2.026   0.537   7.850 -0.8045 -0.4148 -4.1756
 9270SOL    HW239444   2.090   0.442   7.934 -0.7956  1.8167  1.1202
 9271SOL     OW39445   0.438   0.669   5.213  0.0798  0.4798  0.1032
 9271SOL    HW139446   0.449   0.733   5.143  0.7782  0.1463 -0.0854
 9271SOL    HW239447   0.507   0.607   5.191  0.9435  1.9129 -1.1738
 9272SOL     OW39448   0.167   2.963   2.455  0.6423 -0.6727  0.1862
 9272SOL    HW139449   0.161   2.923   2.541 -0.4279  2.2040  1.4342
 9272SOL    HW239450   0.146   2.888   2.398  1.0635 -0.2202 -0.5643
 9273SOL     OW39451   2.717   3.940   5.580 -0.2934 -0.0902 -0.2263
 9273SOL    HW139452   2.795   3.901   5.539 -1.1412 -2.7479  0.6858
 9273SOL    HW239453   2.646   3.917   5.520 -2.0861  0.6004  1.6352
 9274SOL     OW39454   0.511   4.380   6.095 -0.2958 -0.3175 -0.0191
 9274SOL    HW139455   0.600   4.411   6.114 -0.1627 -0.9850  0.4668
 9274SOL    HW239456   0.467   4.464   6.090  0.2386 -0.1516 -1.7233
 9275SOL     OW39457   4.246   3.095   5.138  0.0596  0.0918 -0.4762
 9275SOL    HW139458   4.320   3.035   5.148 -1.1032 -0.9567  1.8043
 9275SOL    HW239459   4.256   3.167   5.200  1.2577  0.6370 -1.3086
 9276SOL     OW39460   2.844   2.274   4.046  0.3420 -0.0436 -0.2740
 9276SOL    HW139461   2.938   2.259   4.036  0.7479  2.4144 -0.2122
 9276SOL    HW239462   2.816   2.192   4.087 -2.8081  0.5122 -1.3192
 9277SOL     OW39463   2.564   1.215   0.196  0.0634  0.6225 -0.0022
 9277SOL    HW139464   2.640   1.164   0.224  0.5805  2.4437  1.8764
 9277SOL    HW239465   2.587   1.308   0.204  0.7891  0.6337 -2.0534
 9278SOL     OW39466   2.777   0.634  15.099 -0.7821 -0.1225  0.4899
 9278SOL    HW139467   2.868   0.648  15.074 -1.0560  1.3196  0.3042
 9278SOL    HW239468   2.795   0.607  15.189  1.1650 -0.9436 -0.1552
 9279SOL     OW39469   1.532   2.852   4.748 -0.0622  0.2903  0.3647
 9279SOL    HW139470   1.493   2.831   4.663 -1.0493 -0.4862  1.0093
 9279SOL    HW239471   1.457   2.899   4.785 -0.4106 -1.6796  2.1715
 9280SOL     OW39472   0.950   0.642   5.435  0.6076 -0.8375  0.3873
 9280SOL    HW139473   1.011   0.702   5.391 -0.3159 -1.0742 -1.2113
 9280SOL    HW239474   0.984   0.565   5.390 -0.5338 -1.1918  0.1285
 9281SOL     OW39475   1.015   2.420   2.250 -0.0771 -0.3053 -0.1380
 9281SOL    HW139476   1.072   2.411   2.174  1.0235 -2.0371  0.9046
 9281SOL    HW239477   1.028   2.331   2.282  0.2832 -0.8347 -1.7841
 9282SOL     OW39478   3.691   2.261  17.432  0.4926 -0.0696 -1.0108
 9282SOL    HW139479   3.694   2.165  17.436  0.7849 -0.0085  0.1556
 9282SOL    HW239480   3.775   2.280  17.391  0.6544  0.3113 -0.5025
 9283SOL     OW39481   2.228   1.347   0.254 -0.1530  0.3463  0.2003
 9283SOL    HW139482   2.277   1.374   0.332 -1.4819  0.9181  0.8592
 9283SOL    HW239483   2.157   1.300   0.298  1.2835 -1.1498  0.9237
 9284SOL     OW39484   4.699   2.701   2.277  0.5509 -0.3063 -0.2904
 9284SOL    HW139485   4.718   2.621   2.228 -2.9140 -1.2527 -0.0947
 9284SOL    HW239486   4.640   2.745   2.216 -1.1634 -0.4280  1.2693
 9285SOL     OW39487   3.558   0.923   5.920  0.0893 -0.1850  0.1654
 9285SOL    HW139488   3.470   0.885   5.918 -0.1799  0.5185 -1.1530
 9285SOL    HW239489   3.598   0.881   5.996  0.1277 -0.8957 -0.2429
 9286SOL     OW39490   1.223   1.628   5.446  0.0313  0.2417  0.3540
 9286SOL    HW139491   1.168   1.673   5.510  0.2332  0.1209  0.6115
 9286SOL    HW239492   1.282   1.701   5.426 -0.0457 -0.1104 -1.1209
 9287SOL     OW39493   3.338   3.187   7.850  0.5517 -0.1829  0.0567
 9287SOL    HW139494   3.351   3.105   7.803 -2.4155 -0.8714  0.4271
 9287SOL    HW239495   3.252   3.208   7.815 -0.1314  0.4827  2.0973
 9288SOL     OW39496   4.509   0.279   4.598 -0.0461 -0.1419 -0.1408
 9288SOL    HW139497   4.507   0.185   4.583  0.3847  0.0783 -1.6154
 9288SOL    HW239498   4.426   0.309   4.561 -0.2156 -0.0554  0.3097
 9289SOL     OW39499   4.710   3.388   2.774  0.2919  0.3082  0.0684
 9289SOL    HW139500   0.002   3.302   2.747 -1.3338 -0.3082  0.2011
 9289SOL    HW239501   0.052   3.437   2.788  0.5623 -0.2415  0.4084
 9290SOL     OW39502   0.091   4.579   4.253 -0.5188  0.4938  0.2195
 9290SOL    HW139503   0.040   4.619   4.324  0.6404  0.8715  0.8220
 9290SOL    HW239504   0.176   4.556   4.288 -0.5403 -2.2962 -1.5582
 9291SOL     OW39505   1.095   0.442   6.629 -0.0246  0.1798  0.3882
 9291SOL    HW139506   1.168   0.456   6.689 -0.1652  1.5374  0.2406
 9291SOL    HW239507   1.123   0.369   6.573 -0.5795 -0.1203  0.5063
 9292SOL     OW39508   1.185   2.710   7.711  0.5451 -0.0528  0.0278
 9292SOL    HW139509   1.241   2.685   7.785  3.1135 -2.2222 -2.6163
 9292SOL    HW239510   1.101   2.686   7.750  1.6181  0.0300  2.3874
 9293SOL     OW39511   2.623   1.335   4.789 -0.6619  0.1825 -0.2438
 9293SOL    HW139512   2.636   1.430   4.785 -2.4843  0.4698  0.2848
 9293SOL    HW239513   2.540   1.337   4.837 -0.9514 -1.1763 -0.7108
 9294SOL     OW39514   2.806   1.568   0.519 -0.2988  0.1884 -0.0467
 9294SOL    HW139515   2.836   1.477   0.529  3.4807  1.2741 -1.5069
 9294SOL    HW239516   2.738   1.549   0.454  0.3768 -0.1928 -0.6425
 9295SOL     OW39517   4.445   3.433   8.543 -0.3232  0.1465 -0.2714
 9295SOL    HW139518   4.514   3.458   8.605 -0.4777 -1.0376  0.3870
 9295SOL    HW239519   4.459   3.340   8.527  1.5484  0.2396  0.7979
 9296SOL     OW39520   1.515   4.224   2.180  0.6048 -0.4377  0.6509
 9296SOL    HW139521   1.572   4.285   2.133 -1.6082 -0.6022 -2.2533
 9296SOL    HW239522   1.526   4.152   2.118  3.5100  0.9097 -0.3952
 9297SOL     OW39523   1.377   0.615   4.624  0.0680  0.4227 -0.6458
 9297SOL    HW139524   1.397   0.577   4.710 -0.5279  1.8004  0.0933
 9297SOL    HW239525   1.460   0.658   4.603  1.1904 -1.5986 -0.3770
 9298SOL     OW39526   2.664   3.200   3.759  0.4271  0.4710  0.8058
 9298SOL    HW139527   2.630   3.128   3.705  0.3349  1.8672 -0.9919
 9298SOL    HW239528   2.591   3.258   3.777  0.3402 -0.2213  2.6411
 9299SOL     OW39529   1.017   2.447   4.438 -0.0961 -0.1539  0.3948
 9299SOL    HW139530   1.039   2.363   4.399  2.0414 -0.7888  2.9484
 9299SOL    HW239531   1.009   2.504   4.361  1.4532  1.4296  1.4011
 9300SOL     OW39532   2.111   2.419   2.992 -0.1240  0.4296 -0.1871
 9300SOL    HW139533   2.113   2.509   2.962  2.3168  1.2236  2.3936
 9300SOL    HW239534   2.188   2.376   2.955  0.1182  0.2075  0.5730
 9301SOL     OW39535   3.431   0.255   9.451 -0.3209  0.1531 -0.2310
 9301SOL    HW139536   3.493   0.182   9.443 -0.2217  0.2505 -0.3614
 9301SOL    HW239537   3.434   0.287   9.360 -1.9649 -2.3114 -1.1372
 9302SOL     OW39538   0.373   0.894  14.308  0.2567 -0.5728  0.2707
 9302SOL    HW139539   0.444   0.951  14.277  0.8960 -1.5717 -0.1013
 9302SOL    HW239540   0.294   0.949  14.310 -0.7096 -1.8681 -1.4524
 9303SOL     OW39541   3.961   0.159  10.712  0.4325  0.2733 -0.1767
 9303SOL    HW139542   3.970   0.229  10.648  1.0662 -0.6660 -1.1092
 9303SOL    HW239543   3.882   0.194  10.755 -0.0482  0.6765 -1.4010
 9304SOL     OW39544   2.340   1.107   5.718 -0.5867  0.1861 -0.0877
 9304SOL    HW139545   2.322   1.113   5.624  1.0712 -1.3341 -0.4973
 9304SOL    HW239546   2.428   1.069   5.727  0.1988  1.8715 -0.6003
 9305SOL     OW39547   4.421   4.370   0.764 -0.0662  0.8074 -0.1100
 9305SOL    HW139548   4.473   4.412   0.696 -0.0475 -2.6016 -2.1920
 9305SOL    HW239549   4.461   4.382   0.850 -2.7581 -2.3770  1.6000
 9306SOL     OW39550   2.001   0.553   6.804  0.2909  0.2356 -0.3072
 9306SOL    HW139551   1.969   0.573   6.892 -0.0527  0.2541 -0.4331
 9306SOL    HW239552   2.039   0.469   6.830 -2.6718 -0.7529  0.8282
 9307SOL     OW39553   0.950   3.441   0.227 -0.2796 -0.6576  0.0635
 9307SOL    HW139554   0.973   3.384   0.154  1.4521 -0.2515  0.2894
 9307SOL    HW239555   0.984   3.525   0.196  0.8029 -0.4655  1.7711
 9308SOL     OW39556   3.789   1.337   1.635 -0.3210 -0.2976 -0.0186
 9308SOL    HW139557   3.770   1.415   1.687  2.5008  0.3878 -0.0152
 9308SOL    HW239558   3.711   1.330   1.581  0.8368  0.2469 -1.7782
 9309SOL     OW39559   1.831   0.492   9.395 -0.4114 -0.4122  0.3144
 9309SOL    HW139560   1.835   0.535   9.480  0.6179 -0.1990  0.1620
 9309SOL    HW239561   1.737   0.474   9.391 -0.6813  1.2382 -1.0833
 9310SOL     OW39562   0.941   1.228   8.675 -0.2943  0.0301 -0.3975
 9310SOL    HW139563   0.965   1.275   8.754  2.6214 -0.9826 -0.6797
 9310SOL    HW239564   0.865   1.176   8.701  0.1721 -0.3092  0.3000
 9311SOL     OW39565   0.329   0.612   5.757 -0.6219 -0.4514 -0.5370
 9311SOL    HW139566   0.329   0.693   5.706 -1.9531 -0.7263 -0.9805
 9311SOL    HW239567   0.321   0.547   5.688  2.1561 -2.2689  0.8528
 9312SOL     OW39568   0.354   1.604   5.415  0.5612 -0.2107 -0.2341
 9312SOL    HW139569   0.447   1.588   5.430  0.3372 -0.2998  1.0989
 9312SOL    HW239570   0.358   1.690   5.375  0.0197  0.1380  0.4573
 9313SOL     OW39571   4.022   3.691  11.302  0.0933  0.3641  0.1947
 9313SOL    HW139572   4.026   3.612  11.249  0.7685 -0.3916  1.3818
 9313SOL    HW239573   3.934   3.719  11.279  0.4437 -0.1094 -1.7079
 9314SOL     OW39574   2.695   3.410   7.541 -0.0009 -0.1637 -0.0271
 9314SOL    HW139575   2.650   3.400   7.625  2.5961 -1.6046  1.1842
 9314SOL    HW239576   2.698   3.317   7.517 -1.0660 -0.3400  0.4987
 9315SOL     OW39577   2.370   0.000   7.859  0.3469  0.0931  0.1110
 9315SOL    HW139578   2.325   0.062   7.801  1.4020 -0.9268 -1.7770
 9315SOL    HW239579   2.462   0.018   7.842  0.3946  1.3704  1.7114
 9316SOL     OW39580   1.825   2.541   9.141  0.2528 -0.2484  0.2947
 9316SOL    HW139581   1.751   2.600   9.124 -0.3265 -1.3690 -1.1039
 9316SOL    HW239582   1.881   2.557   9.064  1.3348 -0.2332  1.0882
 9317SOL     OW39583   3.450   3.392   7.216 -0.1055  0.0885  0.1406
 9317SOL    HW139584   3.456   3.378   7.121 -1.0606 -2.7599  0.5159
 9317SOL    HW239585   3.379   3.331   7.237 -1.7077  0.6793 -3.5944
 9318SOL     OW39586   0.302   3.327   3.798 -0.4606 -0.0819 -0.4436
 9318SOL    HW139587   0.266   3.239   3.783 -1.6792 -0.2640  3.5317
 9318SOL    HW239588   0.393   3.298   3.802 -0.1076  1.1571  0.3645
 9319SOL     OW39589   3.427   2.259   6.393 -0.2183 -0.1515 -0.2679
 9319SOL    HW139590   3.443   2.222   6.306 -2.5430  1.8374 -1.5427
 9319SOL    HW239591   3.469   2.193   6.447 -0.2038 -1.1176 -1.4611
 9320SOL     OW39592   2.354   1.565  11.791 -0.0568  0.2615  0.0066
 9320SOL    HW139593   2.368   1.632  11.724 -0.3295 -1.6018 -1.9095
 9320SOL    HW239594   2.435   1.516  11.775 -0.8536 -1.7067  2.0735
 9321SOL     OW39595   1.643   3.949   9.095  0.3056  0.1648 -0.7482
 9321SOL    HW139596   1.589   3.912   9.165 -0.7202  1.7598 -0.6856
 9321SOL    HW239597   1.696   4.012   9.143 -0.3719 -0.7074  1.1309
 9322SOL     OW39598   0.294   4.474   4.733 -0.0744 -0.0324 -0.8300
 9322SOL    HW139599   0.236   4.423   4.677  1.0323 -2.6770  0.4734
 9322SOL    HW239600   0.270   4.437   4.818  0.2560 -1.2523 -1.2816
 9323SOL     OW39601   3.955   1.083   3.212  0.0398 -0.1186  0.3084
 9323SOL    HW139602   3.866   1.051   3.230 -0.1677  0.9760  1.2745
 9323SOL    HW239603   3.981   1.118   3.297  0.2480 -0.3542  0.3379
 9324SOL     OW39604   3.281   0.876   1.929 -0.3096 -0.1446 -0.0980
 9324SOL    HW139605   3.199   0.865   1.977 -0.0655 -1.6075 -0.0141
 9324SOL    HW239606   3.303   0.964   1.961 -0.2327 -0.9686  2.1427
 9325SOL     OW39607   2.412   1.349  16.739 -0.1050 -0.5247  0.1263
 9325SOL    HW139608   2.493   1.299  16.746 -0.6372 -1.1472  1.7889
 9325SOL    HW239609   2.354   1.276  16.760  0.5841 -1.1342 -0.1053
 9326SOL     OW39610   2.684   0.491   2.089 -0.2545 -0.2333 -0.3848
 9326SOL    HW139611   2.617   0.559   2.097 -0.2044 -0.2289 -0.0137
 9326SOL    HW239612   2.757   0.551   2.074  0.5076 -1.0801 -0.0533
 9327SOL     OW39613   3.865   1.860  14.719  0.5262  0.3058 -0.1119
 9327SOL    HW139614   3.876   1.951  14.691 -0.3137  0.6129  0.5141
 9327SOL    HW239615   3.811   1.886  14.795 -1.6937 -0.4470 -1.4254
 9328SOL     OW39616   1.682   1.549   8.008 -0.4574 -0.3724  0.1675
 9328SOL    HW139617   1.680   1.568   7.914 -0.4568  0.9447  0.4301
 9328SOL    HW239618   1.695   1.638   8.041 -1.3438 -0.7026  1.4191
 9329SOL     OW39619   1.051   1.178   3.339  0.2376 -0.4764  0.3915
 9329SOL    HW139620   1.038   1.143   3.427 -0.6593  0.8018  0.7597
 9329SOL    HW239621   1.060   1.094   3.294 -2.8275 -0.1334 -0.8070
 9330SOL     OW39622   3.703   3.968   6.799 -0.2093  0.2071 -0.1447
 9330SOL    HW139623   3.781   4.014   6.769  0.4518 -0.3215  0.7639
 9330SOL    HW239624   3.686   3.896   6.738 -1.5969 -0.0310  0.5132
 9331SOL     OW39625   0.519   0.624   1.937  0.0306  0.1117  0.4621
 9331SOL    HW139626   0.610   0.601   1.917 -0.2154 -0.0413 -0.4477
 9331SOL    HW239627   0.531   0.621   2.032  0.4904  0.9366  0.4326
 9332SOL     OW39628   4.211   0.375   7.234 -0.7566 -0.5280 -0.2941
 9332SOL    HW139629   4.250   0.334   7.311  0.3118 -3.8660 -2.6181
 9332SOL    HW239630   4.256   0.336   7.160  0.8908  1.6382 -0.4446
 9333SOL     OW39631   3.187   2.250   4.581  0.2888 -0.4967 -0.3612
 9333SOL    HW139632   3.167   2.328   4.529  0.0919  0.3041  0.9264
 9333SOL    HW239633   3.226   2.291   4.658  1.1869 -1.3484 -0.3639
 9334SOL     OW39634   1.102   2.564   0.453 -0.2159  0.7205 -0.6148
 9334SOL    HW139635   1.037   2.632   0.438  0.1789  1.0311 -0.9119
 9334SOL    HW239636   1.160   2.619   0.506 -1.0133 -0.2994  1.3130
 9335SOL     OW39637   1.348   1.163   2.224 -0.4784 -0.1356 -0.2965
 9335SOL    HW139638   1.373   1.252   2.250  0.2937 -0.1682 -0.9536
 9335SOL    HW239639   1.337   1.124   2.311 -0.5617 -3.0740 -1.6421
 9336SOL     OW39640   0.113   4.646   8.338  0.3389 -0.5349  0.1517
 9336SOL    HW139641   0.101   4.725   8.284 -0.0684 -1.1213 -0.6087
 9336SOL    HW239642   0.206   4.627   8.330  0.3385 -0.0409 -1.0013
 9337SOL     OW39643   1.977   3.665  16.383 -0.4588  0.3110  0.1997
 9337SOL    HW139644   1.894   3.677  16.428 -0.2986 -0.4969  0.7068
 9337SOL    HW239645   1.964   3.738  16.322 -2.7108 -0.1423  0.1320
 9338SOL     OW39646   1.498   3.688   6.089 -0.5716  0.1526  0.1612
 9338SOL    HW139647   1.580   3.706   6.135  0.1623  0.3778 -1.2233
 9338SOL    HW239648   1.490   3.768   6.037  0.4912  1.1164  1.4626
 9339SOL     OW39649   1.356   2.377   2.228 -0.0714  0.2157  0.1774
 9339SOL    HW139650   1.318   2.413   2.308 -0.1057  0.2367  0.1516
 9339SOL    HW239651   1.394   2.457   2.192  1.0544 -1.2620 -1.9395
 9340SOL     OW39652   1.351   1.184  14.465 -0.0620  0.1324 -0.1564
 9340SOL    HW139653   1.291   1.118  14.499 -1.3215 -0.2766 -3.1241
 9340SOL    HW239654   1.423   1.124  14.449  0.0162 -0.0695  0.9687
 9341SOL     OW39655   0.922   1.981   1.065 -0.2485  0.1966  0.1376
 9341SOL    HW139656   0.894   1.937   1.145  0.7946 -0.2888  0.2313
 9341SOL    HW239657   0.891   1.918   0.999 -0.6047  0.6252 -0.1095
 9342SOL     OW39658   2.758   1.781  13.817 -0.0876  0.2679 -0.0095
 9342SOL    HW139659   2.746   1.730  13.896 -0.6718  0.4689  0.0335
 9342SOL    HW239660   2.762   1.706  13.758  0.9479 -0.3170  0.8103
 9343SOL     OW39661   2.759   0.404   1.390  0.5087 -0.0070 -0.1900
 9343SOL    HW139662   2.816   0.329   1.407  2.7738  1.7680  0.0904
 9343SOL    HW239663   2.837   0.459   1.379 -1.1775  2.1209 -1.3022
 9344SOL     OW39664   2.778   4.240   4.595 -0.0100  0.0788  0.2178
 9344SOL    HW139665   2.755   4.170   4.533 -0.1384  1.3062 -1.1177
 9344SOL    HW239666   2.779   4.323   4.547  1.2368 -0.4808 -0.7502
 9345SOL     OW39667   1.507   1.484   8.240 -0.1960  0.1911 -0.6024
 9345SOL    HW139668   1.576   1.532   8.195  0.8834 -2.1713 -1.4900
 9345SOL    HW239669   1.508   1.528   8.325 -0.4082 -0.4316 -0.2733
 9346SOL     OW39670   2.069   1.886   1.445  0.3768 -0.6159 -0.2192
 9346SOL    HW139671   2.052   1.926   1.360 -1.0013  0.0158  0.3610
 9346SOL    HW239672   2.095   1.959   1.502  2.0818 -0.7488 -0.8171
 9347SOL     OW39673   1.126   4.070   8.033 -0.1737 -0.0371 -0.2002
 9347SOL    HW139674   1.054   4.106   8.085  0.0644  0.3060 -0.1160
 9347SOL    HW239675   1.207   4.112   8.061 -1.3918  1.4075  1.1905
 9348SOL     OW39676   0.637   0.522   9.021 -0.1117 -0.0989  0.9050
 9348SOL    HW139677   0.627   0.615   9.037 -1.3825  0.2224 -1.8067
 9348SOL    HW239678   0.712   0.518   8.961 -1.2434  1.9019 -0.6148
 9349SOL     OW39679   1.479   0.040   0.608 -0.0484 -0.2528 -0.2161
 9349SOL    HW139680   1.496   0.134   0.602 -1.3855  0.0041 -0.1123
 9349SOL    HW239681   1.438   0.040   0.695 -1.2693  3.5319 -0.7715
 9350SOL     OW39682   2.822   3.957   1.860 -0.5113 -0.0563 -1.1338
 9350SOL    HW139683   2.727   3.967   1.856 -0.5059 -0.4850 -2.0681
 9350SOL    HW239684   2.845   4.045   1.893 -0.1884  0.5118 -2.8921
 9351SOL     OW39685   0.121   2.480   3.519  0.0902 -0.2753 -0.0606
 9351SOL    HW139686   0.066   2.554   3.544  2.1551  0.8556  1.2014
 9351SOL    HW239687   0.118   2.471   3.424 -1.2257 -3.0185  0.2586
 9352SOL     OW39688   4.005   2.725  16.028  0.3557 -0.0837 -0.0110
 9352SOL    HW139689   3.991   2.657  15.961 -3.4148  0.0531  0.6799
 9352SOL    HW239690   4.091   2.705  16.065  0.9037  0.1696 -1.1306
 9353SOL     OW39691   3.335   0.434   6.325  0.0473  0.2015 -0.0607
 9353SOL    HW139692   3.297   0.522   6.330 -1.5821 -0.4986 -0.2118
 9353SOL    HW239693   3.414   0.451   6.377 -0.4407  0.2348  0.6583
 9354SOL     OW39694   2.650   2.548   3.762  0.3455 -0.1398  0.1051
 9354SOL    HW139695   2.638   2.473   3.820 -0.4928  0.0856  0.2121
 9354SOL    HW239696   2.584   2.537   3.693  0.7418  1.6021 -0.5564
 9355SOL     OW39697   0.515   1.061   7.419  0.1210 -0.1427 -0.1554
 9355SOL    HW139698   0.430   1.094   7.449 -0.0389 -0.3177 -0.4231
 9355SOL    HW239699   0.530   1.109   7.338 -0.3355  0.8016  0.3206
 9356SOL     OW39700   4.666   4.577   5.021 -0.4614 -0.2665 -0.2497
 9356SOL    HW139701   4.733   4.514   5.049  0.9019  2.1674  2.0023
 9356SOL    HW239702   4.596   4.526   4.981  0.1691 -0.6651 -0.8294
 9357SOL     OW39703   2.956   3.971  15.062 -0.5790  0.8051  0.4624
 9357SOL    HW139704   2.861   3.961  15.050 -0.6215  0.9930  0.6421
 9357SOL    HW239705   2.979   3.900  15.002  0.7920  0.7233  1.0990
 9358SOL     OW39706   1.068   4.613   7.802 -0.1531  0.5245  0.5767
 9358SOL    HW139707   1.032   4.684   7.749  2.0186  1.7367  0.7668
 9358SOL    HW239708   1.163   4.620   7.798 -0.0767 -0.4499  0.6569
 9359SOL     OW39709   3.650   0.321   8.499  0.0391  0.0308  0.2619
 9359SOL    HW139710   3.673   0.375   8.574 -0.3025  0.7069 -0.1279
 9359SOL    HW239711   3.714   0.250   8.503 -0.2867 -0.1435  2.4223
 9360SOL     OW39712   2.444   1.744   5.385  0.2290 -0.4439  0.2792
 9360SOL    HW139713   2.488   1.740   5.300  0.8507 -0.9900  0.6250
 9360SOL    HW239714   2.357   1.774   5.360  0.6979 -0.1982 -1.0559
 9361SOL     OW39715   0.181   2.912  10.324 -0.0715 -0.3787 -0.1526
 9361SOL    HW139716   0.182   2.926  10.419  0.9180  0.4410 -0.2816
 9361SOL    HW239717   0.216   2.825  10.303  0.9116 -0.1668  0.6171
 9362SOL     OW39718   1.980   0.971   5.143  0.4432 -0.1078  0.7332
 9362SOL    HW139719   1.941   0.884   5.142  1.8515 -0.7038 -2.5388
 9362SOL    HW239720   1.909   1.023   5.105 -2.0204 -2.0537  2.6661
 9363SOL     OW39721   2.407   1.673   4.977  0.0148 -0.1872  0.0269
 9363SOL    HW139722   2.323   1.689   5.021  0.0701  1.0165 -0.2934
 9363SOL    HW239723   2.429   1.758   4.940  0.1534 -1.6278 -3.1993
 9364SOL     OW39724   3.039   1.331  10.185  0.2959  0.5284 -0.2248
 9364SOL    HW139725   2.943   1.325  10.183  0.1937  0.9514  3.7279
 9364SOL    HW239726   3.052   1.334  10.090 -0.5795 -1.9177 -0.4233
 9365SOL     OW39727   1.627   2.619  11.384 -0.3144 -0.5467 -0.2015
 9365SOL    HW139728   1.683   2.545  11.407  0.7504 -0.0828 -1.2817
 9365SOL    HW239729   1.613   2.608  11.290  0.6562  1.0990 -0.5448
 9366SOL     OW39730   2.188   2.269   0.885 -0.4083 -0.1802 -0.1403
 9366SOL    HW139731   2.106   2.306   0.852 -0.0867 -3.3252 -4.5625
 9366SOL    HW239732   2.246   2.322   0.830 -0.0123 -0.3244  0.1338
 9367SOL     OW39733   0.025   0.078   2.844  0.6424  0.3377  0.0031
 9367SOL    HW139734   0.011   0.171   2.862 -0.0562  0.1852  0.2344
 9367SOL    HW239735   4.675   0.048   2.827  1.4983 -2.7942  1.1763
 9368SOL     OW39736   3.609   0.925   7.599  0.4106  0.3478  0.3331
 9368SOL    HW139737   3.573   0.976   7.526 -0.7926 -4.2030 -2.2628
 9368SOL    HW239738   3.692   0.971   7.609  0.1635  0.6729  0.9136
 9369SOL     OW39739   4.039   2.461  13.510 -0.4259  0.0369  0.3408
 9369SOL    HW139740   3.994   2.384  13.545  0.5006 -0.3682  0.6423
 9369SOL    HW239741   4.110   2.416  13.465 -0.2459  0.1462  0.5157
 9370SOL     OW39742   2.168   3.975   0.911 -0.1498 -0.4128  0.3093
 9370SOL    HW139743   2.215   4.014   0.837  0.5997  0.8473  1.4422
 9370SOL    HW239744   2.228   3.905   0.936 -0.5057 -1.0799 -0.7060
 9371SOL     OW39745   2.758   4.606   1.125 -1.0015  0.2430  0.0295
 9371SOL    HW139746   2.704   4.538   1.165  0.3736  0.6015  2.5047
 9371SOL    HW239747   2.731   4.595   1.034  2.1310 -3.6586 -0.4246
 9372SOL     OW39748   4.407   4.258   8.241 -0.5923 -0.4003 -0.2006
 9372SOL    HW139749   4.501   4.252   8.219 -0.9930  0.1299 -2.0354
 9372SOL    HW239750   4.401   4.215   8.327  1.3333  0.0969  0.1917
 9373SOL     OW39751   2.205   3.900   8.132 -0.2015  0.2621 -0.1220
 9373SOL    HW139752   2.119   3.915   8.173  0.0585  0.3031  0.4048
 9373SOL    HW239753   2.220   3.807   8.150 -0.8594 -0.2505 -2.2098
 9374SOL     OW39754   3.130   1.786  15.470  0.0694  0.1536 -0.2572
 9374SOL    HW139755   3.135   1.879  15.449  0.0225  0.4910  1.2224
 9374SOL    HW239756   3.053   1.766  15.417  0.5942 -2.3977 -0.0336
 9375SOL     OW39757   1.894   1.019   4.242  0.7969  0.1421 -0.3022
 9375SOL    HW139758   1.814   1.069   4.225  1.5506  0.9072 -1.6256
 9375SOL    HW239759   1.959   1.087   4.223  1.2431  0.1616  1.3239
 9376SOL     OW39760   1.648   4.120  12.470  0.2095 -0.3022 -0.1834
 9376SOL    HW139761   1.570   4.175  12.469  0.6770  0.3798  1.4249
 9376SOL    HW239762   1.700   4.157  12.399  1.3339  0.4128  1.0166
 9377SOL     OW39763   2.808   4.390   8.051  0.2699 -0.5253  0.1102
 9377SOL    HW139764   2.904   4.390   8.054  0.2341  2.2432  0.5107
 9377SOL    HW239765   2.796   4.295   8.047 -0.4063 -0.3972 -1.0093
 9378SOL     OW39766   2.961   3.821   5.063  0.2390  0.2691 -0.0727
 9378SOL    HW139767   2.965   3.753   5.130 -1.4948  0.1586 -0.0819
 9378SOL    HW239768   2.876   3.859   5.086  0.6736  1.9054 -1.1569
 9379SOL     OW39769   2.355   3.749   5.902  0.4680 -0.0625  0.3553
 9379SOL    HW139770   2.296   3.783   5.835  0.9526  0.0640 -0.0070
 9379SOL    HW239771   2.432   3.803   5.885  0.6174 -0.1831  0.6466
 9380SOL     OW39772   2.775   4.516  11.870 -0.6543  0.3346  0.0884
 9380SOL    HW139773   2.798   4.589  11.927  1.7213 -0.1399 -0.2716
 9380SOL    HW239774   2.802   4.555  11.787 -0.2939 -0.5881 -0.2246
 9381SOL     OW39775   1.882   2.480   9.943  0.0736 -0.0173 -0.5325
 9381SOL    HW139776   1.804   2.425   9.937  0.9614 -1.2736 -0.3637
 9381SOL    HW239777   1.838   2.565   9.936  1.5336  0.7073 -0.7435
 9382SOL     OW39778   3.934   2.395   8.704  0.2339  0.0918  0.0492
 9382SOL    HW139779   3.873   2.464   8.679 -1.3664 -0.6139  1.9780
 9382SOL    HW239780   3.902   2.389   8.794 -1.5467  1.6090 -0.4896
 9383SOL     OW39781   1.658   4.159   7.808  0.0885  0.4718 -0.2491
 9383SOL    HW139782   1.692   4.159   7.898 -1.1145 -1.3366  0.2002
 9383SOL    HW239783   1.590   4.092   7.813 -0.4353  0.8345 -2.5147
 9384SOL     OW39784   0.050   0.231   9.297  0.0768 -0.0009  0.0566
 9384SOL    HW139785   0.135   0.276   9.302 -0.2880  0.6892  0.0803
 9384SOL    HW239786   4.734   0.306   9.319  1.9771  1.6311 -0.7741
 9385SOL     OW39787   1.388   2.785   9.044  0.3043  0.3304  0.1147
 9385SOL    HW139788   1.324   2.729   9.088 -0.4998 -0.1085 -1.6183
 9385SOL    HW239789   1.458   2.723   9.063  0.1304  0.1048  0.0184
 9386SOL     OW39790   1.392   0.487  13.550 -0.5126  0.2582 -0.3300
 9386SOL    HW139791   1.448   0.446  13.484 -0.6059 -2.0053  0.9928
 9386SOL    HW239792   1.452   0.512  13.620  0.2534  2.3341 -1.7422
 9387SOL     OW39793   3.684   0.805   1.844  0.1503  0.1163 -0.0689
 9387SOL    HW139794   3.676   0.710   1.840 -1.8286  0.2387  1.3163
 9387SOL    HW239795   3.606   0.821   1.792 -0.4064  0.9271  1.0110
 9388SOL     OW39796   1.562   2.951   0.018 -0.7918 -0.3592  0.4627
 9388SOL    HW139797   1.535   2.999   0.096  1.3887  1.3869  0.1115
 9388SOL    HW239798   1.530   2.863   0.039 -0.9201 -0.9091 -2.0554
 9389SOL     OW39799   2.716   2.184   1.517  0.6912  0.0454  0.4921
 9389SOL    HW139800   2.699   2.236   1.438 -1.8445  1.3666  1.8974
 9389SOL    HW239801   2.722   2.095   1.483 -0.5108  0.6137 -1.1955
 9390SOL     OW39802   3.377   2.484  14.602 -0.0684  1.1614 -0.3871
 9390SOL    HW139803   3.460   2.528  14.620 -0.3806  1.1883  0.9813
 9390SOL    HW239804   3.355   2.455  14.690  0.6158  2.2783  0.1465
 9391SOL     OW39805   4.629   0.572   1.218 -0.6089  0.0915  0.0619
 9391SOL    HW139806   4.670   0.517   1.152 -1.1761 -1.2311  0.8258
 9391SOL    HW239807   4.536   0.559   1.204 -0.1527 -1.5448 -1.5318
 9392SOL     OW39808   0.466   1.874   4.515  0.2360  0.2886  0.2680
 9392SOL    HW139809   0.531   1.937   4.546  1.6533 -1.6357  1.1611
 9392SOL    HW239810   0.507   1.847   4.433  2.0750 -0.2690  1.3703
 9393SOL     OW39811   4.536   2.627  11.729 -0.7582 -0.7741  0.3979
 9393SOL    HW139812   4.504   2.546  11.766 -0.4440 -0.5052  1.2515
 9393SOL    HW239813   4.500   2.698  11.783  1.3989 -0.1314  0.9981
 9394SOL     OW39814   3.894   0.263   2.014 -0.0502 -0.8482 -0.4352
 9394SOL    HW139815   3.864   0.238   2.102 -0.6471 -2.0456 -0.9801
 9394SOL    HW239816   3.989   0.250   2.024 -0.2401 -1.5822  0.4373
 9395SOL     OW39817   3.338   1.124  12.299 -0.4130 -0.0916 -0.9909
 9395SOL    HW139818   3.347   1.200  12.242 -0.3898  1.2397  0.7699
 9395SOL    HW239819   3.429   1.101  12.317  0.2754  1.6268 -2.2278
 9396SOL     OW39820   0.577   4.659   7.719 -0.2969 -0.3913 -0.1104
 9396SOL    HW139821   0.654   4.646   7.774 -0.5115  0.2448  0.3444
 9396SOL    HW239822   0.499   4.621   7.761  1.6242 -2.5029  1.5264
 9397SOL     OW39823   2.678   0.395   3.908 -0.3500  0.0253 -0.2046
 9397SOL    HW139824   2.591   0.367   3.883 -0.3923 -1.0415  1.1204
 9397SOL    HW239825   2.723   0.312   3.921 -0.3011  0.0207 -0.3942
 9398SOL     OW39826   1.689   4.426   2.711  0.3797 -0.1142  0.5603
 9398SOL    HW139827   1.668   4.497   2.650 -0.9229  0.4594  1.6951
 9398SOL    HW239828   1.781   4.449   2.727  0.7956 -0.0967 -1.7647
 9399SOL     OW39829   0.756   0.794   6.054  0.3474  0.0321  0.3242
 9399SOL    HW139830   0.691   0.746   6.001 -0.6930  1.6738  0.1281
 9399SOL    HW239831   0.750   0.885   6.026  1.3674 -0.1150 -0.3526
 9400SOL     OW39832   1.599   4.181   2.813 -0.4863 -0.0359  0.2892
 9400SOL    HW139833   1.563   4.151   2.729  1.8815  1.9390 -1.4171
 9400SOL    HW239834   1.634   4.263   2.777  0.8868 -0.5747  0.4189
 9401SOL     OW39835   3.484   4.202   7.954  0.2472  0.4839 -0.3458
 9401SOL    HW139836   3.483   4.224   7.861  0.5331  1.9699 -0.0092
 9401SOL    HW239837   3.393   4.173   7.964 -0.2048  1.9350 -0.2578
 9402SOL     OW39838   0.881   0.367   8.171  0.2928  0.5372 -0.2269
 9402SOL    HW139839   0.946   0.430   8.203  0.2695 -0.6721  2.2216
 9402SOL    HW239840   0.931   0.292   8.137 -0.3650 -0.9552  2.0954
 9403SOL     OW39841   1.186   4.008  17.338 -0.4665 -0.3915 -0.6612
 9403SOL    HW139842   1.167   4.097  17.367  2.6792  0.3669 -0.9358
 9403SOL    HW239843   1.253   3.973  17.397 -0.2931 -0.0874 -0.6769
 9404SOL     OW39844   3.289   1.089  13.391  0.0968  0.0115  0.2067
 9404SOL    HW139845   3.239   1.143  13.330 -4.5447 -0.7692  3.3315
 9404SOL    HW239846   3.242   1.104  13.472 -1.0490  1.9926 -0.8139
 9405SOL     OW39847   4.418   1.802   5.317  0.1810  0.0201 -0.2429
 9405SOL    HW139848   4.441   1.765   5.232  0.2805  1.0090 -0.6361
 9405SOL    HW239849   4.504   1.819   5.355  0.9539 -1.4635 -1.3191
 9406SOL     OW39850   0.722   0.463   4.559 -0.4713  0.1719  0.1216
 9406SOL    HW139851   0.778   0.415   4.499  0.3134  1.7755 -0.4417
 9406SOL    HW239852   0.635   0.424   4.553  0.1415 -0.9711 -1.1551
 9407SOL     OW39853   2.374   1.053   7.798 -0.2343 -0.3858  0.5194
 9407SOL    HW139854   2.342   1.045   7.708  1.0963  1.0717 -0.0712
 9407SOL    HW239855   2.440   0.984   7.792 -0.1841 -0.2337 -0.7530
 9408SOL     OW39856   0.937   1.426   3.427 -0.4250 -0.1373 -0.3729
 9408SOL    HW139857   1.022   1.459   3.457 -0.3501 -1.6860  1.1536
 9408SOL    HW239858   0.973   1.349   3.382 -0.0666  0.9096 -1.8470
 9409SOL     OW39859   0.759   3.061   5.071 -0.3142 -0.5343 -0.4962
 9409SOL    HW139860   0.838   3.069   5.125 -0.8817 -0.2636  0.2890
 9409SOL    HW239861   0.695   3.046   5.140 -0.9031 -1.5133 -1.2408
 9410SOL     OW39862   4.393   1.058  16.096 -0.2914 -0.6054 -0.5932
 9410SOL    HW139863   4.454   1.115  16.049 -0.5728  0.6197  0.5229
 9410SOL    HW239864   4.452   0.984  16.116 -0.4296 -0.2677  1.0897
 9411SOL     OW39865   2.542   4.579   5.429 -0.0368 -0.0024  0.1661
 9411SOL    HW139866   2.610   4.607   5.368  0.0953  1.5475  1.0332
 9411SOL    HW239867   2.519   4.662   5.471  1.6438  1.0410 -0.9981
 9412SOL     OW39868   2.478   3.033   9.024  0.3413  0.0635  0.2636
 9412SOL    HW139869   2.566   2.998   9.016  0.6763  1.1531 -0.7110
 9412SOL    HW239870   2.486   3.046   9.119 -3.0037 -1.5880  0.7869
 9413SOL     OW39871   0.913   2.952  14.464 -0.0650  0.2196  0.3560
 9413SOL    HW139872   0.937   2.860  14.467  1.2088  0.4617 -2.4398
 9413SOL    HW239873   0.978   2.992  14.406  1.9488 -0.2942  2.2927
 9414SOL     OW39874   3.602   3.832   2.968  0.5068 -0.4020 -0.0609
 9414SOL    HW139875   3.508   3.823   2.956  0.6203 -0.5466 -0.8310
 9414SOL    HW239876   3.610   3.874   3.054  1.3181  0.3657 -0.5032
 9415SOL     OW39877   3.964   1.601  11.220  0.5437 -0.1525  0.3332
 9415SOL    HW139878   3.990   1.612  11.311  1.8299  0.2663 -0.0902
 9415SOL    HW239879   4.039   1.550  11.191  0.5159  0.2975 -0.5267
 9416SOL     OW39880   2.619   1.793   9.263 -0.7003 -0.2019 -0.5327
 9416SOL    HW139881   2.579   1.880   9.273  0.7252  0.2632  1.3198
 9416SOL    HW239882   2.553   1.750   9.210  0.1372 -0.0708 -1.6835
 9417SOL     OW39883   2.134   1.852  11.640  0.0542  0.4005 -0.0932
 9417SOL    HW139884   2.113   1.801  11.718  2.1375  1.4443  1.1350
 9417SOL    HW239885   2.210   1.896  11.677  1.4043 -0.3423 -1.9491
 9418SOL     OW39886   4.574   1.153   3.769  0.6048  0.0234 -0.3697
 9418SOL    HW139887   4.578   1.245   3.797 -0.7055  0.0166 -0.1330
 9418SOL    HW239888   4.647   1.131   3.711  1.1218  1.4984 -0.2873
 9419SOL     OW39889   2.591   4.558   6.870 -0.3780  0.3146 -0.3223
 9419SOL    HW139890   2.686   4.543   6.875 -0.2283  0.8063 -1.6104
 9419SOL    HW239891   2.586   4.635   6.927 -1.6076  1.4303 -1.9101
 9420SOL     OW39892   0.149   0.883   9.854  0.2313 -0.0555 -0.0485
 9420SOL    HW139893   0.230   0.847   9.818  1.3900 -0.3469  2.8431
 9420SOL    HW239894   0.141   0.842   9.940  0.1976  1.8345  0.8470
 9421SOL     OW39895   4.482   2.236   3.012 -0.0022  0.0991  0.0224
 9421SOL    HW139896   4.387   2.229   3.008  0.0259 -0.3983  0.2529
 9421SOL    HW239897   4.495   2.274   3.099  0.4315  2.1231 -0.9166
 9422SOL     OW39898   3.606   1.320   6.533  0.3503 -0.5565 -0.0140
 9422SOL    HW139899   3.662   1.307   6.610 -0.3847  1.0768  0.8147
 9422SOL    HW239900   3.654   1.268   6.470  1.4290 -1.0211  1.1926
 9423SOL     OW39901   2.174   0.613   3.873 -0.0955  0.3675 -0.4622
 9423SOL    HW139902   2.195   0.535   3.823 -2.5632  0.6712 -1.9563
 9423SOL    HW239903   2.177   0.675   3.800 -2.3588  1.9785  0.7939
 9424SOL     OW39904   3.449   0.014  16.476  0.2792  0.4172 -0.7581
 9424SOL    HW139905   3.462   0.107  16.492  3.0026  0.0102 -0.5682
 9424SOL    HW239906   3.535   4.716  16.454 -0.1331 -1.1238  0.1890
 9425SOL     OW39907   2.629   4.492   7.266 -0.2440 -0.3214 -0.3559
 9425SOL    HW139908   2.617   4.562   7.202 -0.0072  0.5797  0.5975
 9425SOL    HW239909   2.630   4.416   7.207  0.1597  0.1560 -0.9704
 9426SOL     OW39910   0.853   1.061   1.050  0.4509 -0.0885 -0.2873
 9426SOL    HW139911   0.813   0.982   1.087  1.5391 -1.3214 -1.7356
 9426SOL    HW239912   0.943   1.027   1.053 -0.3761 -2.0455  2.2158
 9427SOL     OW39913   2.946   0.217   1.379  0.1122  0.0194 -0.4225
 9427SOL    HW139914   2.963   0.133   1.337 -0.4483  0.3905 -1.3813
 9427SOL    HW239915   3.024   0.218   1.435  0.1548  3.8723 -0.5665
 9428SOL     OW39916   3.515   1.768   3.363  0.2116 -0.1123  0.5372
 9428SOL    HW139917   3.420   1.764   3.361  0.1562  0.4530  2.8461
 9428SOL    HW239918   3.538   1.785   3.271 -0.3178 -0.3862  0.3558
 9429SOL     OW39919   4.675   1.936   1.781 -0.3098 -0.3581  0.6999
 9429SOL    HW139920   4.580   1.949   1.778  0.2500  3.2336 -1.7811
 9429SOL    HW239921   4.687   1.939   1.876  1.4385 -0.2146  0.4615
 9430SOL     OW39922   0.582   4.631   4.165 -0.1964 -0.1490  0.7345
 9430SOL    HW139923   0.645   4.562   4.185  0.3539  0.0990 -0.1206
 9430SOL    HW239924   0.586   4.693   4.238 -0.6013  0.1097  0.5347
 9431SOL     OW39925   1.880   1.091  11.700 -0.0574  0.2132 -0.2606
 9431SOL    HW139926   1.874   0.997  11.717  1.3073  0.7128  2.9292
 9431SOL    HW239927   1.872   1.124  11.790 -1.4778 -1.8823  0.3889
 9432SOL     OW39928   2.121   1.222  16.625 -0.3226 -0.2247 -0.0537
 9432SOL    HW139929   2.170   1.190  16.549  1.6361  1.0369  0.6902
 9432SOL    HW239930   2.160   1.163  16.689 -0.4462 -0.7426 -0.4579
 9433SOL     OW39931   1.750   2.418  17.522 -0.4080 -0.0048  0.3349
 9433SOL    HW139932   1.769   2.349  17.458  0.4234 -0.4851  1.0996
 9433SOL    HW239933   1.745   2.492  17.462 -1.4610 -0.0747  0.3292
 9434SOL     OW39934   1.323   3.670   8.900  0.0567  0.2128 -0.7913
 9434SOL    HW139935   1.278   3.670   8.985 -1.0882  0.7448 -1.3857
 9434SOL    HW239936   1.268   3.736   8.858 -1.1802  1.2972  2.5353
 9435SOL     OW39937   1.246   3.649   4.809 -0.6877 -0.0061 -0.1817
 9435SOL    HW139938   1.327   3.628   4.763 -1.7614 -1.0959 -1.6006
 9435SOL    HW239939   1.204   3.707   4.746 -2.4015 -1.1697 -0.1256
 9436SOL     OW39940   2.002   4.600  14.871 -0.2220 -0.9342 -0.0792
 9436SOL    HW139941   1.990   4.531  14.805 -3.1908  1.3953 -1.9758
 9436SOL    HW239942   2.074   4.562  14.920 -0.4152  2.1385  2.5443
 9437SOL     OW39943   2.540   0.665   4.592 -0.7217 -0.7957  0.2992
 9437SOL    HW139944   2.535   0.759   4.608  1.0158 -0.7019  0.2705
 9437SOL    HW239945   2.558   0.669   4.498  0.9253  3.2935  0.7812
 9438SOL     OW39946   3.342   1.335   3.234  0.0746  0.1541 -0.5227
 9438SOL    HW139947   3.422   1.309   3.188 -0.1551 -2.3094  0.4660
 9438SOL    HW239948   3.281   1.352   3.162  2.7907  0.1329 -2.8182
 9439SOL     OW39949   1.409   1.590   4.853  0.1623 -0.4724  0.0785
 9439SOL    HW139950   1.342   1.625   4.911  0.8274 -0.9164  1.1144
 9439SOL    HW239951   1.429   1.667   4.800  1.7180 -0.3593  0.8292
 9440SOL     OW39952   0.409   3.903   2.448 -0.2411 -0.4216  0.6983
 9440SOL    HW139953   0.491   3.857   2.429  0.0198  0.7522 -1.0560
 9440SOL    HW239954   0.423   3.930   2.539 -1.2517  1.8996  0.1638
 9441SOL     OW39955   0.727   0.809  14.360  0.2278  0.1849  0.1385
 9441SOL    HW139956   0.796   0.876  14.356  0.3305  0.1314  1.0794
 9441SOL    HW239957   0.666   0.852  14.301  0.7891 -1.8180 -1.8749
 9442SOL     OW39958   4.286   3.441   4.471  0.0333 -0.3475  0.2347
 9442SOL    HW139959   4.210   3.383   4.472  1.3207 -1.9599  2.7600
 9442SOL    HW239960   4.278   3.497   4.548 -1.0960  2.2540 -1.7552
 9443SOL     OW39961   1.670   2.732   6.081 -0.1612 -0.0966 -1.7260
 9443SOL    HW139962   1.720   2.738   6.162 -2.6471 -1.4175 -0.0932
 9443SOL    HW239963   1.735   2.756   6.015  1.8526  0.8894  0.6381
 9444SOL     OW39964   3.307   4.126  14.714  0.0441  0.0182 -0.7352
 9444SOL    HW139965   3.319   4.218  14.741 -2.8304 -0.2035  1.2177
 9444SOL    HW239966   3.335   4.078  14.792 -0.0114  0.3393 -0.5175
 9445SOL     OW39967   0.798   0.463   6.499  0.7685 -0.0937 -0.8940
 9445SOL    HW139968   0.835   0.450   6.412 -4.1285  1.2681 -3.1961
 9445SOL    HW239969   0.760   0.549   6.480  0.6636 -0.4733 -2.4389
 9446SOL     OW39970   4.020   0.310  16.719  0.1618  0.1667  0.0810
 9446SOL    HW139971   3.931   0.343  16.727  0.4810  1.5248 -2.1795
 9446SOL    HW239972   4.020   0.231  16.773 -0.1870  1.0357  1.3452
 9447SOL     OW39973   0.694   4.179   1.249 -0.1162 -0.2580 -0.7911
 9447SOL    HW139974   0.773   4.227   1.227 -0.2780  0.7161  0.7325
 9447SOL    HW239975   0.641   4.253   1.278  0.6561 -0.6650  1.6727
 9448SOL     OW39976   1.619   0.584   4.317 -0.2642  0.1515 -0.3780
 9448SOL    HW139977   1.671   0.635   4.254 -0.8111 -0.8985 -1.6735
 9448SOL    HW239978   1.613   0.652   4.384  0.0373  0.9847 -1.1875
 9449SOL     OW39979   0.642   2.984  14.436  0.1739 -0.4801 -0.0023
 9449SOL    HW139980   0.737   2.970  14.435  0.5451  1.8188  2.1219
 9449SOL    HW239981   0.628   2.982  14.531 -1.3347  0.5042 -0.1967
 9450SOL     OW39982   2.367   4.530   1.987 -0.3840  0.3666 -0.1476
 9450SOL    HW139983   2.447   4.484   1.961 -1.5884 -2.2197  0.7610
 9450SOL    HW239984   2.408   4.612   2.015 -1.3783  0.5908  0.6544
 9451SOL     OW39985   2.116   0.857  11.772  0.1689 -0.0454 -0.5428
 9451SOL    HW139986   2.127   0.942  11.815  0.3170 -0.3266 -0.0175
 9451SOL    HW239987   2.020   0.855  11.766  0.2060 -2.0400 -0.5982
 9452SOL     OW39988   0.384   0.387   2.076 -0.0255  0.1721  0.2010
 9452SOL    HW139989   0.355   0.433   1.997  0.1151  2.0248  1.2121
 9452SOL    HW239990   0.463   0.431   2.109  0.0336 -0.3782  0.7953
 9453SOL     OW39991   1.338   0.530   5.119 -0.1552 -0.3901  0.6818
 9453SOL    HW139992   1.311   0.504   5.031  0.4088  0.6596  0.1868
 9453SOL    HW239993   1.250   0.547   5.151  0.1444  1.5294  0.4890
 9454SOL     OW39994   3.227   3.894   6.726 -0.1934  0.0792  0.1852
 9454SOL    HW139995   3.263   3.866   6.810 -0.8318  0.9865  0.7673
 9454SOL    HW239996   3.205   3.807   6.695 -0.1291 -0.5898  1.9978
 9455SOL     OW39997   4.234   1.131   3.852  0.4010 -0.0798  0.0364
 9455SOL    HW139998   4.265   1.215   3.817  1.9632  0.4074  2.6032
 9455SOL    HW239999   4.260   1.060   3.794  0.9485  0.3748 -0.2752
 9456SOL     OW40000   3.952   0.341   7.077 -0.2833  0.2005 -0.5243
 9456SOL    HW140001   3.928   0.258   7.119 -2.0610  2.5058  2.9924
 9456SOL    HW240002   4.033   0.360   7.124  0.4022  0.1135 -1.6773
 9457SOL     OW40003   0.222   1.833   4.251  0.0333 -0.0764  0.3423
 9457SOL    HW140004   0.179   1.864   4.331  0.1018  2.1993 -0.5023
 9457SOL    HW240005   0.302   1.794   4.287 -0.3269 -1.7433 -0.6380
 9458SOL     OW40006   4.268   3.598   8.679 -0.1295 -0.6147 -0.4002
 9458SOL    HW140007   4.291   3.524   8.623  1.1214  0.2803 -1.0628
 9458SOL    HW240008   4.177   3.575   8.696 -0.7795 -0.1223 -3.0952
 9459SOL     OW40009   0.704   4.485  16.654  0.2813 -0.2667 -0.0363
 9459SOL    HW140010   0.627   4.518  16.699 -0.7690 -1.7661 -0.7497
 9459SOL    HW240011   0.669   4.407  16.612 -6.1722  2.8847 -0.4873
 9460SOL     OW40012   3.937   1.591  10.321  0.4612  0.3363  0.0831
 9460SOL    HW140013   3.872   1.661  10.323 -2.0500 -1.9465 -0.7202
 9460SOL    HW240014   3.890   1.519  10.279  2.7728 -0.8400 -0.4976
 9461SOL     OW40015   1.219   3.857  10.182 -0.1463 -0.0799  0.3093
 9461SOL    HW140016   1.298   3.910  10.176 -0.2111 -0.0967 -0.6076
 9461SOL    HW240017   1.206   3.851  10.277 -1.0678  3.1782  0.3972
 9462SOL     OW40018   0.850   2.863  16.504  0.0823 -0.4172 -0.0342
 9462SOL    HW140019   0.931   2.844  16.458  0.1497 -1.4128  0.4976
 9462SOL    HW240020   0.838   2.956  16.486  1.6452 -0.3834 -0.8775
 9463SOL     OW40021   3.259   1.977  16.367 -0.7697  0.4279 -0.1089
 9463SOL    HW140022   3.332   2.038  16.373 -0.3767 -0.0448 -0.0123
 9463SOL    HW240023   3.311   1.901  16.340  0.0070  0.9915 -0.1919
 9464SOL     OW40024   2.307   4.419   4.615 -0.0376 -0.5517 -0.0782
 9464SOL    HW140025   2.258   4.458   4.688 -0.4739 -1.3740  0.0603
 9464SOL    HW240026   2.391   4.401   4.658  1.0824  0.0370 -2.0401
 9465SOL     OW40027   0.125   4.183   8.872  0.3707 -0.4327 -0.0949
 9465SOL    HW140028   0.189   4.205   8.939  0.2759  1.9590 -0.7882
 9465SOL    HW240029   0.113   4.269   8.831  0.1678 -0.7153 -0.6357
 9466SOL     OW40030   4.149   3.852   7.781 -0.3746  0.3724  0.1522
 9466SOL    HW140031   4.066   3.858   7.735 -1.4949  3.3243  2.5775
 9466SOL    HW240032   4.209   3.896   7.720  1.1852 -0.7921  0.8351
 9467SOL     OW40033   3.131   3.864  14.518 -0.0978 -0.3390  0.8306
 9467SOL    HW140034   3.218   3.849  14.481 -0.2422 -1.8507  1.0848
 9467SOL    HW240035   3.086   3.785  14.489 -1.7030  0.8514  0.1173
 9468SOL     OW40036   1.847   4.277  12.326 -0.2824 -0.1389 -0.1709
 9468SOL    HW140037   1.928   4.257  12.280 -0.2700 -1.0644  0.2515
 9468SOL    HW240038   1.775   4.296  12.266  1.4022  0.2638 -2.0336
 9469SOL     OW40039   2.619   2.338  11.643 -0.2044 -0.1858 -0.5547
 9469SOL    HW140040   2.565   2.262  11.622  2.1274 -2.4043  1.4623
 9469SOL    HW240041   2.619   2.318  11.736  0.3231  0.7043 -0.3612
 9470SOL     OW40042   3.586   0.425   5.231  0.0702 -0.4093 -0.1573
 9470SOL    HW140043   3.575   0.336   5.265 -0.8664  0.0833  0.8085
 9470SOL    HW240044   3.661   0.437   5.289 -0.8232 -0.0969  0.9410
 9471SOL     OW40045   4.256   3.834   6.485  0.2070  0.7850  0.4342
 9471SOL    HW140046   4.346   3.819   6.513  0.4481 -0.7218 -1.1357
 9471SOL    HW240047   4.233   3.743   6.467  2.5005  0.5871 -1.3698
 9472SOL     OW40048   4.034   1.611   8.194  0.2627 -0.1944  0.3692
 9472SOL    HW140049   4.114   1.647   8.154 -0.6230  0.5101 -0.7465
 9472SOL    HW240050   4.058   1.519   8.185 -1.5217 -0.5752 -0.3842
 9473SOL     OW40051   4.202   2.451   5.344 -0.6280 -0.1501 -0.0957
 9473SOL    HW140052   4.252   2.377   5.378  0.0765  0.1012 -0.6054
 9473SOL    HW240053   4.254   2.517   5.389  1.5033 -0.5498 -1.9478
 9474SOL     OW40054   1.102   2.145   6.119 -0.2315  0.0274 -0.0310
 9474SOL    HW140055   1.180   2.154   6.174 -1.4103 -1.4776  1.8586
 9474SOL    HW240056   1.128   2.106   6.036  0.2314  0.1800  0.0432
 9475SOL     OW40057   0.126   3.780  12.857 -0.1576 -0.0707  0.8494
 9475SOL    HW140058   0.106   3.867  12.822  2.2315  0.6888  1.3851
 9475SOL    HW240059   0.220   3.784  12.875  0.4997 -1.9019 -2.1188
 9476SOL     OW40060   4.351   1.852   2.355 -1.0320  0.2375  0.2119
 9476SOL    HW140061   4.403   1.776   2.381 -0.7794  0.2800 -0.1602
 9476SOL    HW240062   4.383   1.865   2.265  0.1839 -0.7614  0.5018
 9477SOL     OW40063   3.112   2.932   5.911 -0.1591 -0.5923  0.0213
 9477SOL    HW140064   3.044   2.876   5.873  0.1220 -0.4513 -0.6965
 9477SOL    HW240065   3.070   2.965   5.990  0.8673 -2.0742  1.1630
 9478SOL     OW40066   3.858   0.142   8.329 -0.0279  0.2821 -0.3989
 9478SOL    HW140067   3.842   0.066   8.385 -0.6748  1.0524  0.4641
 9478SOL    HW240068   3.923   0.118   8.263  0.2430  0.2452 -0.1169
 9479SOL     OW40069   1.276   0.963  15.799  0.3735 -0.0998 -0.4353
 9479SOL    HW140070   1.367   0.987  15.780  0.8321 -0.8659  0.7630
 9479SOL    HW240071   1.280   0.918  15.883  0.5811 -0.2087 -0.5014
 9480SOL     OW40072   1.328   1.865   5.328 -0.0387  0.1676 -0.4061
 9480SOL    HW140073   1.310   1.934   5.391 -3.3078  0.2990 -1.5016
 9480SOL    HW240074   1.268   1.892   5.259 -1.4430  0.3582  0.9154
 9481SOL     OW40075   2.783   2.762   7.876  0.3002 -0.6049  0.0278
 9481SOL    HW140076   2.856   2.710   7.841 -1.3204 -1.1071 -2.5367
 9481SOL    HW240077   2.818   2.851   7.873 -1.0668 -0.0760  0.1556
 9482SOL     OW40078   0.148   0.058   3.592 -0.0109  0.2002  0.1005
 9482SOL    HW140079   0.148   4.703   3.572 -2.0127  0.0122  0.9223
 9482SOL    HW240080   0.190   0.060   3.678 -0.7787  0.0001  0.4837
 9483SOL     OW40081   2.182   2.600   7.693 -0.3687  0.1176 -0.2859
 9483SOL    HW140082   2.126   2.580   7.767  0.3646  0.0886  0.2632
 9483SOL    HW240083   2.239   2.524   7.705 -0.9345 -0.2049  0.3573
 9484SOL     OW40084   0.566   0.631   9.703  0.1017 -0.1813  0.2431
 9484SOL    HW140085   0.605   0.626   9.616  0.5372  0.1585  0.4199
 9484SOL    HW240086   0.612   0.563   9.752 -0.0333 -0.2122  0.3286
 9485SOL     OW40087   2.285   0.758   3.176  0.0826 -0.4083 -0.0078
 9485SOL    HW140088   2.300   0.829   3.113 -1.1445 -0.5113 -0.4223
 9485SOL    HW240089   2.267   0.813   3.252 -0.1672 -0.3844 -0.0836
 9486SOL     OW40090   1.978   1.659   0.026 -0.3265  0.0187 -0.2576
 9486SOL    HW140091   2.064   1.685  17.746  0.0476 -1.3901 -0.3735
 9486SOL    HW240092   2.004   1.610   0.104 -1.6192 -0.6525 -0.2402
 9487SOL     OW40093   0.042   0.962   0.239  0.1194  0.0117  0.4711
 9487SOL    HW140094   0.072   0.879   0.201 -0.6198 -1.0402  2.1972
 9487SOL    HW240095   0.114   0.993   0.293  0.3328 -1.0761  0.8202
 9488SOL     OW40096   2.350   4.613   6.735 -0.1723  0.7153 -0.5863
 9488SOL    HW140097   2.427   4.593   6.787 -0.4710  1.6215  0.2097
 9488SOL    HW240098   2.380   4.691   6.689 -0.7171  0.4367 -1.4043
 9489SOL     OW40099   4.604   0.516   8.176 -0.5058  0.0688 -0.3922
 9489SOL    HW140100   4.626   0.451   8.109 -5.4910 -0.3787 -1.6067
 9489SOL    HW240101   4.562   0.576   8.114 -3.0035  0.9945  2.2298
 9490SOL     OW40102   1.038   4.318  11.988 -0.1422  0.3972 -0.0421
 9490SOL    HW140103   1.074   4.230  11.985  0.1847  0.4994  0.9615
 9490SOL    HW240104   1.084   4.358  12.062  0.7852  0.6147 -0.7294
 9491SOL     OW40105   0.548   1.508  15.764  0.0604  0.1497  0.2468
 9491SOL    HW140106   0.577   1.497  15.673 -1.6590  0.8081 -0.3937
 9491SOL    HW240107   0.480   1.441  15.768  1.1855 -0.9480  0.7794
 9492SOL     OW40108   0.368   1.908   5.268 -0.1645 -0.6022  0.0674
 9492SOL    HW140109   0.349   1.935   5.358  0.5506  1.2453 -0.3372
 9492SOL    HW240110   0.454   1.950   5.261 -0.3144 -0.2814  0.1734
 9493SOL     OW40111   1.655   3.425   5.600  0.1845  0.0087  0.0342
 9493SOL    HW140112   1.696   3.464   5.677 -0.7487 -0.9564  1.0263
 9493SOL    HW240113   1.640   3.333   5.623  1.2959 -0.3213 -0.5424
 9494SOL     OW40114   1.527   1.122   6.569  0.3074 -0.2410  0.2746
 9494SOL    HW140115   1.574   1.130   6.486 -1.7512 -1.2120 -0.9970
 9494SOL    HW240116   1.478   1.040   6.558 -2.2480  1.2716  0.5438
 9495SOL     OW40117   0.649   1.083   4.221 -0.0932 -0.3152 -0.2080
 9495SOL    HW140118   0.679   1.142   4.152  3.1651  2.3774  3.4665
 9495SOL    HW240119   0.732   1.038   4.235 -0.4795 -0.5094  1.4355
 9496SOL     OW40120   4.049   0.239   9.091 -0.1925 -0.2420  0.0274
 9496SOL    HW140121   3.954   0.235   9.101 -0.0866  1.0509  1.5882
 9496SOL    HW240122   4.056   0.306   9.159 -2.3555 -0.7814  0.7767
 9497SOL     OW40123   3.214   0.530   8.813  0.5485  0.3202  0.3669
 9497SOL    HW140124   3.211   0.551   8.719  0.6330  0.1263  0.3222
 9497SOL    HW240125   3.135   0.562   8.856  1.2093  1.0387  1.0394
 9498SOL     OW40126   2.149   0.041   6.862  0.0272  0.2645  0.1703
 9498SOL    HW140127   2.208   4.710   6.834  0.3868  1.0996 -1.1188
 9498SOL    HW240128   2.127   0.013   6.951 -0.5139 -1.2374 -0.4350
 9499SOL     OW40129   3.975   1.515   5.602  0.4431 -0.3906  0.9105
 9499SOL    HW140130   3.907   1.516   5.669 -1.4558 -2.0757 -1.0202
 9499SOL    HW240131   3.997   1.608   5.597  0.5347 -0.5830 -2.5610
 9500SOL     OW40132   0.607   0.163  15.231 -0.4228 -0.4136 -0.1437
 9500SOL    HW140133   0.693   0.129  15.257  0.4607  1.0589 -1.1148
 9500SOL    HW240134   0.567   0.088  15.187  3.0296 -2.6569  0.5062
 9501SOL     OW40135   3.802   3.682  14.880  0.0430 -0.1611 -0.2858
 9501SOL    HW140136   3.718   3.646  14.852 -1.1513  2.4169  0.0717
 9501SOL    HW240137   3.810   3.759  14.824  0.0844 -1.1849 -1.6893
 9502SOL     OW40138   0.916   2.187   7.972  0.1003 -0.1935  0.1225
 9502SOL    HW140139   0.822   2.201   7.961  0.4597  0.3674 -2.0621
 9502SOL    HW240140   0.945   2.185   7.881 -1.5912  1.7076 -0.4667
 9503SOL     OW40141   1.125   0.157   3.061  0.0375 -0.0482 -0.0294
 9503SOL    HW140142   1.166   0.183   2.978 -1.6473 -0.5871 -1.0255
 9503SOL    HW240143   1.105   0.241   3.102  0.0042  0.1411 -0.4364
 9504SOL     OW40144   3.177   3.417   3.668 -0.5588 -0.1258 -0.1397
 9504SOL    HW140145   3.148   3.336   3.710  1.6893 -0.3816  0.9214
 9504SOL    HW240146   3.261   3.382   3.637 -1.5291 -2.1095 -0.5192
 9505SOL     OW40147   3.712   0.060  12.694  0.2942 -0.4241 -0.4456
 9505SOL    HW140148   3.622   0.082  12.716  1.2716  3.6457 -0.4466
 9505SOL    HW240149   3.767   0.091  12.766 -0.1563 -1.1251  0.1965
 9506SOL     OW40150   2.103   2.866   4.991  0.0434  0.2319  0.1093
 9506SOL    HW140151   2.084   2.956   4.964  0.1801  0.9758  2.5287
 9506SOL    HW240152   2.174   2.857   4.927 -0.2562  1.1414 -0.3467
 9507SOL     OW40153   2.234   0.969   4.804 -0.3984 -0.0485  0.0356
 9507SOL    HW140154   2.224   0.988   4.897  2.3000 -1.2106  0.5546
 9507SOL    HW240155   2.224   0.874   4.803  1.1673 -0.1979 -0.0206
 9508SOL     OW40156   0.819   1.187   4.789  0.0116 -0.0505 -0.1106
 9508SOL    HW140157   0.787   1.103   4.822 -0.1038 -0.9368 -2.4702
 9508SOL    HW240158   0.909   1.180   4.820  0.4428  0.0969 -1.3052
 9509SOL     OW40159   1.315   2.498   6.281  0.7542  0.0563 -0.7783
 9509SOL    HW140160   1.237   2.515   6.334  1.3463 -3.1865  1.1257
 9509SOL    HW240161   1.317   2.403   6.293 -2.1545 -0.0142 -0.8510
 9510SOL     OW40162   3.271   2.544  15.744  0.0644  0.4784  0.7380
 9510SOL    HW140163   3.213   2.617  15.766 -1.1768 -0.1733 -0.4239
 9510SOL    HW240164   3.285   2.497  15.826  0.1314 -0.7856 -0.0085
 9511SOL     OW40165   4.395   3.968   4.184  0.0083 -0.0914 -0.0981
 9511SOL    HW140166   4.470   3.942   4.130 -0.0402 -1.0752  0.3261
 9511SOL    HW240167   4.329   3.902   4.164 -0.1947  0.1252 -0.1538
 9512SOL     OW40168   3.933   4.424   3.388 -0.2204 -0.0672  0.4190
 9512SOL    HW140169   3.902   4.353   3.443 -0.2300  0.3016  0.8982
 9512SOL    HW240170   3.863   4.485   3.411 -0.0876  0.1745  0.1800
 9513SOL     OW40171   2.930   3.297   6.213  0.1553  0.4547  0.6795
 9513SOL    HW140172   2.900   3.245   6.139  1.1294  0.8476  0.0203
 9513SOL    HW240173   3.024   3.289   6.201  0.1631 -0.0162  1.0624
 9514SOL     OW40174   1.556   1.051   8.891  0.5171 -0.0118  0.1655
 9514SOL    HW140175   1.560   1.012   8.804 -0.7778  2.5639 -1.0628
 9514SOL    HW240176   1.464   1.078   8.886  0.2907 -0.6111  1.0630
 9515SOL     OW40177   2.431   2.854  15.770 -0.4632 -0.1040  0.0156
 9515SOL    HW140178   2.505   2.915  15.765 -0.2061 -0.0789  3.6480
 9515SOL    HW240179   2.362   2.914  15.799 -1.4989 -0.9324 -0.7726
 9516SOL     OW40180   1.886   3.029   9.013  0.0361  0.6876 -0.4198
 9516SOL    HW140181   1.853   3.011   9.101 -2.0138  0.5157 -1.2228
 9516SOL    HW240182   1.926   2.947   8.985  1.6623  1.1274  0.5920
 9517SOL     OW40183   4.575   3.400   1.283 -0.5150  0.4642  0.2173
 9517SOL    HW140184   4.654   3.411   1.230 -0.3297 -2.9106 -0.2225
 9517SOL    HW240185   4.607   3.396   1.373 -1.6132 -1.2583  0.5336
 9518SOL     OW40186   4.494   2.820   8.292  0.6583  0.3708  0.1734
 9518SOL    HW140187   4.558   2.820   8.221  0.8612  0.2930  0.3579
 9518SOL    HW240188   4.545   2.872   8.354  1.7132 -0.8372  0.3120
 9519SOL     OW40189   3.049   0.360  13.706  0.1962  0.4553 -0.2247
 9519SOL    HW140190   2.975   0.389  13.653 -0.4572  0.2109  0.5585
 9519SOL    HW240191   3.032   0.395  13.793  1.3680 -1.0293  0.5818
 9520SOL     OW40192   0.647   3.753   2.401 -0.0832  0.1375 -0.3116
 9520SOL    HW140193   0.722   3.720   2.450  0.3243  1.4056 -0.0738
 9520SOL    HW240194   0.672   3.733   2.311 -0.8263 -0.4533 -0.3878
 9521SOL     OW40195   2.952   0.531   6.595 -0.6279  0.4151  0.0452
 9521SOL    HW140196   2.887   0.591   6.631 -1.1486 -0.1981  0.1327
 9521SOL    HW240197   2.970   0.583   6.517 -1.8299  0.3817 -0.2583
 9522SOL     OW40198   2.640   3.727  14.171 -0.7996  0.5887 -0.3062
 9522SOL    HW140199   2.552   3.691  14.176 -0.2160 -0.7481  0.2313
 9522SOL    HW240200   2.636   3.783  14.094  2.2835  0.6425 -0.4379
 9523SOL     OW40201   2.820   4.704   1.985  0.5399  0.7700  0.6882
 9523SOL    HW140202   2.909   4.705   1.949  1.0430  0.5097  1.9342
 9523SOL    HW240203   2.795   0.052   2.016  1.3799  1.0742  0.5218
 9524SOL     OW40204   3.328   2.022   4.732  0.1563 -0.9902 -0.0574
 9524SOL    HW140205   3.365   1.958   4.671  1.2767 -0.1955 -0.2262
 9524SOL    HW240206   3.252   2.050   4.681  0.1851 -0.6000  0.1078
 9525SOL     OW40207   0.941   1.096   7.398  0.2893  0.0136  0.5408
 9525SOL    HW140208   0.975   1.039   7.329  1.3595 -1.3719  2.2341
 9525SOL    HW240209   0.878   1.032   7.431  1.9177 -0.7964  2.0890
 9526SOL     OW40210   1.540   1.932   1.039  0.5593 -0.0340  0.1065
 9526SOL    HW140211   1.528   1.851   1.089  0.4177 -0.8436 -1.2114
 9526SOL    HW240212   1.582   1.905   0.957 -0.8359 -2.5721  0.2140
 9527SOL     OW40213   2.164   4.332   6.395  0.0844 -0.3492 -0.2877
 9527SOL    HW140214   2.176   4.255   6.339 -1.0617  0.1008 -1.1778
 9527SOL    HW240215   2.089   4.372   6.350  1.5902  0.8379 -1.7744
 9528SOL     OW40216   0.433   2.496   4.328 -0.0134  0.6208 -0.0791
 9528SOL    HW140217   0.516   2.543   4.333 -0.7473  1.8049  1.2134
 9528SOL    HW240218   0.398   2.536   4.248  1.4471 -0.9477 -1.4856
 9529SOL     OW40219   4.606   3.630   9.828 -0.2950  0.1227 -0.2082
 9529SOL    HW140220   4.586   3.594   9.914 -0.5353 -2.1776 -1.2372
 9529SOL    HW240221   4.698   3.657   9.835  0.5833 -3.1308  0.7466
 9530SOL     OW40222   0.015   0.226   3.915 -0.5488 -0.3180  0.3972
 9530SOL    HW140223   4.705   0.273   3.982 -0.7012  0.4611 -0.2609
 9530SOL    HW240224   4.686   0.196   3.854 -1.0651  0.5017  0.5653
 9531SOL     OW40225   1.636   0.638   7.116  0.4365  0.2741  0.2227
 9531SOL    HW140226   1.712   0.584   7.138  0.1970 -0.6352 -1.1485
 9531SOL    HW240227   1.638   0.721   7.164  0.8381 -0.5054  1.5263
 9532SOL     OW40228   3.828   3.835   5.223  0.1687  0.2336  0.0889
 9532SOL    HW140229   3.843   3.849   5.316  3.0776 -1.1848 -0.1662
 9532SOL    HW240230   3.786   3.914   5.188  0.5807  0.9808  1.3021
 9533SOL     OW40231   0.439   1.519   3.495 -0.3088  0.0463  0.2557
 9533SOL    HW140232   0.387   1.441   3.472  1.3148 -1.2810  1.0619
 9533SOL    HW240233   0.519   1.496   3.449  0.6176  0.7156  1.5540
 9534SOL     OW40234   2.919   0.971   3.296 -0.2518  0.0400  0.0200
 9534SOL    HW140235   2.991   1.021   3.258  0.6904 -2.0679 -0.9396
 9534SOL    HW240236   2.879   1.040   3.349 -0.7033  0.1103 -0.4047
 9535SOL     OW40237   4.370   0.853   7.418 -0.2164 -0.1258  0.1246
 9535SOL    HW140238   4.328   0.784   7.470 -0.8765 -1.7431 -2.5539
 9535SOL    HW240239   4.323   0.846   7.335 -2.3760 -0.0287  1.3337
 9536SOL     OW40240   4.260   0.914   5.997  0.0767 -0.2724 -0.0342
 9536SOL    HW140241   4.269   0.987   6.059  2.3030  0.5429 -1.3267
 9536SOL    HW240242   4.245   0.844   6.061  0.8902 -0.6301 -0.2428
 9537SOL     OW40243   4.040   3.342   8.136  0.5354  0.1747 -0.0989
 9537SOL    HW140244   3.962   3.371   8.088 -1.2481 -3.9361  0.2390
 9537SOL    HW240245   4.032   3.403   8.209  2.1917 -0.1183  0.3169
 9538SOL     OW40246   2.716   1.149   4.491 -0.6286 -0.0962 -0.7723
 9538SOL    HW140247   2.789   1.120   4.436  1.8753  3.0159  0.8415
 9538SOL    HW240248   2.748   1.239   4.494 -0.9071 -0.0051 -0.5630
 9539SOL     OW40249   0.813   3.356   9.308  0.4260  0.3436  0.0700
 9539SOL    HW140250   0.811   3.393   9.396  1.7932  2.4969 -0.8203
 9539SOL    HW240251   0.902   3.320   9.306 -0.0776 -0.8452 -1.5740
 9540SOL     OW40252   3.189   4.350   5.359  0.0881 -0.2047 -0.8762
 9540SOL    HW140253   3.164   4.265   5.322 -1.1995 -0.0866 -0.2734
 9540SOL    HW240254   3.278   4.331   5.387  0.8776 -0.3419 -3.4483
 9541SOL     OW40255   1.392   2.566   2.029 -0.2355 -0.5698 -0.0991
 9541SOL    HW140256   1.428   2.567   1.940  0.7780  0.8785  0.3322
 9541SOL    HW240257   1.441   2.640   2.065 -0.9518 -0.2546  0.2370
 9542SOL     OW40258   0.890   4.425   3.394  0.5002  0.2535  0.1574
 9542SOL    HW140259   0.963   4.382   3.349  1.3477  2.5689 -0.7182
 9542SOL    HW240260   0.874   4.498   3.334 -0.9742  2.2793  3.0413
 9543SOL     OW40261   3.539   1.538  16.636  0.0225 -0.0950  0.3309
 9543SOL    HW140262   3.523   1.461  16.691 -2.2000  0.6172  0.7048
 9543SOL    HW240263   3.617   1.507  16.591  0.9291  0.7014  1.3639
 9544SOL     OW40264   1.172   3.399   6.190 -0.0688 -0.1114 -0.1425
 9544SOL    HW140265   1.206   3.385   6.279  0.5590 -5.0142 -1.1245
 9544SOL    HW240266   1.083   3.366   6.193  0.3824 -1.1994  1.2564
 9545SOL     OW40267   3.686   3.712  17.018 -0.0092  0.0103 -0.3736
 9545SOL    HW140268   3.615   3.731  16.956 -1.8327 -1.0137  1.4078
 9545SOL    HW240269   3.735   3.794  17.017 -0.3802  0.2244 -0.7696
 9546SOL     OW40270   3.938   4.126  13.969 -0.3565 -0.3406  0.2427
 9546SOL    HW140271   3.978   4.097  14.051 -0.0493 -1.9412 -0.4752
 9546SOL    HW240272   4.012   4.142  13.910  1.5003 -0.4197  2.5798
 9547SOL     OW40273   0.429   0.770   8.612  0.0940  0.6918 -0.1509
 9547SOL    HW140274   0.428   0.676   8.629  0.4847  0.5337 -1.0134
 9547SOL    HW240275   0.485   0.803   8.682 -0.9903  0.1075  0.9909
 9548SOL     OW40276   0.721   2.198   3.373  0.0149 -0.9747  0.4878
 9548SOL    HW140277   0.696   2.283   3.338  0.2695 -0.6505  1.0953
 9548SOL    HW240278   0.814   2.204   3.392 -0.1933  4.0659 -0.1387
 9549SOL     OW40279   1.738   4.501   1.339 -0.1394 -0.3981 -0.0423
 9549SOL    HW140280   1.727   4.406   1.340 -2.2490 -0.1136  1.3798
 9549SOL    HW240281   1.820   4.520   1.293 -1.2520  2.2338 -0.9375
 9550SOL     OW40282   3.021   1.245   8.979  0.2611 -0.9754  0.1175
 9550SOL    HW140283   2.995   1.154   8.993 -1.0987 -0.2224  2.4622
 9550SOL    HW240284   2.936   1.288   8.973  1.0905  0.6048 -0.2943
 9551SOL     OW40285   2.199   3.052   3.007 -0.5489  0.0758  0.3361
 9551SOL    HW140286   2.266   3.000   3.051 -0.4154 -1.9504 -2.3017
 9551SOL    HW240287   2.209   3.014   2.920  2.9998  0.7223  0.4335
 9552SOL     OW40288   3.722   1.193   6.343 -0.2844  0.1863 -0.1803
 9552SOL    HW140289   3.807   1.151   6.348 -1.2874 -1.6209  1.7344
 9552SOL    HW240290   3.708   1.205   6.249  1.8512 -0.5486 -0.5899
 9553SOL     OW40291   3.395   1.996  12.669 -0.5081 -0.0835 -0.5521
 9553SOL    HW140292   3.418   2.030  12.582 -0.0122  2.6974  0.6756
 9553SOL    HW240293   3.451   2.045  12.729  0.6422 -1.3446 -0.5734
 9554SOL     OW40294   1.321   1.334   6.420  0.0886 -0.0583  0.3011
 9554SOL    HW140295   1.339   1.426   6.439  1.3296 -0.3476  0.5240
 9554SOL    HW240296   1.378   1.286   6.480 -1.9618 -3.2428 -0.2375
 9555SOL     OW40297   3.036   1.485   2.428  0.3995 -0.1193  0.3261
 9555SOL    HW140298   2.982   1.558   2.396 -1.1112 -1.7999 -0.9603
 9555SOL    HW240299   3.116   1.520   2.388 -0.9753  0.9728 -1.4708
 9556SOL     OW40300   3.598   1.574   3.533 -0.2364 -0.3036  0.3455
 9556SOL    HW140301   3.566   1.631   3.463  3.7535 -0.6148 -1.7046
 9556SOL    HW240302   3.615   1.489   3.492  0.6675 -0.0440  0.1832
 9557SOL     OW40303   0.113   3.720   4.554  0.2271 -0.1521 -0.1092
 9557SOL    HW140304   0.126   3.681   4.640  2.2394  1.7488  0.4379
 9557SOL    HW240305   0.171   3.662   4.504  1.4900  1.0006  0.0394
 9558SOL     OW40306   2.742   2.262   3.557  0.6502  0.0227  0.1984
 9558SOL    HW140307   2.803   2.280   3.629  2.2950 -0.2354 -1.1263
 9558SOL    HW240308   2.798   2.210   3.500 -0.4097 -2.7313  1.6714
 9559SOL     OW40309   4.239   1.113   6.424  0.2888 -0.3809  0.3704
 9559SOL    HW140310   4.153   1.078   6.401  0.4737  0.7982 -2.0621
 9559SOL    HW240311   4.290   1.105   6.344  0.8602  2.6053  0.4284
 9560SOL     OW40312   0.647   2.194  17.161 -0.0754  0.2091  0.7778
 9560SOL    HW140313   0.732   2.231  17.184 -0.7457  1.7480  0.7844
 9560SOL    HW240314   0.667   2.101  17.162 -1.0832  0.0171  2.8558
 9561SOL     OW40315   0.606   2.500  15.741  0.1920 -0.1336 -0.5809
 9561SOL    HW140316   0.592   2.516  15.647  0.2359 -1.4972 -0.8271
 9561SOL    HW240317   0.600   2.404  15.743 -0.6970 -0.0497  0.6833
 9562SOL     OW40318   3.211   0.768   6.698 -0.2902 -0.1017 -0.4771
 9562SOL    HW140319   3.151   0.769   6.773 -0.2614  1.2063 -0.4722
 9562SOL    HW240320   3.149   0.755   6.626 -0.3854  1.5968 -0.7159
 9563SOL     OW40321   0.337   0.664  14.497 -0.1314 -0.3128  0.2959
 9563SOL    HW140322   0.371   0.746  14.461  3.2706 -0.9873  1.9659
 9563SOL    HW240323   0.414   0.655  14.553 -2.5089  2.9037  4.1001
 9564SOL     OW40324   2.527   4.450  13.458 -0.3090  0.5636 -0.3346
 9564SOL    HW140325   2.585   4.518  13.492  2.2620 -1.7659 -0.0515
 9564SOL    HW240326   2.470   4.445  13.534 -1.2170 -0.7900 -1.1089
 9565SOL     OW40327   1.752   4.193   3.335 -0.1207  0.4961 -0.2277
 9565SOL    HW140328   1.698   4.150   3.269  1.5125  0.7117 -1.6751
 9565SOL    HW240329   1.840   4.171   3.305 -0.3292 -2.1354  1.1141
 9566SOL     OW40330   4.325   0.762  12.915 -0.1028 -0.1006 -0.1472
 9566SOL    HW140331   4.308   0.756  12.822 -0.9278  0.4280 -0.0285
 9566SOL    HW240332   4.289   0.675  12.933  0.8648 -0.0930  1.8668
 9567SOL     OW40333   3.302   0.463   5.460  0.6464 -0.6282  0.9726
 9567SOL    HW140334   3.252   0.383   5.478  0.7462 -1.0421 -0.6094
 9567SOL    HW240335   3.233   0.524   5.484  0.1108 -0.5994 -0.6373
 9568SOL     OW40336   3.613   4.285   9.941  0.1869 -0.0513  0.1003
 9568SOL    HW140337   3.696   4.271   9.987 -0.2193 -0.1853  0.7936
 9568SOL    HW240338   3.561   4.276  10.021 -0.7738  0.4701 -0.4752
 9569SOL     OW40339   0.794   3.481  10.807  0.2558  0.4249 -0.3520
 9569SOL    HW140340   0.793   3.425  10.885 -0.6414 -0.2040 -0.8207
 9569SOL    HW240341   0.737   3.551  10.840  2.1581  2.0121 -0.4363
 9570SOL     OW40342   1.699   2.198  10.228  0.1131  0.1478  0.0906
 9570SOL    HW140343   1.681   2.247  10.147 -1.6798  0.8560  0.9253
 9570SOL    HW240344   1.776   2.150  10.197  1.8893  1.1974  2.9342
 9571SOL     OW40345   0.057   0.734   6.242  0.4077  0.8653  0.1468
 9571SOL    HW140346   4.737   0.756   6.314  0.5887  1.7386  0.0294
 9571SOL    HW240347   0.005   0.668   6.196  1.5490 -1.0823  1.6932
   4.73877   4.73877  17.75303
