Membrane in water
40347
    1TMC1    C1    1   2.855   2.456  11.104 -0.5620  0.0694 -0.6709
    1TMC1    C2    2   2.919   2.577  11.131  0.2670  0.4370 -0.3945
    1TMC1    C3    3   2.873   2.679  11.051  0.0837 -0.3443  0.0009
    1TMC1    C4    4   2.747   2.435  11.021  0.1945 -0.0866 -0.1156
    1TMC1    C5    5   2.721   2.545  10.943  0.1648  0.0855 -0.2998
    1TMC1    C6    6   2.771   2.668  10.963  0.3054  0.1611  0.0733
    1TMC1     C    7   2.911   2.335  11.169 -0.5712  0.1336 -0.6668
    1TMC1     O    8   2.825   2.259  11.211  0.1584  0.1138  0.5241
    1TMC1     H    9   3.010   2.587  11.190 -0.5325 -0.3005  0.9777
    1TMC1    H1   10   2.714   2.332  11.011  1.4568 -0.5409  0.2736
    1TMC1    H2   11   2.738   2.749  10.899 -0.2557  0.4955  0.7840
    1TMC1    C7   12   2.635   2.527  10.838  0.0314  0.7048 -0.0869
    1TMC1    C8   13   2.944   2.804  11.056  1.0614  0.1616  0.0025
    1TMC1    O1   14   2.586   2.621  10.773  0.1147 -0.4127  0.0946
    1TMC1    O2   15   2.983   2.850  11.161  0.4801 -0.0703  0.2849
    1TMC1    O3   16   2.681   2.417  10.780  0.4545 -0.1737  0.3140
    1TMC1    H3   17   2.754   2.368  10.824  0.4235 -0.9229 -0.4621
    1TMC1    O5   18   3.004   2.818  10.939  0.3304 -0.5625  0.3044
    1TMC1    H5   19   2.966   2.752  10.877 -0.8775  0.0863  0.3535
    2MPD2     C   20   3.248   1.977  11.252  0.5267  0.2300 -0.0208
    2MPD2    C1   21   3.115   1.983  11.281  0.3311  0.2318  0.1823
    2MPD2    C2   22   3.045   2.100  11.261 -0.0957 -0.1191  0.2867
    2MPD2    C3   23   3.109   2.210  11.214 -0.4774  0.3632  0.2433
    2MPD2    C4   24   3.246   2.201  11.191 -0.1107  0.2181  0.3364
    2MPD2    C5   25   3.315   2.090  11.215  0.5163  0.0446 -0.6150
    2MPD2     H   26   2.942   2.103  11.293 -0.5243 -0.7475 -1.0381
    2MPD2    H1   27   3.302   2.288  11.159 -1.5847  0.7957 -0.7305
    2MPD2    H2   28   3.313   1.891  11.258 -0.2887 -0.2120  2.7992
    2MPD2    H3   29   3.422   2.078  11.200  1.1961  0.1240  4.1700
    2MPD2     N   30   3.047   2.328  11.172 -0.4811  0.3519  0.3044
    2MPD2    H5   31   3.114   2.396  11.137  0.6773  0.0430  1.9234
    2MPD2    N1   32   3.039   1.878  11.337 -0.2447  0.7789 -0.2944
    2MPD2    H7   33   2.944   1.902  11.366 -0.4288  0.6862 -0.8180
    3TMC1    C1   34   1.110   2.078  11.542  0.1511  0.4195 -0.2676
    3TMC1    C2   35   1.008   1.989  11.545  0.6382  0.1159  0.4549
    3TMC1    C3   36   0.950   1.950  11.665  0.2330 -0.1293 -0.5643
    3TMC1    C4   37   1.170   2.109  11.664 -0.4276 -0.3522  0.0397
    3TMC1    C5   38   1.113   2.060  11.778 -0.7014  0.5581  0.3621
    3TMC1    C6   39   1.005   1.985  11.789 -0.7099  0.9779 -0.6217
    3TMC1     C   40   1.149   2.133  11.420  0.1631 -0.2935 -0.0092
    3TMC1     O   41   1.091   2.088  11.318  0.1122 -0.5166  0.1035
    3TMC1     H   42   0.952   1.955  11.460  0.4241 -3.3973  2.0305
    3TMC1    H1   43   1.256   2.171  11.685 -0.3390 -0.0375 -1.2520
    3TMC1    H2   44   0.954   1.969  11.884  0.8430 -0.8524 -0.1024
    3TMC1    C7   45   1.135   2.164  11.874  0.1027  0.4520  0.3372
    3TMC1    C8   46   0.825   1.872  11.653 -0.6565  0.4426 -0.0977
    3TMC1    O1   47   1.043   2.240  11.898 -0.1882  0.6441 -0.3414
    3TMC1    O2   48   0.800   1.801  11.556 -0.6251  0.0361  0.5277
    3TMC1    O3   49   1.194   2.089  11.970 -0.4197 -0.4377  0.1807
    3TMC1    H3   50   1.269   2.038  11.931  1.1964  0.3080  2.3087
    3TMC1    O5   51   0.770   1.853  11.774  0.3715  0.9197  0.0332
    3TMC1    H5   52   0.772   1.938  11.822 -1.3215  0.9889 -0.0023
    4MPD2     C   53   1.392   2.499  11.158 -0.1698  0.7690 -0.4264
    4MPD2    C1   54   1.340   2.563  11.269 -0.2324  0.3412  0.1027
    4MPD2    C2   55   1.274   2.487  11.365 -0.5123  0.0654  0.3098
    4MPD2    C3   56   1.249   2.346  11.348  0.6098  0.2465 -0.8232
    4MPD2    C4   57   1.296   2.287  11.238 -0.3063 -0.9453  0.1644
    4MPD2    C5   58   1.360   2.366  11.142 -0.1970  0.5936  0.9676
    4MPD2     H   59   1.217   2.537  11.443 -0.7816 -1.7467  1.2532
    4MPD2    H1   60   1.287   2.181  11.221  0.1223 -0.9806  0.1806
    4MPD2    H2   61   1.462   2.542  11.088  1.5881 -2.8252 -0.9171
    4MPD2    H3   62   1.395   2.317  11.052 -1.5227  0.8542  0.3142
    4MPD2     N   63   1.191   2.264  11.449 -0.3310 -0.7849 -0.3397
    4MPD2    H5   64   1.155   2.311  11.532  2.2021 -1.7686  1.3200
    4MPD2    N1   65   1.345   2.700  11.278  0.2558  0.2318 -0.8300
    4MPD2    H7   66   1.310   2.739  11.365 -2.4432  0.2528 -1.9327
    5TCq1    O1   67   2.539   4.518  12.420  0.0783  0.0321  0.2328
    5TCq1    C1   68   2.653   4.526  12.342  0.4323  0.1744  0.5659
    5TCq1    O2   69   2.711   4.430  12.302 -0.2046 -0.5288  0.2684
    5TCq1    C2   70   2.655   4.655  12.269 -0.2392 -0.7210  0.0280
    5TCq1    C3   71   2.608   0.027  12.330  0.3142  0.4975 -0.6627
    5TCq1    C4   72   2.619   0.140  12.263  0.3074  0.6917 -0.2843
    5TCq1    C5   73   2.675   0.139  12.134 -0.1886 -0.5728 -0.4695
    5TCq1    C6   74   2.714   0.024  12.069  0.2944 -0.2629 -0.1579
    5TCq1    C7   75   2.704   4.649  12.142  0.2575  0.1934 -0.6613
    5TCq1    C8   76   2.732   0.007  11.925 -0.0745 -0.2734  0.2511
    5TCq1    O4   77   2.768   4.643  11.872 -0.5059  0.0086  0.1682
    5TCq1    C9   78   2.574   0.262  12.315  0.0048  0.5204 -0.1799
    5TCq1    O5   79   2.532   0.267  12.437  0.2362  0.3655 -0.1208
    5TCq1    O6   80   2.580   0.362  12.236 -0.4111 -0.2574 -0.1316
    5TCq1    H1   81   2.489   4.602  12.417  0.9458  0.6104  2.2887
    5TCq1    H2   82   2.572   0.028  12.432  1.1540  0.2635 -0.3622
    5TCq1    H3   83   2.693   0.238  12.092 -0.4202 -0.3596 -0.0633
    5TCq1    H4   84   2.742   4.555  12.104 -0.7641  0.0108 -1.2457
    6MPD2     C   85   2.578   0.242  11.679 -0.2312  0.1656  0.4838
    6MPD2    C1   86   2.624   0.121  11.723 -0.8008  0.1963  0.8085
    6MPD2    C2   87   2.642   0.023  11.627  0.3633 -0.5513 -0.2085
    6MPD2    C3   88   2.596   0.037  11.493  0.7165  0.3823  0.6858
    6MPD2    C4   89   2.549   0.160  11.450  0.4476 -0.3496 -0.4291
    6MPD2    C5   90   2.534   0.260  11.546 -0.2365  0.5859 -0.8968
    6MPD2     H   91   2.683   4.668  11.659  1.9618 -0.0221 -0.6636
    6MPD2    H1   92   2.535   0.181  11.344 -0.4429 -1.2293 -0.4911
    6MPD2    H2   93   2.566   0.323  11.750  0.5369 -0.0069  0.8129
    6MPD2    H3   94   2.511   0.356  11.502 -0.0090  1.6299  1.2525
    6MPD2     N   95   2.600   4.664  11.408 -0.2034  0.3798  1.1036
    6MPD2    H5   96   2.672   4.597  11.435  0.0371 -0.2874 -1.1366
    6MPD2    N1   97   2.664   0.114  11.859  0.0432 -0.4522 -0.1226
    6MPD2    H7   98   2.647   0.196  11.916  2.2238  0.2018 -0.4325
    7TCq1    O1   99   4.519   3.374  12.773 -0.9845  0.7326 -0.3511
    7TCq1    C1  100   4.588   3.311  12.869  0.5101  0.5552 -0.3154
    7TCq1    O2  101   4.540   3.226  12.943  0.1552  0.3847 -0.1796
    7TCq1    C2  102   4.691   3.395  12.914 -0.6274  0.2438 -0.2829
    7TCq1    C3  103   4.700   3.527  12.884  0.6447  0.2288 -0.1508
    7TCq1    C4  104   0.046   3.609  12.954 -0.2877 -0.3375 -0.7076
    7TCq1    C5  105   0.135   3.566  13.050  0.6272  0.4186  0.7493
    7TCq1    C6  106   0.121   3.430  13.082 -0.0038  0.3433  1.2397
    7TCq1    C7  107   0.037   3.346  13.011 -0.0794 -0.1912  0.1642
    7TCq1    C8  108   0.231   3.365  13.158  0.7700  0.0103 -0.5349
    7TCq1    O4  109   0.243   3.242  13.160  0.0099 -0.0613  0.0167
    7TCq1    C9  110   0.052   3.743  12.907 -0.0220  0.6267 -0.1776
    7TCq1    O5  111   0.060   3.838  12.990  0.0754 -0.4701 -0.1140
    7TCq1    O6  112   0.041   3.767  12.783 -0.3814 -0.5558  0.2445
    7TCq1    H1  113   4.576   3.434  12.718 -0.5040 -1.3218 -2.0884
    7TCq1    H2  114   4.638   3.582  12.814  2.3534  2.4753  0.0914
    7TCq1    H3  115   0.181   3.638  13.118  1.4154  3.8053 -3.3667
    7TCq1    H4  116   0.034   3.244  13.050 -1.5933 -0.1092  0.2476
    8MPD2     C  117   0.698   3.387  13.401 -0.0674 -0.0308 -0.6734
    8MPD2    C1  118   0.602   3.285  13.394  0.7716 -0.3685 -0.0219
    8MPD2    C2  119   0.477   3.303  13.334 -0.4371  0.0253  0.3283
    8MPD2    C3  120   0.453   3.425  13.269  0.2334  0.2468 -0.2036
    8MPD2    C4  121   0.543   3.529  13.281  0.0177 -0.9527  0.5683
    8MPD2    C5  122   0.659   3.507  13.353  0.0766 -0.0827 -0.0067
    8MPD2     H  123   0.407   3.220  13.336  0.2980 -0.6733 -2.0294
    8MPD2    H1  124   0.522   3.627  13.241 -1.1406 -0.6579  1.8718
    8MPD2    H2  125   0.793   3.384  13.453 -0.0594  0.7652 -0.6407
    8MPD2    H3  126   0.718   3.596  13.370 -1.6642  0.9793  0.4600
    8MPD2     N  127   0.331   3.455  13.196 -0.3533  0.0183 -0.1128
    8MPD2    H5  128   0.332   3.549  13.158  0.9763 -0.6997 -1.8893
    8MPD2    N1  129   0.645   3.161  13.453 -0.4350  0.7119  0.7099
    8MPD2    H7  130   0.739   3.153  13.491  1.0130  1.8762 -2.5201
    9TMC1    C1  131   2.645   3.156  11.179  0.2243  0.1379 -0.0784
    9TMC1    C2  132   2.601   3.192  11.297  0.1203 -0.1420  0.1256
    9TMC1    C3  133   2.619   3.321  11.335  0.2950 -1.0143 -0.2679
    9TMC1    C4  134   2.711   3.241  11.092 -0.3441  0.8137 -0.2668
    9TMC1    C5  135   2.717   3.372  11.119  0.2080 -0.3578  0.2273
    9TMC1    C6  136   2.675   3.416  11.245  0.2409  0.7333  0.1308
    9TMC1     C  137   2.655   3.016  11.151  0.0640 -0.7854  0.0236
    9TMC1     O  138   2.657   2.977  11.036 -0.5102  0.3485 -0.5629
    9TMC1     H  139   2.544   3.121  11.356  1.0226 -2.0558 -1.3131
    9TMC1    H1  140   2.759   3.199  11.004 -1.3778 -0.2127 -0.3465
    9TMC1    H2  141   2.693   3.519  11.273  0.4238  0.1904  1.9820
    9TMC1    C7  142   2.822   3.445  11.049  0.9661  0.7340  0.7809
    9TMC1    C8  143   2.546   3.379  11.442 -0.0954 -0.8251  0.7868
    9TMC1    O1  144   2.906   3.395  10.975  0.0760  0.2718 -0.3658
    9TMC1    O2  145   2.496   3.489  11.442 -0.5804 -0.3077 -0.2144
    9TMC1    O3  146   2.772   3.573  11.035  0.2254 -0.0837  0.8390
    9TMC1    H3  147   2.695   3.601  11.089 -0.2625  0.6703 -0.2418
    9TMC1    O5  148   2.520   3.287  11.530  0.1987 -0.4940 -0.8822
    9TMC1    H5  149   2.570   3.206  11.509 -2.4067 -2.4129  0.3563
   10MPD2     C  150   2.582   2.732  11.204  0.1363 -0.6138 -0.4675
   10MPD2    C1  151   2.652   2.808  11.296  0.7311 -0.5966  0.2056
   10MPD2    C2  152   2.705   2.760  11.411  1.0885  0.9680  0.4737
   10MPD2    C3  153   2.680   2.625  11.449 -0.2136 -0.2105  0.4488
   10MPD2    C4  154   2.606   2.552  11.361 -0.4243 -0.0561 -0.8133
   10MPD2    C5  155   2.565   2.604  11.243  0.7228  0.6324 -0.1132
   10MPD2     H  156   2.762   2.825  11.476  1.4685 -2.5706  3.6610
   10MPD2    H1  157   2.585   2.446  11.373  1.7751 -0.4172 -0.0183
   10MPD2    H2  158   2.555   2.775  11.108 -1.7491 -0.6627  0.0398
   10MPD2    H3  159   2.510   2.539  11.176  0.5677  0.1099  0.5250
   10MPD2     N  160   2.721   2.566  11.564  0.4205  0.4542 -0.0072
   10MPD2    H5  161   2.715   2.465  11.567 -1.3966  0.5778  0.6745
   10MPD2    N1  162   2.673   2.947  11.270 -0.3863 -0.3571 -0.3685
   10MPD2    H7  163   2.700   3.010  11.344 -0.1588 -1.3700  0.4073
   11TCq1    O1  164   3.685   2.448  13.867 -0.1690  0.0046  0.1903
   11TCq1    C1  165   3.711   2.484  13.991  0.1802  0.1766 -0.4920
   11TCq1    O2  166   3.782   2.577  14.022  0.1450  0.1640  0.4257
   11TCq1    C2  167   3.696   2.362  14.060 -0.2084 -0.1103 -0.1523
   11TCq1    C3  168   3.788   2.331  14.149 -0.3503 -0.2873 -0.1075
   11TCq1    C4  169   3.766   2.211  14.216 -0.0585 -0.6412 -0.0700
   11TCq1    C5  170   3.655   2.133  14.196 -0.5056 -0.4286  0.1683
   11TCq1    C6  171   3.566   2.171  14.096  0.2715  0.2477  0.6119
   11TCq1    C7  172   3.586   2.292  14.033 -0.6151  0.1572  0.1677
   11TCq1    C8  173   3.436   2.099  14.095  0.2283  0.3716  0.8063
   11TCq1    O4  174   3.338   2.157  14.051 -0.7822  0.0711  0.4437
   11TCq1    C9  175   3.872   2.169  14.302  0.0965  0.9207 -0.6840
   11TCq1    O5  176   3.849   2.067  14.373  0.0724 -0.0238 -0.2740
   11TCq1    O6  177   3.981   2.226  14.290  0.0965 -0.2922 -0.0094
   11TCq1    H1  178   3.652   2.357  13.855 -0.2452 -0.1692  1.7239
   11TCq1    H2  179   3.877   2.391  14.164 -0.1413 -0.8314  0.8019
   11TCq1    H3  180   3.639   2.040  14.249 -2.4427 -0.9551 -1.3228
   11TCq1    H4  181   3.514   2.320  13.957  0.0434 -0.8695 -0.8484
   12MPD2     C  182   3.211   1.901  14.108 -0.5164 -0.1577  0.0567
   12MPD2    C1  183   3.347   1.868  14.114  0.0726 -0.1199  0.2774
   12MPD2    C2  184   3.396   1.742  14.124 -0.5692  0.5745 -0.3155
   12MPD2    C3  185   3.305   1.641  14.114  0.1815 -0.5983 -0.0728
   12MPD2    C4  186   3.169   1.670  14.101 -0.7612 -0.9999  0.5419
   12MPD2    C5  187   3.121   1.801  14.090  0.1224  0.7809 -0.2253
   12MPD2     H  188   3.503   1.725  14.128 -0.6306  0.4289  0.9774
   12MPD2    H1  189   3.101   1.589  14.078 -1.6835 -0.5939  1.8248
   12MPD2    H2  190   3.175   2.003  14.114 -0.0367 -0.0739  1.4946
   12MPD2    H3  191   3.015   1.825  14.094  0.2156  1.4611 -2.0789
   12MPD2     N  192   3.348   1.504  14.103  0.7933 -0.8740  0.6117
   12MPD2    H5  193   3.268   1.445  14.081 -1.1381  1.4724  1.2729
   12MPD2    N1  194   3.450   1.963  14.115 -0.2987  0.1255 -0.4448
   12MPD2    H7  195   3.543   1.925  14.118 -0.0348  0.5938 -2.7252
   13TCq1    O1  196   2.208   3.141  10.028  0.5917 -0.0293  0.3076
   13TCq1    C1  197   2.208   3.091  10.155 -0.2688 -0.0990  0.4979
   13TCq1    O2  198   2.164   3.152  10.254  0.8044  0.2488 -0.3713
   13TCq1    C2  199   2.202   2.948  10.151 -0.4583 -0.0866  0.2760
   13TCq1    C3  200   2.161   2.874  10.047 -0.2167 -0.5149  0.7506
   13TCq1    C4  201   2.130   2.739  10.066  0.1315  0.7014  0.3928
   13TCq1    C5  202   2.126   2.682  10.186 -0.0094  0.0642  0.3706
   13TCq1    C6  203   2.163   2.766  10.287  0.3897 -0.0688  0.0828
   13TCq1    C7  204   2.202   2.897  10.275  0.0238  0.1540 -0.4780
   13TCq1    C8  205   2.145   2.717  10.425 -0.0500  0.0597 -0.3318
   13TCq1    O4  206   2.210   2.770  10.512 -0.0818  0.3878  0.4040
   13TCq1    C9  207   2.117   2.654   9.950  0.9733  0.5959  0.0837
   13TCq1    O5  208   2.100   2.531   9.977  0.1179 -0.2441  0.5522
   13TCq1    O6  209   2.116   2.701   9.837 -0.3254 -0.1689  0.2183
   13TCq1    H1  210   2.281   3.098   9.979  1.6676 -0.1867  2.0403
   13TCq1    H2  211   2.160   2.907   9.944 -0.1375  1.3777  1.3603
   13TCq1    H3  212   2.107   2.576  10.201 -3.6143  0.2361 -2.9833
   13TCq1    H4  213   2.215   2.953  10.367  0.4445 -0.7524  0.0254
   14MPD2     C  214   2.009   2.390  10.530 -0.4542  0.0886  0.0593
   14MPD2    C1  215   2.070   2.515  10.544  0.2314  0.4403  0.1201
   14MPD2    C2  216   2.134   2.539  10.667  0.0498  0.9985  0.2326
   14MPD2    C3  217   2.121   2.445  10.768  0.4198  0.3455  0.1186
   14MPD2    C4  218   2.066   2.319  10.748 -0.2007  0.3061  0.0153
   14MPD2    C5  219   2.011   2.295  10.624 -0.2219  0.7034 -0.3716
   14MPD2     H  220   2.183   2.632  10.693  0.0912  0.9247  0.4192
   14MPD2    H1  221   2.065   2.250  10.831 -1.4702  1.2440  0.7808
   14MPD2    H2  222   1.971   2.365  10.432 -0.5659 -2.9005  0.8874
   14MPD2    H3  223   1.963   2.199  10.606 -0.4481  1.0249 -1.4592
   14MPD2     N  224   2.167   2.489  10.896  0.1407  0.3469  0.1205
   14MPD2    H5  225   2.175   2.590  10.905  0.1714  0.2230  1.5417
   14MPD2    N1  226   2.070   2.602  10.431 -0.3187  0.0993  0.5927
   14MPD2    H7  227   2.002   2.580  10.359 -1.1967 -0.5525  1.6165
   15TCq1    O1  228   0.434   1.652   1.466  0.0469  0.4441  0.2723
   15TCq1    C1  229   0.482   1.574   1.369 -0.5330 -0.2289 -0.6448
   15TCq1    O2  230   0.421   1.540   1.268  0.3696 -0.1373  0.1387
   15TCq1    C2  231   0.551   1.466   1.446 -0.8632  0.0450  1.1316
   15TCq1    C3  232   0.593   1.475   1.580  0.2373 -0.6356  0.0748
   15TCq1    C4  233   0.644   1.362   1.634 -0.0665 -0.4662 -0.2255
   15TCq1    C5  234   0.645   1.240   1.569  0.1593  0.2763  0.0217
   15TCq1    C6  235   0.605   1.233   1.439 -0.2631 -0.5056  0.0656
   15TCq1    C7  236   0.554   1.350   1.377  0.0704 -0.3640  0.6303
   15TCq1    C8  237   0.605   1.107   1.366  0.2290 -0.4795  0.0908
   15TCq1    O4  238   0.662   1.013   1.423  0.4336  1.0373 -0.3213
   15TCq1    C9  239   0.708   1.382   1.758 -0.0187  0.2360  0.6451
   15TCq1    O5  240   0.725   1.507   1.786 -0.3415  0.0467 -0.0332
   15TCq1    O6  241   0.771   1.282   1.795 -0.0451 -0.3049  0.2128
   15TCq1    H1  242   0.507   1.673   1.528 -0.7834  0.2224  1.3220
   15TCq1    H2  243   0.577   1.566   1.636  0.0611 -0.9015  0.4547
   15TCq1    H3  244   0.691   1.156   1.621  1.8417  1.5674  0.6451
   15TCq1    H4  245   0.531   1.341   1.272  2.5182  1.1710 -0.0391
   16MPD2     C  246   0.435   0.977   1.066  0.0410  0.6187  0.7238
   16MPD2    C1  247   0.524   0.980   1.167  0.0590  0.2406  0.0942
   16MPD2    C2  248   0.591   0.861   1.189  0.8283 -0.4306  0.0626
   16MPD2    C3  249   0.566   0.745   1.119 -0.4904  0.0439  0.1431
   16MPD2    C4  250   0.467   0.745   1.025  0.1230 -0.2587 -0.2727
   16MPD2    C5  251   0.406   0.860   0.996 -0.2477  0.0485  0.6230
   16MPD2     H  252   0.671   0.852   1.262 -0.0069  0.5159  1.1003
   16MPD2    H1  253   0.434   0.655   0.974 -2.1397  0.0760  0.5807
   16MPD2    H2  254   0.385   1.068   1.035  0.4413  0.4878 -0.3074
   16MPD2    H3  255   0.326   0.858   0.922 -0.7978  0.2608  1.2104
   16MPD2     N  256   0.643   0.637   1.155 -0.0246 -0.4194 -0.7648
   16MPD2    H5  257   0.721   0.662   1.215  1.3145 -0.4805 -2.5021
   16MPD2    N1  258   0.542   1.100   1.245 -0.7553 -0.7569 -0.0906
   16MPD2    H7  259   0.496   1.185   1.216 -0.6758 -0.7854 -0.2973
   17TMC1    C1  260   2.442   1.995  11.788  0.1894  0.6792 -0.3148
   17TMC1    C2  261   2.378   1.872  11.760  0.6807 -0.2727  0.0194
   17TMC1    C3  262   2.311   1.812  11.857 -0.3227  0.2060  0.7150
   17TMC1    C4  263   2.435   2.049  11.913 -0.0038  0.8427  0.7075
   17TMC1    C5  264   2.365   1.984  12.008 -0.0486 -0.5372  0.1093
   17TMC1    C6  265   2.295   1.864  11.989  0.6352 -0.1386  0.1039
   17TMC1     C  266   2.450   2.088  11.681 -0.4999  0.1856  0.9383
   17TMC1     O  267   2.408   2.199  11.708 -0.5004 -0.0707  0.7095
   17TMC1     H  268   2.376   1.829  11.661  1.9373  2.1591 -1.0568
   17TMC1    H1  269   2.488   2.142  11.930 -2.6170  2.4802 -0.1387
   17TMC1    H2  270   2.232   1.815  12.062  2.9357 -2.1147  0.7708
   17TMC1    C7  271   2.386   2.020  12.144 -0.6901 -0.2586 -1.1647
   17TMC1    C8  272   2.280   1.675  11.831 -0.6500 -0.1317 -0.1422
   17TMC1    O1  273   2.410   2.130  12.184  0.1013 -0.0600  0.6637
   17TMC1    O2  274   2.372   1.595  11.828 -0.4131  0.8141  0.1345
   17TMC1    O3  275   2.447   1.916  12.208 -0.1479  0.2206  0.4745
   17TMC1    H3  276   2.447   1.831  12.159  0.0139  0.5746 -0.1403
   17TMC1    O5  277   2.158   1.646  11.873 -0.2559 -0.7214  0.1121
   17TMC1    H5  278   2.111   1.731  11.891 -1.7103 -1.8827  1.7278
   18MPD2     C  279   2.459   2.209  11.402 -0.5163  0.4486  0.2143
   18MPD2    C1  280   2.501   2.083  11.433 -0.7306  0.4246  0.3156
   18MPD2    C2  281   2.574   2.023  11.332 -0.1930  0.1856 -0.2682
   18MPD2    C3  282   2.599   2.071  11.201  0.1884 -0.3358  0.8357
   18MPD2    C4  283   2.538   2.195  11.170  0.2116  0.3006  0.7568
   18MPD2    C5  284   2.470   2.253  11.273  0.6354  0.6241 -0.3932
   18MPD2     H  285   2.613   1.927  11.364  1.5704  1.1054  0.3583
   18MPD2    H1  286   2.543   2.229  11.068  2.4011  1.7489  1.3463
   18MPD2    H2  287   2.389   2.261  11.466 -0.7614  0.0223  0.2928
   18MPD2    H3  288   2.423   2.348  11.252  1.5406  1.3623  0.8894
   18MPD2     N  289   2.663   2.007  11.096 -0.0847 -0.2974 -0.5369
   18MPD2    H5  290   2.667   2.057  11.008 -0.7479  1.2327  0.3007
   18MPD2    N1  291   2.496   2.027  11.564 -0.7160  0.0365  0.1873
   18MPD2    H7  292   2.537   1.935  11.579 -1.6827 -0.9617 -3.1807
   19TMC2    C1  293   0.016   2.251  14.458  0.0750 -0.3707 -0.2358
   19TMC2    C2  294   4.689   2.362  14.415  0.3519  1.0926  0.1640
   19TMC2    C3  295   4.562   2.340  14.369  0.2266  0.9350  0.8490
   19TMC2    C4  296   4.712   2.127  14.444  0.9328 -0.7013  0.2564
   19TMC2    C5  297   4.584   2.109  14.394 -0.6078 -1.1101  0.5165
   19TMC2    C6  298   4.512   2.217  14.351 -0.3457  0.2221 -0.6863
   19TMC2     C  299   0.152   2.271  14.506 -0.0070  0.6157  0.0604
   19TMC2     O  300   0.201   2.381  14.484 -0.1725 -0.0612 -0.3214
   19TMC2     H  301   4.732   2.462  14.414  2.2157  0.3035  0.2212
   19TMC2    H1  302   0.026   2.041  14.482  1.5213 -1.9012 -3.2918
   19TMC2    H2  303   4.421   2.198  14.294 -0.7496 -0.2621  0.1267
   19TMC2    C7  304   4.533   1.978  14.385 -0.9502  0.0389  0.1510
   19TMC2    C8  305   4.488   2.464  14.328 -0.2521 -0.7322 -0.3565
   19TMC2    O1  306   4.608   1.889  14.419 -0.2684 -0.3907  0.5149
   19TMC2    O2  307   4.531   2.580  14.317  0.5764  0.7920  0.0782
   19TMC2    O5  308   4.369   2.449  14.396  0.2453  0.1616 -0.4344
   19TMC2    H5  309   4.350   2.356  14.420 -1.8375  0.2260 -1.8686
   20MPD2     C  310   0.451   2.289  14.582  0.1741  0.0454 -0.0451
   20MPD2    C1  311   0.368   2.170  14.570  0.0219  0.2329 -0.1809
   20MPD2    C2  312   0.433   2.054  14.601 -0.2329  0.2785  0.5847
   20MPD2    C3  313   0.563   2.051  14.641  0.1039  0.5024  0.1212
   20MPD2    C4  314   0.639   2.164  14.649  0.2874  0.1509  0.5838
   20MPD2    C5  315   0.583   2.279  14.617  0.3512  0.0759 -0.1369
   20MPD2     H  316   0.377   1.961  14.598  0.4971 -0.0964 -1.3712
   20MPD2    H1  317   0.747   2.154  14.658  0.2325 -0.6342  0.3715
   20MPD2    H2  318   0.416   2.391  14.573  0.4202  0.2382  1.1416
   20MPD2    H3  319   0.637   2.372  14.629 -1.1640  0.9964 -0.4000
   20MPD2     N  320   0.634   1.928  14.663  0.5133 -0.1362 -0.4004
   20MPD2    H5  321   0.720   1.933  14.717  0.6449  1.6013 -0.7611
   20MPD2    N1  322   0.234   2.166  14.542  0.1317  0.2775  0.2583
   20MPD2    H7  323   0.202   2.072  14.520  2.3816 -0.3881 -0.1119
   21TMC2    C1  324   2.814   2.129  14.264 -0.3268 -0.1845  0.2505
   21TMC2    C2  325   2.769   2.087  14.148  0.1215  0.7987 -0.4814
   21TMC2    C3  326   2.667   2.160  14.093 -0.6793  0.4592  0.0071
   21TMC2    C4  327   2.757   2.232  14.337 -0.4930  0.0422 -0.7162
   21TMC2    C5  328   2.653   2.300  14.280 -0.3923 -0.1008  0.4038
   21TMC2    C6  329   2.611   2.272  14.152 -0.9668  0.0124  0.4377
   21TMC2     C  330   2.927   2.062  14.324 -0.3223 -0.1403  0.9850
   21TMC2     O  331   2.929   1.940  14.314  0.2110 -0.3149 -0.0863
   21TMC2     H  332   2.810   1.996  14.107 -0.9701 -0.1558  0.5403
   21TMC2    H1  333   2.797   2.260  14.434  0.8048 -2.2847 -0.6117
   21TMC2    H2  334   2.520   2.313  14.111 -1.1155 -0.4554  0.2984
   21TMC2    C7  335   2.547   2.350  14.368 -0.7124  0.0072 -0.1405
   21TMC2    C8  336   2.629   2.127  13.961 -0.9203 -0.4272 -0.2374
   21TMC2    O1  337   2.537   2.292  14.476  0.3049 -0.6531  0.2165
   21TMC2    O2  338   2.706   2.099  13.866 -0.3606  0.3338 -0.0065
   21TMC2    O5  339   2.503   2.084  13.979  0.2775 -0.7246 -0.6041
   21TMC2    H5  340   2.490   2.096  14.076 -1.1924 -0.6609 -0.8062
   22MPD2     C  341   3.405   2.098  14.501  1.0456 -0.4922 -0.3048
   22MPD2    C1  342   3.327   1.993  14.465  0.4283 -0.5550 -0.0807
   22MPD2    C2  343   3.202   2.013  14.422 -0.5805 -0.1911 -0.2433
   22MPD2    C3  344   3.157   2.135  14.399 -0.2335  0.4689  0.4831
   22MPD2    C4  345   3.221   2.243  14.441 -0.2162  0.2787  0.3394
   22MPD2    C5  346   3.353   2.222  14.486 -0.9881 -0.4024 -0.2923
   22MPD2     H  347   3.144   1.924  14.402  1.1954 -0.8895 -2.2424
   22MPD2    H1  348   3.182   2.344  14.436 -1.0207 -0.0883 -1.0489
   22MPD2    H2  349   3.503   2.095  14.546  0.1718 -1.9209  1.5179
   22MPD2    H3  350   3.412   2.306  14.521  0.3592 -1.9630  1.1792
   22MPD2     N  351   3.022   2.158  14.364 -0.2530  0.1898 -0.1626
   22MPD2    H5  352   2.992   2.253  14.346  0.9024  0.4861 -0.5126
   22MPD2    N1  353   3.360   1.857  14.476  0.3898 -0.2060 -0.3714
   22MPD2    H7  354   3.290   1.784  14.465 -0.1443  0.2202  0.1851
   23TMC2    C1  355   3.679   3.429  14.471 -0.7388  0.3187  0.2035
   23TMC2    C2  356   3.628   3.536  14.538  0.5092  0.4182 -0.1478
   23TMC2    C3  357   3.533   3.614  14.484 -0.2014 -0.7002  0.4723
   23TMC2    C4  358   3.646   3.399  14.339 -0.6102 -0.2132 -0.3518
   23TMC2    C5  359   3.545   3.478  14.279 -0.0766 -0.2832 -0.1594
   23TMC2    C6  360   3.489   3.586  14.359 -0.2598  0.7769 -0.8172
   23TMC2     C  361   3.754   3.333  14.545 -0.6695 -0.0958 -0.2988
   23TMC2     O  362   3.694   3.288  14.643 -0.4763  0.3159  0.5384
   23TMC2     H  363   3.648   3.558  14.642 -1.1754 -0.4832  0.3679
   23TMC2    H1  364   3.676   3.301  14.304 -1.1902 -0.2582 -0.7106
   23TMC2    H2  365   3.419   3.655  14.313 -0.5064 -0.1228 -1.8101
   23TMC2    C7  366   3.477   3.411  14.173  0.3257  0.4141  0.5092
   23TMC2    C8  367   3.499   3.746  14.544 -0.0500 -0.4485 -0.1148
   23TMC2    O1  368   3.537   3.324  14.111 -0.3939 -0.6504 -0.6985
   23TMC2    O2  369   3.559   3.803  14.631  0.3318 -0.9109  0.3040
   23TMC2    O5  370   3.366   3.756  14.531  0.4780 -0.0601 -0.0677
   23TMC2    H5  371   3.315   3.688  14.481 -0.7332  1.2535 -0.6239
   24MPD2     C  372   4.197   3.114  14.665  0.1565 -0.6895  0.3495
   24MPD2    C1  373   4.073   3.101  14.726 -0.1742 -0.3464 -0.5718
   24MPD2    C2  374   3.961   3.156  14.656 -0.2249 -0.3655  0.3411
   24MPD2    C3  375   3.982   3.243  14.548 -0.1848 -0.4476  0.1170
   24MPD2    C4  376   4.106   3.250  14.495 -0.5121  0.0137 -0.0485
   24MPD2    C5  377   4.210   3.179  14.548 -0.1575  0.2270  0.8711
   24MPD2     H  378   3.866   3.137  14.705 -0.0175 -0.5299  0.6885
   24MPD2    H1  379   4.137   3.304  14.406 -1.5020 -1.6719 -1.3971
   24MPD2    H2  380   4.287   3.073  14.709  2.4300  1.6894 -2.0454
   24MPD2    H3  381   4.307   3.167  14.500 -1.3754 -0.4571 -1.4251
   24MPD2     N  382   3.880   3.317  14.482 -0.0666  0.6879  0.0387
   24MPD2    H5  383   3.902   3.378  14.404 -2.6929  0.3499 -0.9760
   24MPD2    N1  384   4.058   3.042  14.850 -0.1609  0.6891 -0.3708
   24MPD2    H7  385   3.961   3.046  14.880 -0.0980 -0.0669 -0.0462
   25TMC2    C1  386   2.114   1.438  11.469  0.3922 -0.0559 -0.0223
   25TMC2    C2  387   2.251   1.458  11.457 -0.3431  0.2892 -0.7043
   25TMC2    C3  388   2.323   1.426  11.563  0.6363  0.3297 -0.6323
   25TMC2    C4  389   2.060   1.376  11.576 -0.0315 -0.0156  0.2393
   25TMC2    C5  390   2.141   1.333  11.674  0.1269 -0.0495  0.6039
   25TMC2    C6  391   2.278   1.353  11.664 -0.1054 -0.1578  0.0542
   25TMC2     C  392   2.030   1.491  11.366 -0.5111 -0.7889 -0.8769
   25TMC2     O  393   2.076   1.598  11.314 -0.3114  0.3310  0.1404
   25TMC2     H  394   2.290   1.518  11.375 -2.1102  1.5951 -0.6004
   25TMC2    H1  395   1.954   1.355  11.578  0.5521 -2.9758 -0.2400
   25TMC2    H2  396   2.347   1.328  11.744  0.9742  0.5827 -0.6345
   25TMC2    C7  397   2.093   1.296  11.805  0.0996 -0.9509 -0.6783
   25TMC2    C8  398   2.468   1.451  11.554 -0.0924 -0.5000 -0.1438
   25TMC2    O1  399   2.157   1.209  11.857 -0.2796 -0.0004 -0.6702
   25TMC2    O2  400   2.547   1.382  11.619  0.0335 -0.0598 -0.7787
   25TMC2    O5  401   2.497   1.545  11.468  0.5600  0.8044  0.4550
   25TMC2    H5  402   2.427   1.609  11.440  0.6303 -0.3543 -2.4026
   26MPD2     C  403   1.735   1.427  10.975  0.1109 -0.7399 -0.5262
   26MPD2    C1  404   1.732   1.313  11.051 -0.5575  0.1721 -0.3148
   26MPD2    C2  405   1.791   1.316  11.169 -0.6801 -0.0887  0.1866
   26MPD2    C3  406   1.851   1.431  11.219 -0.1398 -0.0148 -0.5857
   26MPD2    C4  407   1.854   1.543  11.143  0.6014 -0.3408 -0.5063
   26MPD2    C5  408   1.785   1.543  11.025  0.1968  0.4528 -0.0098
   26MPD2     H  409   1.807   1.222  11.220  0.5276  0.4051  0.7206
   26MPD2    H1  410   1.896   1.632  11.187  1.2918 -1.2048  0.5939
   26MPD2    H2  411   1.680   1.433  10.882  1.5260  0.3214 -1.3010
   26MPD2    H3  412   1.779   1.628  10.959 -1.1211 -1.9229 -2.9839
   26MPD2     N  413   1.917   1.420  11.337  0.4771 -0.8596  0.5404
   26MPD2    H5  414   1.918   1.326  11.375 -0.6793 -2.0350 -2.3438
   26MPD2    N1  415   1.681   1.195  10.996  0.1343 -0.3138 -0.1819
   26MPD2    H7  416   1.672   1.188  10.895 -0.6531  1.3972 -0.2331
   27TMC2    C1  417   1.465   3.254  12.109 -0.3380  0.5692  0.4430
   27TMC2    C2  418   1.422   3.342  12.018  0.5439  0.4307 -0.2551
   27TMC2    C3  419   1.444   3.479  12.034  0.7692  1.1408 -1.1891
   27TMC2    C4  420   1.540   3.293  12.211  0.4750 -0.4855  0.0356
   27TMC2    C5  421   1.558   3.427  12.229 -0.6383  0.1645 -0.6869
   27TMC2    C6  422   1.506   3.520  12.144 -0.2550  0.2141 -0.3455
   27TMC2     C  423   1.371   3.144  12.139  0.3592 -0.2269  0.2684
   27TMC2     O  424   1.314   3.086  12.048 -0.0807 -0.0248  0.0269
   27TMC2     H  425   1.362   3.295  11.940 -0.1213 -0.9778  1.0954
   27TMC2    H1  426   1.585   3.221  12.278  0.2708  0.6307  1.3862
   27TMC2    H2  427   1.517   3.627  12.154 -0.7402  0.1950  0.4235
   27TMC2    C7  428   1.525   3.460  12.368 -0.6815  0.4863 -0.1121
   27TMC2    C8  429   1.443   3.559  11.918  0.1576 -0.6533  0.6261
   27TMC2    O1  430   1.460   3.371  12.429  0.3268  0.0981  0.2482
   27TMC2    O2  431   1.533   3.632  11.885 -0.1074 -0.3560  0.1408
   27TMC2    O5  432   1.327   3.533  11.854 -0.5857 -0.0274  0.1063
   27TMC2    H5  433   1.266   3.480  11.909 -0.2725 -1.2231 -0.7079
   28MPD2     C  434   1.076   2.906  12.497  0.8247 -0.3568  0.6726
   28MPD2    C1  435   1.134   3.017  12.554 -0.4885 -0.0095 -0.3527
   28MPD2    C2  436   1.223   3.089  12.479  0.6197 -0.4612 -0.3647
   28MPD2    C3  437   1.257   3.055  12.347 -0.3948 -0.1195 -0.2926
   28MPD2    C4  438   1.203   2.937  12.297 -0.1478 -0.2884 -0.5598
   28MPD2    C5  439   1.111   2.867  12.373 -0.3121 -0.5324  0.8149
   28MPD2     H  440   1.271   3.181  12.511 -1.0964 -0.0093  0.9019
   28MPD2    H1  441   1.234   2.906  12.197 -1.6739 -0.7868 -0.8720
   28MPD2    H2  442   1.000   2.843  12.542  0.5747 -2.0697 -2.1239
   28MPD2    H3  443   1.056   2.782  12.335 -1.0692  0.5436 -0.5031
   28MPD2     N  444   1.350   3.136  12.275  0.4235 -0.4887 -0.1502
   28MPD2    H5  445   1.386   3.213  12.330  2.3492 -2.4800  1.3565
   28MPD2    N1  446   1.078   3.061  12.677 -0.4988 -0.3113 -0.5192
   28MPD2    H7  447   1.010   3.002  12.724  0.0985 -1.6351 -1.3258
   29TMC2    C1  448   1.112   0.711  14.661 -0.5459 -0.5901  0.1507
   29TMC2    C2  449   1.118   0.701  14.801 -0.2354  0.5815 -0.4134
   29TMC2    C3  450   1.144   0.815  14.868 -0.5268 -0.1356  0.1338
   29TMC2    C4  451   1.135   0.832  14.592  0.5441  0.0831 -1.0762
   29TMC2    C5  452   1.175   0.932  14.676 -0.0903 -0.0552  0.2004
   29TMC2    C6  453   1.161   0.936  14.818  0.6067 -0.7815  0.2098
   29TMC2     C  454   1.067   0.601  14.577 -0.1906  0.3057 -0.2845
   29TMC2     O  455   1.076   0.490  14.615  0.1280 -0.0910  0.1926
   29TMC2     H  456   1.098   0.603  14.842  2.2299  1.2451  2.3288
   29TMC2    H1  457   1.143   0.846  14.485 -0.0996 -1.0513 -1.2794
   29TMC2    H2  458   1.190   1.020  14.880 -0.0089 -0.9035  0.6624
   29TMC2    C7  459   1.176   1.057  14.615  0.6329  0.3399 -0.4192
   29TMC2    C8  460   1.121   0.812  15.004  0.5202 -0.1080  0.2062
   29TMC2    O1  461   1.095   1.071  14.524  0.2272  0.5592  0.7583
   29TMC2    O2  462   1.132   0.708  15.065 -0.1412 -0.1429  0.4104
   29TMC2    O5  463   1.044   0.919  15.032 -0.1971 -0.0217 -0.3112
   29TMC2    H5  464   0.997   0.960  14.956  0.0180 -0.2685 -0.5789
   30MPD2     C  465   0.794   0.463  14.172 -0.3939 -0.6297  0.1729
   30MPD2    C1  466   0.878   0.385  14.247  0.8859  0.6986  0.6492
   30MPD2    C2  467   0.952   0.448  14.348  0.4768  0.0129 -0.5763
   30MPD2    C3  468   0.943   0.582  14.360 -0.0685  0.1717 -0.7637
   30MPD2    C4  469   0.869   0.661  14.282  0.1914  0.0576  0.3974
   30MPD2    C5  470   0.799   0.598  14.179  0.0365  1.1044  0.0108
   30MPD2     H  471   1.014   0.388  14.414 -1.3658 -0.7450  0.4638
   30MPD2    H1  472   0.866   0.768  14.299  2.3857  0.4329 -1.4315
   30MPD2    H2  473   0.729   0.426  14.093  0.5583  0.6365 -1.1938
   30MPD2    H3  474   0.736   0.663  14.120  0.0032 -0.9679 -2.2248
   30MPD2     N  475   1.002   0.652  14.469 -0.1077  0.6049 -0.4301
   30MPD2    H5  476   0.982   0.751  14.468  0.9517  0.8050 -1.3124
   30MPD2    N1  477   0.900   0.249  14.226  0.2785  0.1768  0.8034
   30MPD2    H7  478   0.974   0.209  14.281  1.2879  1.3653  0.3102
   31TMC2    C1  479   3.344   3.981  15.590  0.4497 -0.3138 -0.1167
   31TMC2    C2  480   3.209   4.007  15.594  0.0746 -0.2186 -0.2369
   31TMC2    C3  481   3.135   3.942  15.686 -0.0880 -0.7040 -0.2874
   31TMC2    C4  482   3.404   3.892  15.680 -0.1721 -0.1962  0.9922
   31TMC2    C5  483   3.324   3.842  15.780 -0.4387  0.5372  0.6012
   31TMC2    C6  484   3.194   3.863  15.780  0.8605 -0.0701  0.1708
   31TMC2     C  485   3.417   4.027  15.479 -0.2454 -0.8535 -0.2198
   31TMC2     O  486   3.368   4.121  15.421  0.3229  0.8794 -0.0594
   31TMC2     H  487   3.158   4.084  15.537  3.9718  2.4062 -0.2196
   31TMC2    H1  488   3.511   3.898  15.695 -0.3291  3.8106  0.4022
   31TMC2    H2  489   3.145   3.840  15.874 -2.1671 -1.2786 -1.7072
   31TMC2    C7  490   3.385   3.832  15.915  0.2308  0.7576  0.5276
   31TMC2    C8  491   2.992   3.950  15.669 -0.2695  0.8546 -0.1578
   31TMC2    O1  492   3.395   3.720  15.964 -0.0947 -0.7932  0.1372
   31TMC2    O2  493   2.939   4.039  15.601  0.1237  0.2943  0.3463
   31TMC2    O5  494   2.950   3.826  15.676  0.0981 -0.2935  0.2660
   31TMC2    H5  495   3.007   3.764  15.726  0.7235 -0.5371 -0.7472
   32MPD2     C  496   3.870   4.076  15.247 -0.2418 -0.2091 -0.8083
   32MPD2    C1  497   3.754   4.138  15.213  0.2189  0.1173  0.5331
   32MPD2    C2  498   3.639   4.096  15.277 -0.0982  0.0699  0.4987
   32MPD2    C3  499   3.639   3.991  15.372  0.4216  0.3931 -0.4968
   32MPD2    C4  500   3.748   3.910  15.368  0.0738  0.2297 -0.4310
   32MPD2    C5  501   3.865   3.959  15.317 -0.1457 -0.0022 -0.3850
   32MPD2     H  502   3.549   4.155  15.262 -1.8206 -2.6210  0.1437
   32MPD2    H1  503   3.748   3.823  15.433  0.9596  0.7349  0.2409
   32MPD2    H2  504   3.967   4.109  15.213  0.2178 -1.4969 -0.7522
   32MPD2    H3  505   3.953   3.897  15.332 -1.1661 -1.2319  0.4737
   32MPD2     N  506   3.543   3.963  15.468  0.3908  0.6485  0.5548
   32MPD2    H5  507   3.563   3.891  15.535 -0.6341 -1.4722 -1.4181
   32MPD2    N1  508   3.764   4.255  15.130 -0.5188 -0.1247 -0.4284
   32MPD2    H7  509   3.861   4.267  15.105 -0.7664  1.0078 -0.8135
   33TMC2    C1  510   2.971   2.789  10.552  0.3521 -0.0800  0.0128
   33TMC2    C2  511   2.836   2.795  10.554  0.1251  0.0482 -0.0356
   33TMC2    C3  512   2.780   2.875  10.469 -0.7426  0.2136  0.1513
   33TMC2    C4  513   3.046   2.848  10.453  0.3313  0.1405  0.2330
   33TMC2    C5  514   2.974   2.923  10.362  0.7526 -0.2742  0.1648
   33TMC2    C6  515   2.840   2.939  10.371  0.2144 -0.1950  0.2798
   33TMC2     C  516   3.029   2.693  10.641 -0.1178 -0.2434 -0.0190
   33TMC2     O  517   2.958   2.638  10.724  0.0326  0.1446 -1.1568
   33TMC2     H  518   2.789   2.733  10.629  1.3001  0.0747  0.7264
   33TMC2    H1  519   3.154   2.846  10.446  0.2961 -0.5145 -0.0941
   33TMC2    H2  520   2.788   3.012  10.309  0.0278  0.0846  0.7693
   33TMC2    C7  521   3.040   2.963  10.236 -0.0962  0.5180  0.3015
   33TMC2    C8  522   2.635   2.898  10.486 -0.1714 -0.0982 -0.6725
   33TMC2    O1  523   3.162   2.958  10.232 -0.3278  0.4050 -0.0735
   33TMC2    O2  524   2.556   2.910  10.393  0.3805 -0.3963  0.1850
   33TMC2    O5  525   2.602   2.870  10.616  0.6585 -0.1983  0.4239
   33TMC2    H5  526   2.673   2.882  10.683  1.1993 -2.0263  0.1784
   34MPD2     C  527   3.357   2.302  10.683  0.1475  0.1692  0.6726
   34MPD2    C1  528   3.230   2.307  10.728 -0.3396 -0.4866 -1.0846
   34MPD2    C2  529   3.162   2.434  10.726 -0.1908  0.4669 -0.6516
   34MPD2    C3  530   3.221   2.541  10.654  0.1412 -0.0500  0.2149
   34MPD2    C4  531   3.351   2.527  10.611 -0.0766 -0.0476  0.1930
   34MPD2    C5  532   3.418   2.410  10.628 -0.2735 -0.4252  0.2713
   34MPD2     H  533   3.056   2.431  10.747  0.0689 -2.4098  0.3384
   34MPD2    H1  534   3.388   2.617  10.564  2.6244 -0.2265  1.9341
   34MPD2    H2  535   3.424   2.217  10.688  2.2701  1.7306 -1.1054
   34MPD2    H3  536   3.522   2.399  10.600  0.2260  2.2957  1.1089
   34MPD2     N  537   3.157   2.659  10.612  0.1930 -0.2610  0.3032
   34MPD2    H5  538   3.218   2.705  10.546 -0.1421  1.8117  1.4127
   34MPD2    N1  539   3.172   2.191  10.786  0.5088  0.4635 -0.3698
   34MPD2    H7  540   3.241   2.117  10.799 -0.2561  0.1691  2.0588
   35TMC2    C1  541   4.516   3.384  11.248  0.6380  0.0074  0.3653
   35TMC2    C2  542   4.438   3.445  11.152  0.2820  0.0209 -0.2113
   35TMC2    C3  543   4.304   3.449  11.160  0.2257  0.2911  0.0667
   35TMC2    C4  544   4.456   3.331  11.363  0.9393 -0.2464 -0.2650
   35TMC2    C5  545   4.322   3.352  11.372 -0.2509 -0.8594  0.1872
   35TMC2    C6  546   4.243   3.415  11.278 -1.0441  0.0643 -0.5831
   35TMC2     C  547   4.651   3.437  11.254  0.5899 -0.3534  0.2605
   35TMC2     O  548   4.708   3.456  11.145 -0.1364  0.3301  0.2892
   35TMC2     H  549   4.487   3.499  11.072 -1.5687  1.2271 -0.5244
   35TMC2    H1  550   4.511   3.282  11.442  0.7270 -1.6789 -1.0157
   35TMC2    H2  551   4.135   3.419  11.286 -1.2169 -1.8455 -1.8239
   35TMC2    C7  552   4.257   3.289  11.482  0.4184  0.2696  0.1998
   35TMC2    C8  553   4.232   3.548  11.075  0.7018  0.4806 -0.2608
   35TMC2    O1  554   4.321   3.207  11.542 -0.7328  0.1000 -0.0015
   35TMC2    O2  555   4.297   3.620  11.000 -0.2991  0.2954  0.1066
   35TMC2    O5  556   4.101   3.512  11.061 -0.1012 -0.2683  0.3020
   35TMC2    H5  557   4.091   3.431  11.114  2.3852 -0.5632  0.3049
   36MPD2     C  558   0.314   3.625  11.525  0.6923  0.7577 -0.9330
   36MPD2    C1  559   0.239   3.540  11.603 -0.4442 -0.4220  0.1332
   36MPD2    C2  560   0.121   3.482  11.552 -0.1200 -0.0234  0.3007
   36MPD2    C3  561   0.086   3.497  11.421 -0.5284 -0.6178 -0.6250
   36MPD2    C4  562   0.165   3.577  11.337  1.1257 -0.5629  0.0638
   36MPD2    C5  563   0.278   3.639  11.393  0.0336 -0.1599  0.3012
   36MPD2     H  564   0.048   3.434  11.617 -0.3454 -2.2522 -1.6014
   36MPD2    H1  565   0.143   3.603  11.234  0.6114  2.5511  0.9822
   36MPD2    H2  566   0.401   3.671  11.570 -0.4176  0.5781  1.3743
   36MPD2    H3  567   0.328   3.709  11.328  0.2242 -1.2659 -0.7303
   36MPD2     N  568   4.696   3.453  11.385  0.2568 -0.1395 -0.5904
   36MPD2    H5  569   4.639   3.408  11.457 -1.5279  0.3158 -1.7133
   36MPD2    N1  570   0.267   3.530  11.744 -0.4773  0.2434 -0.1793
   36MPD2    H7  571   0.338   3.592  11.783  0.1950  1.1952 -2.9281
   37TMC2    C1  572   2.061   3.468  12.451  0.2235 -0.2325  0.1175
   37TMC2    C2  573   1.959   3.471  12.357  0.9165  0.0682 -0.3021
   37TMC2    C3  574   1.988   3.527  12.229  0.3164  0.4766  0.2922
   37TMC2    C4  575   2.189   3.501  12.413  0.0472  0.1171  0.7843
   37TMC2    C5  576   2.215   3.550  12.291 -0.3360  0.6647  0.0649
   37TMC2    C6  577   2.114   3.567  12.196  0.0074  0.6152  0.2743
   37TMC2     C  578   2.032   3.415  12.581 -0.0520 -0.5129 -0.2221
   37TMC2     O  579   1.911   3.428  12.616 -0.3530  0.1697  0.0608
   37TMC2     H  580   1.858   3.438  12.375  1.2840  0.1311  1.9412
   37TMC2    H1  581   2.270   3.485  12.483  0.0128  0.2378  0.8528
   37TMC2    H2  582   2.132   3.626  12.107 -0.2487 -1.2000 -0.9985
   37TMC2    C7  583   2.353   3.560  12.250  0.3765  0.0868 -0.4131
   37TMC2    C8  584   1.878   3.608  12.173  0.6013  1.2230  0.4091
   37TMC2    O1  585   2.431   3.594  12.337 -0.1856  0.2566 -0.5458
   37TMC2    O2  586   1.786   3.645  12.239  0.7133 -0.1621  0.3448
   37TMC2    O5  587   1.884   3.584  12.043  0.4960 -0.0128  0.4065
   37TMC2    H5  588   1.970   3.541  12.024 -0.7220 -1.9800 -0.6433
   38MPD2     C  589   2.163   3.137  12.993  0.9320 -0.9709  0.8950
   38MPD2    C1  590   2.263   3.127  12.903 -0.2488 -0.1974  0.4418
   38MPD2    C2  591   2.258   3.201  12.784  0.1989  0.7633  0.1655
   38MPD2    C3  592   2.148   3.282  12.759  0.0712 -0.0970 -0.6221
   38MPD2    C4  593   2.040   3.289  12.853  0.2541  0.2184  0.4599
   38MPD2    C5  594   2.055   3.215  12.967  0.3021 -0.4956 -0.5563
   38MPD2     H  595   2.349   3.196  12.725  0.1754  0.0097  0.2001
   38MPD2    H1  596   1.958   3.359  12.840 -0.8448 -0.9948  0.8984
   38MPD2    H2  597   2.160   3.075  13.082  0.6855 -2.8170 -0.3900
   38MPD2    H3  598   1.978   3.218  13.043  2.0522  1.5849  1.1510
   38MPD2     N  599   2.140   3.345  12.634  0.2373  0.7964  0.5445
   38MPD2    H5  600   2.217   3.341  12.568  1.4811 -0.0204  2.0428
   38MPD2    N1  601   2.374   3.045  12.927  0.2942 -0.1174 -0.5405
   38MPD2    H7  602   2.454   3.055  12.865 -0.1701 -1.0201 -1.2627
   39TMC2    C1  603   1.319   0.296   1.699  0.1133 -0.7384 -0.1076
   39TMC2    C2  604   1.282   0.345   1.819  0.8725 -0.7070  0.3212
   39TMC2    C3  605   1.361   0.429   1.879  0.2118 -0.7579 -0.3934
   39TMC2    C4  606   1.438   0.324   1.645  0.0109 -0.2625 -0.1727
   39TMC2    C5  607   1.514   0.415   1.708 -0.3792  0.1380 -0.1075
   39TMC2    C6  608   1.488   0.468   1.831 -0.1770 -0.5888  0.2995
   39TMC2     C  609   1.216   0.219   1.634 -0.3648  0.1615  0.0509
   39TMC2     O  610   1.101   0.233   1.676  0.5457  0.2460  0.6255
   39TMC2     H  611   1.191   0.311   1.867  0.8842 -1.4452 -0.1618
   39TMC2    H1  612   1.468   0.293   1.545  1.7287 -0.0069  0.2638
   39TMC2    H2  613   1.551   0.539   1.883  0.5489 -1.6400  0.8632
   39TMC2    C7  614   1.643   0.448   1.646  0.0721 -0.3686  0.1831
   39TMC2    C8  615   1.319   0.480   2.013 -0.0059  0.5283 -0.4129
   39TMC2    O1  616   1.690   0.364   1.571  0.1181 -0.0765 -0.1600
   39TMC2    O2  617   1.403   0.484   2.104  0.1970  0.4609 -0.2227
   39TMC2    O5  618   1.190   0.514   2.019 -0.2732 -0.2311 -0.4128
   39TMC2    H5  619   1.135   0.510   1.938  2.2398  0.8080 -2.1754
   40MPD2     C  620   1.257   4.687   1.383 -0.5910  0.0666  0.4940
   40MPD2    C1  621   1.195   0.049   1.449 -0.5108 -0.0998  0.3220
   40MPD2    C2  622   1.058   0.061   1.439  0.5577 -0.5619  0.2050
   40MPD2    C3  623   0.988   4.711   1.353  1.0607 -0.3146  0.7316
   40MPD2    C4  624   1.054   4.603   1.294  0.0386  0.7022  0.7368
   40MPD2    C5  625   1.191   4.591   1.310  0.1124 -0.8977 -0.5248
   40MPD2     H  626   1.008   0.147   1.483  0.0626  0.6050 -2.6492
   40MPD2    H1  627   0.999   4.544   1.222  0.5757  0.4968  0.4913
   40MPD2    H2  628   1.364   4.677   1.392 -0.2474  0.3681 -3.2610
   40MPD2    H3  629   1.243   4.510   1.261  0.1184 -2.3562  1.9566
   40MPD2     N  630   0.854   4.726   1.323 -0.8939 -0.0016 -0.2488
   40MPD2    H5  631   0.809   4.660   1.260  1.3499  0.4166 -2.3016
   40MPD2    N1  632   1.269   0.145   1.530  0.3021 -0.0355  0.2217
   40MPD2    H7  633   1.371   0.142   1.527  0.3627  1.2854  0.7927
   41TMC2    C1  634   4.310   3.611  14.053 -0.0771  0.3333  0.7184
   41TMC2    C2  635   4.188   3.669  14.030  0.4971  0.4510  0.5478
   41TMC2    C3  636   4.169   3.752  13.920  0.1674 -0.4478  1.2644
   41TMC2    C4  637   4.405   3.623  13.957  0.0422 -0.4640  0.0636
   41TMC2    C5  638   4.391   3.710  13.860 -0.1657  0.4657  0.7491
   41TMC2    C6  639   4.275   3.775  13.832 -0.1065 -0.3516 -0.2032
   41TMC2     C  640   4.332   3.537  14.170  0.1952  0.4935  0.6774
   41TMC2     O  641   4.428   3.459  14.172 -0.4951 -0.4409  0.4436
   41TMC2     H  642   4.112   3.647  14.104  2.5788 -0.4470  2.3972
   41TMC2    H1  643   4.503   3.579  13.974  0.4112 -0.6859 -2.6993
   41TMC2    H2  644   4.269   3.845  13.749 -0.4601  0.6630  0.6824
   41TMC2    C7  645   4.512   3.741  13.791 -0.3046  0.2598 -0.3050
   41TMC2    C8  646   4.045   3.825  13.893  0.0288 -0.1950  0.0244
   41TMC2    O1  647   4.618   3.756  13.851 -0.0801  0.0863 -0.0664
   41TMC2    O2  648   4.027   3.876  13.783  0.5350  0.2019 -0.1038
   41TMC2    O5  649   4.012   3.871  14.017 -0.1486  0.1347 -0.1644
   41TMC2    H5  650   4.075   3.845  14.087  3.2454  2.0962 -2.5185
   42MPD2     C  651   4.409   3.469  14.458  0.3137  0.2038  0.0996
   42MPD2    C1  652   4.289   3.526  14.412 -0.0734 -0.6761  0.2475
   42MPD2    C2  653   4.205   3.570  14.517  0.4050  0.1148  0.2509
   42MPD2    C3  654   4.233   3.552  14.653  0.7915  0.0825  0.0986
   42MPD2    C4  655   4.351   3.492  14.695  0.0050 -0.2261  0.4329
   42MPD2    C5  656   4.431   3.451  14.593  0.3141  1.3419 -0.1085
   42MPD2     H  657   4.108   3.612  14.494 -0.0727 -2.0086 -1.5743
   42MPD2    H1  658   4.377   3.466  14.797 -1.5891  2.4099  1.5025
   42MPD2    H2  659   4.488   3.440  14.390 -0.3901 -1.3777 -0.0356
   42MPD2    H3  660   4.525   3.402  14.615 -0.4616 -0.2115 -0.2965
   42MPD2     N  661   4.149   3.607  14.754  0.3471  0.4098 -0.0872
   42MPD2    H5  662   4.178   3.597  14.851 -0.6941  1.4313  0.3328
   42MPD2    N1  663   4.254   3.564  14.278 -0.3686 -0.0394  0.1195
   42MPD2    H7  664   4.166   3.615  14.270 -0.1247  0.3777  0.0563
   43TMC2    C1  665   1.414   1.619   0.840  0.0273  0.2373 -0.8534
   43TMC2    C2  666   1.316   1.574   0.918  0.5431  0.6594  0.2437
   43TMC2    C3  667   1.313   1.604   1.052  0.1600  0.4359 -0.0275
   43TMC2    C4  668   1.516   1.695   0.899 -0.7648 -0.2307 -0.2014
   43TMC2    C5  669   1.517   1.714   1.037  0.0650  0.1121  0.1984
   43TMC2    C6  670   1.411   1.660   1.113 -0.2908  0.1174 -0.0512
   43TMC2     C  671   1.414   1.579   0.700  0.4246 -0.3154  0.3282
   43TMC2     O  672   1.333   1.492   0.665  0.1036 -0.5729 -0.1445
   43TMC2     H  673   1.236   1.519   0.869  1.9160  0.3262 -1.6235
   43TMC2    H1  674   1.595   1.739   0.838 -0.8149 -0.9963 -0.8172
   43TMC2    H2  675   1.416   1.652   1.221  3.7729  0.0089 -0.2137
   43TMC2    C7  676   1.640   1.727   1.106  0.4133  0.3745  0.4817
   43TMC2    C8  677   1.222   1.515   1.127  0.3598 -0.0192  0.0380
   43TMC2    O1  678   1.746   1.711   1.043  0.0613 -0.3917 -0.0540
   43TMC2    O2  679   1.268   1.422   1.196 -0.3850 -0.8737 -0.0854
   43TMC2    O5  680   1.106   1.533   1.073  0.1472 -0.1118 -0.0261
   43TMC2    H5  681   1.098   1.619   1.027 -0.6541  0.8410  1.9150
   44MPD2     C  682   1.509   1.667   0.207  0.3063  0.4875  0.0207
   44MPD2    C1  683   1.490   1.553   0.277 -0.8071  0.1819 -0.2497
   44MPD2    C2  684   1.487   1.547   0.414 -0.0610  0.2546 -0.2931
   44MPD2    C3  685   1.496   1.663   0.487 -0.3649 -0.6981 -0.3494
   44MPD2    C4  686   1.531   1.775   0.414  0.0165  0.4133  0.6355
   44MPD2    C5  687   1.546   1.775   0.280  0.1251  0.0804 -0.4745
   44MPD2     H  688   1.473   1.456   0.470 -0.0696  0.8061  0.6067
   44MPD2    H1  689   1.553   1.873   0.456 -0.2359  1.2803 -1.2132
   44MPD2    H2  690   1.498   1.666   0.099 -1.0506 -0.9367  0.1843
   44MPD2    H3  691   1.564   1.869   0.230  3.0754  0.1379  0.6708
   44MPD2     N  692   1.483   1.669   0.621  0.1326  0.7959  0.5334
   44MPD2    H5  693   1.511   1.757   0.664  0.2152  0.0100  2.0525
   44MPD2    N1  694   1.456   1.440   0.206  0.2801 -0.4105 -0.4997
   44MPD2    H7  695   1.418   1.365   0.263 -1.2626 -0.5170 -1.6949
   45TMC2    C1  696   1.513   3.623   9.945 -0.1952 -0.7721 -0.2630
   45TMC2    C2  697   1.640   3.573   9.963  1.5512 -0.0335 -0.0373
   45TMC2    C3  698   1.731   3.665   9.997 -0.3807 -0.3495  0.2294
   45TMC2    C4  699   1.476   3.751   9.957 -0.4783  0.0157 -0.2772
   45TMC2    C5  700   1.572   3.846   9.990  0.4845  0.1753  0.0561
   45TMC2    C6  701   1.701   3.797  10.009 -0.3923  0.4879  1.2754
   45TMC2     C  702   1.410   3.527   9.911 -0.4364  1.6298  0.5271
   45TMC2     O  703   1.444   3.413   9.932 -0.2184 -0.1378  0.3469
   45TMC2     H  704   1.656   3.466   9.965 -0.4178 -0.3582 -0.8474
   45TMC2    H1  705   1.372   3.774   9.936 -0.7861 -1.5616 -0.5021
   45TMC2    H2  706   1.770   3.864  10.058 -2.1561  0.7433  3.4501
   45TMC2    C7  707   1.554   3.989   9.993 -0.7927 -0.0887 -0.1978
   45TMC2    C8  708   1.839   3.617  10.077 -0.0999 -0.7236  0.1623
   45TMC2    O1  709   1.652   4.055  10.030  0.1113  0.4576  0.2440
   45TMC2    O2  710   1.880   3.675  10.176 -0.3408 -0.2762 -0.3943
   45TMC2    O5  711   1.901   3.540   9.987  0.6664  0.2330  0.2720
   45TMC2    H5  712   1.842   3.532   9.909  3.6762 -1.2314 -1.8469
   46MPD2     C  713   1.183   3.367   9.808  0.5094  0.6447 -0.2879
   46MPD2    C1  714   1.193   3.503   9.792 -0.2267  0.6189  0.1315
   46MPD2    C2  715   1.113   3.570   9.701  0.4443 -0.2516  0.5462
   46MPD2    C3  716   1.006   3.499   9.647  0.0526 -0.6766 -0.3604
   46MPD2    C4  717   0.980   3.369   9.688  0.6105 -0.2034  0.1392
   46MPD2    C5  718   1.077   3.295   9.761  0.1765 -1.0372 -0.2394
   46MPD2     H  719   1.132   3.672   9.670  0.7082 -0.7050 -0.7746
   46MPD2    H1  720   0.887   3.318   9.665  0.0280  1.1121 -0.4029
   46MPD2    H2  721   1.248   3.313   9.876 -2.3271 -0.8951  1.1871
   46MPD2    H3  722   1.061   3.191   9.788 -0.7835 -1.4392 -2.3452
   46MPD2     N  723   0.917   3.577   9.567 -0.1248 -0.2227 -0.3595
   46MPD2    H5  724   0.970   3.648   9.518  1.4131 -1.0436  0.1150
   46MPD2    N1  725   1.297   3.574   9.853 -0.4115  0.1914 -0.0839
   46MPD2    H7  726   1.297   3.673   9.831 -0.7951  0.3295  0.5344
   47TMC2    C1  727   3.326   0.215   8.546 -0.1129 -0.3944 -0.3417
   47TMC2    C2  728   3.279   0.306   8.451 -0.1610  0.2209 -0.0879
   47TMC2    C3  729   3.163   0.375   8.477 -0.1509 -0.3324 -0.8490
   47TMC2    C4  730   3.258   0.187   8.659  1.3431  0.3230 -1.0387
   47TMC2    C5  731   3.148   0.262   8.680  0.1810 -0.5490  0.4580
   47TMC2    C6  732   3.099   0.352   8.595 -0.6273  0.1363 -0.2471
   47TMC2     C  733   3.465   0.167   8.526 -0.6918  0.4559  1.0084
   47TMC2     O  734   3.515   0.190   8.415  0.6021  0.8377  0.3356
   47TMC2     H  735   3.341   0.341   8.369  2.5198 -1.7505  1.0910
   47TMC2    H1  736   3.274   0.093   8.711 -0.5567  1.5941  1.8565
   47TMC2    H2  737   3.011   0.409   8.626 -2.5937 -0.8481 -4.0122
   47TMC2    C7  738   3.062   0.216   8.793 -0.6868  0.6569 -0.8441
   47TMC2    C8  739   3.150   0.494   8.391 -0.4823 -0.8435  1.2136
   47TMC2    O1  740   2.943   0.232   8.789  0.2016  0.2427  0.1695
   47TMC2    O2  741   3.233   0.539   8.307 -0.0033 -0.2269  0.2944
   47TMC2    O5  742   3.013   0.521   8.379 -0.1722 -0.8237  0.1266
   47TMC2    H5  743   2.951   0.478   8.441 -0.4402 -2.0536 -1.0079
   48MPD2     C  744   3.744   0.068   8.548  0.7728  0.1771 -0.1225
   48MPD2    C1  745   3.639   0.030   8.632  0.3826 -0.3399  0.3829
   48MPD2    C2  746   3.674   4.674   8.725 -0.1132 -0.5321 -0.2165
   48MPD2    C3  747   3.801   4.621   8.738  0.4302 -0.2189 -1.1447
   48MPD2    C4  748   3.898   4.658   8.656 -1.0318  0.6808 -0.2314
   48MPD2    C5  749   3.866   0.008   8.559 -0.0206  0.1020 -0.2445
   48MPD2     H  750   3.601   4.628   8.789  0.5222  1.3640  1.8444
   48MPD2    H1  751   4.002   4.629   8.663 -1.8405 -1.6327  1.8607
   48MPD2    H2  752   3.730   0.141   8.469 -0.7222 -0.1825 -0.1957
   48MPD2    H3  753   3.937   0.037   8.483 -1.0410 -0.1231 -1.2806
   48MPD2     N  754   3.824   4.521   8.837  0.0278 -0.4612  0.2875
   48MPD2    H5  755   3.752   4.489   8.900 -0.2781 -1.9623 -0.8236
   48MPD2    N1  756   3.511   0.089   8.631 -0.5004  0.0768 -0.7693
   48MPD2    H7  757   3.460   0.067   8.716 -1.2065 -1.4328 -1.5734
   49TMC2    C1  758   3.228   2.270  10.282 -0.0862 -0.3605  0.2357
   49TMC2    C2  759   3.346   2.336  10.255 -0.9005 -0.1348 -0.6488
   49TMC2    C3  760   3.338   2.468  10.224 -0.2052  0.2820 -0.2914
   49TMC2    C4  761   3.115   2.342  10.307  0.1765 -0.0658  0.0745
   49TMC2    C5  762   3.111   2.474  10.273  0.5066  0.3017  0.4885
   49TMC2    C6  763   3.225   2.547  10.231  0.3806  0.1361 -0.4313
   49TMC2     C  764   3.241   2.141  10.344  0.2033  0.4703 -0.1524
   49TMC2     O  765   3.351   2.094  10.327  0.3122  0.4407 -0.3164
   49TMC2     H  766   3.442   2.288  10.237  0.4403  1.3757  2.4334
   49TMC2    H1  767   3.018   2.293  10.313  0.8763 -1.4170  0.1415
   49TMC2    H2  768   3.234   2.651  10.201 -0.1570 -0.7153 -3.5490
   49TMC2    C7  769   2.984   2.540  10.247  0.7478 -0.6105 -0.2266
   49TMC2    C8  770   3.467   2.532  10.202  0.6074  0.1421  0.2587
   49TMC2    O1  771   2.990   2.613  10.152  0.0740 -0.3253  0.1100
   49TMC2    O2  772   3.558   2.523  10.282  0.5665  0.1157 -0.0109
   49TMC2    O5  773   3.456   2.609  10.093 -0.1978 -0.0045  0.2519
   49TMC2    H5  774   3.388   2.585  10.027  2.4036 -0.3905 -2.2700
   50MPD2     C  775   3.210   1.878  10.480  0.3043  0.7971  0.0864
   50MPD2    C1  776   3.112   1.972  10.475  0.5774  0.5214  0.1309
   50MPD2    C2  777   2.987   1.946  10.536  0.5088  0.2856  0.9728
   50MPD2    C3  778   2.957   1.816  10.577 -0.4560 -0.3241  0.3197
   50MPD2    C4  779   3.055   1.723  10.580  0.6102 -0.5298 -0.0478
   50MPD2    C5  780   3.181   1.756  10.535 -0.5790  0.0631  0.4862
   50MPD2     H  781   2.917   2.028  10.538  0.2651  0.0753  1.0158
   50MPD2    H1  782   3.044   1.621  10.614 -0.6110 -0.2182  0.4706
   50MPD2    H2  783   3.306   1.898  10.434  0.9093 -0.2577  0.8983
   50MPD2    H3  784   3.267   1.690  10.537 -0.4308  0.2492  0.2089
   50MPD2     N  785   2.829   1.779  10.629  0.3161 -0.0864 -0.3257
   50MPD2    H5  786   2.823   1.680  10.648  1.0275 -0.4320 -1.8798
   50MPD2    N1  787   3.128   2.094  10.404 -0.2523 -0.1650 -0.0489
   50MPD2    H7  788   3.049   2.156  10.415  0.1401  1.2366 -4.9558
   51TMC2    C1  789   2.797   0.792   0.800  0.0073 -0.0131 -0.0181
   51TMC2    C2  790   2.829   0.874   0.910 -0.6348  1.0128 -1.0241
   51TMC2    C3  791   2.918   0.971   0.884  0.3730 -0.3228  0.5730
   51TMC2    C4  792   2.870   0.795   0.681 -0.8734  0.3631 -0.0422
   51TMC2    C5  793   2.953   0.899   0.669  0.4295 -0.4520 -0.5454
   51TMC2    C6  794   2.980   0.989   0.766  0.3248 -0.2788  0.0398
   51TMC2     C  795   2.711   0.676   0.827 -0.4592  0.1857  0.7817
   51TMC2     O  796   2.726   0.574   0.763 -0.0458 -0.1715 -0.1232
   51TMC2     H  797   2.768   0.849   0.997  1.4707 -0.8166 -0.0643
   51TMC2    H1  798   2.845   0.725   0.601 -0.5171  0.2317 -0.0376
   51TMC2    H2  799   3.056   1.066   0.759  0.0624 -0.1357 -1.1410
   51TMC2    C7  800   3.059   0.880   0.583 -0.1056  0.4218  0.7860
   51TMC2    C8  801   2.939   1.081   0.968  0.7515 -0.0869 -0.1325
   51TMC2    O1  802   3.162   0.933   0.619  0.0856 -0.0755  0.2685
   51TMC2    O2  803   2.952   1.195   0.932  0.1112 -0.1998 -0.3390
   51TMC2    O5  804   3.014   1.031   1.068 -0.0843  0.3625  0.0175
   51TMC2    H5  805   2.986   0.940   1.092 -1.5989 -0.0113 -3.1833
   52MPD2     C  806   2.385   0.424   1.130  0.3314 -0.0960 -0.3132
   52MPD2    C1  807   2.492   0.376   1.051  0.0706 -0.1482 -0.4435
   52MPD2    C2  808   2.577   0.469   0.989 -0.3502  0.0630 -0.0124
   52MPD2    C3  809   2.549   0.602   1.002  0.2574 -0.2199  0.7058
   52MPD2    C4  810   2.440   0.644   1.075  0.9159  0.0392 -0.0055
   52MPD2    C5  811   2.354   0.559   1.138  0.1846  0.2194  0.1941
   52MPD2     H  812   2.658   0.430   0.929 -0.1183 -1.0691  1.0345
   52MPD2    H1  813   2.424   0.751   1.078 -1.2327 -0.2700 -0.0311
   52MPD2    H2  814   2.312   0.352   1.165  0.7341 -0.1056  0.4913
   52MPD2    H3  815   2.265   0.597   1.187 -0.0625  0.3242 -0.3420
   52MPD2     N  816   2.622   0.699   0.927 -0.2674  0.3019  0.0738
   52MPD2    H5  817   2.601   0.797   0.942 -0.0839  0.0486  1.9235
   52MPD2    N1  818   2.530   0.237   1.044  0.9187 -0.4617 -0.2211
   52MPD2    H7  819   2.625   0.219   1.013  0.0959 -1.2592 -2.2758
   53TMC2    C1  820   3.058   3.686  12.112  0.0068 -0.2058 -0.3043
   53TMC2    C2  821   3.132   3.803  12.086 -0.4594 -0.0266 -0.1694
   53TMC2    C3  822   3.182   3.871  12.192  0.5190  0.4346  0.5927
   53TMC2    C4  823   3.062   3.620  12.232  0.4823 -0.7805  0.4669
   53TMC2    C5  824   3.119   3.693  12.332  0.2231 -0.4340 -0.2211
   53TMC2    C6  825   3.191   3.809  12.310 -0.0089 -0.1139  0.2604
   53TMC2     C  826   2.957   3.642  12.017 -0.0231 -0.0773 -0.2932
   53TMC2     O  827   2.970   3.665  11.899 -0.0401 -0.5274  0.3876
   53TMC2     H  828   3.127   3.844  11.985  1.6718 -0.2979 -0.3715
   53TMC2    H1  829   3.030   3.518  12.247  2.2245 -1.0927  2.0020
   53TMC2    H2  830   3.215   3.852  12.407  0.7091 -0.6302  0.3175
   53TMC2    C7  831   3.034   3.699  12.451  0.8323  0.7859  0.3526
   53TMC2    C8  832   3.259   3.991  12.171 -0.5579 -0.6443  0.4607
   53TMC2    O1  833   3.003   3.812  12.495  0.5383  0.3834 -0.0702
   53TMC2    O2  834   3.289   4.037  12.060 -0.2561 -0.3023 -0.3224
   53TMC2    O5  835   3.337   4.011  12.280  0.3493 -0.6288 -0.1836
   53TMC2    H5  836   3.322   3.941  12.347 -0.3562  0.4254  0.7607
   54MPD2     C  837   2.708   3.556  11.879  0.2498  0.2910  0.1532
   54MPD2    C1  838   2.724   3.575  12.017  0.5696  0.0087  0.6136
   54MPD2    C2  839   2.604   3.563  12.092  0.1053 -0.0241 -0.0578
   54MPD2    C3  840   2.484   3.531  12.039  0.1867  0.3763  0.1056
   54MPD2    C4  841   2.468   3.527  11.900  0.3194  0.2107  0.5482
   54MPD2    C5  842   2.587   3.534  11.827  0.2056 -0.1932 -0.9091
   54MPD2     H  843   2.615   3.590  12.197 -0.3813  2.7305 -0.7057
   54MPD2    H1  844   2.375   3.513  11.848 -0.6888  2.9299  1.5952
   54MPD2    H2  845   2.793   3.563  11.812  1.5788 -1.7762  1.6136
   54MPD2    H3  846   2.591   3.504  11.723 -2.6341 -0.0308 -1.0546
   54MPD2     N  847   2.364   3.531  12.113  0.1399 -0.2854  0.8188
   54MPD2    H5  848   2.280   3.519  12.057 -0.9676  2.6312  1.8511
   54MPD2    N1  849   2.843   3.601  12.084  0.3838 -0.7104  0.0727
   54MPD2    H7  850   2.841   3.586  12.185  1.8059  1.9995  0.5046
   55TMC2    C1  851   4.465   2.259   0.727 -0.6876 -0.4387 -0.3669
   55TMC2    C2  852   4.516   2.365   0.795  0.5841 -0.1161  0.2113
   55TMC2    C3  853   4.620   2.335   0.877  0.3244  0.1351  0.5406
   55TMC2    C4  854   4.508   2.130   0.746  0.7919  0.3662 -1.0568
   55TMC2    C5  855   4.625   2.113   0.811  0.0398 -0.2642  0.0855
   55TMC2    C6  856   4.679   2.215   0.882  0.9572  0.5813  0.5927
   55TMC2     C  857   4.346   2.273   0.645 -0.0531 -0.1268 -0.0728
   55TMC2     O  858   4.287   2.171   0.607  0.5680  1.0071  0.1106
   55TMC2     H  859   4.490   2.470   0.795  0.4475 -0.1474  1.8482
   55TMC2    H1  860   4.465   2.045   0.694 -3.5974  1.4816  0.7700
   55TMC2    H2  861   0.024   2.206   0.949 -0.0780 -0.9267  1.6650
   55TMC2    C7  862   4.678   1.978   0.843  0.5587 -0.4256 -0.4493
   55TMC2    C8  863   4.698   2.446   0.931  0.0716 -0.5791  0.2348
   55TMC2    O1  864   0.051   1.979   0.886  0.2374 -0.5455  0.1450
   55TMC2    O2  865   4.693   2.561   0.885  0.1220  1.3214 -0.3179
   55TMC2    O5  866   4.730   2.414   1.059 -0.4893 -0.2088  0.2391
   55TMC2    H5  867   4.687   2.333   1.097  1.3638 -1.9377 -1.3958
   56MPD2     C  868   4.195   2.592   0.539  0.5149 -0.5175 -0.3318
   56MPD2    C1  869   4.201   2.453   0.561  0.2851 -0.0846 -0.4469
   56MPD2    C2  870   4.087   2.378   0.540 -0.3218  0.0803  0.1191
   56MPD2    C3  871   3.976   2.434   0.482  0.1436 -0.8547 -0.6277
   56MPD2    C4  872   3.979   2.564   0.437  0.8459 -0.4947 -0.2043
   56MPD2    C5  873   4.088   2.641   0.461  0.5856  0.0056  0.4894
   56MPD2     H  874   4.076   2.274   0.567  0.3143 -0.9651 -3.7110
   56MPD2    H1  875   3.891   2.618   0.407  0.2020 -1.2385  0.3461
   56MPD2    H2  876   4.277   2.662   0.554 -1.1066  1.2026  0.4516
   56MPD2    H3  877   4.095   2.743   0.427 -0.0340 -0.3585 -0.7161
   56MPD2     N  878   3.862   2.350   0.472 -0.2828 -0.4621  0.3183
   56MPD2    H5  879   3.876   2.250   0.481 -1.6739 -0.6477  0.4229
   56MPD2    N1  880   4.316   2.400   0.626  0.2830  0.1113 -0.4384
   56MPD2    H7  881   4.388   2.469   0.647 -0.2938  0.6950 -0.3918
   57TMC2    C1  882   3.229   2.030  13.789  0.0583 -0.4972  0.5056
   57TMC2    C2  883   3.216   1.894  13.769 -0.1978  0.7334  0.0776
   57TMC2    C3  884   3.323   1.819  13.740 -0.5858  0.2758  0.6052
   57TMC2    C4  885   3.346   2.098  13.764 -0.1282  0.2960  0.2379
   57TMC2    C5  886   3.448   2.021  13.727 -0.1015  0.0606  0.0418
   57TMC2    C6  887   3.437   1.888  13.708 -0.0267 -0.6380 -0.3438
   57TMC2     C  888   3.109   2.110  13.793  0.2897  0.1647 -0.6215
   57TMC2     O  889   3.034   2.112  13.700 -0.4822 -0.4786  0.3788
   57TMC2     H  890   3.123   1.840  13.777 -0.7434  1.7110  0.4038
   57TMC2    H1  891   3.347   2.206  13.772 -2.1947  0.2955  0.4218
   57TMC2    H2  892   3.530   1.839  13.684 -1.5293 -3.0930 -1.2351
   57TMC2    C7  893   3.556   2.095  13.669 -0.2289 -0.7687 -0.2680
   57TMC2    C8  894   3.312   1.671  13.731  0.1166 -0.3920  0.9165
   57TMC2    O1  895   3.595   2.190  13.734 -0.2381  0.2157  0.3074
   57TMC2    O2  896   3.207   1.609  13.702  0.1745  0.5647  0.3306
   57TMC2    O5  897   3.434   1.610  13.742  0.0325  0.5218 -0.3363
   57TMC2    H5  898   3.494   1.671  13.790 -0.1934 -0.1240  0.7526
   58MPD2     C  899   2.887   2.539  13.988 -1.1766 -0.1253 -0.2168
   58MPD2    C1  900   2.867   2.472  13.867  0.3631 -0.2704  0.2607
   58MPD2    C2  901   2.933   2.353  13.842  0.3384 -0.2719  0.3894
   58MPD2    C3  902   3.028   2.306  13.930  0.4951  0.0684  0.1653
   58MPD2    C4  903   3.046   2.373  14.054  0.8791 -0.2591  0.0521
   58MPD2    C5  904   2.973   2.487  14.080 -0.1766  0.1979 -0.4086
   58MPD2     H  905   2.900   2.300  13.754  0.9569  0.3318 -0.2112
   58MPD2    H1  906   3.124   2.338  14.121  0.9635 -0.4519 -0.1467
   58MPD2    H2  907   2.833   2.628  14.017  0.7242  1.0333 -0.2401
   58MPD2    H3  908   2.984   2.538  14.175 -1.2187 -1.1452  0.4183
   58MPD2     N  909   3.112   2.197  13.895 -0.3007 -0.6680 -0.5426
   58MPD2    H5  910   3.182   2.174  13.965  0.0663  1.5671 -0.1897
   58MPD2    N1  911   2.768   2.509  13.778  0.1143 -0.8116 -0.1437
   58MPD2    H7  912   2.762   2.455  13.693  0.3872 -0.2723 -0.5065
   59TMC2    C1  913   0.448   2.782  12.876  0.0950 -0.4966 -0.2762
   59TMC2    C2  914   0.538   2.886  12.860  0.3917 -0.3947  0.3446
   59TMC2    C3  915   0.490   3.009  12.836 -0.3594  0.4674 -0.0193
   59TMC2    C4  916   0.313   2.811  12.870 -0.2272 -0.6886  0.8072
   59TMC2    C5  917   0.277   2.941  12.859  0.0420 -0.1645 -0.0547
   59TMC2    C6  918   0.365   3.043  12.840  0.4480 -0.1920  0.3548
   59TMC2     C  919   0.489   2.654  12.927  0.3936 -0.1833 -0.3932
   59TMC2     O  920   0.411   2.558  12.916  0.2594  0.5922 -0.2859
   59TMC2     H  921   0.646   2.877  12.869  0.9932  4.0839 -2.3629
   59TMC2    H1  922   0.239   2.736  12.897 -1.6863  0.5652  0.3107
   59TMC2    H2  923   0.338   3.147  12.833 -0.7319 -0.4559  0.9551
   59TMC2    C7  924   0.145   2.957  12.803 -0.0756  0.0463 -0.2954
   59TMC2    C8  925   0.592   3.113  12.836 -0.6881 -0.1383 -0.0180
   59TMC2    O1  926   0.056   2.879  12.829 -0.2040  0.1831 -0.0097
   59TMC2    O2  927   0.588   3.211  12.911 -0.1731 -0.2563 -0.3631
   59TMC2    O5  928   0.686   3.084  12.748  0.6391  0.6469  0.3048
   59TMC2    H5  929   0.664   3.000  12.701  0.0761 -0.3338  2.3136
   60MPD2     C  930   0.659   2.414  12.977  0.1514 -0.0982  0.1976
   60MPD2    C1  931   0.705   2.545  12.995 -0.2407  0.1733 -0.7740
   60MPD2    C2  932   0.828   2.565  13.064 -0.8563  0.5776  0.2178
   60MPD2    C3  933   0.901   2.451  13.095 -0.0808  0.9517  0.4190
   60MPD2    C4  934   0.862   2.328  13.051  0.1978  0.3771 -0.6403
   60MPD2    C5  935   0.740   2.314  12.992 -0.0761 -0.3689 -0.4728
   60MPD2     H  936   0.865   2.667  13.072  0.1423  0.0611  2.0561
   60MPD2    H1  937   0.924   2.241  13.071 -1.7347 -1.2342 -1.6955
   60MPD2    H2  938   0.564   2.393  12.929  0.1546 -0.1541  0.2156
   60MPD2    H3  939   0.710   2.212  12.974  0.4785 -0.6198  0.0209
   60MPD2     N  940   1.027   2.473  13.159  0.0962  0.3722  0.2861
   60MPD2    H5  941   1.093   2.395  13.156 -1.5481 -1.0197  0.2929
   60MPD2    N1  942   0.621   2.659  12.971 -0.7105 -0.0828  0.0653
   60MPD2    H7  943   0.668   2.749  12.976 -0.1648 -0.3448 -0.3452
   61TMC2    C1  944   4.739   3.898  16.064 -0.0347  0.0394  0.1360
   61TMC2    C2  945   4.697   3.864  16.189 -0.2402  0.2270  0.0401
   61TMC2    C3  946   4.663   3.967  16.273 -0.6048  0.1260 -0.2550
   61TMC2    C4  947   0.016   4.027  16.027 -0.7104  0.0439  0.0503
   61TMC2    C5  948   4.717   4.126  16.117  0.0264  0.2273 -0.5567
   61TMC2    C6  949   4.679   4.099  16.243  0.0084  1.1385  0.0636
   61TMC2     C  950   0.075   3.798  15.997 -0.9060  0.4438 -0.4907
   61TMC2     O  951   0.143   3.720  16.064  0.7827 -0.0723 -0.2562
   61TMC2     H  952   4.676   3.762  16.219  0.3755  0.7663  2.2884
   61TMC2    H1  953   0.052   4.044  15.926 -0.8097  1.9931  0.3505
   61TMC2    H2  954   4.653   4.176  16.315 -1.6558  1.4480 -0.8557
   61TMC2    C7  955   0.022   4.258  16.076  0.5343  0.9370  0.4998
   61TMC2    C8  956   4.643   3.933  16.416  0.2279  0.2879 -0.4968
   61TMC2    O1  957   0.091   4.256  15.977  0.1662  0.3904 -0.2185
   61TMC2    O2  958   4.665   4.027  16.499 -0.1959  0.1786 -0.4244
   61TMC2    O5  959   4.540   3.845  16.409  0.5227  0.4045 -0.3321
   61TMC2    H5  960   4.522   3.809  16.320 -2.8451  2.0783 -0.3205
   62MPD2     C  961   0.292   3.685  15.818  0.0091 -1.1016  0.4206
   62MPD2    C1  962   0.190   3.767  15.772 -0.2009  0.7337  0.0200
   62MPD2    C2  963   0.192   3.803  15.640  0.4443 -1.0590  0.1021
   62MPD2    C3  964   0.299   3.774  15.557 -0.9232  0.5525  0.5935
   62MPD2    C4  965   0.406   3.700  15.604 -0.6594 -0.0547  0.2459
   62MPD2    C5  966   0.397   3.660  15.736  0.4271 -0.0966  0.0867
   62MPD2     H  967   0.113   3.864  15.599  1.1769  1.0786  1.8944
   62MPD2    H1  968   0.497   3.674  15.552 -0.9450 -1.3146  0.3813
   62MPD2    H2  969   0.294   3.626  15.908  2.4268 -0.2133  0.9511
   62MPD2    H3  970   0.479   3.598  15.771 -0.4970 -1.1647  0.3551
   62MPD2     N  971   0.307   3.826  15.431  0.0228  0.3786  0.4390
   62MPD2    H5  972   0.397   3.833  15.385  0.4165  0.7711  1.2844
   62MPD2    N1  973   0.082   3.812  15.862  0.0158  0.1329 -0.2981
   62MPD2    H7  974   0.008   3.867  15.819 -0.0017 -0.7087 -1.3203
   63TMC2    C1  975   3.678   4.582   9.756  0.3587 -0.7494  0.1455
   63TMC2    C2  976   3.748   4.632   9.867  0.6000 -0.5159 -0.0039
   63TMC2    C3  977   3.808   0.014   9.854 -0.6358 -0.5858  0.3904
   63TMC2    C4  978   3.668   4.648   9.637 -0.6712 -0.0375 -0.4970
   63TMC2    C5  979   3.720   0.034   9.637  0.0998 -0.3128  0.0217
   63TMC2    C6  980   3.799   0.081   9.736 -0.3347  0.4833  0.6827
   63TMC2     C  981   3.580   4.482   9.774 -0.4917  1.0851 -0.2482
   63TMC2     O  982   3.482   4.487   9.698 -0.1589 -0.7091  0.1094
   63TMC2     H  983   3.737   4.586   9.965  0.5521  1.2726  0.8425
   63TMC2    H1  984   3.596   4.617   9.562  0.5616 -1.5169 -1.0770
   63TMC2    H2  985   3.843   0.178   9.712  1.3048 -0.0365  1.5818
   63TMC2    C7  986   3.708   0.112   9.516 -0.4086 -0.8012  0.1001
   63TMC2    C8  987   3.874   0.065   9.969 -0.0893  0.1079 -0.0893
   63TMC2    O1  988   3.665   0.230   9.533  0.1023 -0.0523 -0.8866
   63TMC2    O2  989   3.952   0.009  10.044  0.2345 -0.5908 -0.1736
   63TMC2    O5  990   3.845   0.197   9.966 -0.1421 -0.8122  0.4018
   63TMC2    H5  991   3.769   0.218   9.908  0.2007 -1.1034 -0.1495
   64MPD2     C  992   3.371   4.091  10.013 -0.1923  0.0463  0.0058
   64MPD2    C1  993   3.502   4.097  10.042  0.1420 -0.0228 -0.9139
   64MPD2    C2  994   3.578   4.191   9.984 -0.1654 -0.1684 -0.7815
   64MPD2    C3  995   3.528   4.290   9.910  0.1488 -0.2793  0.1957
   64MPD2    C4  996   3.395   4.284   9.879  1.3215  0.6868 -0.4991
   64MPD2    C5  997   3.320   4.183   9.927  0.7117  0.1013  0.7502
   64MPD2     H  998   3.684   4.197  10.009 -0.4107 -2.0163  0.7154
   64MPD2    H1  999   3.341   4.362   9.826 -2.2214 -0.2446  1.7410
   64MPD2    H2 1000   3.303   4.020  10.058  1.3576 -0.8002  0.9746
   64MPD2    H3 1001   3.214   4.179   9.904  1.2959  0.0345 -1.9883
   64MPD2     N 1002   3.615   4.388   9.862 -0.2321  0.2564 -0.4395
   64MPD2    H5 1003   3.705   4.387   9.908 -0.4936 -2.1636  0.0187
   64MPD2    N1 1004   3.556   4.002  10.128  0.6023  0.3467 -0.2938
   64MPD2    H7 1005   3.658   3.999  10.136  0.7746  1.2811 -2.1485
   65TMC2    C1 1006   1.263   3.446  15.549  0.6251 -0.5450  0.7624
   65TMC2    C2 1007   1.296   3.387  15.426  0.2908  0.7322  0.3536
   65TMC2    C3 1008   1.274   3.456  15.310 -0.5359 -0.0082  0.5968
   65TMC2    C4 1009   1.199   3.566  15.544  0.3126 -0.5077 -0.3021
   65TMC2    C5 1010   1.174   3.627  15.421 -0.3511  0.0955 -0.0574
   65TMC2    C6 1011   1.205   3.574  15.302 -0.3840 -0.8957 -0.2184
   65TMC2     C 1012   1.257   3.380  15.675 -1.1049  0.5918 -0.6483
   65TMC2     O 1013   1.222   3.437  15.777  0.6087  0.4412 -0.7265
   65TMC2     H 1014   1.345   3.291  15.411  2.1681  1.7343  0.0613
   65TMC2    H1 1015   1.186   3.624  15.634 -1.7593 -0.2140 -0.7888
   65TMC2    H2 1016   1.194   3.622  15.205 -1.3311 -0.7844 -0.0541
   65TMC2    C7 1017   1.088   3.736  15.414 -0.2817 -0.3992 -0.1936
   65TMC2    C8 1018   1.266   3.372  15.196  0.2656  0.2024 -0.6182
   65TMC2    O1 1019   1.089   3.802  15.310 -0.2246  0.4336  0.2758
   65TMC2    O2 1020   1.354   3.303  15.154 -0.2292 -0.1744  0.3169
   65TMC2    O5 1021   1.140   3.350  15.183 -0.1183  0.1897  0.0828
   65TMC2    H5 1022   1.090   3.406  15.246  0.1729 -0.6042  1.0121
   66MPD2     C 1023   1.211   3.171  15.881 -0.1051 -0.0550 -0.1779
   66MPD2    C1 1024   1.253   3.151  15.751 -0.3066  0.4203  0.5664
   66MPD2    C2 1025   1.279   3.018  15.708 -0.9150 -0.1353 -0.0222
   66MPD2    C3 1026   1.250   2.910  15.786  0.1694 -0.2808  0.0731
   66MPD2    C4 1027   1.208   2.931  15.911 -0.3519 -0.6255  0.4802
   66MPD2    C5 1028   1.191   3.061  15.961  0.1117 -0.0992  0.5811
   66MPD2     H 1029   1.326   3.011  15.610 -0.8736  1.6872 -0.1446
   66MPD2    H1 1030   1.177   2.854  15.981  0.5972  0.4538  2.0859
   66MPD2    H2 1031   1.194   3.266  15.930 -0.7210 -0.6642  0.7878
   66MPD2    H3 1032   1.159   3.074  16.063 -1.6787 -0.7952  0.1121
   66MPD2     N 1033   1.253   2.773  15.748 -0.6094  0.2253 -0.2381
   66MPD2    H5 1034   1.209   2.707  15.810  0.1580  2.3968  2.5940
   66MPD2    N1 1035   1.278   3.248  15.656 -0.5610 -0.0032 -0.0061
   66MPD2    H7 1036   1.305   3.223  15.561  0.1607 -1.1101  0.4958
   67TMC2    C1 1037   1.160   2.720  14.684 -0.5954 -0.3696 -0.0621
   67TMC2    C2 1038   1.059   2.761  14.765 -1.0870 -0.2384 -0.6135
   67TMC2    C3 1039   1.080   2.734  14.899 -0.6481  0.3729 -0.1019
   67TMC2    C4 1040   1.270   2.647  14.724  0.3301 -0.3246  0.3553
   67TMC2    C5 1041   1.295   2.653  14.863  0.9889 -0.8473  0.5594
   67TMC2    C6 1042   1.202   2.693  14.949 -0.3807  0.3092  0.0980
   67TMC2     C 1043   1.146   2.735  14.538 -0.1266  0.0651 -0.9015
   67TMC2     O 1044   1.235   2.682  14.471  0.1964  0.2185  0.6006
   67TMC2     H 1045   0.975   2.825  14.738 -2.2848 -0.3435  2.9231
   67TMC2    H1 1046   1.337   2.606  14.649  1.4656 -0.6210  1.5430
   67TMC2    H2 1047   1.211   2.688  15.056 -0.6743  0.8953  0.1480
   67TMC2    C7 1048   1.432   2.614  14.896 -1.1680  0.5993 -0.6793
   67TMC2    C8 1049   0.977   2.790  14.993 -0.0799 -0.4090 -0.2972
   67TMC2    O1 1050   1.512   2.607  14.803 -0.2541 -0.0535  0.1467
   67TMC2    O2 1051   0.999   2.816  15.110 -0.2115  0.0908 -0.0441
   67TMC2    O5 1052   0.862   2.811  14.938 -0.1479 -0.3951 -0.5422
   67TMC2    H5 1053   0.861   2.769  14.849  0.3545  0.1168 -0.7874
   68MPD2     C 1054   1.052   2.772  14.255  0.3558  0.2098  0.2561
   68MPD2    C1 1055   0.969   2.785  14.365 -0.1419  0.3486 -0.3517
   68MPD2    C2 1056   0.834   2.824  14.344 -0.0124  0.4579  0.3000
   68MPD2    C3 1057   0.793   2.866  14.219  0.0060  0.3198 -0.3013
   68MPD2    C4 1058   0.876   2.851  14.115 -0.2545 -0.3929  0.3220
   68MPD2    C5 1059   0.998   2.809  14.135 -0.1133 -0.6145  0.9963
   68MPD2     H 1060   0.772   2.812  14.432  0.5614  0.2973  0.6839
   68MPD2    H1 1061   0.847   2.868  14.012 -0.9925 -2.2993  0.2107
   68MPD2    H2 1062   1.159   2.756  14.262  0.2547 -1.1439 -1.1171
   68MPD2    H3 1063   1.070   2.807  14.054  1.0624  3.4508  1.9262
   68MPD2     N 1064   0.660   2.917  14.192  0.2526 -0.4928 -1.0593
   68MPD2    H5 1065   0.652   2.971  14.106  3.2932  1.8934  0.1577
   68MPD2    N1 1066   1.017   2.773  14.498 -0.3631  0.0909  0.3864
   68MPD2    H7 1067   0.949   2.789  14.572 -1.4187 -0.1293 -0.5362
   69TMC2    C1 1068   2.764   4.322  12.918 -0.2152  0.0077 -0.0937
   69TMC2    C2 1069   2.641   4.375  12.936  0.3467 -0.1604 -0.0698
   69TMC2    C3 1070   2.612   4.480  12.852 -0.0479  0.0298 -1.1315
   69TMC2    C4 1071   2.848   4.351  12.816  0.6590  0.9562  0.2030
   69TMC2    C5 1072   2.816   4.458  12.736 -0.3121 -0.2605  1.0713
   69TMC2    C6 1073   2.693   4.522  12.758 -0.4895 -0.1612  0.7886
   69TMC2     C 1074   2.809   4.219  13.007 -0.4165  0.4232  0.6122
   69TMC2     O 1075   2.739   4.164  13.091 -0.3668 -0.2159 -0.1348
   69TMC2     H 1076   2.565   4.321  12.990 -1.2228  0.9971 -1.1123
   69TMC2    H1 1077   2.920   4.280  12.779  1.8586  1.6210  1.2594
   69TMC2    H2 1078   2.655   4.605  12.700 -0.2160 -0.3197  0.3866
   69TMC2    C7 1079   2.893   4.483  12.619 -0.3246 -0.6023  0.5855
   69TMC2    C8 1080   2.473   4.492  12.827 -0.6372  0.8683  0.5613
   69TMC2    O1 1081   2.961   4.390  12.582 -0.2441 -0.5301 -0.0047
   69TMC2    O2 1082   2.431   4.524  12.718  0.3131 -0.2637 -0.9230
   69TMC2    O5 1083   2.399   4.454  12.927 -0.2251  0.1850 -0.3734
   69TMC2    H5 1084   2.451   4.435  13.008 -1.5767  0.2173  0.4815
   70MPD2     C 1085   3.144   4.086  12.987  0.4653 -0.4417 -0.5181
   70MPD2    C1 1086   3.007   4.078  13.014  0.0539  0.3826 -0.3933
   70MPD2    C2 1087   2.936   3.961  13.037  0.0874  0.3180  0.0457
   70MPD2    C3 1088   3.007   3.841  13.027 -0.2131 -0.7177 -0.5706
   70MPD2    C4 1089   3.143   3.851  12.997 -0.1468 -0.6822 -0.3896
   70MPD2    C5 1090   3.215   3.967  12.982  0.2353  0.0415  0.3617
   70MPD2     H 1091   2.829   3.967  13.050 -0.1594 -1.2234 -1.3105
   70MPD2    H1 1092   3.205   3.762  12.996  2.2266  0.9296  1.4216
   70MPD2    H2 1093   3.193   4.182  12.976  1.0017 -0.4872  1.4727
   70MPD2    H3 1094   3.321   3.984  12.967  0.3642  0.0402  1.2759
   70MPD2     N 1095   2.952   3.715  13.039 -0.6001 -0.0780  0.0787
   70MPD2    H5 1096   3.021   3.641  13.037 -0.9841 -0.4643  2.2772
   70MPD2    N1 1097   2.945   4.204  12.998  0.2640 -0.4986  0.1914
   70MPD2    H7 1098   2.991   4.272  12.939  0.7126 -0.5235  0.5100
   71TMC2    C1 1099   0.249   4.602   1.453 -0.5582 -0.2877 -0.0535
   71TMC2    C2 1100   0.346   4.689   1.507 -0.0261 -0.2473 -0.2037
   71TMC2    C3 1101   0.311   0.020   1.616  0.0587  0.7761 -0.0973
   71TMC2    C4 1102   0.118   4.602   1.496 -0.0352 -0.1659 -0.9196
   71TMC2    C5 1103   0.091   4.667   1.614 -0.0546 -0.0248 -0.3069
   71TMC2    C6 1104   0.190   0.001   1.676  0.3424  0.0548  0.0668
   71TMC2     C 1105   0.286   4.522   1.340 -0.7507  0.8135  0.0371
   71TMC2     O 1106   0.404   4.494   1.330 -0.3173 -0.0448 -0.4136
   71TMC2     H 1107   0.451   4.690   1.479  0.2605  2.8260  1.0204
   71TMC2    H1 1108   0.048   4.536   1.446 -0.4724 -1.5600  1.5041
   71TMC2    H2 1109   0.174   0.035   1.778 -0.6371  0.3376 -0.1838
   71TMC2    C7 1110   4.705   4.646   1.684 -0.1782 -0.2228  0.3222
   71TMC2    C8 1111   0.425   0.071   1.691  0.2801  0.1423  0.2666
   71TMC2    O1 1112   4.690   4.689   1.795 -0.0057 -0.5715  0.1807
   71TMC2    O2 1113   0.546   0.060   1.666 -0.5093 -0.3219  0.0035
   71TMC2    O5 1114   0.376   0.165   1.781  0.4089  0.2991 -0.6400
   71TMC2    H5 1115   0.290   0.198   1.746  1.2607  2.0449 -1.0807
   72MPD2     C 1116   0.177   4.250   0.915 -0.4156 -0.3583  0.7514
   72MPD2    C1 1117   0.298   4.282   0.977  0.2137 -0.1033  0.0766
   72MPD2    C2 1118   0.304   4.346   1.095  0.4001 -0.4823 -0.3915
   72MPD2    C3 1119   0.188   4.396   1.149 -0.0907 -0.1520 -0.1354
   72MPD2    C4 1120   0.065   4.370   1.086  0.3210 -0.0439 -0.4684
   72MPD2    C5 1121   0.060   4.298   0.971 -0.3421 -0.0517  0.1549
   72MPD2     H 1122   0.402   4.374   1.132  1.2818 -1.6765 -1.7710
   72MPD2    H1 1123   4.710   4.410   1.121  0.7645  0.5184  0.0861
   72MPD2    H2 1124   0.175   4.188   0.826  1.5352 -0.4399  0.7533
   72MPD2    H3 1125   4.707   4.263   0.927  2.1113 -1.7796 -3.6344
   72MPD2     N 1126   0.180   4.489   1.255 -0.2112  0.3542  0.7954
   72MPD2    H5 1127   0.097   4.546   1.270  0.4296  2.3624 -3.2210
   72MPD2    N1 1128   0.426   4.251   0.910  0.3201  0.1468 -0.0192
   72MPD2    H7 1129   0.501   4.308   0.946 -1.1836  1.6138  0.8169
   73TMC2    C1 1130   0.098   1.568  14.233  0.1423  0.4243 -0.0054
   73TMC2    C2 1131   0.044   1.607  14.348 -0.0453  0.5133 -0.5115
   73TMC2    C3 1132   0.105   1.572  14.464  0.2579  0.3423 -0.3310
   73TMC2    C4 1133   0.204   1.493  14.236  0.0276  0.3661  0.1687
   73TMC2    C5 1134   0.269   1.470  14.353 -0.4941 -0.3406  0.4395
   73TMC2    C6 1135   0.216   1.492  14.472 -0.2486  0.9886 -0.0707
   73TMC2     C 1136   0.099   1.675  14.137  0.0619  0.2029 -0.0670
   73TMC2     O 1137   0.216   1.707  14.107  0.6872 -0.8392 -0.0625
   73TMC2     H 1138   4.710   1.686  14.343 -0.7459 -0.1201 -0.1503
   73TMC2    H1 1139   0.248   1.453  14.145 -3.5144 -2.8180 -0.1644
   73TMC2    H2 1140   0.270   1.469  14.563 -0.5744 -0.1094 -0.1478
   73TMC2    C7 1141   0.408   1.509  14.350  0.0646 -0.3032 -0.3516
   73TMC2    C8 1142   0.046   1.602  14.590 -0.1862  0.0448 -0.1405
   73TMC2    O1 1143   0.492   1.452  14.416 -0.1274 -0.1797  0.1050
   73TMC2    O2 1144   0.068   1.541  14.693 -0.2210 -0.0314 -0.1296
   73TMC2    O5 1145   4.726   1.724  14.599 -0.0269  0.0904 -0.2033
   73TMC2    H5 1146   4.719   1.778  14.517  0.3194  1.3835  0.6229
   74MPD2     C 1147   4.632   2.138  14.037 -0.3736 -0.6096 -0.4791
   74MPD2    C1 1148   0.022   2.101  14.068 -0.0006  0.3620  1.3474
   74MPD2    C2 1149   0.050   1.965  14.085  0.0715 -0.1931 -0.2269
   74MPD2    C3 1150   4.693   1.871  14.077 -0.0803  0.8091 -0.2946
   74MPD2    C4 1151   4.559   1.918  14.064 -0.5984 -0.4605  0.1195
   74MPD2    C5 1152   4.527   2.051  14.038  0.0767 -0.1702 -0.6284
   74MPD2     H 1153   0.156   1.941  14.093 -0.2794 -1.8394 -0.4736
   74MPD2    H1 1154   4.487   1.837  14.069  0.1241 -0.9875  1.9796
   74MPD2    H2 1155   4.609   2.242  14.018 -1.9843 -0.6922  0.9734
   74MPD2    H3 1156   4.426   2.087  14.022  0.4526  0.4820 -1.5160
   74MPD2     N 1157   4.721   1.735  14.111 -0.9732 -0.0184  0.0213
   74MPD2    H5 1158   4.644   1.672  14.130  0.7541 -1.7798  1.2016
   74MPD2    N1 1159   0.123   2.205  14.073 -0.4106 -0.0042  0.0851
   74MPD2    H7 1160   0.108   2.301  14.044 -1.4654 -0.3539 -0.5233
   75TMC2    C1 1161   0.450   3.012  14.244  0.3950 -0.2629 -0.1259
   75TMC2    C2 1162   0.377   3.075  14.338  0.2316  0.0541 -0.0886
   75TMC2    C3 1163   0.248   3.113  14.314  0.1158  0.0298 -0.3255
   75TMC2    C4 1164   0.408   3.020  14.111  0.3548  0.0958  0.7834
   75TMC2    C5 1165   0.288   3.082  14.085  0.1712  0.2146  0.0322
   75TMC2    C6 1166   0.211   3.130  14.181  0.4225 -0.6728 -0.7228
   75TMC2     C 1167   0.567   2.938  14.289  0.3292  0.1347  0.3040
   75TMC2     O 1168   0.576   2.915  14.408  0.6500  0.1398  0.5367
   75TMC2     H 1169   0.415   3.080  14.439 -0.6351  1.8508  0.1611
   75TMC2    H1 1170   0.444   2.963  14.026 -2.6068  1.0539 -1.1153
   75TMC2    H2 1171   0.115   3.176  14.165  0.8524 -0.3580 -2.3529
   75TMC2    C7 1172   0.242   3.108  13.946 -0.3775 -0.1474  0.8027
   75TMC2    C8 1173   0.183   3.193  14.406 -0.2716  0.6338 -0.7972
   75TMC2    O1 1174   0.287   3.037  13.860  0.5562 -0.0650  0.2782
   75TMC2    O2 1175   0.237   3.262  14.494 -0.3794 -0.6167 -0.2395
   75TMC2    O5 1176   0.054   3.148  14.424  0.2230  0.3432 -0.4292
   75TMC2    H5 1177   0.037   3.074  14.361 -1.0929 -0.1068  0.4607
   76TMC2    C1 1178   3.541   3.495  12.361 -0.7397  0.0918  0.0085
   76TMC2    C2 1179   3.414   3.455  12.386  0.5727 -0.3808 -0.4393
   76TMC2    C3 1180   3.386   3.346  12.458 -0.3884 -0.0738 -0.1573
   76TMC2    C4 1181   3.644   3.418  12.402 -0.1310  0.1265  0.3868
   76TMC2    C5 1182   3.617   3.297  12.466 -0.3101  0.3668 -0.2629
   76TMC2    C6 1183   3.486   3.262  12.500 -0.3411  0.5657  0.0206
   76TMC2     C 1184   3.555   3.615  12.279 -0.2590 -0.0621  0.7190
   76TMC2     O 1185   3.457   3.652  12.216  0.1013 -0.1203 -0.4038
   76TMC2     H 1186   3.328   3.510  12.349  0.0477 -1.3527 -0.6570
   76TMC2    H1 1187   3.746   3.430  12.368 -0.8702  1.5646 -1.3007
   76TMC2    H2 1188   3.467   3.177  12.565 -1.7632  0.9699  0.1295
   76TMC2    C7 1189   3.725   3.233  12.537 -0.6923 -0.6312  0.2272
   76TMC2    C8 1190   3.247   3.331  12.500 -0.1992  0.6376 -0.4249
   76TMC2    O1 1191   3.700   3.127  12.590  0.1604  0.1656  0.4492
   76TMC2    O2 1192   3.156   3.359  12.421 -0.2783 -0.0192 -0.2745
   76TMC2    O5 1193   3.239   3.358  12.634 -0.0836 -0.0073 -0.1973
   76TMC2    H5 1194   3.325   3.348  12.680 -0.0606 -1.1472 -0.5060
   77MPD2     C 1195   3.788   4.025  12.090 -0.5636  0.0743 -0.4973
   77MPD2    C1 1196   3.657   4.001  12.100 -0.2673 -0.2485  0.2323
   77MPD2    C2 1197   3.619   3.885  12.163 -0.1408  0.9218  0.2579
   77MPD2    C3 1198   3.710   3.804  12.227  0.3716 -0.1077 -0.3557
   77MPD2    C4 1199   3.833   3.845  12.234 -0.4830  1.1557  0.2540
   77MPD2    C5 1200   3.876   3.944  12.154 -0.1994 -0.3326 -0.5251
   77MPD2     H 1201   3.513   3.863  12.163  0.0356  0.0816 -1.1542
   77MPD2    H1 1202   3.902   3.775  12.281 -1.6397  0.7126  1.2947
   77MPD2    H2 1203   3.834   4.110  12.040 -0.2713  0.7411  0.9273
   77MPD2    H3 1204   3.984   3.956  12.156 -0.4139  1.3827  1.4970
   77MPD2     N 1205   3.683   3.676  12.275 -0.1194  0.3025  0.2500
   77MPD2    H5 1206   3.763   3.628  12.316 -0.7475  0.7660  2.0080
   77MPD2    N1 1207   3.561   4.101  12.053 -0.4729  0.7247  0.5889
   77MPD2    H7 1208   3.463   4.080  12.072 -0.1274 -0.5221  1.0233
   78TMC2    C1 1209   2.152   4.484   1.820 -0.9281  0.2754 -0.4820
   78TMC2    C2 1210   2.120   4.458   1.953  0.0737 -0.2971 -0.3633
   78TMC2    C3 1211   1.990   4.428   1.979 -0.1658 -0.2116  0.0171
   78TMC2    C4 1212   2.062   4.481   1.720 -0.3885  0.6516  0.0365
   78TMC2    C5 1213   1.930   4.461   1.754  0.0037 -0.1626 -0.0837
   78TMC2    C6 1214   1.897   4.428   1.878  0.4656 -0.7052  0.2622
   78TMC2     C 1215   2.289   4.526   1.785  0.3481 -0.0732  0.0570
   78TMC2     O 1216   2.375   4.501   1.865 -0.4868  0.6173 -0.0449
   78TMC2     H 1217   2.202   4.461   2.024  0.2872  1.0078 -0.6778
   78TMC2    H1 1218   2.086   4.484   1.615 -0.2204  1.7047  0.1045
   78TMC2    H2 1219   1.793   4.410   1.903 -0.2549  1.6271 -1.0973
   78TMC2    C7 1220   1.819   4.472   1.668 -0.0984  0.0363  0.2759
   78TMC2    C8 1221   1.941   4.351   2.090 -0.4339 -0.1344  0.2410
   78TMC2    O1 1222   1.718   4.424   1.706  0.2384 -0.2199  0.4415
   78TMC2    O2 1223   2.014   4.273   2.158 -0.2190  0.4365  0.4424
   78TMC2    O5 1224   1.842   4.428   2.141 -0.5427 -0.2737  0.3822
   78TMC2    H5 1225   1.813   4.511   2.097 -1.2988 -0.4694  0.5083
   79MPD1     C 1226   2.659   4.638   1.462  0.1469 -0.7906  0.1797
   79MPD1    C1 1227   2.660   4.542   1.558  0.1685  0.5138 -0.1595
   79MPD1    C2 1228   2.537   4.533   1.631 -0.1190  0.1321 -0.1355
   79MPD1    C3 1229   2.421   4.610   1.603 -0.4154 -0.6697 -0.2276
   79MPD1    C4 1230   2.426   4.702   1.502  0.0823 -0.0005 -0.6163
   79MPD1    C5 1231   2.547   4.722   1.443 -0.5438 -0.0029 -0.7334
   79MPD1     H 1232   2.534   4.456   1.707  0.6322  0.7563  0.5248
   79MPD1    H1 1233   2.341   0.019   1.467 -0.9837 -0.0141  1.9392
   79MPD1    H2 1234   2.754   4.665   1.418  1.3523  0.2916  3.4349
   79MPD1    H3 1235   2.555   0.057   1.365 -0.7539 -2.1354 -2.8315
   79MPD1     N 1236   2.298   4.595   1.670 -0.2752 -0.7466 -0.3267
   79MPD1    H5 1237   2.220   4.623   1.612  0.0170 -0.3619 -0.5304
   79MPD1    N1 1238   2.777   4.472   1.593 -0.2799  0.4946 -0.1150
   79MPD1    H6 1239   2.842   4.462   1.516 -0.3002  1.9302 -0.3217
   79MPD1    H7 1240   2.768   4.379   1.634 -1.9145  0.3598 -0.7780
   80TMC2    C1 1241   3.106   2.990  12.216 -0.6575  0.1336 -0.2164
   80TMC2    C2 1242   3.149   3.071  12.112  0.1755  0.2408  0.2598
   80TMC2    C3 1243   3.051   3.104  12.018 -0.4130  0.3313 -0.0396
   80TMC2    C4 1244   2.976   2.939  12.222  0.0288  0.2290  0.0318
   80TMC2    C5 1245   2.891   2.960  12.119  0.7399  0.0547  0.3180
   80TMC2    C6 1246   2.924   3.055  12.017  0.2418 -0.0134  0.5109
   80TMC2     C 1247   3.183   2.997  12.338 -0.5101 -0.9106 -0.6744
   80TMC2     O 1248   3.304   3.006  12.332  0.7242 -0.5709 -0.3762
   80TMC2     H 1249   3.251   3.105  12.104  1.0179 -2.6774 -1.5930
   80TMC2    H1 1250   2.958   2.880  12.311 -1.8892  0.9871  0.1588
   80TMC2    H2 1251   2.867   3.062  11.925  1.2879  1.2663 -0.0370
   80TMC2    C7 1252   2.783   2.872  12.093 -0.7249 -0.6569 -0.3561
   80TMC2    C8 1253   3.068   3.226  11.944  0.1355  0.0754  0.2947
   80TMC2    O1 1254   2.719   2.903  11.996 -0.1687  0.4678  0.3342
   80TMC2    O2 1255   3.173   3.278  11.917 -0.1505 -0.1609 -0.4818
   80TMC2    O5 1256   2.947   3.283  11.917  0.1092  0.3534 -0.6792
   80TMC2    H5 1257   2.865   3.244  11.956  0.0937 -1.0192 -2.0719
   81MPD2     C 1258   3.281   2.975  12.618 -0.6029 -0.7323 -0.1518
   81MPD2    C1 1259   3.145   3.002  12.579  0.3652  0.7330 -0.0417
   81MPD2    C2 1260   3.055   3.010  12.673  0.6261  0.5258  0.1064
   81MPD2    C3 1261   3.076   2.978  12.809  0.1331  0.2320 -0.7488
   81MPD2    C4 1262   3.212   2.954  12.843  0.1006 -0.0283  0.1907
   81MPD2    C5 1263   3.311   2.954  12.751  0.2566  0.0394  0.0752
   81MPD2     H 1264   2.953   3.005  12.636  0.6833  0.5103 -0.0495
   81MPD2    H1 1265   3.229   2.910  12.940 -2.8899  0.3451  0.8782
   81MPD2    H2 1266   3.354   2.984  12.538 -0.9620 -0.9209 -0.5040
   81MPD2    H3 1267   3.413   2.924  12.772  0.7362 -0.0006 -2.2288
   81MPD2     N 1268   2.977   2.944  12.908  0.1570 -0.0128 -1.0686
   81MPD2    H5 1269   3.007   2.894  12.991 -2.3460 -1.0456 -0.7789
   81MPD2    N1 1270   3.103   3.006  12.448  0.1725 -0.4800  0.0305
   81MPD2    H7 1271   3.004   3.021  12.430  0.4200  0.7276 -0.3277
   82TMC2    C1 1272   0.743   2.534  11.405  0.3266  0.0526  0.7877
   82TMC2    C2 1273   0.804   2.588  11.513  0.0374  0.8177  0.5571
   82TMC2    C3 1274   0.855   2.502  11.606  0.0492 -0.3275 -0.9680
   82TMC2    C4 1275   0.726   2.399  11.380 -0.4741 -0.0610  0.5221
   82TMC2    C5 1276   0.775   2.318  11.482 -0.4146  0.6831 -0.1323
   82TMC2    C6 1277   0.841   2.369  11.587  0.0568  0.1731 -0.2883
   82TMC2     C 1278   0.694   2.636  11.307 -0.2141 -0.3329 -0.0544
   82TMC2     O 1279   0.717   2.752  11.335  0.2822 -0.4343  0.3208
   82TMC2     H 1280   0.833   2.693  11.520  0.8556  0.5408  1.3516
   82TMC2    H1 1281   0.667   2.360  11.298 -4.7459  3.0123  2.1517
   82TMC2    H2 1282   0.882   2.303  11.663 -3.6851 -0.9591  0.7203
   82TMC2    C7 1283   0.709   2.198  11.518 -0.5055  0.3258  0.5439
   82TMC2    C8 1284   0.981   2.542  11.659  0.4311 -0.3120 -1.1806
   82TMC2    O1 1285   0.691   2.178  11.638  0.1889 -0.6119 -0.1898
   82TMC2    O2 1286   1.079   2.470  11.643  0.2464  0.6313 -0.3111
   82TMC2    O5 1287   0.982   2.678  11.691  0.0797 -0.0873  0.0539
   82TMC2    H5 1288   0.889   2.709  11.690 -0.0053 -0.3045  0.8243
   83MPD2     C 1289   0.480   2.837  10.887  0.2744 -0.6094  0.3113
   83MPD2    C1 1290   0.432   2.715  10.908  0.1565  0.1099 -0.5380
   83MPD2    C2 1291   0.468   2.632  11.012 -0.1822 -0.3568 -0.3331
   83MPD2    C3 1292   0.571   2.670  11.098  0.0835 -0.0722  0.4968
   83MPD2    C4 1293   0.638   2.788  11.063 -0.2131 -0.5935  0.6125
   83MPD2    C5 1294   0.584   2.867  10.965  0.3151 -0.1610  0.1593
   83MPD2     H 1295   0.416   2.539  11.033  1.7522 -1.3668  0.0144
   83MPD2    H1 1296   0.726   2.826  11.112 -0.3943 -0.6843  1.0063
   83MPD2    H2 1297   0.438   2.900  10.810 -0.8400 -0.5661  0.9553
   83MPD2    H3 1298   0.634   2.963  10.952  0.4302 -0.3664 -0.9011
   83MPD2     N 1299   0.614   2.585  11.203 -0.2827  0.4073  0.2307
   83MPD2    H5 1300   0.593   2.486  11.192  0.8712  0.5250 -3.1540
   83MPD2    N1 1301   0.339   2.681  10.802  0.2082  0.2153 -0.1341
   83MPD2    H7 1302   0.327   2.755  10.734 -3.4140 -0.7253 -0.5424
   84TMC2    C1 1303   2.433   1.699  10.806 -0.4643  0.3548  0.4985
   84TMC2    C2 1304   2.414   1.583  10.733  0.3793  0.1432  0.5639
   84TMC2    C3 1305   2.500   1.570  10.626 -0.4293 -0.8610  0.1544
   84TMC2    C4 1306   2.534   1.790  10.780 -0.4692  0.4159  0.2320
   84TMC2    C5 1307   2.611   1.767  10.678 -0.0123  0.2856  1.2136
   84TMC2    C6 1308   2.594   1.663  10.587 -0.6219  0.5788  0.2742
   84TMC2     C 1309   2.323   1.735  10.895  0.2761 -0.3745 -0.6343
   84TMC2     O 1310   2.358   1.799  10.991  0.3134 -0.4590 -0.2640
   84TMC2     H 1311   2.333   1.513  10.750 -0.7682  1.0646 -1.2056
   84TMC2    H1 1312   2.533   1.880  10.841 -0.0225  0.3808  0.2927
   84TMC2    H2 1313   2.650   1.660  10.494 -2.9805  0.6013 -1.1498
   84TMC2    C7 1314   2.724   1.862  10.652  0.0462 -0.4882  0.1416
   84TMC2    C8 1315   2.467   1.470  10.532  0.0747 -0.3132 -0.0218
   84TMC2    O1 1316   2.713   1.979  10.666  0.1662  0.2524 -0.0079
   84TMC2    O2 1317   2.500   1.478  10.416  0.1151  0.1377  0.4084
   84TMC2    O5 1318   2.436   1.352  10.595  0.0589  0.1344  0.2439
   84TMC2    H5 1319   2.457   1.363  10.691 -4.4758 -2.2285  1.5199
   85TMC2    C1 1320   3.023   4.443  16.088  0.6568 -0.4431  0.1321
   85TMC2    C2 1321   2.919   4.461  16.004 -0.4188 -0.3391 -1.0313
   85TMC2    C3 1322   2.926   4.556  15.912 -0.1258  0.1325 -0.2066
   85TMC2    C4 1323   3.139   4.516  16.080 -0.5018 -0.3490  0.0106
   85TMC2    C5 1324   3.141   4.615  15.983  0.6147  0.1455 -0.4478
   85TMC2    C6 1325   3.036   4.636  15.898 -0.4119  0.3796  0.7515
   85TMC2     C 1326   3.057   4.313  16.150  0.2680 -0.6041  0.1044
   85TMC2     O 1327   3.165   4.292  16.205 -0.2988  0.0583  0.2927
   85TMC2     H 1328   2.840   4.387  15.991 -0.5080 -0.1142 -1.7640
   85TMC2    H1 1329   3.232   4.486  16.126  0.6324  3.0141 -0.0932
   85TMC2    H2 1330   3.034   4.715  15.825 -2.9217  0.7262  1.2106
   85TMC2    C7 1331   3.280   4.643  15.929 -0.1629 -0.3257  0.1973
   85TMC2    C8 1332   2.808   4.569  15.828 -0.0240 -0.1241 -0.1533
   85TMC2    O1 1333   3.371   4.575  15.975  0.1260 -0.1171 -0.1987
   85TMC2    O2 1334   2.715   4.485  15.836 -0.1236 -0.5315 -0.0739
   85TMC2    O5 1335   2.822   4.677  15.745 -0.0013  0.5421 -0.4438
   85TMC2    H5 1336   2.758   4.679  15.671  0.4957  0.1352 -0.8861
   86MPD2     C 1337   2.972   3.808  16.086 -0.5656 -0.7409  0.6316
   86MPD2    C1 1338   2.856   3.875  16.065  0.3657 -0.2270  0.2507
   86MPD2    C2 1339   2.856   4.012  16.074 -0.0691  0.1094 -0.2112
   86MPD2    C3 1340   2.968   4.079  16.116  0.2149 -0.0647 -0.4296
   86MPD2    C4 1341   3.086   4.011  16.145 -0.5328 -0.9449  0.7546
   86MPD2    C5 1342   3.078   3.875  16.135 -0.2719 -0.0932  0.0037
   86MPD2     H 1343   2.767   4.067  16.045 -0.9869 -1.1229  0.2542
   86MPD2    H1 1344   3.172   4.062  16.186 -1.7815  1.2063  0.7194
   86MPD2    H2 1345   2.967   3.700  16.090  0.3822 -0.8616 -1.9211
   86MPD2    H3 1346   3.160   3.823  16.183 -0.0471  0.8424  0.6205
   86MPD2     N 1347   2.957   4.219  16.118 -0.3627 -0.0913 -0.3244
   86MPD2    H5 1348   2.867   4.261  16.095 -0.0080  1.1812  0.6056
   86MPD2    N1 1349   2.740   3.808  16.009  0.0086 -0.2039  0.3601
   86MPD2    H7 1350   2.657   3.866  16.004  0.1236 -0.2840 -2.4898
   87TMC2    C1 1351   1.480   2.784   1.728 -0.6006 -1.0262  0.4673
   87TMC2    C2 1352   1.483   2.693   1.828 -0.6355  0.3742 -0.1611
   87TMC2    C3 1353   1.411   2.724   1.940 -0.4065  0.3551  0.9448
   87TMC2    C4 1354   1.411   2.905   1.732  0.2880  0.0672 -0.2553
   87TMC2    C5 1355   1.351   2.934   1.853 -0.3541 -0.1484 -0.6469
   87TMC2    C6 1356   1.348   2.844   1.958  0.0982 -0.9734 -0.4464
   87TMC2     C 1357   1.521   2.734   1.604  0.1022 -0.1466 -0.3970
   87TMC2     O 1358   1.616   2.662   1.600 -0.5969  0.1413 -0.7719
   87TMC2     H 1359   1.530   2.596   1.812 -2.1495 -0.6488  1.5494
   87TMC2    H1 1360   1.427   2.972   1.648 -2.1870  3.8325  2.2756
   87TMC2    H2 1361   1.315   2.878   2.055  0.3914 -1.7908 -0.0591
   87TMC2    C7 1362   1.261   3.051   1.859 -0.0430  0.4998 -0.0125
   87TMC2    C8 1363   1.452   2.670   2.069 -0.8135 -0.8384 -0.2142
   87TMC2    O1 1364   1.296   3.153   1.797 -0.3401 -0.1571 -0.4204
   87TMC2    O2 1365   1.388   2.685   2.171  0.1164  0.5244  0.2981
   87TMC2    O5 1366   1.583   2.674   2.064 -0.2748 -0.1953  0.3246
   87TMC2    H5 1367   1.619   2.710   1.980  2.3274 -1.8808  0.6900
   88MPD2     C 1368   0.932   3.074   2.009 -0.1492 -0.5859  0.4066
   88MPD2    C1 1369   1.035   3.118   1.933  0.4061  0.3843  0.2311
   88MPD2    C2 1370   1.023   3.237   1.855  0.1057 -0.6392 -0.0573
   88MPD2    C3 1371   0.911   3.316   1.874  0.5362  0.9660  0.1432
   88MPD2    C4 1372   0.808   3.276   1.959 -0.0835 -0.2568 -0.0104
   88MPD2    C5 1373   0.820   3.153   2.024 -0.1164 -0.4053 -0.4411
   88MPD2     H 1374   1.094   3.263   1.778 -0.8224 -3.2128 -1.7407
   88MPD2    H1 1375   0.718   3.335   1.956  0.3528  0.3326 -1.6317
   88MPD2    H2 1376   0.944   2.988   2.073  3.4459  0.0946  0.6359
   88MPD2    H3 1377   0.742   3.126   2.094  1.4226 -0.1558  1.3553
   88MPD2     N 1378   0.895   3.427   1.789 -0.6014  0.0854 -0.1865
   88MPD2    H5 1379   0.805   3.474   1.792  0.2102  1.4260  2.6717
   88MPD2    N1 1380   1.147   3.031   1.931  0.7365 -0.8914  0.5652
   88MPD2    H7 1381   1.139   2.944   1.983  1.9169 -0.1265  2.0318
   89TMC2    C1 1382   1.891   1.215   1.458  0.3425 -0.2816  0.0846
   89TMC2    C2 1383   1.988   1.324   1.441  0.0868  0.6120 -0.0686
   89TMC2    C3 1384   1.960   1.435   1.364  0.7528 -0.0203 -0.6994
   89TMC2    C4 1385   1.768   1.228   1.399  0.3167  0.4830  0.2186
   89TMC2    C5 1386   1.742   1.338   1.320  0.1466  0.1750 -0.3364
   89TMC2    C6 1387   1.836   1.442   1.303 -0.5611  0.4104 -0.3271
   89TMC2     C 1388   1.939   1.078   1.479  0.1209  0.0625  0.7441
   89TMC2     O 1389   2.062   1.058   1.475  1.0400 -0.2910  0.1679
   89TMC2     H 1390   2.094   1.320   1.464  0.3427  3.5957 -0.7315
   89TMC2    H1 1391   1.709   1.139   1.380  1.7427 -0.6337  1.0616
   89TMC2    H2 1392   1.817   1.537   1.254  0.8709  1.0979  0.4471
   89TMC2    C7 1393   1.661   1.304   1.204  0.2990 -0.1675 -0.5002
   89TMC2    C8 1394   2.071   1.506   1.306 -0.2995  0.7728  0.3324
   89TMC2    O1 1395   1.558   1.244   1.217  0.4934 -0.1782 -0.2895
   89TMC2    O2 1396   2.081   1.525   1.191 -0.7660  0.4284  0.3562
   89TMC2    O5 1397   2.109   1.582   1.409  0.1463  0.4139 -0.3678
   89TMC2    H5 1398   2.070   1.576   1.499  2.3479  0.0233  0.5587
   90MPD2     C 1399   1.886   0.583   1.556 -0.2668  0.0129 -0.8532
   90MPD2    C1 1400   1.781   0.645   1.616  0.4224 -0.3415  0.0050
   90MPD2    C2 1401   1.777   0.785   1.606  0.6767 -0.4820 -0.2242
   90MPD2    C3 1402   1.873   0.855   1.537  0.4058  0.0781  0.1487
   90MPD2    C4 1403   1.985   0.787   1.501  0.0386  0.2983 -0.0414
   90MPD2    C5 1404   1.989   0.648   1.507 -0.5596 -0.1261  0.1653
   90MPD2     H 1405   1.687   0.835   1.640  2.2477  3.4735 -1.8617
   90MPD2    H1 1406   2.065   0.835   1.444 -0.2664 -0.6215 -1.2380
   90MPD2    H2 1407   1.877   0.475   1.550 -0.9627  0.0358 -0.2308
   90MPD2    H3 1408   2.065   0.587   1.458  0.1639 -0.2262  1.4148
   90MPD2     N 1409   1.845   0.986   1.518 -0.5526 -0.4376 -0.2610
   90MPD2    H5 1410   1.753   1.022   1.541  0.2282  2.4446 -1.7072
   90MPD2    N1 1411   1.675   0.576   1.675  0.5550  0.2916  0.2241
   90MPD2    H7 1412   1.600   0.628   1.719  0.7735  0.3131  0.5721
   91TMC2    C1 1413   3.090   0.298  16.430 -0.2920 -1.1652  0.3754
   91TMC2    C2 1414   3.151   0.267  16.553 -0.0499 -0.8730 -0.6464
   91TMC2    C3 1415   3.082   0.209  16.655  0.5800 -0.2295  0.4593
   91TMC2    C4 1416   2.960   0.278  16.414  0.3309  0.5342 -0.3133
   91TMC2    C5 1417   2.888   0.218  16.520 -0.8583 -0.5713 -0.6682
   91TMC2    C6 1418   2.952   0.179  16.637  0.3755  0.2070 -0.0350
   91TMC2     C 1419   3.158   0.399  16.350 -0.3760  0.4793 -0.1833
   91TMC2     O 1420   3.081   0.456  16.276 -0.1059  0.4668  0.1659
   91TMC2     H 1421   3.258   0.280  16.564 -0.3509 -0.0046  1.1949
   91TMC2    H1 1422   2.917   0.317  16.323 -1.3051 -0.2709  0.1154
   91TMC2    H2 1423   2.895   0.119  16.707 -0.8183  1.7618  0.3221
   91TMC2    C7 1424   2.741   0.197  16.508 -0.3982 -0.1539 -0.1903
   91TMC2    C8 1425   3.165   0.116  16.733 -0.5006  0.0086  0.1116
   91TMC2    O1 1426   2.689   0.149  16.605  0.3548  0.6101  0.4359
   91TMC2    O2 1427   3.266   0.073  16.681 -0.3666  0.2711 -0.0430
   91TMC2    O5 1428   3.091   0.068  16.841  0.1196 -0.3975  0.6053
   91TMC2    H5 1429   3.052   0.147  16.884 -1.0493  0.5065 -2.1353
   92MPD2     C 1430   3.323   0.609  16.237  0.1790 -0.2611 -0.1971
   92MPD2    C1 1431   3.376   0.513  16.320  0.1649  0.0999 -0.1224
   92MPD2    C2 1432   3.511   0.516  16.360  0.3358 -0.6552 -0.4096
   92MPD2    C3 1433   3.583   0.628  16.323  0.0176  0.0431  0.3983
   92MPD2    C4 1434   3.532   0.713  16.229  0.3514  0.0327 -0.4383
   92MPD2    C5 1435   3.403   0.712  16.195 -0.1153  0.2207  0.6367
   92MPD2     H 1436   3.550   0.435  16.420  2.5445  0.4126 -0.4040
   92MPD2    H1 1437   3.583   0.797  16.184  0.5170  0.2571  0.1608
   92MPD2    H2 1438   3.220   0.620  16.204  0.5320  0.4532 -1.0489
   92MPD2    H3 1439   3.364   0.785  16.125 -3.3068 -2.5331 -0.4539
   92MPD2     N 1440   3.707   0.644  16.377 -0.1938 -0.0711 -0.0426
   92MPD2    H5 1441   3.748   0.567  16.428  0.4625 -0.8655 -1.7667
   92MPD2    N1 1442   3.294   0.418  16.378 -0.1830 -0.0482  0.3958
   92MPD2    H7 1443   3.343   0.367  16.451  0.6876  1.6921  1.0206
   93TMC2    C1 1444   0.449   0.613  14.383 -0.6694 -0.1185  0.1541
   93TMC2    C2 1445   0.398   0.584  14.511  0.2806  0.3831 -0.2666
   93TMC2    C3 1446   0.461   0.628  14.619  0.2783  1.1662 -0.1302
   93TMC2    C4 1447   0.563   0.690  14.376 -0.1612 -0.1449  0.4306
   93TMC2    C5 1448   0.600   0.753  14.493  0.0142  0.3184  0.0215
   93TMC2    C6 1449   0.559   0.719  14.616  0.3981  0.0994 -0.0230
   93TMC2     C 1450   0.409   0.543  14.267  0.5522 -0.1117 -0.0902
   93TMC2     O 1451   0.484   0.570  14.173 -0.0430  0.4502 -0.4068
   93TMC2     H 1452   0.312   0.520  14.522  1.6232 -1.2097  1.0000
   93TMC2    H1 1453   0.603   0.729  14.282 -0.2733 -0.2899  0.3229
   93TMC2    H2 1454   0.598   0.768  14.704  1.3652 -0.1678 -0.2998
   93TMC2    C7 1455   0.688   0.872  14.484  0.2456  0.9826 -0.3717
   93TMC2    C8 1456   0.373   0.631  14.736  0.2251 -0.4560  0.4219
   93TMC2    O1 1457   0.779   0.881  14.565 -0.1981  0.2772 -0.6405
   93TMC2    O2 1458   0.256   0.607  14.745 -0.1422  0.2457 -0.3084
   93TMC2    O5 1459   0.461   0.626  14.830 -0.3282  0.0285 -0.2420
   93TMC2    H5 1460   0.553   0.625  14.794 -0.6746  0.7402 -1.1375
   94MPD2     C 1461   0.330   0.394  14.033 -0.0163 -0.0303  0.8944
   94MPD2    C1 1462   0.241   0.439  14.127  0.0721 -0.3892 -1.4227
   94MPD2    C2 1463   0.105   0.430  14.109 -0.2202 -0.4230  0.3776
   94MPD2    C3 1464   0.052   0.368  13.997 -0.0726 -0.6797  0.6101
   94MPD2    C4 1465   0.147   0.335  13.898 -0.3825 -0.3964 -0.3918
   94MPD2    C5 1466   0.284   0.343  13.915  0.6839  0.4742  0.3190
   94MPD2     H 1467   0.038   0.479  14.179 -0.7170 -1.6867  0.7725
   94MPD2    H1 1468   0.109   0.281  13.812 -1.2161 -1.5669  0.7097
   94MPD2    H2 1469   0.437   0.386  14.048 -0.0015 -1.6612 -0.1650
   94MPD2    H3 1470   0.359   0.302  13.849 -0.4678  0.0769 -0.7450
   94MPD2     N 1471   4.656   0.363  13.965 -0.1162  0.5420  0.2144
   94MPD2    H5 1472   4.625   0.321  13.878 -0.7667 -1.0628  1.2176
   94MPD2    N1 1473   0.281   0.493  14.252 -0.7950 -0.4875  0.8657
   94MPD2    H7 1474   0.208   0.501  14.322  0.2528 -1.9367  2.1126
   95TMC2    C1 1475   0.703   2.101  16.231  0.3986 -0.5462 -0.2472
   95TMC2    C2 1476   0.704   1.992  16.314  0.5492 -0.1532  0.2485
   95TMC2    C3 1477   0.630   1.990  16.427 -0.0739  0.1124 -0.1797
   95TMC2    C4 1478   0.643   2.209  16.285 -0.9991  0.1287 -0.1618
   95TMC2    C5 1479   0.572   2.207  16.405  0.7274 -0.0995 -0.0929
   95TMC2    C6 1480   0.568   2.096  16.482 -0.3307  0.0797 -0.1450
   95TMC2     C 1481   0.781   2.114  16.108 -0.2476  0.4999 -0.8080
   95TMC2     O 1482   0.794   2.226  16.062  0.0565 -0.2663  0.2253
   95TMC2     H 1483   0.770   1.907  16.300  1.6001  0.5263  1.0261
   95TMC2    H1 1484   0.640   2.306  16.236 -0.7629  0.8835  1.3218
   95TMC2    H2 1485   0.525   2.096  16.581  1.3384 -0.7472  0.5832
   95TMC2    C7 1486   0.532   2.342  16.461 -0.3745  0.1555  0.1847
   95TMC2    C8 1487   0.596   1.864  16.477  0.1006 -0.0740 -0.4656
   95TMC2    O1 1488   0.574   2.443  16.406  0.1716 -0.2048  0.7039
   95TMC2    O2 1489   0.679   1.783  16.512  0.2985 -0.4181  0.3271
   95TMC2    O5 1490   0.473   1.871  16.516 -0.1532 -0.2163 -0.8702
   95TMC2    H5 1491   0.417   1.938  16.471 -2.7382 -1.5748  0.2938
   96MPD2     C 1492   1.025   1.929  15.700 -1.3829  0.0761  0.4759
   96MPD2    C1 1493   1.026   2.057  15.753 -0.1033  0.4257  0.1345
   96MPD2    C2 1494   0.957   2.079  15.868 -0.6958 -0.8813 -0.1106
   96MPD2    C3 1495   0.886   1.976  15.932  0.5821 -0.2039 -0.3068
   96MPD2    C4 1496   0.891   1.844  15.880 -0.5309 -0.2276 -0.1780
   96MPD2    C5 1497   0.955   1.825  15.760 -0.3443 -0.4865 -0.1880
   96MPD2     H 1498   0.963   2.176  15.916 -2.8282 -1.1841  0.7733
   96MPD2    H1 1499   0.846   1.759  15.930  0.6279  0.6046  2.2989
   96MPD2    H2 1500   1.078   1.915  15.606 -1.8684  0.2499  0.1762
   96MPD2    H3 1501   0.964   1.724  15.721 -0.9157 -0.8992  0.7368
   96MPD2     N 1502   0.811   2.000  16.051 -0.1440  0.4732 -0.0500
   96MPD2    H5 1503   0.779   1.916  16.097  0.3749 -0.1072 -0.7317
   96MPD2    N1 1504   1.089   2.167  15.682  0.1233 -0.4936 -0.2209
   96MPD2    H7 1505   1.128   2.142  15.592 -0.7410  1.6551 -1.1748
   97TMC2    C1 1506   2.795   0.582  17.595  0.1549  0.0446 -0.0525
   97TMC2    C2 1507   2.687   0.621  17.524 -0.0190  0.1446 -1.0260
   97TMC2    C3 1508   2.693   0.728  17.433  0.2973 -0.6581  0.6589
   97TMC2    C4 1509   2.911   0.650  17.584  0.2108  0.6505  0.7580
   97TMC2    C5 1510   2.921   0.759  17.499  0.5255 -0.0265 -0.6411
   97TMC2    C6 1511   2.814   0.796  17.419 -0.6706 -0.5470  0.2170
   97TMC2     C 1512   2.773   0.525  17.722 -0.0093  0.0095 -0.1008
   97TMC2     O 1513   2.660   0.540   0.010  0.6022 -0.0241 -0.5581
   97TMC2     H 1514   2.594   0.567  17.538  0.3133 -0.6079 -1.7161
   97TMC2    H1 1515   2.995   0.618  17.644  1.1419 -0.0574 -0.9218
   97TMC2    H2 1516   2.816   0.884  17.357 -0.9343  0.1605  1.2045
   97TMC2    C7 1517   3.048   0.832  17.497  0.2134 -0.1561 -0.5125
   97TMC2    C8 1518   2.579   0.784  17.370  0.0275  0.8303 -0.1401
   97TMC2    O1 1519   3.129   0.803  17.581  0.3243  0.1274  0.4903
   97TMC2    O2 1520   2.580   0.866  17.280  0.1457  0.0729 -0.0305
   97TMC2    O5 1521   2.472   0.759  17.446  0.1828  0.3216 -0.3869
   97TMC2    H5 1522   2.496   0.752  17.541  0.7672  0.3247 -0.5313
   98MPD2     C 1523   2.846   0.168   0.333  0.4071  0.6294 -0.1289
   98MPD2    C1 1524   2.754   0.273   0.328  0.3469 -0.3185  0.2474
   98MPD2    C2 1525   2.768   0.368   0.229  0.1380  0.6644  0.5827
   98MPD2    C3 1526   2.861   0.355   0.130 -0.3482  0.0240 -0.4872
   98MPD2    C4 1527   2.961   0.268   0.153  0.9445  0.2431 -0.3387
   98MPD2    C5 1528   2.956   0.174   0.254 -0.1177  0.4703  0.6918
   98MPD2     H 1529   2.694   0.443   0.206 -1.0936 -0.5196  0.7095
   98MPD2    H1 1530   3.047   0.270   0.087  1.0241 -1.6116 -0.2758
   98MPD2    H2 1531   2.835   0.092   0.410 -1.7911  1.5532  0.4722
   98MPD2    H3 1532   3.029   0.094   0.258  0.8425  1.3851  1.2697
   98MPD2     N 1533   2.872   0.444   0.012 -0.0133 -0.8020 -0.1951
   98MPD2    H5 1534   2.948   0.428  17.703 -1.0362  0.3605 -1.6543
   98MPD2    N1 1535   2.670   0.285   0.438  0.4779 -0.3522 -0.4115
   98MPD2    H7 1536   2.665   0.203   0.498  0.9170  1.1094  1.6266
   99TMC2    C1 1537   1.686   2.102   1.855  0.0101  0.2706 -0.2003
   99TMC2    C2 1538   1.724   2.122   1.988  0.0418  0.0970 -0.0401
   99TMC2    C3 1539   1.652   2.208   2.064  0.0640  0.0438  0.4081
   99TMC2    C4 1540   1.570   2.156   1.804 -0.2990  0.1317 -0.2925
   99TMC2    C5 1541   1.504   2.246   1.885  0.6083  0.2268 -0.2825
   99TMC2    C6 1542   1.545   2.281   2.016 -0.2578 -0.1491 -0.2210
   99TMC2     C 1543   1.775   2.028   1.759 -0.5597 -0.4559  0.1530
   99TMC2     O 1544   1.895   2.036   1.783 -0.5166 -0.3284  0.5464
   99TMC2     H 1545   1.818   2.079   2.021 -1.3737 -1.6067  1.7239
   99TMC2    H1 1546   1.538   2.147   1.701 -3.6153  0.1005  0.7707
   99TMC2    H2 1547   1.492   2.359   2.068  2.7242  1.7907 -0.1160
   99TMC2    C7 1548   1.382   2.309   1.836 -0.2770  0.0526  1.1245
   99TMC2    C8 1549   1.715   2.250   2.188  0.4308  0.2924  0.2934
   99TMC2    O1 1550   1.346   2.406   1.902 -0.2751 -0.6314  0.2627
   99TMC2    O2 1551   1.835   2.259   2.211  0.2964  0.4748 -0.2728
   99TMC2    O5 1552   1.629   2.314   2.268  0.4685 -0.4572 -0.9151
   99TMC2    H5 1553   1.536   2.302   2.239  0.4190  0.2255 -1.0481
  100MPD2     C 1554   1.892   1.887   1.514 -0.0600 -0.1729 -0.6881
  100MPD2    C1 1555   1.761   1.916   1.532 -0.3987 -0.6410 -0.3524
  100MPD2    C2 1556   1.673   1.870   1.436 -0.1295  0.3862  0.4068
  100MPD2    C3 1557   1.720   1.806   1.325 -0.7793  0.1116  0.0153
  100MPD2    C4 1558   1.854   1.797   1.301 -0.0927  0.8581 -0.2031
  100MPD2    C5 1559   1.942   1.835   1.397 -0.4603  0.4947 -0.2369
  100MPD2     H 1560   1.565   1.874   1.436 -0.1205  0.7416 -0.2998
  100MPD2    H1 1561   1.900   1.753   1.213 -0.2667  1.8060 -0.7658
  100MPD2    H2 1562   1.960   1.928   1.588 -0.3233  0.0298 -0.5597
  100MPD2    H3 1563   2.050   1.827   1.392 -0.5699 -0.8724 -0.2227
  100MPD2     N 1564   1.618   1.771   1.236  0.4607  0.5100 -0.2784
  100MPD2    H5 1565   1.519   1.784   1.252  0.5185  1.0486 -0.3655
  100MPD2    N1 1566   1.711   1.984   1.646 -0.1133  0.5383 -0.0420
  100MPD2    H7 1567   1.610   1.989   1.652  0.0105  1.9619  0.7145
  101TMC2    C1 1568   1.571   3.415  13.361 -0.5091 -0.2522  0.0032
  101TMC2    C2 1569   1.462   3.466  13.432 -0.1594  0.3787 -0.9463
  101TMC2    C3 1570   1.441   3.605  13.433  0.3115 -0.5688  0.0774
  101TMC2    C4 1571   1.651   3.498  13.292 -0.1708 -0.0363 -0.1610
  101TMC2    C5 1572   1.618   3.632  13.292 -0.7219 -0.2062  0.1893
  101TMC2    C6 1573   1.517   3.690  13.365 -0.0628 -0.1345 -0.2791
  101TMC2     C 1574   1.568   3.268  13.331  0.1461 -0.0558 -0.2111
  101TMC2     O 1575   1.505   3.199  13.409  0.4845 -0.4619  0.0727
  101TMC2     H 1576   1.390   3.400  13.479  0.1375  2.2612  2.1540
  101TMC2    H1 1577   1.738   3.469  13.235  0.1854 -0.9292  0.8615
  101TMC2    H2 1578   1.493   3.796  13.361 -2.5633 -0.6476  1.3477
  101TMC2    C7 1579   1.689   3.728  13.200  0.1636 -0.2079  0.0844
  101TMC2    C8 1580   1.306   3.651  13.450 -0.0913  0.0121  0.6639
  101TMC2    O1 1581   1.773   3.670  13.134  0.2637 -0.1725 -0.1148
  101TMC2    O2 1582   1.256   3.723  13.366  0.1552 -0.3565  0.4233
  101TMC2    O5 1583   1.235   3.564  13.530 -0.0311  0.0889  0.5572
  101TMC2    H5 1584   1.296   3.504  13.579  0.8910  1.6345  1.3282
  102MPD2     C 1585   1.707   3.090  13.033  0.3342 -0.2366 -0.5199
  102MPD2    C1 1586   1.648   3.110  13.156  0.2455 -0.6612 -0.5578
  102MPD2    C2 1587   1.587   2.999  13.212  0.3451 -0.0102  0.0946
  102MPD2    C3 1588   1.586   2.879  13.146  0.4992 -0.9791  0.1894
  102MPD2    C4 1589   1.652   2.865  13.020  0.1151 -0.8441  0.0723
  102MPD2    C5 1590   1.712   2.974  12.962  0.9460  0.0108  0.3636
  102MPD2     H 1591   1.547   2.999  13.312 -2.0434 -2.8508 -0.8753
  102MPD2    H1 1592   1.654   2.777  12.957 -1.5011 -1.3728  0.7579
  102MPD2    H2 1593   1.749   3.175  12.981  0.6690 -0.0067  0.1180
  102MPD2    H3 1594   1.751   2.969  12.861  0.7096 -1.3417  0.3506
  102MPD2     N 1595   1.533   2.771  13.212 -0.0306  0.2438 -0.2517
  102MPD2    H5 1596   1.488   2.793  13.300 -0.7241  1.9656 -1.0356
  102MPD2    N1 1597   1.636   3.241  13.210  0.0038  0.3928 -0.0683
  102MPD2    H7 1598   1.680   3.321  13.166  1.8901  0.6751  2.3271
  103TMC2    C1 1599   4.350   3.673  12.803  0.5465  0.2982 -1.2523
  103TMC2    C2 1600   4.367   3.801  12.753 -0.1844  0.1455 -0.0249
  103TMC2    C3 1601   4.437   3.894  12.827  0.2550  0.5736 -0.0466
  103TMC2    C4 1602   4.385   3.642  12.931  0.6103 -0.0602 -0.1729
  103TMC2    C5 1603   4.455   3.736  13.000 -0.0184  0.0932 -0.0491
  103TMC2    C6 1604   4.487   3.860  12.943  0.4826  0.6788  0.0147
  103TMC2     C 1605   4.239   3.599  12.751 -0.2736  0.1750 -0.2353
  103TMC2     O 1606   4.164   3.663  12.681  0.4082 -0.3041  0.1325
  103TMC2     H 1607   4.329   3.838  12.659  2.3070  2.1141 -0.2615
  103TMC2    H1 1608   4.358   3.548  12.978  0.9061 -0.9138 -1.7049
  103TMC2    H2 1609   4.548   3.928  13.003  2.0882 -0.0224 -0.8360
  103TMC2    C7 1610   4.491   3.716  13.134  0.1515 -0.0463  1.1821
  103TMC2    C8 1611   4.482   4.018  12.764  0.2528  0.8041 -0.2644
  103TMC2    O1 1612   4.439   3.630  13.199  0.0900 -0.0176 -0.1162
  103TMC2    O2 1613   4.406   4.095  12.712  0.0233  0.4942 -0.4209
  103TMC2    O5 1614   4.589   3.969  12.693  0.2285  0.2993 -0.1309
  103TMC2    H5 1615   4.640   3.899  12.739 -3.2907 -1.7643  0.6256
  104MPD2     C 1616   4.182   3.231  12.770  0.1387 -0.2709  0.2585
  104MPD2    C1 1617   4.153   3.360  12.740  0.0188 -0.1254  0.0862
  104MPD2    C2 1618   4.034   3.386  12.670  0.2412  0.4862 -0.2090
  104MPD2    C3 1619   3.947   3.285  12.637  0.8318 -0.0983  0.0904
  104MPD2    C4 1620   3.971   3.154  12.684  1.1507  0.6175 -0.1387
  104MPD2    C5 1621   4.090   3.133  12.751 -0.4999 -0.0698  0.9401
  104MPD2     H 1622   4.008   3.485  12.634 -2.4296 -0.8708 -2.0097
  104MPD2    H1 1623   3.910   3.067  12.661  1.4448  0.4242 -0.1817
  104MPD2    H2 1624   4.274   3.196  12.815  0.1682 -0.3531  0.1318
  104MPD2    H3 1625   4.115   3.034  12.786 -2.4544  0.1962  3.0881
  104MPD2     N 1626   3.838   3.314  12.555 -0.2396 -0.1448  0.4527
  104MPD2    H5 1627   3.827   3.407  12.516  2.0644 -0.5601 -1.1795
  104MPD2    N1 1628   4.243   3.459  12.784  0.0430  0.2586  0.2798
  104MPD2    H7 1629   4.333   3.426  12.816  0.0334 -0.2577 -0.2223
  105TMC2    C1 1630   1.853   2.326   0.754  0.1674  0.4054  0.1938
  105TMC2    C2 1631   1.947   2.427   0.750 -0.1461 -0.8493  0.0518
  105TMC2    C3 1632   1.924   2.534   0.830 -0.5468  0.5932  0.9942
  105TMC2    C4 1633   1.748   2.325   0.838 -0.0321 -0.3058 -0.7402
  105TMC2    C5 1634   1.735   2.435   0.922  0.3545 -0.1060 -0.2709
  105TMC2    C6 1635   1.823   2.540   0.917 -0.4995  0.7958 -0.1458
  105TMC2     C 1636   1.839   2.236   0.640 -0.1735  0.5646 -0.9037
  105TMC2     O 1637   1.756   2.144   0.644 -0.6627 -0.4963  0.0940
  105TMC2     H 1638   2.036   2.417   0.690 -0.4523  0.3715 -0.6088
  105TMC2    H1 1639   1.677   2.243   0.837  2.2021 -2.2245 -1.4753
  105TMC2    H2 1640   1.823   2.614   0.996  0.3215  1.9193 -1.2137
  105TMC2    C7 1641   1.615   2.447   1.008 -0.1372 -0.1872  0.4495
  105TMC2    C8 1642   2.021   2.636   0.857 -0.1884 -0.0912  0.6009
  105TMC2    O1 1643   1.523   2.365   0.988  0.2149 -0.4830  0.3091
  105TMC2    O2 1644   2.001   2.714   0.950 -0.6718  0.0316 -0.0494
  105TMC2    O5 1645   2.066   2.674   0.734 -0.1433  0.9312  0.0298
  105TMC2    H5 1646   2.047   2.603   0.669 -0.4542  2.0289 -1.0705
  106MPD2     C 1647   1.976   2.050   0.172 -0.1405 -0.2929  0.1664
  106MPD2    C1 1648   2.012   2.186   0.187 -0.4004  0.4444 -0.9083
  106MPD2    C2 1649   1.986   2.252   0.302  0.6667 -0.2993 -0.5231
  106MPD2    C3 1650   1.933   2.190   0.417  0.0616  0.2086  0.6505
  106MPD2    C4 1651   1.907   2.055   0.404 -0.0491 -0.5763 -0.0080
  106MPD2    C5 1652   1.933   1.984   0.286  0.1523  0.1588  0.2180
  106MPD2     H 1653   2.007   2.358   0.301 -0.1036 -0.1601 -2.4995
  106MPD2    H1 1654   1.857   2.007   0.488  1.0253 -1.4640  0.1271
  106MPD2    H2 1655   1.979   2.006   0.073 -1.7032  0.0708 -0.0438
  106MPD2    H3 1656   1.905   1.880   0.274  0.8266  0.0544 -0.4551
  106MPD2     N 1657   1.909   2.272   0.527 -0.6283 -0.5160  1.0787
  106MPD2    H5 1658   1.957   2.361   0.527 -1.0240 -0.3054 -0.2100
  106MPD2    N1 1659   2.073   2.263   0.081  0.3224  0.0592  0.5996
  106MPD2    H7 1660   2.059   2.362   0.097  2.1592  0.3634  0.2866
  107TMC2    C1 1661   1.698   1.987  11.566 -0.2523 -0.2354 -0.6100
  107TMC2    C2 1662   1.744   1.861  11.601  0.1687 -0.2044  0.4692
  107TMC2    C3 1663   1.836   1.795  11.522 -0.2285  0.6902 -0.7164
  107TMC2    C4 1664   1.748   2.048  11.456  0.0937 -0.1884  0.1455
  107TMC2    C5 1665   1.836   1.978  11.375  0.2721  0.3924 -0.4688
  107TMC2    C6 1666   1.889   1.856  11.413  0.1648 -0.4726  0.3258
  107TMC2     C 1667   1.628   2.061  11.677 -0.4879 -0.0517  0.0156
  107TMC2     O 1668   1.618   2.000  11.785  0.0238 -0.1358 -0.1424
  107TMC2     H 1669   1.701   1.804  11.683  3.4115 -0.1304  2.2494
  107TMC2    H1 1670   1.719   2.148  11.425 -0.9879 -0.7635 -0.6868
  107TMC2    H2 1671   1.960   1.800  11.354  0.2777 -0.1106  0.1191
  107TMC2    C7 1672   1.822   2.002  11.230  0.2218 -0.7614 -0.2534
  107TMC2    C8 1673   1.922   1.696  11.587 -0.1072  0.5030  0.0389
  107TMC2    O1 1674   1.726   2.061  11.194  0.3743 -0.4849 -0.4443
  107TMC2    O2 1675   1.878   1.616  11.675  0.7391 -0.3387  0.3774
  107TMC2    O5 1676   2.033   1.771  11.591  0.9368 -0.0476  0.1120
  107TMC2    H5 1677   2.029   1.848  11.530  0.4239 -0.6463 -0.6131
  108MPD2     C 1678   1.446   2.377  11.630 -0.7859  0.8911 -0.6531
  108MPD2    C1 1679   1.484   2.262  11.693 -0.4944 -0.2530 -0.0991
  108MPD2    C2 1680   1.463   2.254  11.829  0.5520  0.0762 -0.2585
  108MPD2    C3 1681   1.394   2.352  11.905 -0.1153  0.1372  0.4118
  108MPD2    C4 1682   1.351   2.458  11.831  0.5003 -0.3692 -0.0445
  108MPD2    C5 1683   1.371   2.467  11.699 -0.1654 -0.3427 -0.3466
  108MPD2     H 1684   1.504   2.171  11.885 -0.7704  0.6971  1.6399
  108MPD2    H1 1685   1.292   2.533  11.883 -0.4419  0.8899 -2.9351
  108MPD2    H2 1686   1.458   2.391  11.524  2.8744  1.0563 -0.2184
  108MPD2    H3 1687   1.323   2.541  11.635 -3.6872 -1.3130  1.1940
  108MPD2     N 1688   1.364   2.352  12.044  0.6727 -0.4928  0.0212
  108MPD2    H5 1689   1.290   2.416  12.073 -0.4089 -1.1862 -1.1875
  108MPD2    N1 1690   1.566   2.171  11.628 -0.0084  0.0351 -0.0884
  108MPD2    H7 1691   1.591   2.207  11.536  1.1457 -1.4114 -0.3345
  109TMC2    C1 1692   2.063   3.993   0.536  0.5911  0.4274  0.3393
  109TMC2    C2 1693   2.173   3.962   0.452 -0.0537  0.2290 -0.3533
  109TMC2    C3 1694   2.269   4.049   0.442 -0.5035  0.1410 -0.1672
  109TMC2    C4 1695   2.062   4.111   0.607  0.7695  0.2647 -0.3553
  109TMC2    C5 1696   2.168   4.191   0.601 -0.4337 -0.2242 -0.5994
  109TMC2    C6 1697   2.272   4.156   0.522 -0.1747 -0.4452 -0.0170
  109TMC2     C 1698   1.947   3.906   0.563  0.7353 -0.3845 -0.1902
  109TMC2     O 1699   1.906   3.847   0.462 -0.0828  0.4253  0.0711
  109TMC2     H 1700   2.176   3.870   0.395  1.5883  0.7645 -1.1081
  109TMC2    H1 1701   1.968   4.154   0.640  1.8098  2.0257  0.2768
  109TMC2    H2 1702   2.350   4.229   0.505 -0.8928  0.1643 -0.6751
  109TMC2    C7 1703   2.163   4.331   0.639 -0.2687  0.1289 -0.4147
  109TMC2    C8 1704   2.353   4.031   0.327 -0.3263 -0.5346  0.3859
  109TMC2    O1 1705   2.230   4.403   0.573 -0.1620  0.3827 -0.2722
  109TMC2    O2 1706   2.313   3.969   0.225 -0.3363 -0.5071  0.6466
  109TMC2    O5 1707   2.476   4.055   0.361  0.2577 -0.1852  0.2043
  109TMC2    H5 1708   2.487   4.090   0.452  2.1023  0.6649 -0.3570
  110MPD2     C 1709   1.581   3.696   0.830  0.7795 -0.2988  0.0789
  110MPD2    C1 1710   1.611   3.822   0.879 -0.0499 -0.8000  0.3813
  110MPD2    C2 1711   1.711   3.890   0.827 -0.0182 -0.2946  0.0146
  110MPD2    C3 1712   1.787   3.844   0.726 -0.2938  0.3046  0.3237
  110MPD2    C4 1713   1.756   3.720   0.668 -0.2457  0.3409  0.1081
  110MPD2    C5 1714   1.654   3.651   0.719  0.3537 -0.2381 -0.4882
  110MPD2     H 1715   1.748   3.984   0.867  0.1259 -0.3997  0.1284
  110MPD2    H1 1716   1.818   3.672   0.594  1.2834  3.4317 -0.6276
  110MPD2    H2 1717   1.500   3.634   0.867  1.6255 -0.9987  0.7780
  110MPD2    H3 1718   1.619   3.556   0.681 -1.2682  1.0896 -2.2895
  110MPD2     N 1719   1.895   3.929   0.685  0.1240  0.3123 -0.3034
  110MPD2    H5 1720   1.940   3.988   0.754  0.3391 -0.5694  0.3025
  110MPD2    N1 1721   1.528   3.869   0.987 -1.2347 -0.1526 -0.0593
  110MPD2    H7 1722   1.463   3.807   1.034 -2.5815  1.2808 -0.0197
  111TMC2    C1 1723   1.593   4.060  11.832  0.3562  0.8061  0.4422
  111TMC2    C2 1724   1.518   4.039  11.943  0.2838 -0.6298  0.3144
  111TMC2    C3 1725   1.583   3.955  12.030 -0.1144 -0.4424  0.3915
  111TMC2    C4 1726   1.722   4.015  11.808  0.3977  0.3889  0.3592
  111TMC2    C5 1727   1.774   3.931  11.899  0.5455  0.0934  0.3029
  111TMC2    C6 1728   1.699   3.886  12.001 -0.0980  0.5527  0.1969
  111TMC2     C 1729   1.533   4.133  11.726 -0.1744  0.3771 -0.3053
  111TMC2     O 1730   1.601   4.161  11.634  0.0560 -0.3802  0.5692
  111TMC2     H 1731   1.433   4.093  11.984  1.9359  0.3459  2.4799
  111TMC2    H1 1732   1.773   4.047  11.718 -0.3482  1.2444  0.2405
  111TMC2    H2 1733   1.741   3.805  12.060  0.0838 -0.3400 -1.1615
  111TMC2    C7 1734   1.914   3.886  11.880 -0.2197 -0.7381  0.2233
  111TMC2    C8 1735   1.499   3.906  12.133  0.0440 -0.0480 -0.2942
  111TMC2    O1 1736   1.959   3.867  11.769  0.2862  0.3449 -1.2146
  111TMC2    O2 1737   1.388   3.869  12.114  0.0970  0.4530 -0.6500
  111TMC2    O5 1738   1.567   3.868  12.241 -0.0803  0.2302 -0.2315
  111TMC2    H5 1739   1.658   3.904  12.236  0.0130  0.0225  0.0158
  112MPD2     C 1740   1.100   4.333  11.540  0.2937  0.2606  0.0097
  112MPD2    C1 1741   1.231   4.354  11.502  0.1496 -0.1164 -0.0861
  112MPD2    C2 1742   1.326   4.280  11.561  0.0797 -0.6097 -0.0715
  112MPD2    C3 1743   1.297   4.193  11.661 -0.5083 -0.6319 -0.0084
  112MPD2    C4 1744   1.169   4.180  11.703  0.2456  0.5529 -0.4042
  112MPD2    C5 1745   1.067   4.242  11.641  0.4099 -0.1051  0.2204
  112MPD2     H 1746   1.430   4.287  11.531  0.3581  2.1467  1.4504
  112MPD2    H1 1747   1.144   4.118  11.789  2.2813  2.6053  1.6742
  112MPD2    H2 1748   1.020   4.384  11.487 -1.5309 -2.7796 -0.1960
  112MPD2    H3 1749   0.967   4.228  11.678  0.4015 -0.0081  0.2344
  112MPD2     N 1750   1.393   4.125  11.743 -0.3046  0.0430 -0.1174
  112MPD2    H5 1751   1.358   4.062  11.814  1.1476 -2.1253 -1.3038
  112MPD2    N1 1752   1.278   4.448  11.405  0.0242  0.8887  0.4442
  112MPD2    H7 1753   1.378   4.461  11.395  0.7396 -4.6196  0.6771
  113TMC2    C1 1754   0.302   1.922   0.555 -0.0012 -0.0865  0.0688
  113TMC2    C2 1755   0.259   2.054   0.527 -0.2755 -0.5202  0.6354
  113TMC2    C3 1756   0.143   2.059   0.455 -0.4910  0.0385 -0.5238
  113TMC2    C4 1757   0.242   1.806   0.523  0.3764  0.4762  0.2000
  113TMC2    C5 1758   0.118   1.822   0.462  0.3263 -0.3813 -0.3288
  113TMC2    C6 1759   0.076   1.949   0.414 -0.0611  0.0899  0.4305
  113TMC2     C 1760   0.434   1.920   0.621 -1.1500  0.1356 -0.1249
  113TMC2     O 1761   0.510   2.016   0.625 -0.5048 -0.1752 -0.4596
  113TMC2     H 1762   0.307   2.143   0.565  0.0679 -0.5724  0.3227
  113TMC2    H1 1763   0.274   1.708   0.555 -0.4971 -0.1222 -0.7371
  113TMC2    H2 1764   4.724   1.958   0.356  1.5849 -0.5551 -2.2378
  113TMC2    C7 1765   0.029   1.708   0.445  0.3113 -0.0131 -0.6289
  113TMC2    C8 1766   0.094   2.189   0.412  0.2572  0.3555 -0.1839
  113TMC2    O1 1767   4.681   1.732   0.364 -0.0820  0.4245  0.8839
  113TMC2    O2 1768   0.092   2.281   0.491  0.0763 -0.2605 -0.3247
  113TMC2    O5 1769   0.109   2.193   0.271  0.1241 -0.5770 -0.4795
  113TMC2    H5 1770   0.107   2.102   0.235 -2.4216 -0.8078  0.2019
  114MPD2     C 1771   0.795   1.653   0.865  0.0347  0.3702 -1.1941
  114MPD2    C1 1772   0.777   1.787   0.844  0.2017  0.2052  0.1035
  114MPD2    C2 1773   0.658   1.833   0.801  0.0153 -0.0309 -0.7367
  114MPD2    C3 1774   0.563   1.746   0.752  0.5619  0.1025 -0.3777
  114MPD2    C4 1775   0.581   1.612   0.767 -0.1445 -0.2501 -0.0560
  114MPD2    C5 1776   0.695   1.568   0.825  0.6843  0.7433 -0.2456
  114MPD2     H 1777   0.645   1.940   0.791 -1.2921 -0.0552  0.7390
  114MPD2    H1 1778   0.514   1.541   0.719 -1.0939  0.0992  0.7315
  114MPD2    H2 1779   0.890   1.619   0.905 -1.8729 -1.2334  1.9211
  114MPD2    H3 1780   0.709   1.460   0.832  1.0246  0.8099  0.0688
  114MPD2     N 1781   0.448   1.795   0.678  0.6606 -0.4083 -0.2806
  114MPD2    H5 1782   0.366   1.736   0.671  0.3323  0.0084  0.0269
  114MPD2    N1 1783   0.869   1.889   0.876  1.2239 -0.4184 -0.9179
  114MPD2    H7 1784   0.845   1.983   0.845 -1.3517 -1.8902 -3.4864
  115TMC2    C1 1785   1.578   4.404   0.104 -0.1462 -0.0081 -0.0786
  115TMC2    C2 1786   1.623   4.358  17.737 -0.0002  0.5235  0.0897
  115TMC2    C3 1787   1.645   4.447  17.638 -0.2583  0.2924 -0.0763
  115TMC2    C4 1788   1.542   4.536   0.135  0.3524 -0.5770 -0.4353
  115TMC2    C5 1789   1.556   4.618   0.023  0.0205 -0.1387  0.0855
  115TMC2    C6 1790   1.599   4.577  17.657  0.2759  0.3480 -0.4659
  115TMC2     C 1791   1.491   4.313   0.169  0.0737 -0.1159  0.1979
  115TMC2     O 1792   1.488   4.212   0.107 -0.2698  0.3502  0.1907
  115TMC2     H 1793   1.646   4.255  17.714  0.2523  0.2639  1.5090
  115TMC2    H1 1794   1.523   4.574   0.235 -3.7142 -0.8821 -1.1013
  115TMC2    H2 1795   1.584   4.639  17.569  4.1609  0.9439 -0.7185
  115TMC2    C7 1796   1.516   0.015   0.045 -0.3720 -0.0434 -0.9118
  115TMC2    C8 1797   1.670   4.385  17.505  0.4040  0.6389  0.1496
  115TMC2    O1 1798   1.458   0.037   0.151  0.4918  0.1925  0.1885
  115TMC2    O2 1799   1.694   4.262  17.499  0.1684 -0.0680 -0.1031
  115TMC2    O5 1800   1.758   4.472  17.447  0.5847  0.3219  0.7037
  115TMC2    H5 1801   1.760   4.568  17.464 -0.9904  0.7470 -1.5891
  116MPD2     C 1802   1.044   4.206   0.387 -0.0836  0.0312  0.1413
  116MPD2    C1 1803   1.117   4.133   0.294  0.3192 -0.5695 -0.5752
  116MPD2    C2 1804   1.243   4.171   0.258 -0.0781  0.4381  0.8127
  116MPD2    C3 1805   1.296   4.294   0.315 -0.4091  0.2418  0.3726
  116MPD2    C4 1806   1.220   4.361   0.406 -0.2076  0.0435 -0.6466
  116MPD2    C5 1807   1.094   4.316   0.447  0.1726 -0.5899  0.6407
  116MPD2     H 1808   1.301   4.098   0.202 -0.3181 -0.8061  2.2044
  116MPD2    H1 1809   1.262   4.451   0.449  1.2837 -2.6480  3.5269
  116MPD2    H2 1810   0.950   4.158   0.412 -0.8942  1.2311 -0.6320
  116MPD2    H3 1811   1.038   4.371   0.522 -0.2534  0.1137 -0.2071
  116MPD2     N 1812   1.411   4.358   0.265  0.6195  0.2199  1.0167
  116MPD2    H5 1813   1.424   4.454   0.294  1.8853  0.6860 -1.1546
  116MPD2    N1 1814   1.056   4.015   0.249  0.7021 -0.1471  0.1002
  116MPD2    H7 1815   0.961   4.003   0.283  0.5438  1.3984  0.1903
  117TMC2    C1 1816   4.468   1.118  14.253 -0.0770  0.3236  0.2254
  117TMC2    C2 1817   4.597   1.087  14.286  0.3658  0.1868  0.9471
  117TMC2    C3 1818   4.667   1.168  14.374 -0.8517  0.2965 -0.5705
  117TMC2    C4 1819   4.411   1.235  14.296 -0.5845  0.2816  0.5212
  117TMC2    C5 1820   4.483   1.320  14.372 -0.0083  0.0703  0.2901
  117TMC2    C6 1821   4.607   1.285  14.421 -0.2201  0.3326  1.0544
  117TMC2     C 1822   4.407   1.030  14.162 -0.0681  0.7729 -0.3324
  117TMC2     O 1823   4.470   0.937  14.116 -0.0255  0.5668  0.1146
  117TMC2     H 1824   4.637   1.001  14.233 -0.3498 -0.4815  1.4917
  117TMC2    H1 1825   4.313   1.265  14.263  0.0414  1.6645 -0.0666
  117TMC2    H2 1826   4.663   1.347  14.490 -0.6025  2.2213 -0.3532
  117TMC2    C7 1827   4.447   1.463  14.395 -0.6712  0.3626 -0.0876
  117TMC2    C8 1828   0.068   1.169  14.383  0.1319  0.4971  0.3246
  117TMC2    O1 1829   4.521   1.520  14.478 -0.0021  0.5705 -0.4545
  117TMC2    O2 1830   0.130   1.197  14.485  0.6363  0.3494  0.7872
  117TMC2    O5 1831   0.114   1.135  14.255  0.3332 -0.0225  0.2387
  117TMC2    H5 1832   0.046   1.154  14.187  0.0380 -2.6387 -0.1716
  118MPD2     C 1833   4.167   1.661  14.250  0.3685 -0.0542  0.3975
  118MPD2    C1 1834   4.298   1.640  14.305  0.1309  0.4047 -0.4127
  118MPD2    C2 1835   4.371   1.746  14.345  0.6145 -1.2506 -0.5349
  118MPD2    C3 1836   4.331   1.878  14.314 -0.3473  0.7579 -0.2171
  118MPD2    C4 1837   4.203   1.899  14.263  0.1368 -0.2036 -0.2541
  118MPD2    C5 1838   4.127   1.787  14.229  0.3283  0.2826  0.1117
  118MPD2     H 1839   4.475   1.731  14.374  0.5175 -0.2442  0.3567
  118MPD2    H1 1840   4.155   1.996  14.269  0.2821 -0.2450  1.6460
  118MPD2    H2 1841   4.094   1.584  14.230 -0.7791  1.1315 -0.0002
  118MPD2    H3 1842   4.027   1.813  14.198 -0.1970 -1.2303  0.5585
  118MPD2     N 1843   4.401   1.984  14.356  0.0689  0.6706  0.5813
  118MPD2    H5 1844   4.350   2.072  14.355 -1.8106 -0.4214  0.1608
  118MPD2    N1 1845   4.340   1.505  14.321 -0.8006 -0.3363  0.7445
  118MPD2    H7 1846   4.291   1.439  14.262  0.2392 -1.3706  1.0348
  119TMC2    C1 1847   2.411   1.866  13.326  0.3160 -0.2274 -0.5099
  119TMC2    C2 1848   2.401   1.814  13.200  0.1363  0.1040 -0.3769
  119TMC2    C3 1849   2.280   1.784  13.156  0.7569  0.0051  0.0431
  119TMC2    C4 1850   2.306   1.873  13.413 -0.9052 -0.2396  0.3983
  119TMC2    C5 1851   2.184   1.831  13.367 -0.3168  0.1431 -0.9394
  119TMC2    C6 1852   2.168   1.812  13.229 -0.4406  0.1612  0.2826
  119TMC2     C 1853   2.472   1.998  13.332 -0.2165  0.2029  0.3773
  119TMC2     O 1854   2.413   2.091  13.383 -0.3232 -0.3431 -0.0129
  119TMC2     H 1855   2.488   1.800  13.137  0.2947  1.4328 -0.4496
  119TMC2    H1 1856   2.316   1.914  13.513 -1.6463 -0.4075  0.5374
  119TMC2    H2 1857   2.070   1.788  13.189  0.1031 -0.8714 -0.4081
  119TMC2    C7 1858   2.055   1.875  13.438  0.6269  0.2477 -0.1373
  119TMC2    C8 1859   2.265   1.706  13.036  0.0823  0.3688 -0.6664
  119TMC2    O1 1860   1.959   1.892  13.364  0.5845  0.1455  0.4367
  119TMC2    O2 1861   2.338   1.716  12.938  0.3123 -0.4876  0.0692
  119TMC2    O5 1862   2.171   1.605  13.052  0.3649 -0.2695  0.5735
  119TMC2    H5 1863   2.121   1.592  13.136 -2.0256 -2.9068 -1.2659
  120MPD2     C 1864   2.880   2.306  13.264 -0.2556 -0.4236  0.1749
  120MPD2    C1 1865   2.753   2.331  13.312  0.3809 -0.5280 -0.1219
  120MPD2    C2 1866   2.658   2.227  13.311 -0.5931 -0.1356  0.0406
  120MPD2    C3 1867   2.681   2.105  13.258  0.6468  0.0573  0.2828
  120MPD2    C4 1868   2.808   2.083  13.198  0.4040  0.0860  0.1153
  120MPD2    C5 1869   2.902   2.178  13.211  0.5894 -0.4024 -0.4027
  120MPD2     H 1870   2.557   2.256  13.337 -0.0886  1.2626  0.4535
  120MPD2    H1 1871   2.835   1.987  13.155  1.3764  0.3492  0.1465
  120MPD2    H2 1872   2.951   2.388  13.264 -0.5857 -0.1408 -2.0213
  120MPD2    H3 1873   3.004   2.157  13.181  1.0139  2.2242 -0.8478
  120MPD2     N 1874   2.597   1.996  13.273 -0.1760 -0.6776 -0.1703
  120MPD2    H5 1875   2.630   1.906  13.239  0.1839 -0.3032 -0.8043
  120MPD2    N1 1876   2.721   2.462  13.358 -0.1483  0.7486  0.4321
  120MPD2    H7 1877   2.803   2.523  13.366 -0.4388  1.6896 -3.5509
  121TMC2    C1 1878   4.437   4.307  14.475 -0.1411  0.8073 -0.6619
  121TMC2    C2 1879   4.373   4.427  14.476  0.2950  1.2593  0.0096
  121TMC2    C3 1880   4.248   4.438  14.528  0.6071  0.3290  0.0318
  121TMC2    C4 1881   4.375   4.194  14.510 -0.1887  0.4179  0.3941
  121TMC2    C5 1882   4.248   4.205  14.566  0.7523 -0.1863  0.0963
  121TMC2    C6 1883   4.190   4.326  14.587  0.0458  0.5068  0.1291
  121TMC2     C 1884   4.541   4.284  14.379  0.5636  0.3090  0.1642
  121TMC2     O 1885   4.635   4.207  14.390  0.0789  0.0010  0.0797
  121TMC2     H 1886   4.421   4.516  14.438  2.3445  1.2056  2.4045
  121TMC2    H1 1887   4.409   4.094  14.485 -0.6025 -0.5214  3.5580
  121TMC2    H2 1888   4.093   4.324  14.635  0.2482 -0.3821  0.5068
  121TMC2    C7 1889   4.167   4.087  14.560 -0.5923 -0.4534 -0.4335
  121TMC2    C8 1890   4.223   4.574  14.579 -0.4455  0.2909 -0.3552
  121TMC2    O1 1891   4.223   3.979  14.550 -0.4681 -0.7557  0.0975
  121TMC2    O2 1892   4.314   4.651  14.600  0.1393  0.0860  0.1806
  121TMC2    O5 1893   4.107   4.568  14.643  0.0524 -0.3502 -0.1845
  121TMC2    H5 1894   4.046   4.502  14.604 -0.3526 -0.7118  1.0497
  122MPD2     C 1895   4.720   4.338  14.153  0.3941  0.6975 -1.1879
  122MPD2    C1 1896   4.588   4.368  14.151  0.0194 -0.4419 -0.2707
  122MPD2    C2 1897   4.528   4.391  14.031 -0.4307  0.1918  0.2520
  122MPD2    C3 1898   4.606   4.394  13.916  0.5525  0.2178 -0.3197
  122MPD2    C4 1899   4.738   4.361  13.922 -1.1796  0.0191 -0.0264
  122MPD2    C5 1900   0.059   4.337  14.042  0.0045  0.2042  0.7703
  122MPD2     H 1901   4.424   4.418  14.026 -0.7223 -0.7194  1.2348
  122MPD2    H1 1902   0.063   4.361  13.835  0.5783  0.1430  1.3002
  122MPD2    H2 1903   0.041   4.344  14.242 -1.9082 -2.8853  0.6474
  122MPD2    H3 1904   0.167   4.326  14.045 -0.1528 -1.5704  0.0103
  122MPD2     N 1905   4.546   4.427  13.791 -0.0766 -0.0264  0.0402
  122MPD2    H5 1906   4.598   4.418  13.705  0.7702  0.9300  0.4541
  122MPD2    N1 1907   4.498   4.351  14.265 -1.1031 -0.4969 -0.3384
  122MPD2    H7 1908   4.403   4.385  14.253 -1.8683 -1.9950  1.7256
  123TMC2    C1 1909   1.934   2.883  10.690  0.2318 -0.2125 -0.0671
  123TMC2    C2 1910   2.027   2.984  10.713  0.0746  0.0413 -0.3938
  123TMC2    C3 1911   2.031   3.084  10.618 -0.2914  0.4102  0.3766
  123TMC2    C4 1912   1.845   2.875  10.586  0.4827 -0.0904  0.4161
  123TMC2    C5 1913   1.853   2.984  10.501  0.6712 -0.2252  0.0088
  123TMC2    C6 1914   1.946   3.088  10.515 -0.3646  0.1998  0.4429
  123TMC2     C 1915   1.935   2.774  10.792 -0.2625  0.1752 -0.5373
  123TMC2     O 1916   2.017   2.771  10.882 -0.3228  0.2075  0.0655
  123TMC2     H 1917   2.095   2.987  10.798 -0.2759 -0.0847 -0.1106
  123TMC2    H1 1918   1.780   2.790  10.569  0.0688  0.1080  1.0186
  123TMC2    H2 1919   1.939   3.178  10.455  0.6630 -1.2013 -1.7738
  123TMC2    C7 1920   1.773   2.974  10.384 -0.8747 -0.2033 -0.0894
  123TMC2    C8 1921   2.095   3.208  10.659 -0.4995 -0.2455  0.0043
  123TMC2    O1 1922   1.677   2.898  10.387 -0.6879  0.4211  0.3219
  123TMC2    O2 1923   2.045   3.320  10.646  0.0918  0.1327  0.6990
  123TMC2    O5 1924   2.218   3.185  10.691 -0.2719 -0.3759  0.0887
  123TMC2    H5 1925   2.252   3.094  10.683  2.3515  0.3422  3.3249
  124MPD2     C 1926   1.713   2.347  10.964 -0.0859  0.7101 -0.8770
  124MPD2    C1 1927   1.633   2.393  10.861  0.1137  0.6355 -0.1644
  124MPD2    C2 1928   1.664   2.511  10.795 -0.0712 -0.1635 -0.2898
  124MPD2    C3 1929   1.774   2.582  10.841 -0.2031 -0.0383 -0.6867
  124MPD2    C4 1930   1.844   2.540  10.950 -0.7268 -0.7775 -0.1637
  124MPD2    C5 1931   1.810   2.424  11.010  0.1492 -0.0676  1.2132
  124MPD2     H 1932   1.605   2.552  10.714 -3.2295 -1.0220  1.5646
  124MPD2    H1 1933   1.926   2.597  10.991 -0.1476 -0.5716 -1.6054
  124MPD2    H2 1934   1.695   2.251  11.011  1.4407  1.3332  1.0025
  124MPD2    H3 1935   1.866   2.387  11.096 -0.6336 -0.3726  1.5931
  124MPD2     N 1936   1.827   2.693  10.769 -0.5192  0.3183 -0.1029
  124MPD2    H5 1937   1.771   2.717  10.687  0.3964  0.2214 -0.7585
  124MPD2    N1 1938   1.531   2.307  10.815 -1.2008 -0.0769  0.3575
  124MPD2    H7 1939   1.510   2.228  10.876  0.2034  0.4168  1.4616
  125TMC2    C1 1940   2.494   4.516   9.431  0.1929 -0.9241 -0.4583
  125TMC2    C2 1941   2.429   4.482   9.315  0.1821  0.1419 -0.3869
  125TMC2    C3 1942   2.454   4.559   9.204 -0.8649  0.0172  0.3403
  125TMC2    C4 1943   2.591   4.609   9.431  0.1400  0.1899  0.1216
  125TMC2    C5 1944   2.605   4.690   9.319  0.3193  0.3455  0.3650
  125TMC2    C6 1945   2.534   4.668   9.205  0.0728 -0.0926  0.6136
  125TMC2     C 1946   2.454   4.424   9.537  0.1647  0.2704 -0.3059
  125TMC2     O 1947   2.402   4.318   9.505  0.3811  0.5565 -0.2708
  125TMC2     H 1948   2.361   4.397   9.304 -0.6427  1.0173 -2.1510
  125TMC2    H1 1949   2.648   4.619   9.523 -0.6610 -1.2187  0.7725
  125TMC2    H2 1950   2.558   4.731   9.120 -0.1966  0.6490  1.0843
  125TMC2    C7 1951   2.720   0.034   9.324 -0.1335 -0.1000 -0.0166
  125TMC2    C8 1952   2.405   4.520   9.074 -0.2548 -0.0410 -0.0034
  125TMC2    O1 1953   2.768   0.056   9.432  0.1159 -0.1951  0.1151
  125TMC2    O2 1954   2.466   4.569   8.983 -0.0016  0.8985  0.5461
  125TMC2    O5 1955   2.275   4.489   9.065 -0.3194 -0.0237  0.3451
  125TMC2    H5 1956   2.233   4.470   9.151  0.3653 -1.4329  0.3630
  126MPD1     C 1957   2.564   4.255  10.003  0.3717  0.0827 -0.0895
  126MPD1    C1 1958   2.601   4.391   9.999 -0.6399  0.3506  0.2360
  126MPD1    C2 1959   2.572   4.460   9.885 -0.5818 -0.2557  0.5050
  126MPD1    C3 1960   2.522   4.393   9.772 -0.5610 -0.1199 -0.8377
  126MPD1    C4 1961   2.493   4.254   9.780  0.3808  0.1754 -0.4120
  126MPD1    C5 1962   2.505   4.187   9.896  0.4195 -0.5965  0.3139
  126MPD1     H 1963   2.591   4.566   9.873  0.8344 -0.8237 -2.2451
  126MPD1    H1 1964   2.469   4.199   9.689 -1.6371  1.0120 -0.3919
  126MPD1    H2 1965   2.577   4.208  10.100  1.1441 -0.1185 -0.2897
  126MPD1    H3 1966   2.480   4.083   9.911 -0.7425 -0.4093 -0.3589
  126MPD1     N 1967   2.501   4.470   9.658 -0.1458  0.1796 -0.1002
  126MPD1    H5 1968   2.530   4.567   9.665 -0.1596  0.3052 -1.9468
  126MPD1    N1 1969   2.616   4.467  10.115 -0.5004 -0.2457 -0.1009
  126MPD1    H6 1970   2.649   4.406  10.189  1.6830  0.7319 -0.2737
  126MPD1    H7 1971   2.676   4.547  10.097 -0.5980  0.1400  1.3280
  127TMC2    C1 1972   3.564   3.522   9.623  0.0353  0.5987 -0.5672
  127TMC2    C2 1973   3.667   3.479   9.705 -0.3090  0.0004  0.6295
  127TMC2    C3 1974   3.638   3.376   9.788 -0.3236  1.2160  0.2150
  127TMC2    C4 1975   3.439   3.452   9.619  0.2955 -0.5546 -0.0148
  127TMC2    C5 1976   3.419   3.347   9.711 -0.2000 -0.5952 -0.2344
  127TMC2    C6 1977   3.517   3.318   9.806  0.4035  0.3830 -0.4479
  127TMC2     C 1978   3.595   3.619   9.523 -0.3320  0.1196  0.1031
  127TMC2     O 1979   3.716   3.643   9.510 -0.8321  0.5062 -0.1876
  127TMC2     H 1980   3.770   3.513   9.703 -0.2500 -0.2563 -0.3797
  127TMC2    H1 1981   3.371   3.481   9.540 -0.7493  0.9543  1.4674
  127TMC2    H2 1982   3.506   3.221   9.852  2.4482  0.1007 -0.5771
  127TMC2    C7 1983   3.287   3.275   9.711  0.0102 -0.8507 -0.5579
  127TMC2    C8 1984   3.736   3.359   9.902  0.8374 -0.3287 -0.5809
  127TMC2    O1 1985   3.221   3.276   9.606 -0.2560  0.5348 -0.3218
  127TMC2    O2 1986   3.853   3.384   9.887  0.1154 -0.0086 -0.4543
  127TMC2    O5 1987   3.667   3.350  10.018 -1.0569  0.0795 -0.4408
  127TMC2    H5 1988   3.570   3.358  10.007 -0.6645  1.1718 -3.0864
  128MPD2     C 1989   3.366   3.792   9.288 -0.2914  0.2706  0.3322
  128MPD2    C1 1990   3.485   3.775   9.358  0.5770  0.2634 -0.5962
  128MPD2    C2 1991   3.596   3.849   9.326 -0.2545 -0.0878  0.2397
  128MPD2    C3 1992   3.593   3.950   9.230  0.2960 -0.6559 -0.1540
  128MPD2    C4 1993   3.470   3.961   9.166 -0.0145  0.4176  0.1008
  128MPD2    C5 1994   3.356   3.886   9.197  0.4751  0.0201  0.1140
  128MPD2     H 1995   3.686   3.836   9.386 -3.3413  0.9031  5.0900
  128MPD2    H1 1996   3.453   4.040   9.095  1.2869 -0.0392 -0.7201
  128MPD2    H2 1997   3.287   3.717   9.290 -0.6741  0.6257 -1.3010
  128MPD2    H3 1998   3.269   3.905   9.135  0.2331  0.9127  0.7379
  128MPD2     N 1999   3.709   4.036   9.206  0.4118 -0.3810 -0.7269
  128MPD2    H5 2000   3.793   4.021   9.260  0.1407  1.9761  0.3624
  128MPD2    N1 2001   3.484   3.673   9.456  0.3931  0.3046 -0.4753
  128MPD2    H7 2002   3.395   3.634   9.485  0.0626  0.8138 -0.8281
  129TMC2    C1 2003   2.315   4.073   1.883  0.3951 -0.0039 -0.0480
  129TMC2    C2 2004   2.306   4.112   2.012  0.3407  0.4079 -0.3941
  129TMC2    C3 2005   2.395   4.057   2.100 -0.3357  0.0159 -0.2047
  129TMC2    C4 2006   2.405   3.980   1.839  0.1268 -0.5087  0.3551
  129TMC2    C5 2007   2.494   3.932   1.937  0.2078 -0.6265  0.2333
  129TMC2    C6 2008   2.484   3.959   2.068  0.2470  0.1085  0.1823
  129TMC2     C 2009   2.227   4.128   1.784 -0.7951 -0.5118 -0.1478
  129TMC2     O 2010   2.109   4.147   1.814  0.1606 -0.2236 -0.3625
  129TMC2     H 2011   2.225   4.178   2.041 -0.7299 -0.8400 -0.5105
  129TMC2    H1 2012   2.413   3.943   1.738 -2.8314 -0.0980 -0.0318
  129TMC2    H2 2013   2.541   3.903   2.140 -1.4766  0.8314  2.1287
  129TMC2    C7 2014   2.515   3.789   1.911  0.1077 -0.1314 -0.2701
  129TMC2    C8 2015   2.364   4.071   2.243  0.1587 -0.0832  0.9457
  129TMC2    O1 2016   2.421   3.723   1.869 -0.3212  0.0302 -0.0168
  129TMC2    O2 2017   2.345   3.978   2.322 -0.4353  0.6643 -0.2276
  129TMC2    O5 2018   2.368   4.204   2.273  0.0594 -0.3786 -0.2958
  129TMC2    H5 2019   2.389   4.255   2.192  0.2726 -0.7441 -0.4771
  130MPD2     C 2020   2.090   4.227   1.526 -1.1508  0.5826 -0.1167
  130MPD2    C1 2021   2.229   4.232   1.554  0.4255 -0.3368 -0.5956
  130MPD2    C2 2022   2.313   4.290   1.460  0.3103  0.4784  0.8273
  130MPD2    C3 2023   2.258   4.351   1.348  1.2257 -0.2554 -0.7002
  130MPD2    C4 2024   2.121   4.354   1.332 -0.2343  0.9866 -0.0811
  130MPD2    C5 2025   2.039   4.302   1.421 -0.0423  0.2659  0.7458
  130MPD2     H 2026   2.419   4.291   1.480  0.2664 -0.7920  1.1481
  130MPD2    H1 2027   2.073   4.389   1.241 -1.9951  0.4638  0.6468
  130MPD2    H2 2028   2.018   4.175   1.588 -2.1527  0.1540 -1.6361
  130MPD2    H3 2029   1.933   4.309   1.401 -0.5581 -2.7595  2.4461
  130MPD2     N 2030   2.330   4.410   1.246 -0.0732  0.1297  0.3638
  130MPD2    H5 2031   2.283   4.472   1.179  1.2842  0.4063 -0.3356
  130MPD2    N1 2032   2.292   4.166   1.665 -0.4700 -0.1268  0.4301
  130MPD2    H7 2033   2.394   4.168   1.658 -0.6716  1.2024 -2.2509
  131TMC2    C1 2034   1.368   2.921  10.113  0.1558  0.2361 -0.1225
  131TMC2    C2 2035   1.426   3.001  10.203  0.4503  0.3750  0.4007
  131TMC2    C3 2036   1.501   3.111  10.160 -0.5235  0.6143 -0.8949
  131TMC2    C4 2037   1.350   2.954   9.981 -0.7634  0.2757  0.3133
  131TMC2    C5 2038   1.423   3.063   9.938  0.4413  0.3665 -0.1750
  131TMC2    C6 2039   1.498   3.139  10.025  0.9533 -0.5247  0.0596
  131TMC2     C 2040   1.303   2.803  10.161  0.1102  0.1464 -0.4063
  131TMC2     O 2041   1.325   2.770  10.276 -0.6027 -0.4639 -0.1219
  131TMC2     H 2042   1.436   2.969  10.306 -0.2837  0.2330  0.4277
  131TMC2    H1 2043   1.293   2.899   9.907  0.3145  0.6264 -0.7804
  131TMC2    H2 2044   1.572   3.212   9.993 -0.7799  0.2169 -2.2259
  131TMC2    C7 2045   1.443   3.071   9.797  0.1663 -0.9837 -0.5014
  131TMC2    C8 2046   1.566   3.211  10.231  0.6950  0.3213 -0.5073
  131TMC2    O1 2047   1.392   2.987   9.723  0.1026  0.0461  0.7240
  131TMC2    O2 2048   1.650   3.292  10.194  0.3612 -0.3207  0.1082
  131TMC2    O5 2049   1.504   3.217  10.350 -0.3252 -0.8317  0.3348
  131TMC2    H5 2050   1.432   3.151  10.357  0.5892 -1.7512  1.1100
  132MPD2     C 2051   1.101   2.540   9.987  0.1914  0.2124 -0.2201
  132MPD2    C1 2052   1.183   2.595  10.085  0.4506  0.5709  0.2857
  132MPD2    C2 2053   1.220   2.513  10.196 -0.0030 -0.2659  0.2766
  132MPD2    C3 2054   1.176   2.383  10.209  0.2340 -0.3444 -0.4872
  132MPD2    C4 2055   1.094   2.330  10.110  0.4691 -0.5026 -0.0832
  132MPD2    C5 2056   1.069   2.412  10.003  0.1241 -0.3735  0.0538
  132MPD2     H 2057   1.281   2.553  10.276 -0.3836 -1.8888  1.3808
  132MPD2    H1 2058   1.063   2.226  10.110  0.0285 -0.3659 -1.6410
  132MPD2    H2 2059   1.064   2.593   9.900 -0.7944  0.2346  0.2143
  132MPD2    H3 2060   1.012   2.373   9.920 -1.8746  0.7538  0.8884
  132MPD2     N 2061   1.216   2.316  10.328 -0.1333 -0.1122  0.0923
  132MPD2    H5 2062   1.267   2.368  10.398  1.3149  2.3089 -2.7793
  132MPD2    N1 2063   1.226   2.733  10.065  0.3334  0.0657  0.8773
  132MPD2    H7 2064   1.224   2.771   9.971 -0.5081 -0.3117  0.7440
  133TMC2    C1 2065   1.514   4.207   9.568 -0.1035  0.1033  0.1763
  133TMC2    C2 2066   1.624   4.118   9.565  0.0038 -0.7687  0.0334
  133TMC2    C3 2067   1.747   4.153   9.628  0.4545  0.5941  0.5046
  133TMC2    C4 2068   1.524   4.319   9.642  0.0263 -0.0099 -0.4273
  133TMC2    C5 2069   1.642   4.342   9.708 -0.1085 -0.6811  0.2923
  133TMC2    C6 2070   1.749   4.257   9.709 -0.4095  0.2348 -0.2279
  133TMC2     C 2071   1.382   4.166   9.525 -0.9175  0.4704 -0.4315
  133TMC2     O 2072   1.350   4.044   9.518  0.5723  0.0460 -0.0141
  133TMC2     H 2073   1.612   4.021   9.516 -2.1650  1.1858 -3.2918
  133TMC2    H1 2074   1.440   4.385   9.659 -0.5839 -0.5793 -1.2371
  133TMC2    H2 2075   1.838   4.297   9.757  0.7267 -1.0864 -1.2200
  133TMC2    C7 2076   1.662   4.475   9.752 -0.3939  0.1690 -0.4078
  133TMC2    C8 2077   1.811   4.032   9.666  0.6014 -0.4075  0.5428
  133TMC2    O1 2078   1.596   4.563   9.699 -0.3292 -0.8615 -0.3872
  133TMC2    O2 2079   1.782   3.917   9.632  0.0926  0.5276  0.1141
  133TMC2    O5 2080   1.903   4.061   9.758 -0.2231  0.1360 -0.1718
  133TMC2    H5 2081   1.920   4.155   9.778 -3.1488  0.4926  0.5106
  134MPD2     C 2082   1.114   4.405   9.444  0.1044  0.0785  0.2484
  134MPD2    C1 2083   1.163   4.277   9.472 -0.7790  0.1215  0.7939
  134MPD2    C2 2084   1.077   4.172   9.474 -0.1609 -0.5744 -0.2059
  134MPD2    C3 2085   0.941   4.200   9.455 -0.4656  0.2307 -0.4080
  134MPD2    C4 2086   0.895   4.331   9.438  0.1041  0.2481 -0.1929
  134MPD2    C5 2087   0.981   4.437   9.433  0.7083  0.3869 -0.0282
  134MPD2     H 2088   1.115   4.075   9.505 -0.3434 -0.5444  0.1099
  134MPD2    H1 2089   0.791   4.357   9.427 -0.5713 -1.4195  2.1623
  134MPD2    H2 2090   1.192   4.480   9.438 -0.8668  1.0581 -0.2190
  134MPD2    H3 2091   0.946   4.540   9.427 -2.1698 -0.5659  0.4885
  134MPD2     N 2092   0.847   4.101   9.457 -0.0595  0.3355  0.2341
  134MPD2    H5 2093   0.752   4.135   9.453 -0.5362 -0.9177  0.8465
  134MPD2    N1 2094   1.307   4.277   9.497 -0.4968  0.3414 -0.8456
  134MPD2    H7 2095   1.354   4.367   9.487  0.6962 -0.4240 -2.0236
  135TMC2    C1 2096   2.941   0.483   9.050  0.1082  0.0194  0.0820
  135TMC2    C2 2097   3.021   0.463   9.163  0.0042 -0.0223  0.5565
  135TMC2    C3 2098   2.954   0.432   9.283  0.3849 -0.3577 -0.3574
  135TMC2    C4 2099   2.806   0.455   9.047 -0.0432 -0.1502 -0.3712
  135TMC2    C5 2100   2.758   0.413   9.169 -0.0046  0.3920 -0.3957
  135TMC2    C6 2101   2.826   0.402   9.289  0.1558  0.3743  0.7572
  135TMC2     C 2102   2.997   0.553   8.933  0.4856 -0.6098 -0.2980
  135TMC2     O 2103   2.909   0.585   8.857 -0.0205  0.3426 -0.0737
  135TMC2     H 2104   3.124   0.496   9.172  0.7600 -2.3370  0.3533
  135TMC2    H1 2105   2.746   0.461   8.957  0.4501 -2.1151 -0.8310
  135TMC2    H2 2106   2.785   0.342   9.370 -0.5979  1.1843  0.9730
  135TMC2    C7 2107   2.635   0.336   9.156 -0.1286  0.3619 -0.3402
  135TMC2    C8 2108   3.046   0.422   9.403  0.6139 -0.1561  0.0123
  135TMC2    O1 2109   2.619   0.292   9.043 -0.3596  0.2348 -0.6846
  135TMC2    O2 2110   3.163   0.382   9.403 -0.7896  0.4765  0.0290
  135TMC2    O5 2111   2.976   0.473   9.511 -0.0386 -0.5596 -0.0578
  135TMC2    H5 2112   2.902   0.535   9.494 -0.8379 -1.4396  0.2454
  136MPD2     C 2113   3.144   0.692   8.720 -0.3962  0.0838 -0.3669
  136MPD2    C1 2114   3.203   0.608   8.809  0.6124 -0.3663  0.3582
  136MPD2    C2 2115   3.339   0.580   8.787  0.0214 -0.3289  0.3484
  136MPD2    C3 2116   3.412   0.626   8.679 -0.5912 -0.0995  0.2512
  136MPD2    C4 2117   3.344   0.695   8.585 -0.2558 -0.6868  0.3665
  136MPD2    C5 2118   3.209   0.735   8.606 -0.1431  0.3423  0.2967
  136MPD2     H 2119   3.382   0.518   8.865  5.6513  1.6944 -1.1665
  136MPD2    H1 2120   3.387   0.733   8.493  1.5326 -2.3152  0.5430
  136MPD2    H2 2121   3.040   0.718   8.737 -0.8113  0.0561 -2.9613
  136MPD2    H3 2122   3.169   0.804   8.532 -0.9807 -1.3520 -0.8608
  136MPD2     N 2123   3.549   0.596   8.652  0.9048 -0.0374  0.5141
  136MPD2    H5 2124   3.590   0.639   8.570  0.3862  0.2049  0.3839
  136MPD2    N1 2125   3.132   0.550   8.916  0.5870  0.2139 -0.0536
  136MPD2    H7 2126   3.179   0.492   8.984 -2.8656 -1.8386  0.6237
  137TMC2    C1 2127   2.871   4.411   9.250 -0.1735  0.2260 -0.4410
  137TMC2    C2 2128   2.946   4.482   9.156  0.2386  0.5259  0.1497
  137TMC2    C3 2129   2.910   4.467   9.029  0.1690 -0.0108 -1.0906
  137TMC2    C4 2130   2.756   4.339   9.216  0.4284  0.1682  0.3747
  137TMC2    C5 2131   2.727   4.336   9.079  0.0424 -0.5158  1.0200
  137TMC2    C6 2132   2.799   4.407   8.989  0.8293 -0.0535 -0.4871
  137TMC2     C 2133   2.912   4.424   9.394  0.3293 -0.1284  0.1330
  137TMC2     O 2134   2.974   4.518   9.430  0.2753  0.1525 -0.4539
  137TMC2     H 2135   3.032   4.542   9.181  0.7163 -1.3563  3.0307
  137TMC2    H1 2136   2.696   4.281   9.285 -1.0574  1.5779  0.2649
  137TMC2    H2 2137   2.785   4.376   8.886 -0.7480 -2.8134  0.5584
  137TMC2    C7 2138   2.605   4.263   9.032  0.5140  0.5749  0.5137
  137TMC2    C8 2139   3.001   4.515   8.935  0.0119 -0.5034 -0.9039
  137TMC2    O1 2140   2.575   4.291   8.918  0.1271 -0.0648 -0.1923
  137TMC2    O2 2141   3.121   4.522   8.958  0.2276 -0.5297 -0.1697
  137TMC2    O5 2142   2.929   4.576   8.838  0.1368 -0.4571 -0.0064
  137TMC2    H5 2143   2.832   4.585   8.846  0.0935  0.6756 -1.6553
  138MPD2     C 2144   2.825   4.215   9.689 -0.1079  0.7050  0.5010
  138MPD2    C1 2145   2.877   4.324   9.618 -0.2855 -0.3452  0.4067
  138MPD2    C2 2146   2.946   4.417   9.692  0.1681  0.1546 -0.6315
  138MPD2    C3 2147   2.953   4.412   9.829 -0.8511  0.3859  0.0134
  138MPD2    C4 2148   2.901   4.302   9.891 -0.5317 -0.1748 -0.1585
  138MPD2    C5 2149   2.835   4.203   9.826  0.5501 -0.5122 -0.4981
  138MPD2     H 2150   2.991   4.507   9.653 -0.4727  0.2670 -1.1181
  138MPD2    H1 2151   2.901   4.286   9.998 -0.2609  1.0097  0.0189
  138MPD2    H2 2152   2.763   4.141   9.638  2.1876 -1.4929  0.9249
  138MPD2    H3 2153   2.788   4.121   9.879 -1.0255  0.3608 -0.5447
  138MPD2     N 2154   3.025   4.516   9.896  0.1235 -0.4010 -0.0240
  138MPD2    H5 2155   3.037   4.595   9.833  2.0343 -0.9074 -0.2872
  138MPD2    N1 2156   2.855   4.327   9.478  0.1084 -0.6955 -0.2680
  138MPD2    H7 2157   2.797   4.255   9.435 -0.9943  1.2825 -2.0806
  139TMC2    C1 2158   4.387   2.158  13.290 -0.8991 -0.8266 -0.0169
  139TMC2    C2 2159   4.408   2.174  13.161 -0.4619  0.0733 -0.2474
  139TMC2    C3 2160   4.361   2.298  13.109  0.4007  0.6503  0.3897
  139TMC2    C4 2161   4.304   2.241  13.365 -0.2939  0.6281 -0.2038
  139TMC2    C5 2162   4.260   2.355  13.303 -0.2220 -0.5048  0.2011
  139TMC2    C6 2163   4.272   2.378  13.172  0.0189  0.2263 -0.1451
  139TMC2     C 2164   4.460   2.046  13.348 -0.4844 -0.0938 -0.5664
  139TMC2     O 2165   4.540   1.990  13.275 -0.0964 -0.0463 -0.1034
  139TMC2     H 2166   4.475   2.109  13.107 -1.3216 -1.5933  0.6703
  139TMC2    H1 2167   4.299   2.224  13.472  1.3282  1.1807 -0.0425
  139TMC2    H2 2168   4.241   2.469  13.122 -2.0232 -0.3129  0.1508
  139TMC2    C7 2169   4.162   2.445  13.371 -0.4818  0.3757  0.1096
  139TMC2    C8 2170   4.386   2.328  12.975  1.3254  0.2923 -0.6132
  139TMC2    O1 2171   4.103   2.526  13.305  0.0024  0.2016  0.0760
  139TMC2    O2 2172   4.298   2.369  12.900 -0.1798 -0.5172 -0.3878
  139TMC2    O5 2173   4.500   2.264  12.938 -0.6302  0.5519  0.1629
  139TMC2    H5 2174   4.565   2.258  13.012 -0.8877  3.5377  0.6296
  140MPD2     C 2175   4.478   1.902  13.679 -0.7901 -0.3527 -0.4952
  140MPD2    C1 2176   4.474   1.900  13.538  0.5129  0.7165  0.1644
  140MPD2    C2 2177   4.500   1.782  13.467 -0.9754 -0.2090 -0.0603
  140MPD2    C3 2178   4.529   1.665  13.530  0.5086  0.4712 -0.7871
  140MPD2    C4 2179   4.523   1.667  13.664  0.1413  0.2276  0.3481
  140MPD2    C5 2180   4.505   1.782  13.737  0.1180  0.2658  0.5819
  140MPD2     H 2181   4.484   1.778  13.360  0.3576  0.9865 -0.3001
  140MPD2    H1 2182   4.537   1.575  13.720 -2.5447  0.4689  1.4140
  140MPD2    H2 2183   4.461   1.989  13.741  1.9592 -0.0170 -0.1964
  140MPD2    H3 2184   4.503   1.777  13.845  0.9961  1.0565  0.6416
  140MPD2     N 2185   4.547   1.541  13.454 -0.0146 -0.2490  0.2564
  140MPD2    H5 2186   4.546   1.544  13.352 -4.2826 -1.0959  0.2723
  140MPD2    N1 2187   4.433   2.019  13.478  0.7681 -0.3198  0.8784
  140MPD2    H7 2188   4.400   2.097  13.534  0.0907  0.0018  0.0284
  141TMC2    C1 2189   3.966   3.731  14.849  1.2057 -1.0175 -1.2490
  141TMC2    C2 2190   3.830   3.729  14.871  0.6410  1.2136  0.9285
  141TMC2    C3 2191   3.770   3.851  14.886  0.2172  0.1609  0.5240
  141TMC2    C4 2192   4.035   3.849  14.854 -0.3634 -0.2681 -0.0613
  141TMC2    C5 2193   3.967   3.966  14.880 -0.0870  0.1803  0.3147
  141TMC2    C6 2194   3.836   3.971  14.889 -0.0805 -0.3782 -0.0362
  141TMC2     C 2195   4.014   3.648  14.737  0.7228 -0.9219  0.1582
  141TMC2     O 2196   3.939   3.629  14.644  0.0495  1.1462 -0.0925
  141TMC2     H 2197   3.772   3.638  14.858  1.5813  0.7087  0.2898
  141TMC2    H1 2198   4.142   3.846  14.837 -0.7302  1.0925 -2.7638
  141TMC2    H2 2199   3.782   4.061  14.915  2.1442  1.3414 -1.3901
  141TMC2    C7 2200   4.041   4.087  14.896 -0.3063 -0.5253 -0.0822
  141TMC2    C8 2201   3.627   3.867  14.911 -0.3473 -0.6378 -0.1475
  141TMC2    O1 2202   3.987   4.196  14.893  0.0415 -0.0063  0.5405
  141TMC2    O2 2203   3.566   3.970  14.898 -0.0230  0.1982  0.2074
  141TMC2    O5 2204   3.590   3.767  14.990  0.1026 -0.1586 -0.5533
  141TMC2    H5 2205   3.664   3.705  15.008  2.2061  2.2384 -1.0091
  142TMC2    C1 2206   1.442   2.303  10.024 -0.4318  0.2982 -0.6040
  142TMC2    C2 2207   1.357   2.308   9.915  0.3348  0.0260 -0.0195
  142TMC2    C3 2208   1.368   2.425   9.838 -0.1451 -0.7342  0.3622
  142TMC2    C4 2209   1.526   2.408  10.052 -0.7184  0.3733 -0.3566
  142TMC2    C5 2210   1.542   2.508   9.964 -0.2624  0.5908 -0.8222
  142TMC2    C6 2211   1.459   2.522   9.853  0.0929  0.6112  0.6924
  142TMC2     C 2212   1.474   2.166  10.078 -0.1106 -0.2592 -0.4786
  142TMC2     O 2213   1.423   2.067  10.021  0.0735  0.2765  0.6751
  142TMC2     H 2214   1.285   2.231   9.891  0.9666 -0.0971 -1.5660
  142TMC2    H1 2215   1.610   2.395  10.119  0.0064 -0.4560 -1.4190
  142TMC2    H2 2216   1.455   2.607   9.787  0.9108 -0.3634 -0.6192
  142TMC2    C7 2217   1.600   2.623  10.033 -0.4194  0.3865 -0.1263
  142TMC2    C8 2218   1.303   2.430   9.711  0.0386 -0.4754 -0.6992
  142TMC2    O1 2219   1.610   2.612  10.150 -0.0817  0.1230 -0.0724
  142TMC2    O2 2220   1.232   2.514   9.661 -0.0292  0.0501  0.6595
  142TMC2    O5 2221   1.371   2.341   9.638 -0.0900 -0.3212  0.0564
  142TMC2    H5 2222   1.447   2.308   9.691 -0.2695 -0.7949  0.0224
  143MPD2     C 2223   1.698   1.857  10.422 -0.0165  0.4887  0.2447
  143MPD2    C1 2224   1.611   1.830  10.315 -0.1255 -0.2312  0.1392
  143MPD2    C2 2225   1.556   1.935  10.242  0.0774 -0.2408  0.2496
  143MPD2    C3 2226   1.588   2.065  10.268  0.0629 -0.1490  1.2204
  143MPD2    C4 2227   1.656   2.088  10.387  0.1828 -0.7083  0.4532
  143MPD2    C5 2228   1.713   1.987  10.467  0.3008  0.3410  0.2913
  143MPD2     H 2229   1.501   1.913  10.151 -0.2339 -0.3907  0.4748
  143MPD2    H1 2230   1.669   2.193  10.408 -0.2104 -0.1811 -1.9802
  143MPD2    H2 2231   1.735   1.778  10.486 -0.5546  1.0315  1.2188
  143MPD2    H3 2232   1.776   2.009  10.552  0.0146 -1.3758  0.9452
  143MPD2     N 2233   1.541   2.172  10.197  0.3512  0.4986  0.2426
  143MPD2    H5 2234   1.558   2.265  10.234  3.1879  1.1204 -2.6212
  143MPD2    N1 2235   1.587   1.691  10.292 -0.1647  0.2279 -0.0510
  143MPD2    H7 2236   1.650   1.631  10.343  0.1060  2.0276  1.7145
  144TMC2    C1 2237   0.717   0.827   0.795  0.4899 -0.6393 -0.8972
  144TMC2    C2 2238   0.789   0.710   0.819 -0.5290 -1.0353  0.3813
  144TMC2    C3 2239   0.900   0.720   0.902  0.6387  0.7781 -0.5881
  144TMC2    C4 2240   0.750   0.945   0.853  0.0109 -0.2209  0.1139
  144TMC2    C5 2241   0.855   0.944   0.948  0.2468 -0.0243 -0.4306
  144TMC2    C6 2242   0.934   0.834   0.972 -0.1368  0.3770 -0.3899
  144TMC2     C 2243   0.610   0.821   0.700 -0.1932 -0.4584 -0.1844
  144TMC2     O 2244   0.576   0.712   0.653  0.1712  0.1565 -0.1792
  144TMC2     H 2245   0.739   0.621   0.785  0.1346 -0.8043 -1.1850
  144TMC2    H1 2246   0.680   1.027   0.862 -1.7649 -1.6288 -0.8248
  144TMC2    H2 2247   1.015   0.829   1.044  0.1950 -1.6288 -0.8910
  144TMC2    C7 2248   0.863   1.066   1.031 -0.6725  1.0807  0.5670
  144TMC2    C8 2249   0.972   0.600   0.947  0.1442 -0.4460 -0.0320
  144TMC2    O1 2250   0.818   1.171   0.986 -0.2637 -0.5794  0.4333
  144TMC2    O2 2251   1.029   0.584   1.050  0.2266 -0.4486 -0.0690
  144TMC2    O5 2252   0.953   0.508   0.851  0.1185 -0.1586 -1.0212
  144TMC2    H5 2253   0.913   0.530   0.764 -0.5758  0.3408 -0.5745
  145MPD2     C 2254   0.232   1.024   0.450  0.0048  0.2778 -0.6903
  145MPD2    C1 2255   0.281   0.898   0.434 -0.0446  0.3945 -0.7220
  145MPD2    C2 2256   0.382   0.874   0.520 -0.2108  0.2923 -0.4789
  145MPD2    C3 2257   0.437   0.970   0.611 -0.3029 -0.1332 -0.0516
  145MPD2    C4 2258   0.390   1.103   0.611 -0.6170  0.8128  0.3261
  145MPD2    C5 2259   0.283   1.122   0.527  0.8078 -0.0858  0.1729
  145MPD2     H 2260   0.418   0.772   0.521 -2.0702 -0.3554  0.9364
  145MPD2    H1 2261   0.455   1.180   0.651  1.0401 -0.6162  0.4440
  145MPD2    H2 2262   0.138   1.048   0.402 -1.2507  0.7772  2.0346
  145MPD2    H3 2263   0.236   1.220   0.527  0.7262 -0.1241  0.5047
  145MPD2     N 2264   0.555   0.941   0.682  0.1486 -0.0994 -0.9761
  145MPD2    H5 2265   0.608   1.020   0.717 -1.3855 -0.7486  2.8462
  145MPD2    N1 2266   0.239   0.804   0.341  0.0983  0.0242  0.6306
  145MPD2    H7 2267   0.279   0.711   0.343 -0.8917 -0.4112 -0.5769
  146TMC2    C1 2268   2.165   4.346  12.267  0.5856 -0.0861  0.2299
  146TMC2    C2 2269   2.168   4.315  12.138  0.3668  0.1027  0.1887
  146TMC2    C3 2270   2.271   4.242  12.083  0.1709  0.1022 -0.2594
  146TMC2    C4 2271   2.270   4.316  12.348  0.1199 -0.0914 -0.4398
  146TMC2    C5 2272   2.371   4.235  12.294 -0.4406 -0.3769 -0.3379
  146TMC2    C6 2273   2.362   4.189  12.161  0.0754  1.0374 -0.0045
  146TMC2     C 2274   2.045   4.411  12.316  0.9197 -0.3189 -0.1388
  146TMC2     O 2275   1.959   4.443  12.243 -0.2085 -0.3727  0.5405
  146TMC2     H 2276   2.084   4.352  12.080  1.2844  0.0492 -1.1837
  146TMC2    H1 2277   2.281   4.370  12.442 -3.7268 -0.7347  0.3657
  146TMC2    H2 2278   2.420   4.109  12.116 -0.2572  0.6434  0.2714
  146TMC2    C7 2279   2.477   4.184  12.376 -0.0002 -0.2503  0.7768
  146TMC2    C8 2280   2.249   4.200  11.950 -0.3530  0.2476  0.0016
  146TMC2    O1 2281   2.556   4.105  12.315 -0.2592 -0.3700 -0.5950
  146TMC2    O2 2282   2.146   4.229  11.892 -0.0998  0.5045  0.4442
  146TMC2    O5 2283   2.375   4.166  11.895 -0.2141 -0.2467  1.1292
  146TMC2    H5 2284   2.452   4.179  11.955  0.2951  2.5300 -0.1279
  147MPD2     C 2285   2.684   3.974  12.787 -0.5806  0.0445  0.0140
  147MPD2    C1 2286   2.564   4.020  12.828  0.4490  0.0893  0.0742
  147MPD2    C2 2287   2.490   4.107  12.746 -1.1712  0.2965 -0.1604
  147MPD2    C3 2288   2.534   4.133  12.614  0.1573 -0.1394 -0.0033
  147MPD2    C4 2289   2.663   4.096  12.578 -0.0195  0.8479  0.6362
  147MPD2    C5 2290   2.738   4.022  12.665 -0.5293  0.0006  0.3172
  147MPD2     H 2291   2.390   4.140  12.770 -1.2406  0.0199 -0.0750
  147MPD2    H1 2292   2.705   4.109  12.479  0.5323 -0.6912  0.6586
  147MPD2    H2 2293   2.741   3.901  12.844 -3.0554 -0.0787  2.3856
  147MPD2    H3 2294   2.840   4.005  12.635 -1.7897 -2.2419 -2.6605
  147MPD2     N 2295   2.457   4.203  12.514  0.1092 -0.2867 -0.2388
  147MPD2    H5 2296   2.378   4.256  12.550 -0.2584 -0.3890 -0.8933
  147MPD2    N1 2297   2.527   3.977  12.961 -0.2228  0.3300 -0.1195
  147MPD2    H7 2298   2.585   3.902  12.998  2.5316  2.3016 -0.4627
  148TMC2    C1 2299   1.924   3.731  10.865 -0.1912 -0.4213 -0.4746
  148TMC2    C2 2300   2.031   3.752  10.941 -0.3287  0.0201 -0.2540
  148TMC2    C3 2301   2.092   3.645  11.006  0.2194  0.2165 -0.1335
  148TMC2    C4 2302   1.867   3.606  10.858  0.4529  0.4130 -0.3917
  148TMC2    C5 2303   1.933   3.500  10.915  0.1036 -0.2346 -1.1895
  148TMC2    C6 2304   2.040   3.518  10.996  0.1193  0.0115  0.7528
  148TMC2     C 2305   1.843   3.839  10.826 -0.4259  0.2392  0.7074
  148TMC2     O 2306   1.885   3.955  10.830  0.1382 -0.4606 -0.0327
  148TMC2     H 2307   2.085   3.846  10.947  0.8623 -0.5948 -1.3071
  148TMC2    H1 2308   1.784   3.581  10.792  1.4306 -0.3343 -1.3424
  148TMC2    H2 2309   2.100   3.442  11.046  0.5416 -0.7259 -0.8566
  148TMC2    C7 2310   1.853   3.376  10.909  0.3706 -0.6817 -0.1703
  148TMC2    C8 2311   2.228   3.652  11.046  0.1529  0.0349 -0.8306
  148TMC2    O1 2312   1.767   3.369  10.820  0.7410  0.3864 -0.1609
  148TMC2    O2 2313   2.310   3.563  11.032  0.1459 -0.0625  0.7173
  148TMC2    O5 2314   2.252   3.775  11.105 -0.4642 -0.3145 -0.8002
  148TMC2    H5 2315   2.176   3.835  11.123 -0.7990 -1.1772  0.6380
  149MPD2     C 2316   1.607   4.004  10.738 -0.1626  0.0653  0.3827
  149MPD2    C1 2317   1.610   3.869  10.736 -0.0533 -0.3429 -0.6747
  149MPD2    C2 2318   1.495   3.802  10.707  0.1089  0.1198  0.6357
  149MPD2    C3 2319   1.386   3.867  10.653 -0.2623 -0.0212 -0.7914
  149MPD2    C4 2320   1.395   4.005  10.633 -0.3216  0.3763 -0.3197
  149MPD2    C5 2321   1.503   4.070  10.681  0.2792  0.0676  0.1389
  149MPD2     H 2322   1.492   3.695  10.725 -0.6177  0.3335  1.7812
  149MPD2    H1 2323   1.317   4.062  10.585 -2.0822 -0.9806  0.9166
  149MPD2    H2 2324   1.688   4.064  10.777  1.6535 -2.8026  1.0230
  149MPD2    H3 2325   1.502   4.178  10.675  0.6776  0.0432 -0.4007
  149MPD2     N 2326   1.268   3.802  10.623  0.2890  0.3753 -0.1089
  149MPD2    H5 2327   1.194   3.850  10.573  0.4275  0.9521  0.2498
  149MPD2    N1 2328   1.719   3.793  10.787 -0.0848 -0.5400 -0.2024
  149MPD2    H7 2329   1.702   3.693  10.798 -1.1442 -0.2048  1.1070
  150TMC2    C1 2330   3.654   2.843  12.388 -0.5780 -0.0004  0.2582
  150TMC2    C2 2331   3.620   2.930  12.281 -0.0206  0.2722 -0.0005
  150TMC2    C3 2332   3.715   3.019  12.242 -0.1869 -0.1409 -0.7798
  150TMC2    C4 2333   3.782   2.847  12.440  0.2642  0.2997 -0.1410
  150TMC2    C5 2334   3.878   2.939  12.394  0.3312 -0.0053 -0.4538
  150TMC2    C6 2335   3.845   3.019  12.283  0.2773  0.7468 -0.0558
  150TMC2     C 2336   3.575   2.723  12.412 -0.3540  0.4859  0.5301
  150TMC2     O 2337   3.649   2.631  12.444 -0.2107  0.1244 -0.7200
  150TMC2     H 2338   3.519   2.937  12.242 -0.4507  0.0573  1.0493
  150TMC2    H1 2339   3.807   2.779  12.521 -0.5479  0.4021  0.2030
  150TMC2    H2 2340   3.925   3.072  12.232  0.2253  0.2363 -0.6672
  150TMC2    C7 2341   4.017   2.924  12.425  0.7411 -0.5419  0.0693
  150TMC2    C8 2342   3.685   3.115  12.135  0.3214  0.5316  0.8673
  150TMC2    O1 2343   4.085   3.024  12.429 -0.4384  0.2832 -0.4538
  150TMC2    O2 2344   3.726   3.230  12.142 -0.0285 -0.1363  0.2903
  150TMC2    O5 2345   3.576   3.075  12.057 -0.1045 -0.2759  0.2670
  150TMC2    H5 2346   3.555   2.979  12.056  1.7294 -0.6646 -0.4027
  151MPD2     C 2347   3.213   2.374  12.324 -0.1288 -0.3223 -0.3587
  151MPD2    C1 2348   3.179   2.486  12.252  0.2762  0.0692 -0.0352
  151MPD2    C2 2349   3.253   2.600  12.274  0.0977  0.3062 -0.1982
  151MPD2    C3 2350   3.364   2.601  12.359 -0.5417  0.2723 -0.3570
  151MPD2    C4 2351   3.403   2.483  12.417  0.2049  0.6654  0.1442
  151MPD2    C5 2352   3.320   2.373  12.406 -0.2442  0.2450 -0.1685
  151MPD2     H 2353   3.242   2.684  12.207 -0.8106 -1.7307 -2.5956
  151MPD2    H1 2354   3.480   2.476  12.493  0.8651  1.2779 -0.4609
  151MPD2    H2 2355   3.160   2.283  12.296 -1.3519 -0.0434  1.0412
  151MPD2    H3 2356   3.345   2.283  12.461 -2.1472 -0.4116 -0.4086
  151MPD2     N 2357   3.445   2.720  12.366 -0.8835 -0.2719  0.0857
  151MPD2    H5 2358   3.409   2.804  12.322 -0.7679  0.4533  1.3911
  151MPD2    N1 2359   3.082   2.474  12.153 -0.3410 -0.0763  0.3269
  151MPD2    H7 2360   3.022   2.396  12.176 -1.7796  1.3993  1.6299
  152TMC2    C1 2361   3.792   2.245  12.699 -0.5410 -0.5403 -0.1248
  152TMC2    C2 2362   3.889   2.164  12.745  0.3913 -0.5429  0.1862
  152TMC2    C3 2363   3.992   2.221  12.806 -0.1113 -0.6125  0.7016
  152TMC2    C4 2364   3.799   2.383  12.693 -0.5297 -0.4891 -0.0058
  152TMC2    C5 2365   3.913   2.434  12.740 -0.5790 -0.3287  0.3062
  152TMC2    C6 2366   4.013   2.360  12.797 -0.0294  0.1604 -0.2561
  152TMC2     C 2367   3.650   2.190  12.690  0.2312 -0.0021  0.6366
  152TMC2     O 2368   3.559   2.257  12.734 -0.0458 -0.5370 -0.2983
  152TMC2     H 2369   3.879   2.056  12.757  0.7094 -0.6999 -1.0164
  152TMC2    H1 2370   3.712   2.438  12.657  2.4415  2.4895 -2.6683
  152TMC2    H2 2371   4.096   2.395  12.858 -0.3677 -0.4394  0.5484
  152TMC2    C7 2372   3.922   2.575  12.764  0.2294  0.5928 -0.1342
  152TMC2    C8 2373   4.086   2.135  12.885  0.0136  0.0554  0.7307
  152TMC2    O1 2374   3.831   2.643  12.715 -0.0673 -0.1240 -0.3853
  152TMC2    O2 2375   4.127   2.026  12.859 -0.4163  0.3476  0.4089
  152TMC2    O5 2376   4.058   2.172  13.017  0.0981 -0.1873 -0.9521
  152TMC2    H5 2377   4.020   2.262  13.026  0.5314 -0.2788  1.7411
  153MPD2     C 2378   3.545   1.848  12.611 -0.1841 -0.1573  0.3860
  153MPD2    C1 2379   3.530   1.984  12.618  0.0087  0.1760  0.2103
  153MPD2    C2 2380   3.394   2.033  12.614  0.0285  0.6016 -0.4441
  153MPD2    C3 2381   3.279   1.951  12.594 -0.1684 -0.4079  0.2134
  153MPD2    C4 2382   3.304   1.817  12.596 -0.1913 -0.6256 -0.0357
  153MPD2    C5 2383   3.433   1.768  12.602  0.5061  0.4180  0.7222
  153MPD2     H 2384   3.373   2.138  12.628  0.3355  0.6594 -0.4162
  153MPD2    H1 2385   3.226   1.742  12.594 -1.2309  0.4551 -0.6906
  153MPD2    H2 2386   3.646   1.809  12.605 -0.1214 -0.2420  1.8061
  153MPD2    H3 2387   3.445   1.661  12.609  0.8653  0.1053 -4.5088
  153MPD2     N 2388   3.152   2.007  12.565  0.4502 -0.0683 -0.2182
  153MPD2    H5 2389   3.145   2.108  12.562 -1.6869 -0.2602 -1.6260
  153MPD2    N1 2390   3.650   2.063  12.643  0.1177 -0.1430  0.3750
  153MPD2    H7 2391   3.737   2.011  12.632  1.0147  1.5812 -0.6538
  154TMC2    C1 2392   0.740   2.545   0.031 -0.3691 -0.0733 -0.2467
  154TMC2    C2 2393   0.621   2.491   0.073 -0.4631  0.5920 -0.1004
  154TMC2    C3 2394   0.570   2.399  17.746 -0.2772 -0.0859  0.2501
  154TMC2    C4 2395   0.803   2.492  17.672  0.6013  0.2198 -0.1714
  154TMC2    C5 2396   0.737   2.397  17.598 -0.0993 -1.0168 -0.7712
  154TMC2    C6 2397   0.617   2.352  17.632 -0.2097 -0.2682 -0.1282
  154TMC2     C 2398   0.794   2.656   0.110  0.5410  0.0711 -0.5212
  154TMC2     O 2399   0.729   2.688   0.210 -0.1843 -0.2388  0.0027
  154TMC2     H 2400   0.568   2.522   0.162  1.4570  4.4446 -0.3015
  154TMC2    H1 2401   0.903   2.521  17.645  0.9523  0.0173  0.9202
  154TMC2    H2 2402   0.566   2.277  17.572  0.5682 -0.0028 -1.1265
  154TMC2    C7 2403   0.812   2.340  17.486 -0.6023 -0.1032 -1.0257
  154TMC2    C8 2404   0.467   2.324   0.054 -0.1550 -0.7266  0.3608
  154TMC2    O1 2405   0.922   2.383  17.466  0.3287 -0.3754 -0.0448
  154TMC2    O2 2406   0.403   2.380   0.143 -0.2386  0.1135 -0.4200
  154TMC2    O5 2407   0.529   2.205   0.066 -0.7107 -0.7886  0.4522
  154TMC2    H5 2408   0.570   2.176  17.739 -0.5526  1.1321 -0.1482
  155MPD2     C 2409   1.060   2.911   0.039 -0.4489 -0.1771 -0.3926
  155MPD2    C1 2410   0.961   2.843   0.112 -0.2894 -0.6465  0.2010
  155MPD2    C2 2411   0.941   2.886   0.247 -0.0709  0.5020 -0.1108
  155MPD2    C3 2412   0.998   2.989   0.304 -0.9824  0.4237 -0.3044
  155MPD2    C4 2413   1.096   3.048   0.232 -0.5459 -0.1446 -0.1078
  155MPD2    C5 2414   1.130   3.013   0.100 -0.0284  0.5153  0.1743
  155MPD2     H 2415   0.861   2.841   0.306 -0.5058  4.0526  2.0081
  155MPD2    H1 2416   1.152   3.126   0.283  0.9560 -0.7839 -0.8115
  155MPD2    H2 2417   1.100   2.859  17.710  0.5954 -0.5606  0.3263
  155MPD2    H3 2418   1.210   3.062   0.046  0.4290  1.4795  1.7304
  155MPD2     N 2419   0.952   3.016   0.434  0.6451 -0.4264 -0.1233
  155MPD2    H5 2420   0.901   2.942   0.482 -0.3908 -0.3216 -1.0667
  155MPD2    N1 2421   0.900   2.722   0.054 -0.0324 -0.3728 -0.4742
  155MPD2    H7 2422   0.928   2.687  17.720 -0.1184 -1.5262 -0.0641
  156TMC2    C1 2423   3.340   4.667  11.268  0.4042 -0.0969  0.2265
  156TMC2    C2 2424   3.315   4.553  11.209 -0.2266 -0.6734  0.0788
  156TMC2    C3 2425   3.246   4.547  11.089 -0.1424  0.0004  0.0370
  156TMC2    C4 2426   3.290   0.041  11.218 -0.1390 -0.0870  0.1295
  156TMC2    C5 2427   3.219   0.039  11.100 -0.3304  0.0045 -0.2643
  156TMC2    C6 2428   3.196   4.661  11.034  0.2034 -0.1175  0.4942
  156TMC2     C 2429   3.412   4.671  11.395  0.9516  0.1756 -0.3887
  156TMC2     O 2430   3.401   0.033  11.457  0.4217  0.1961 -0.1131
  156TMC2     H 2431   3.311   4.463  11.268  0.5894 -0.9612 -0.3073
  156TMC2    H1 2432   3.306   0.137  11.265 -0.3543 -0.7920  1.6463
  156TMC2    H2 2433   3.171   4.661  10.928  0.2784 -1.6648  0.4762
  156TMC2    C7 2434   3.183   0.168  11.047  0.0043 -0.9320 -0.7277
  156TMC2    C8 2435   3.241   4.434  10.996 -0.5269 -0.6013 -0.2176
  156TMC2    O1 2436   3.213   0.269  11.108 -0.2378 -0.1148  0.0084
  156TMC2    O2 2437   3.162   4.431  10.901 -0.0429  0.2921  0.4462
  156TMC2    O5 2438   3.319   4.334  11.031 -0.2928  0.0553  0.1460
  156TMC2    H5 2439   3.374   4.357  11.110  0.2901 -3.0023  0.6277
  157MPD2     C 2440   3.679   4.465  11.503  0.4808 -0.4580  0.1627
  157MPD2    C1 2441   3.588   4.560  11.524  0.1618 -0.0127 -0.4209
  157MPD2    C2 2442   3.596   4.643  11.632 -0.1683 -0.5781 -0.0263
  157MPD2    C3 2443   3.686   4.620  11.730 -0.9721  0.3977 -0.0229
  157MPD2    C4 2444   3.784   4.527  11.704 -0.0334  0.3622 -0.4670
  157MPD2    C5 2445   3.780   4.451  11.593  0.2052 -0.3557 -0.0218
  157MPD2     H 2446   3.532   4.730  11.636 -1.2909 -1.5097  2.6863
  157MPD2    H1 2447   3.861   4.510  11.780  0.6117 -1.7330 -1.5769
  157MPD2    H2 2448   3.667   4.405  11.414  0.4699  1.0292 -0.8438
  157MPD2    H3 2449   3.858   4.384  11.560 -0.0051 -0.0173 -1.2040
  157MPD2     N 2450   3.682   4.705  11.841 -0.1212 -0.6574 -0.2691
  157MPD2    H5 2451   3.606   0.032  11.842 -0.8788 -1.4669 -3.7971
  157MPD2    N1 2452   3.503   4.568  11.415 -0.4521 -0.4952 -0.2590
  157MPD2    H7 2453   3.495   4.489  11.351  0.3819 -1.1980  0.5034
  158TMC2    C1 2454   4.051   3.645  13.495  0.0346 -0.4053  0.0662
  158TMC2    C2 2455   4.062   3.780  13.500 -0.0372  0.1264 -0.2782
  158TMC2    C3 2456   3.961   3.846  13.436  0.2828 -0.0390  0.2873
  158TMC2    C4 2457   3.963   3.576  13.420  0.3804  0.2995  0.3652
  158TMC2    C5 2458   3.860   3.646  13.365 -0.2192  0.4111  0.4158
  158TMC2    C6 2459   3.859   3.785  13.374  0.3458 -0.0457 -0.6251
  158TMC2     C 2460   4.153   3.567  13.571  0.7546 -0.2920  0.1494
  158TMC2     O 2461   4.254   3.631  13.591  0.2353  0.8050 -0.4917
  158TMC2     H 2462   4.139   3.832  13.557  0.9054  0.0293 -1.4620
  158TMC2    H1 2463   3.965   3.468  13.430 -1.0378 -0.1571 -4.2877
  158TMC2    H2 2464   3.782   3.844  13.326 -0.0791 -0.8248 -0.8908
  158TMC2    C7 2465   3.740   3.585  13.318 -0.3686 -0.4505  0.1997
  158TMC2    C8 2466   3.963   3.986  13.434 -0.3382  0.1877  0.2659
  158TMC2    O1 2467   3.677   3.648  13.233 -0.2786 -0.1759  0.1897
  158TMC2    O2 2468   3.887   4.050  13.358  0.4664  0.4373 -0.1418
  158TMC2    O5 2469   3.992   4.026  13.559  0.4502  0.0766  0.1359
  158TMC2    H5 2470   4.038   3.955  13.608 -0.5363 -0.2699  0.5509
  159MPD2     C 2471   4.308   3.206  13.885  0.1915  0.4073 -0.4500
  159MPD2    C1 2472   4.175   3.233  13.916  0.6262  0.0327  0.1725
  159MPD2    C2 2473   4.108   3.318  13.829 -0.0394 -0.3051 -0.2741
  159MPD2    C3 2474   4.172   3.393  13.731  0.2562  0.3901  0.4858
  159MPD2    C4 2475   4.309   3.371  13.708  0.0878 -0.2290 -0.2359
  159MPD2    C5 2476   4.371   3.275  13.785  0.0538  0.2647 -0.4766
  159MPD2     H 2477   4.004   3.343  13.846  0.3917  0.7196  0.8747
  159MPD2    H1 2478   4.367   3.431  13.638  0.5769 -0.6775 -0.2187
  159MPD2    H2 2479   4.367   3.142  13.949 -0.4781  0.8379  0.6025
  159MPD2    H3 2480   4.477   3.252  13.777 -0.9863 -4.6757 -0.0002
  159MPD2     N 2481   4.096   3.478  13.656  0.9107 -0.2818  0.3755
  159MPD2    H5 2482   3.995   3.475  13.667  0.9412  0.5716  0.9044
  159MPD2    N1 2483   4.108   3.162  14.020 -0.0306 -0.0695 -0.6464
  159MPD2    H7 2484   4.160   3.088  14.066 -2.4489 -2.0820 -1.1791
  160TMC2    C1 2485   3.882   0.938   1.522  0.9788  0.6357  0.4626
  160TMC2    C2 2486   3.884   0.836   1.611  0.7499 -0.4534  0.0892
  160TMC2    C3 2487   4.005   0.808   1.665  0.2825 -1.0296  0.1587
  160TMC2    C4 2488   3.994   0.998   1.475  0.0179  0.0642 -0.2559
  160TMC2    C5 2489   4.118   0.956   1.525 -0.2984 -0.1490 -0.1398
  160TMC2    C6 2490   4.122   0.876   1.633  0.5312 -0.2330  0.4367
  160TMC2     C 2491   3.774   0.937   1.432  0.1281  0.2472  0.2011
  160TMC2     O 2492   3.708   0.833   1.424 -0.2094 -0.2365 -0.2580
  160TMC2     H 2493   3.792   0.787   1.640  0.2211 -0.3140 -1.3140
  160TMC2    H1 2494   3.995   1.043   1.376 -0.3335  1.0987  0.2048
  160TMC2    H2 2495   4.221   0.842   1.658  0.2662 -0.7932  0.7259
  160TMC2    C7 2496   4.241   0.996   1.464 -0.3730 -0.5517 -0.3057
  160TMC2    C8 2497   4.012   0.698   1.760  0.8806  0.3482 -0.4220
  160TMC2    O1 2498   4.325   0.906   1.452  0.2537  0.2922 -0.1730
  160TMC2    O2 2499   3.949   0.590   1.752  0.0088  0.1130  0.0572
  160TMC2    O5 2500   4.082   0.743   1.865  0.4409  0.3926 -0.0544
  160TMC2    H5 2501   4.111   0.837   1.855 -0.8707  0.6121 -1.8664
  161MPD2     C 2502   3.593   0.997   1.212 -0.0328  0.2684 -0.2174
  161MPD2    C1 2503   3.664   1.094   1.276 -0.7163  1.0209 -0.5754
  161MPD2    C2 2504   3.628   1.225   1.242 -0.1667  0.4547 -0.5971
  161MPD2    C3 2505   3.524   1.252   1.151  0.1044  0.4681  0.3504
  161MPD2    C4 2506   3.457   1.153   1.091 -0.5314 -0.2037 -0.1351
  161MPD2    C5 2507   3.493   1.029   1.129 -0.7335 -0.0376 -0.7200
  161MPD2     H 2508   3.682   1.312   1.276  0.4197 -0.6606  1.3193
  161MPD2    H1 2509   3.380   1.171   1.017  1.1247  0.2138 -1.7921
  161MPD2    H2 2510   3.608   0.890   1.219  0.6112  0.2530 -1.8177
  161MPD2    H3 2511   3.444   0.940   1.089 -0.4676 -0.5042 -0.0079
  161MPD2     N 2512   3.482   1.386   1.113  0.1224 -0.2731 -0.4900
  161MPD2    H5 2513   3.419   1.390   1.033  0.4577 -1.6722 -0.8278
  161MPD2    N1 2514   3.755   1.063   1.375 -0.4154 -0.1586 -0.5631
  161MPD2    H7 2515   3.827   1.133   1.393 -0.1889 -0.3076 -0.8909
  162TMC2    C1 2516   1.597   3.200   1.015 -0.5905  0.0127 -0.9422
  162TMC2    C2 2517   1.576   3.334   1.019 -0.4318  0.3433 -0.3628
  162TMC2    C3 2518   1.633   3.409   1.119 -1.1060 -0.7254  0.4152
  162TMC2    C4 2519   1.685   3.133   1.098  0.2096  0.3715 -0.8486
  162TMC2    C5 2520   1.745   3.209   1.195  0.4172  0.0474  0.3017
  162TMC2    C6 2521   1.717   3.345   1.207  0.1567  0.3305 -0.7650
  162TMC2     C 2522   1.581   3.147   0.884 -0.0515  0.2300 -0.0609
  162TMC2     O 2523   1.586   3.230   0.796  0.4738 -0.6541  0.8937
  162TMC2     H 2524   1.509   3.378   0.947 -0.1050  0.2477 -0.7278
  162TMC2    H1 2525   1.701   3.025   1.097 -0.3109  0.2503  2.4311
  162TMC2    H2 2526   1.764   3.401   1.287  3.1528 -1.2717 -1.4178
  162TMC2    C7 2527   1.890   3.195   1.220  0.1770 -0.0617  0.8918
  162TMC2    C8 2528   1.549   3.517   1.168  0.1072 -0.0646  0.2382
  162TMC2    O1 2529   1.945   3.246   1.318  0.4400  0.5861  0.3452
  162TMC2    O2 2530   1.487   3.593   1.096  0.7589 -0.0085  0.2441
  162TMC2    O5 2531   1.522   3.490   1.297  0.1769  0.1020 -0.5740
  162TMC2    H5 2532   1.581   3.417   1.325 -1.5585 -0.3629  1.8601
  163MPD2     C 2533   1.628   2.737   0.596  0.2246  0.3578  0.3658
  163MPD2    C1 2534   1.676   2.859   0.582  0.4018  0.2692 -0.1454
  163MPD2    C2 2535   1.638   2.963   0.672  0.3705  0.0928  0.2116
  163MPD2    C3 2536   1.559   2.931   0.786 -0.2570 -0.7526  1.0820
  163MPD2    C4 2537   1.512   2.800   0.792 -0.6262 -0.6443 -0.4275
  163MPD2    C5 2538   1.543   2.710   0.696 -0.2074  0.4342 -0.3417
  163MPD2     H 2539   1.660   3.068   0.656  1.7266  0.1534  2.4473
  163MPD2    H1 2540   1.457   2.773   0.881 -0.7426  0.7053 -0.0860
  163MPD2    H2 2541   1.660   2.656   0.531  0.7962  1.4957 -0.7694
  163MPD2    H3 2542   1.522   2.604   0.710  1.7685  0.3661  2.2068
  163MPD2     N 2543   1.538   3.021   0.892  0.3548 -0.3906  0.3861
  163MPD2    H5 2544   1.498   2.986   0.979  0.4095  1.0646  1.0019
  163MPD2    N1 2545   1.776   2.891   0.491  0.3325 -1.2973  0.0176
  163MPD2    H7 2546   1.807   2.803   0.451  2.1403  0.3100 -2.1116
  164TMC2    C1 2547   1.426   2.916  11.241 -0.4812  0.7488  0.0521
  164TMC2    C2 2548   1.510   2.910  11.348 -0.6048  0.6484  0.1974
  164TMC2    C3 2549   1.591   3.014  11.377  0.5749  0.3258 -0.0267
  164TMC2    C4 2550   1.420   3.032  11.160  0.2655  0.9766  0.3222
  164TMC2    C5 2551   1.500   3.137  11.199 -0.3843  0.2885  0.2766
  164TMC2    C6 2552   1.590   3.134  11.304  0.1303  0.7807  0.3488
  164TMC2     C 2553   1.400   2.788  11.180 -0.1927 -0.0447  0.1588
  164TMC2     O 2554   1.407   2.781  11.060  0.5485 -0.9560 -0.2999
  164TMC2     H 2555   1.522   2.823  11.411 -0.2855  1.0620  0.7057
  164TMC2    H1 2556   1.364   3.028  11.068 -0.2626 -0.1820  0.6960
  164TMC2    H2 2557   1.651   3.217  11.335 -2.3740  2.4717  0.7461
  164TMC2    C7 2558   1.476   3.264  11.129  0.0957  0.5076  0.8132
  164TMC2    C8 2559   1.679   2.993  11.486  0.1626 -0.0426  0.2631
  164TMC2    O1 2560   1.358   3.274  11.093 -0.4768 -0.0655  1.0298
  164TMC2    O2 2561   1.676   2.892  11.555 -0.2326 -0.1858 -0.2125
  164TMC2    O5 2562   1.785   3.063  11.461 -0.3233 -0.2381 -0.4440
  164TMC2    H5 2563   1.763   3.128  11.391 -1.0274 -1.2818 -1.1866
  165TMC2    C1 2564   3.686   0.698   0.387  0.0787  0.0170 -0.2617
  165TMC2    C2 2565   3.695   0.574   0.322  0.0545 -0.1597  0.3878
  165TMC2    C3 2566   3.825   0.522   0.330 -0.2721  0.2512  0.7609
  165TMC2    C4 2567   3.791   0.754   0.447 -0.1780 -0.0648 -0.3345
  165TMC2    C5 2568   3.912   0.699   0.453 -0.3350 -0.0973  0.0233
  165TMC2    C6 2569   3.933   0.578   0.392 -0.4134  0.2521 -0.0209
  165TMC2     C 2570   3.553   0.754   0.410  0.2880  0.7017  0.4722
  165TMC2     O 2571   3.528   0.825   0.509  0.4035  0.4279  0.0908
  165TMC2     H 2572   3.606   0.521   0.290  1.6464 -0.8370 -2.8226
  165TMC2    H1 2573   3.763   0.849   0.490  0.5404 -0.9266  2.0137
  165TMC2    H2 2574   4.033   0.537   0.398 -0.4534  0.0268 -0.9769
  165TMC2    C7 2575   4.013   0.740   0.556  0.0284 -0.4189  0.0721
  165TMC2    C8 2576   3.817   0.381   0.295  0.4406 -0.3440  0.0133
  165TMC2    O1 2577   4.127   0.687   0.553  0.2153 -0.1583  0.4207
  165TMC2    O2 2578   3.711   0.315   0.280  0.1224 -0.0504 -0.2848
  165TMC2    O5 2579   3.939   0.322   0.283 -0.2243 -0.0126 -0.2966
  165TMC2    H5 2580   4.014   0.373   0.319 -0.9727 -0.7698  2.3545
  166MPD2     C 2581   3.060   0.734   0.239  0.1893 -0.6135 -0.0750
  166MPD2    C1 2582   3.113   0.776   0.358 -0.3260 -0.5383  0.7795
  166MPD2    C2 2583   3.250   0.768   0.382 -0.5985  0.1017 -0.3960
  166MPD2    C3 2584   3.334   0.722   0.291 -0.4989  0.5659 -0.4435
  166MPD2    C4 2585   3.278   0.666   0.176  0.6545  0.1655 -0.0985
  166MPD2    C5 2586   3.144   0.675   0.143  0.5230  0.1349 -0.0275
  166MPD2     H 2587   3.290   0.813   0.472 -1.1263 -0.8278  0.3016
  166MPD2    H1 2588   3.347   0.616   0.110  0.0585  0.6500 -1.0816
  166MPD2    H2 2589   2.954   0.746   0.216  0.2700 -1.4185 -0.8611
  166MPD2    H3 2590   3.122   0.633   0.045  0.7279 -0.0161 -0.0101
  166MPD2     N 2591   3.477   0.713   0.303  0.4973  0.0995  0.2076
  166MPD2    H5 2592   3.536   0.690   0.224  2.3584  0.6212  1.4399
  166MPD2    N1 2593   3.029   0.804   0.468  0.2877  0.4747 -0.0610
  166MPD2    H7 2594   2.932   0.778   0.456  0.0285  1.0107  0.9631
  167TMC2    C1 2595   1.314   3.436  13.071 -0.1162 -0.3150 -0.3618
  167TMC2    C2 2596   1.212   3.464  13.161 -0.2802  0.1957  0.0778
  167TMC2    C3 2597   1.163   3.353  13.222  0.2747 -0.4104 -0.1648
  167TMC2    C4 2598   1.353   3.310  13.040 -0.6610  0.2426 -0.4136
  167TMC2    C5 2599   1.292   3.203  13.106 -0.4621 -0.2140 -0.0373
  167TMC2    C6 2600   1.188   3.223  13.192 -0.2630  0.2468 -0.7044
  167TMC2     C 2601   1.384   3.547  13.003 -0.5587 -0.3199 -0.0078
  167TMC2     O 2602   1.383   3.658  13.061 -0.2341 -0.1554  0.1833
  167TMC2     H 2603   1.166   3.563  13.156 -0.3939  0.1009 -0.6914
  167TMC2    H1 2604   1.439   3.302  12.975  0.0888  2.0956  0.3245
  167TMC2    H2 2605   1.147   3.135  13.239 -1.3405  1.3867  0.4861
  167TMC2    C7 2606   1.309   3.061  13.063 -0.8563 -1.0759 -0.2143
  167TMC2    C8 2607   1.057   3.392  13.310  0.2205 -0.6949  0.2262
  167TMC2    O1 2608   1.279   2.976  13.145  0.2877 -0.1562 -0.1300
  167TMC2    O2 2609   0.979   3.478  13.267 -0.2114  0.3729 -0.3868
  167TMC2    O5 2610   1.031   3.296  13.402  0.5812 -0.7418 -0.4306
  167TMC2    H5 2611   1.102   3.231  13.420 -0.0281 -1.5897 -1.0494
  168MPD2     C 2612   1.546   3.720  12.806 -0.0735  0.4485 -0.6451
  168MPD2    C1 2613   1.493   3.598  12.779 -0.3600 -0.7117 -0.2864
  168MPD2    C2 2614   1.498   3.552  12.644  0.4032 -0.3259 -0.7194
  168MPD2    C3 2615   1.563   3.621  12.547 -0.1811 -0.4731 -0.2325
  168MPD2    C4 2616   1.632   3.733  12.587 -0.2702 -0.0925 -0.3944
  168MPD2    C5 2617   1.619   3.781  12.710 -0.1097 -0.0478  0.1934
  168MPD2     H 2618   1.449   3.458  12.624  0.2580 -0.4837  0.3497
  168MPD2    H1 2619   1.696   3.787  12.517 -0.0369 -2.1821 -1.8015
  168MPD2    H2 2620   1.536   3.763  12.906 -3.8062 -0.5838 -0.5719
  168MPD2    H3 2621   1.678   3.871  12.726  2.0103 -1.6596  1.4101
  168MPD2     N 2622   1.575   3.578  12.411 -0.6604 -0.1787  0.3724
  168MPD2    H5 2623   1.641   3.629  12.352 -1.2366  0.8727  0.6297
  168MPD2    N1 2624   1.429   3.511  12.874 -0.2039  0.0923  0.1875
  168MPD2    H7 2625   1.417   3.420  12.831 -1.2580  0.2460  0.1780
  169MPD1     C 2626   2.194   3.104   9.607  0.3344  0.3186  0.2062
  169MPD1    C1 2627   2.199   2.971   9.646  0.0736 -0.4359  0.1090
  169MPD1    C2 2628   2.312   2.893   9.620 -0.3679 -0.3532  0.3738
  169MPD1    C3 2629   2.427   2.956   9.571 -0.3825 -0.1054  0.2581
  169MPD1    C4 2630   2.422   3.093   9.537 -0.4100  0.0834 -0.1123
  169MPD1    C5 2631   2.306   3.164   9.559 -0.2452 -0.2512 -0.1161
  169MPD1     H 2632   2.310   2.788   9.645  1.4269  0.0734  2.3277
  169MPD1    H1 2633   2.502   3.140   9.481 -0.8995 -0.1455 -1.0175
  169MPD1    H2 2634   2.105   3.166   9.601  1.1760  1.6420  1.3448
  169MPD1    H3 2635   2.299   3.265   9.518  1.8893  0.1709  0.5311
  169MPD1     N 2636   2.548   2.886   9.570  0.1992 -0.4293  0.5375
  169MPD1    H5 2637   2.536   2.785   9.579 -0.3416 -0.5414 -1.5723
  169MPD1    N1 2638   2.081   2.906   9.678  0.7321 -0.5857  0.1571
  169MPD1    H6 2639   2.012   2.972   9.712  1.8630 -0.2127  1.6863
  169MPD1    H7 2640   2.096   2.834   9.748 -3.6609  0.7425  2.4478
  170MPD1     C 2641   2.840   0.454  13.194  0.2524 -0.2883 -0.6128
  170MPD1    C1 2642   2.794   0.582  13.194  0.1254  0.0735  0.6014
  170MPD1    C2 2643   2.689   0.615  13.276 -0.0853 -0.1518  0.2641
  170MPD1    C3 2644   2.631   0.515  13.356  1.1110 -0.3660 -0.9286
  170MPD1    C4 2645   2.670   0.381  13.351  0.5512  0.0671 -0.2266
  170MPD1    C5 2646   2.772   0.356  13.257  0.2100  0.0733  0.3615
  170MPD1     H 2647   2.648   0.715  13.280 -3.8313 -1.7397  2.2347
  170MPD1    H1 2648   2.633   0.300  13.414 -2.2883  0.3811 -1.4642
  170MPD1    H2 2649   2.925   0.420  13.136 -1.4287 -1.9812 -2.0928
  170MPD1    H3 2650   2.812   0.256  13.245  0.0007  0.0090  0.1846
  170MPD1     N 2651   2.531   0.565  13.447 -0.8913 -0.0221 -0.5700
  170MPD1    H5 2652   2.516   0.665  13.454 -1.7592 -0.0951 -1.2870
  170MPD1    N1 2653   2.879   0.679  13.125  0.1476 -0.0467  0.4053
  170MPD1    H6 2654   2.925   0.651  13.039 -2.3588 -1.6566 -0.4323
  170MPD1    H7 2655   2.822   0.761  13.107  0.8996  0.5923  0.9474
  171MPD1     C 2656   1.129   1.643  15.489  0.2244 -0.3585 -0.0769
  171MPD1    C1 2657   1.072   1.520  15.491 -0.0826  0.0747  0.3402
  171MPD1    C2 2658   1.110   1.425  15.587  0.0524  0.1876 -0.6505
  171MPD1    C3 2659   1.198   1.461  15.687  0.3261  0.3115 -1.6985
  171MPD1    C4 2660   1.257   1.588  15.684 -0.0728  0.2443 -0.6919
  171MPD1    C5 2661   1.224   1.672  15.583 -0.1086  0.1761 -0.2255
  171MPD1     H 2662   1.065   1.327  15.593 -1.4129  0.8285 -1.1338
  171MPD1    H1 2663   1.327   1.618  15.761 -0.7167 -1.6178  0.6382
  171MPD1    H2 2664   1.097   1.723  15.423  3.7110  1.8745  0.9154
  171MPD1    H3 2665   1.262   1.773  15.586 -0.7260  0.3840  0.6802
  171MPD1     N 2666   1.238   1.371  15.794  0.3850  0.3558  0.2833
  171MPD1    H5 2667   1.330   1.398  15.827  0.8889 -1.1969  0.1303
  171MPD1    N1 2668   0.957   1.493  15.409 -0.5324  0.0385 -0.2223
  171MPD1    H6 2669   0.956   1.543  15.321 -0.3833  1.7730  0.7438
  171MPD1    H7 2670   0.960   1.393  15.391 -0.8397 -0.3428  1.7643
  172MPD1     C 2671   0.170   0.206   0.097 -0.5095  0.4865 -0.8281
  172MPD1    C1 2672   0.153   0.317   0.181 -0.1109  0.3729 -0.1769
  172MPD1    C2 2673   0.265   0.383   0.220 -0.1013 -0.2345  0.1811
  172MPD1    C3 2674   0.394   0.360   0.168 -0.7895  0.3238  1.0273
  172MPD1    C4 2675   0.408   0.260   0.077 -0.0977 -0.2878 -0.4665
  172MPD1    C5 2676   0.297   0.183   0.044 -0.3900  0.4264  0.6226
  172MPD1     H 2677   0.251   0.464   0.290 -0.3918 -0.5833  0.5238
  172MPD1    H1 2678   0.509   0.246   0.039 -0.2829 -3.1061  0.0212
  172MPD1    H2 2679   0.088   0.139   0.077  1.7080 -1.9633 -1.7206
  172MPD1    H3 2680   0.312   0.106  17.727 -0.7174  0.3912  0.5930
  172MPD1     N 2681   0.509   0.431   0.212  0.2041  0.1186  0.2388
  172MPD1    H5 2682   0.600   0.404   0.175 -0.0186 -0.8456  0.3883
  172MPD1    N1 2683   0.034   0.332   0.247 -0.2627 -0.0168 -0.1218
  172MPD1    H6 2684   4.700   0.291   0.191 -0.3294 -0.1161  0.0397
  172MPD1    H7 2685   0.007   0.420   0.290 -1.3629 -0.2929 -0.2564
  173MPD1     C 2686   1.730   1.222  14.206  0.4161  0.5772  0.5782
  173MPD1    C1 2687   1.822   1.127  14.209  1.2676  0.1166  0.4241
  173MPD1    C2 2688   1.793   1.016  14.286  0.1205 -0.2812 -1.5032
  173MPD1    C3 2689   1.672   0.992  14.348  0.5680 -0.2473 -0.6522
  173MPD1    C4 2690   1.577   1.094  14.338 -0.4312  0.0303 -0.5565
  173MPD1    C5 2691   1.607   1.202  14.257  0.0354 -0.5103 -0.0768
  173MPD1     H 2692   1.863   0.935  14.301  1.3874  1.5296  2.3507
  173MPD1    H1 2693   1.482   1.092  14.391 -0.8172 -0.1773 -1.2545
  173MPD1    H2 2694   1.748   1.316  14.155  0.7942 -0.5311 -1.3124
  173MPD1    H3 2695   1.528   1.273  14.239  1.9203  0.8061 -2.9588
  173MPD1     N 2696   1.662   0.882  14.430 -0.7902 -0.2366 -0.3137
  173MPD1    H5 2697   1.727   0.807  14.408 -1.1559  0.2147 -3.0344
  173MPD1    N1 2698   1.955   1.147  14.166  0.3231 -0.1341 -0.4032
  173MPD1    H6 2699   1.954   1.212  14.087  3.5251  0.5613  0.1499
  173MPD1    H7 2700   1.994   1.058  14.138 -2.3736 -1.7497  0.9893
  174MPD1     C 2701   2.143   0.162  14.398 -0.1305 -0.1200  0.3021
  174MPD1    C1 2702   2.026   0.110  14.439 -0.5878 -0.2372 -0.0250
  174MPD1    C2 2703   1.920   0.198  14.442  0.1930 -0.7201  0.4017
  174MPD1    C3 2704   1.934   0.335  14.432 -0.2681  0.4602 -0.0144
  174MPD1    C4 2705   2.056   0.383  14.396 -0.1479  0.2731  0.0047
  174MPD1    C5 2706   2.161   0.294  14.376  0.4656  0.1085  0.5185
  174MPD1     H 2707   1.821   0.155  14.454  0.5103 -1.9389 -1.3310
  174MPD1    H1 2708   2.062   0.489  14.371 -2.5506  0.4160 -0.0574
  174MPD1    H2 2709   2.230   0.098  14.390 -0.2317 -0.5414  2.4443
  174MPD1    H3 2710   2.254   0.332  14.336 -0.6076 -0.3223 -2.3464
  174MPD1     N 2711   1.832   0.428  14.470 -1.0130  0.2815  0.3060
  174MPD1    H5 2712   1.854   0.526  14.458  1.2549 -0.2672  0.0757
  174MPD1    N1 2713   2.003   4.712  14.439  0.2984 -1.0884  0.3018
  174MPD1    H6 2714   2.072   4.661  14.493  0.8398 -0.3967  0.2617
  174MPD1    H7 2715   1.915   4.689  14.485 -0.4022  1.0409  0.0462
  175MPD1     C 2716   0.502   1.542  15.790  0.4491  0.5830 -0.0130
  175MPD1    C1 2717   0.603   1.524  15.879 -0.2744  0.6866  0.3067
  175MPD1    C2 2718   0.580   1.534  16.016  0.6020 -0.5129 -0.3446
  175MPD1    C3 2719   0.454   1.566  16.062 -0.0152  0.2506 -0.3324
  175MPD1    C4 2720   0.354   1.585  15.966  0.2645 -0.7023  0.1301
  175MPD1    C5 2721   0.381   1.571  15.835 -0.1449 -0.2939 -0.0521
  175MPD1     H 2722   0.661   1.520  16.087  1.5215  0.0746 -1.2697
  175MPD1    H1 2723   0.253   1.613  15.994  0.7934  2.6135 -1.2812
  175MPD1    H2 2724   0.528   1.527  15.686  1.1717  1.5706  0.0258
  175MPD1    H3 2725   0.299   1.585  15.765 -0.4245 -3.2827 -0.3252
  175MPD1     N 2726   0.426   1.592  16.198  0.0027 -0.3061 -0.1712
  175MPD1    H5 2727   0.330   1.619  16.217  0.6755  0.4954  2.0640
  175MPD1    N1 2728   0.728   1.481  15.825  0.1003 -0.0105 -0.4314
  175MPD1    H6 2729   0.808   1.497  15.886 -0.0234 -0.1263 -0.2392
  175MPD1    H7 2730   0.752   1.517  15.733  2.0139 -1.6466 -0.5820
  176MPD1     C 2731   1.899   3.918   0.065 -0.6056  0.1153  0.2408
  176MPD1    C1 2732   1.840   3.992  17.716 -0.4953  0.5020  0.0948
  176MPD1    C2 2733   1.916   4.067  17.636  0.3734 -0.3120 -0.7188
  176MPD1    C3 2734   2.056   4.075  17.664 -0.3255 -0.0440  0.0547
  176MPD1    C4 2735   2.112   4.001   0.005 -0.5497  0.3878  0.1347
  176MPD1    C5 2736   2.032   3.923   0.082  0.5617 -0.6635 -0.4800
  176MPD1     H 2737   1.875   4.135  17.563 -2.2334  0.6623  1.6533
  176MPD1    H1 2738   2.216   4.002   0.034 -0.9225  2.4293  1.4088
  176MPD1    H2 2739   1.841   3.851   0.128  2.0026 -2.6569 -0.3094
  176MPD1    H3 2740   2.082   3.876   0.166 -0.4243 -0.1548  0.3957
  176MPD1     N 2741   2.139   4.162  17.590  0.3629 -0.2629  0.1473
  176MPD1    H5 2742   2.096   4.209  17.510 -2.0623  0.0530  1.6388
  176MPD1    N1 2743   1.701   3.984  17.690 -0.0133  0.0320  0.0734
  176MPD1    H6 2744   1.667   4.061  17.632  0.4345  0.3972  0.2966
  176MPD1    H7 2745   1.646   3.953   0.012 -1.8471 -0.6139 -1.4455
  177MPD1     C 2746   4.340   4.158   9.736 -0.2804  0.9105  0.0694
  177MPD1    C1 2747   4.274   4.047   9.683 -0.6586 -0.2113  0.2503
  177MPD1    C2 2748   4.208   4.062   9.559  0.2407 -0.6974 -0.0829
  177MPD1    C3 2749   4.214   4.182   9.487  0.2634 -0.5861 -0.1350
  177MPD1    C4 2750   4.292   4.281   9.533 -0.4300 -0.4862 -0.6062
  177MPD1    C5 2751   4.361   4.264   9.655  0.5675 -0.3644 -0.4983
  177MPD1     H 2752   4.150   3.976   9.528 -0.6854  1.0431 -3.1999
  177MPD1    H1 2753   4.315   4.367   9.471 -0.1088 -0.7986 -0.9240
  177MPD1    H2 2754   4.402   4.157   9.824 -1.0225  1.2535  0.5962
  177MPD1    H3 2755   4.423   4.342   9.699 -0.7446  0.1875  0.3701
  177MPD1     N 2756   4.146   4.188   9.362  0.5413  0.1404 -0.1748
  177MPD1    H5 2757   4.080   4.113   9.343 -0.0422  0.2836  1.2508
  177MPD1    N1 2758   4.249   3.937   9.777 -0.2143  0.1874 -0.6854
  177MPD1    H6 2759   4.242   3.842   9.743  2.7158 -0.0496 -0.5704
  177MPD1    H7 2760   4.335   3.923   9.829 -0.7842  0.6387  0.3966
  178MPD1     C 2761   2.637   4.586   0.191  0.0448  0.6180  0.7811
  178MPD1    C1 2762   2.616   4.451   0.179  0.1099  0.1943  0.5946
  178MPD1    C2 2763   2.655   4.385   0.061  0.5944 -0.0780  0.4488
  178MPD1    C3 2764   2.736   4.448  17.726  0.8930  0.2772  0.5862
  178MPD1    C4 2765   2.778   4.578  17.754  0.0935 -0.4651 -0.4316
  178MPD1    C5 2766   2.724   4.641   0.100  0.1900 -0.4352 -0.0058
  178MPD1     H 2767   2.632   4.280   0.042  1.0703 -0.1835  0.4564
  178MPD1    H1 2768   2.854   4.635  17.702 -1.3676  0.3952 -1.6418
  178MPD1    H2 2769   2.583   4.638   0.270  0.3266 -0.9844  2.0246
  178MPD1    H3 2770   2.749   0.006   0.113  0.1327 -0.1991 -1.7748
  178MPD1     N 2771   2.779   4.383  17.612  0.4732  0.6448 -0.1469
  178MPD1    H5 2772   2.846   4.434  17.555 -0.7721  1.5249 -0.8333
  178MPD1    N1 2773   2.518   4.390   0.264  0.4304  0.7244  0.4378
  178MPD1    H6 2774   2.538   4.291   0.277 -0.9262  0.5173  0.9335
  178MPD1    H7 2775   2.512   4.439   0.353 -1.9306  1.9519 -0.4069
  179MPD1     C 2776   2.355   3.057  16.012  0.0256  0.4433  0.0259
  179MPD1    C1 2777   2.376   2.961  15.917  0.7948  0.0326  0.7557
  179MPD1    C2 2778   2.325   2.832  15.934  0.9078  0.6189 -0.0072
  179MPD1    C3 2779   2.258   2.803  16.051 -0.4523  0.3519  0.1279
  179MPD1    C4 2780   2.234   2.904  16.147  0.4293  0.0322 -0.2471
  179MPD1    C5 2781   2.286   3.025  16.127 -0.6074  0.2024  0.4863
  179MPD1     H 2782   2.339   2.755  15.859  2.4148  0.3338  0.5635
  179MPD1    H1 2783   2.178   2.893  16.239 -0.2244  2.5295 -0.3522
  179MPD1    H2 2784   2.389   3.156  15.986  0.9115 -0.5064 -2.4883
  179MPD1    H3 2785   2.273   3.107  16.196  1.6961 -0.0660  1.2320
  179MPD1     N 2786   2.220   2.671  16.080  0.6685  0.5613  0.6070
  179MPD1    H5 2787   2.185   2.645  16.172  0.6640  1.0700  0.7543
  179MPD1    N1 2788   2.413   3.008  15.792  0.4303  0.0685  0.5715
  179MPD1    H6 2789   2.468   3.093  15.798  0.8564 -0.0968 -0.9882
  179MPD1    H7 2790   2.449   2.943  15.723 -1.6428 -0.3986 -0.0892
  180MPD1     C 2791   2.148   3.956  15.399  0.2825 -0.2628 -0.4477
  180MPD1    C1 2792   2.186   4.024  15.285  0.8909  0.5980  0.2885
  180MPD1    C2 2793   2.125   3.993  15.165  0.3002  0.5022 -0.0051
  180MPD1    C3 2794   2.013   3.915  15.155 -0.0379 -0.2195 -0.3211
  180MPD1    C4 2795   1.978   3.850  15.272  0.5591  0.2038  0.0906
  180MPD1    C5 2796   2.047   3.865  15.391  0.3434 -0.2185 -0.0842
  180MPD1     H 2797   2.157   4.037  15.071  1.6581  1.6128  0.9901
  180MPD1    H1 2798   1.896   3.778  15.270  0.9012 -0.1979  0.5981
  180MPD1    H2 2799   2.186   3.955  15.501 -1.7006  0.0505  0.2979
  180MPD1    H3 2800   2.023   3.803  15.476 -0.4946  2.1874  1.4585
  180MPD1     N 2801   1.956   3.894  15.032  0.4585 -0.4922  0.0780
  180MPD1    H5 2802   1.990   3.941  14.949 -0.3309 -0.9465 -0.5055
  180MPD1    N1 2803   2.294   4.112  15.294  0.1829 -0.1289  0.5487
  180MPD1    H6 2804   2.283   4.189  15.228  0.9851  0.3008  0.9088
  180MPD1    H7 2805   2.323   4.137  15.388 -0.9140 -1.2807  1.1938
  181MPD1     C 2806   3.286   1.601  10.176  0.2445  0.6968  0.4658
  181MPD1    C1 2807   3.316   1.732  10.193  0.1482  0.2990 -0.5138
  181MPD1    C2 2808   3.455   1.761  10.194  0.3996 -0.6998  0.5819
  181MPD1    C3 2809   3.554   1.665  10.190  0.1634 -0.3992  0.3718
  181MPD1    C4 2810   3.516   1.532  10.169  1.2597  0.1712  0.4950
  181MPD1    C5 2811   3.383   1.503  10.169 -0.0739  0.1283 -0.1284
  181MPD1     H 2812   3.487   1.865  10.194 -1.5220 -0.1072 -0.3361
  181MPD1    H1 2813   3.584   1.453  10.141 -0.4751 -0.9767 -0.4223
  181MPD1    H2 2814   3.182   1.571  10.167  0.4814  0.7437 -2.5431
  181MPD1    H3 2815   3.340   1.407  10.142  1.2954 -0.7774  0.8757
  181MPD1     N 2816   3.698   1.689  10.184 -0.4439  0.3474  0.4720
  181MPD1    H5 2817   3.766   1.615  10.168 -0.1733  0.7157 -0.0827
  181MPD1    N1 2818   3.225   1.839  10.182 -0.7358 -0.1210  0.0379
  181MPD1    H6 2819   3.140   1.813  10.230 -0.6861  0.4311  0.4300
  181MPD1    H7 2820   3.277   1.915  10.226 -0.8589 -0.4171  0.6885
  182MPD1     C 2821   3.762   4.453   1.216 -0.0428 -0.8100  0.1998
  182MPD1    C1 2822   3.898   4.445   1.227  0.0968  0.1755 -0.5606
  182MPD1    C2 2823   3.973   4.417   1.110 -0.2292  0.0944 -0.3131
  182MPD1    C3 2824   3.899   4.390   0.991 -0.1618 -0.8397 -0.7178
  182MPD1    C4 2825   3.762   4.398   0.988  0.6123 -0.1764  0.1547
  182MPD1    C5 2826   3.694   4.412   1.103  0.2495 -0.2392 -0.4585
  182MPD1     H 2827   4.081   4.417   1.117 -0.1594  0.3141 -1.3171
  182MPD1    H1 2828   3.711   4.368   0.897 -0.8877 -1.9279  1.5701
  182MPD1    H2 2829   3.706   4.481   1.304 -0.4964 -2.2845  0.3896
  182MPD1    H3 2830   3.586   4.407   1.107  0.1085  0.2164 -3.5797
  182MPD1     N 2831   3.956   4.356   0.866 -0.2319  0.5280  0.2840
  182MPD1    H5 2832   3.888   4.318   0.801 -0.2986  0.6400  0.2899
  182MPD1    N1 2833   3.957   4.449   1.349 -0.1705 -0.0880  0.0625
  182MPD1    H6 2834   4.035   4.513   1.350 -0.1150 -0.1556  0.1136
  182MPD1    H7 2835   3.897   4.467   1.429 -1.5770 -2.7616 -0.3750
  183MPD1     C 2836   3.872   0.765   8.418  0.7296  0.1233 -0.0838
  183MPD1    C1 2837   3.759   0.813   8.483 -0.1242  0.0376 -0.0463
  183MPD1    C2 2838   3.776   0.842   8.615  0.5455 -0.2129  0.3277
  183MPD1    C3 2839   3.899   0.859   8.681 -0.0433  0.2066  0.2238
  183MPD1    C4 2840   4.012   0.813   8.606 -0.4530  0.1904 -0.7083
  183MPD1    C5 2841   3.993   0.772   8.478  0.6211 -0.2415  0.3324
  183MPD1     H 2842   3.681   0.852   8.667  0.0372 -1.1327 -0.4203
  183MPD1    H1 2843   4.115   0.828   8.637  0.0028  1.7673 -2.9709
  183MPD1    H2 2844   3.879   0.732   8.315  1.5645  0.4795 -0.1373
  183MPD1    H3 2845   4.077   0.751   8.413 -0.1602 -1.3017 -0.3378
  183MPD1     N 2846   3.907   0.929   8.806  0.2317  0.2659  0.1749
  183MPD1    H5 2847   3.820   0.963   8.846  0.3502  0.5952  0.1568
  183MPD1    N1 2848   3.628   0.809   8.426 -0.1014 -0.1114  0.1326
  183MPD1    H6 2849   3.632   0.814   8.324  1.4891  0.4709  0.2333
  183MPD1    H7 2850   3.562   0.879   8.461 -0.5347  0.0720 -1.0490
  184MPD1     C 2851   3.499   3.633  10.004 -0.6405 -0.1929  0.0519
  184MPD1    C1 2852   3.378   3.670   9.945  0.5505 -0.4806  0.3038
  184MPD1    C2 2853   3.382   3.772   9.853 -0.3284  0.3433  0.0856
  184MPD1    C3 2854   3.496   3.822   9.800  0.3969 -0.5676  0.2126
  184MPD1    C4 2855   3.609   3.773   9.848  0.5934  0.5595 -0.5994
  184MPD1    C5 2856   3.614   3.692   9.960 -0.2804 -0.7911 -0.0044
  184MPD1     H 2857   3.288   3.808   9.813 -1.1226 -1.7529  0.0264
  184MPD1    H1 2858   3.708   3.806   9.820  0.0138  2.3993 -0.4945
  184MPD1    H2 2859   3.509   3.569  10.090 -1.1094 -0.2584  0.0539
  184MPD1    H3 2860   3.710   3.664  10.001  0.4195  1.0812 -0.3524
  184MPD1     N 2861   3.502   3.934   9.706  0.1213  0.5024  0.0226
  184MPD1    H5 2862   3.595   3.961   9.677 -0.0068  0.7259 -0.1715
  184MPD1    N1 2863   3.256   3.635  10.009 -0.2120  0.3980 -0.0479
  184MPD1    H6 2864   3.182   3.618   9.941  0.6804  2.8745 -1.6478
  184MPD1    H7 2865   3.263   3.543  10.051  0.3053 -0.3176 -1.6732
  185MPD1     C 2866   2.805   3.967   9.030 -0.5744 -0.7901 -0.3502
  185MPD1    C1 2867   2.911   4.043   8.973  0.0462 -0.6238  0.0541
  185MPD1    C2 2868   3.005   4.095   9.058  0.0694  0.3626  0.1727
  185MPD1    C3 2869   2.996   4.089   9.193  0.5492 -0.5400  0.3266
  185MPD1    C4 2870   2.893   4.020   9.250  0.2629 -0.6852  0.3061
  185MPD1    C5 2871   2.799   3.954   9.168  0.4644  0.0921 -0.1282
  185MPD1     H 2872   3.088   4.149   9.013  0.3042  0.4453  0.7069
  185MPD1    H1 2873   2.879   4.014   9.358 -1.5364  1.3413  0.1819
  185MPD1    H2 2874   2.732   3.922   8.964 -1.5398  2.3199 -1.4144
  185MPD1    H3 2875   2.723   3.903   9.227  0.9923 -1.4864 -0.8205
  185MPD1     N 2876   3.094   4.141   9.279 -0.0636  0.3875 -0.7922
  185MPD1    H5 2877   3.078   4.123   9.377 -0.3655 -0.1022 -0.9278
  185MPD1    N1 2878   2.944   4.016   8.842 -0.5217 -0.8812 -0.8017
  185MPD1    H6 2879   2.988   4.098   8.800 -2.0297 -0.4082 -1.4487
  185MPD1    H7 2880   2.855   4.011   8.793 -1.2063  0.2031  0.2923
  186MPD1     C 2881   2.743   2.403  15.550 -0.0608  0.0141 -0.4314
  186MPD1    C1 2882   2.730   2.331  15.666  0.5518  0.1473 -0.1096
  186MPD1    C2 2883   2.713   2.404  15.780 -0.5925  0.2722  0.5532
  186MPD1    C3 2884   2.684   2.541  15.773 -0.0472  0.3072 -0.3786
  186MPD1    C4 2885   2.677   2.605  15.654  0.3237  0.1058 -0.1794
  186MPD1    C5 2886   2.708   2.535  15.542  0.2967 -0.3993  0.0346
  186MPD1     H 2887   2.727   2.350  15.872  1.6135  1.2025  0.7709
  186MPD1    H1 2888   2.653   2.708  15.627  3.1111  1.2181  1.6179
  186MPD1    H2 2889   2.766   2.354  15.456  0.5362  0.6283 -0.6046
  186MPD1    H3 2890   2.706   2.589  15.448 -0.6303  1.2680  1.0210
  186MPD1     N 2891   2.651   2.623  15.882  0.1007  1.0240  0.2311
  186MPD1    H5 2892   2.651   2.723  15.869 -0.7492  0.9797 -0.0560
  186MPD1    N1 2893   2.767   2.196  15.664  0.1845  0.2777 -0.3453
  186MPD1    H6 2894   2.728   2.143  15.742  0.6242 -0.9058 -0.9184
  186MPD1    H7 2895   2.737   2.141  15.584  0.4842  0.6044 -0.6785
  187MPD1     C 2896   1.877   4.569   0.111  0.1494  0.8656  0.2627
  187MPD1    C1 2897   1.892   4.694   0.063 -0.2907 -0.3217  0.0149
  187MPD1    C2 2898   1.967   4.711  17.700  0.3256 -0.1939 -0.1695
  187MPD1    C3 2899   2.004   4.599  17.619  0.0224  0.4352 -0.5812
  187MPD1    C4 2900   1.985   4.470  17.676  0.0611  0.2287  0.8040
  187MPD1    C5 2901   1.917   4.459   0.041 -0.9233  0.1304  0.2958
  187MPD1     H 2902   1.984   0.076  17.675  0.8377  0.1577  1.6300
  187MPD1    H1 2903   2.022   4.381  17.625 -2.1967 -0.0319 -0.3691
  187MPD1    H2 2904   1.831   4.544   0.206 -0.2372  1.8221  0.3299
  187MPD1    H3 2905   1.910   4.358   0.082 -1.7468  0.0581 -0.0215
  187MPD1     N 2906   2.064   4.605  17.491  0.3266  0.1194  0.8228
  187MPD1    H5 2907   2.081   4.516  17.446 -0.2156  1.1375 -1.4055
  187MPD1    N1 2908   1.873   0.058   0.154  0.9586  0.5864 -0.0427
  187MPD1    H6 2909   1.792   0.056   0.217  0.2957 -0.9186 -0.9457
  187MPD1    H7 2910   1.857   0.148   0.108 -0.5027 -0.0662 -0.8199
  188MPD1     C 2911   0.913   0.691  10.347 -0.0044 -0.4062 -0.2275
  188MPD1    C1 2912   1.049   0.665  10.349  0.7669  0.3370  0.2307
  188MPD1    C2 2913   1.094   0.538  10.313  0.2511  0.3804  0.0053
  188MPD1    C3 2914   1.010   0.459  10.236 -0.1537 -0.6375 -0.3197
  188MPD1    C4 2915   0.880   0.499  10.214 -0.4251 -0.9494  0.1260
  188MPD1    C5 2916   0.838   0.607  10.277  0.0432 -0.1844  0.3605
  188MPD1     H 2917   1.197   0.515  10.335  0.3249 -1.0572 -1.8069
  188MPD1    H1 2918   0.800   0.444  10.167 -1.2572 -0.1860  0.6415
  188MPD1    H2 2919   0.877   0.792  10.364  2.5029  0.5100 -0.2491
  188MPD1    H3 2920   0.736   0.641  10.267 -0.4713 -1.6177  0.8041
  188MPD1     N 2921   1.046   0.329  10.197 -0.4535 -0.0630 -0.1800
  188MPD1    H5 2922   0.975   0.277  10.147  1.1158 -1.7788 -0.6182
  188MPD1    N1 2923   1.141   0.756  10.414  0.8086  0.2501 -0.2830
  188MPD1    H6 2924   1.105   0.850  10.398 -0.7829  0.0536  2.1040
  188MPD1    H7 2925   1.237   0.748  10.380  1.1834 -0.6033  0.9527
  189MPD1     C 2926   4.188   0.485  17.426  0.0822  1.1779 -0.1311
  189MPD1    C1 2927   4.077   0.519  17.351  0.2415  0.1350 -0.0107
  189MPD1    C2 2928   4.023   0.646  17.366  0.1204  0.1339  0.0829
  189MPD1    C3 2929   4.072   0.736  17.460 -0.9263 -0.4020 -0.0647
  189MPD1    C4 2930   4.183   0.697  17.532 -0.5659  0.6126 -0.5658
  189MPD1    C5 2931   4.235   0.573  17.517 -0.2570  0.3385 -0.3953
  189MPD1     H 2932   3.939   0.679  17.306  0.0192  1.5698  1.0110
  189MPD1    H1 2933   4.222   0.755  17.615 -0.8986 -0.4067  0.3046
  189MPD1    H2 2934   4.240   0.393  17.401  0.4037  1.4838 -0.5766
  189MPD1    H3 2935   4.328   0.563  17.571 -0.8090 -1.1664  0.2840
  189MPD1     N 2936   4.009   0.858  17.473  0.5289  0.7675  0.7098
  189MPD1    H5 2937   3.940   0.879  17.401  0.7982  1.3967  0.6272
  189MPD1    N1 2938   4.027   0.434  17.254  0.0901 -0.2682 -0.3675
  189MPD1    H6 2939   3.925   0.429  17.258  0.1349 -0.1503  0.9570
  189MPD1    H7 2940   4.054   0.341  17.285  0.2213 -0.7207 -1.8523
  190MPD1     C 2941   2.342   4.531  14.937  0.3902 -0.6271  0.1504
  190MPD1    C1 2942   2.275   4.409  14.964 -0.0946 -0.3738  1.0409
  190MPD1    C2 2943   2.345   4.318  15.042  0.0177 -0.0908 -0.1880
  190MPD1    C3 2944   2.479   4.323  15.057 -0.1554  0.0031 -0.3545
  190MPD1    C4 2945   2.540   4.439  15.020  0.1183 -0.0638 -0.0242
  190MPD1    C5 2946   2.476   4.544  14.962  0.4004 -0.4429 -0.0898
  190MPD1     H 2947   2.289   4.230  15.072 -0.8655 -0.1417 -1.9397
  190MPD1    H1 2948   2.644   4.465  15.036 -0.4096  1.6615  0.6253
  190MPD1    H2 2949   2.290   4.618  14.900 -0.2782 -0.1597  2.1650
  190MPD1    H3 2950   2.531   4.629  14.925  0.5743  0.0313  1.2480
  190MPD1     N 2951   2.539   4.211  15.115  0.2216 -1.3040  0.0552
  190MPD1    H5 2952   2.471   4.143  15.146 -1.0453  1.0677  2.4898
  190MPD1    N1 2953   2.137   4.409  14.947  0.3825 -0.3156 -0.0135
  190MPD1    H6 2954   2.118   4.312  14.921 -2.1535 -0.2213  1.6023
  190MPD1    H7 2955   2.105   4.481  14.882 -0.1704  0.9197  1.6472
  191MPD1     C 2956   1.615   0.736  12.586 -0.2133 -0.0339  0.1362
  191MPD1    C1 2957   1.604   0.810  12.706  0.1089  0.0957  0.4275
  191MPD1    C2 2958   1.558   0.938  12.684  0.0647  0.7393  0.5565
  191MPD1    C3 2959   1.522   0.996  12.563  0.1123  0.6880  0.0631
  191MPD1    C4 2960   1.529   0.918  12.449 -0.1852 -0.4350  0.1190
  191MPD1    C5 2961   1.578   0.792  12.465  0.0040 -0.2325 -0.2751
  191MPD1     H 2962   1.549   0.996  12.775 -0.7615  1.1752  0.1984
  191MPD1    H1 2963   1.492   0.947  12.352  1.1818 -1.2259 -0.6475
  191MPD1    H2 2964   1.644   0.631  12.582 -0.9530 -0.3363  2.9327
  191MPD1    H3 2965   1.581   0.723  12.382 -1.9581 -1.9839  1.1034
  191MPD1     N 2966   1.463   1.131  12.545 -0.5439 -0.8696 -0.2782
  191MPD1    H5 2967   1.448   1.163  12.450  3.0110 -2.1190 -1.2704
  191MPD1    N1 2968   1.650   0.771  12.835  0.3177 -0.3266  0.1663
  191MPD1    H6 2969   1.617   0.675  12.847 -1.5858  0.5697  2.2261
  191MPD1    H7 2970   1.604   0.832  12.903 -0.7185 -2.6817  1.6196
  192MPD1     C 2971   0.831   1.997  12.800  0.5995  0.2884  0.5959
  192MPD1    C1 2972   0.824   1.871  12.847  0.2428  0.5990  0.6825
  192MPD1    C2 2973   0.922   1.778  12.828  0.7328  0.3830  0.3054
  192MPD1    C3 2974   1.027   1.812  12.750  1.4556  0.2409  0.0261
  192MPD1    C4 2975   1.029   1.943  12.692  0.2836  0.3678 -0.0487
  192MPD1    C5 2976   0.933   2.038  12.728  0.8767  0.8438 -0.4119
  192MPD1     H 2977   0.920   1.679  12.872 -0.5407  1.2674  2.2559
  192MPD1    H1 2978   1.116   1.982  12.640 -0.3047  2.0788  0.2407
  192MPD1    H2 2979   0.754   2.072  12.813 -1.0203 -0.8574 -2.2499
  192MPD1    H3 2980   0.945   2.143  12.704  0.2507  1.0292  0.1102
  192MPD1     N 2981   1.126   1.722  12.702 -1.1070  0.9394  1.1293
  192MPD1    H5 2982   1.198   1.754  12.638 -0.1958 -0.2942  1.5449
  192MPD1    N1 2983   0.708   1.833  12.920  0.5421 -0.0238 -0.2840
  192MPD1    H6 2984   0.630   1.895  12.896  0.5952  0.1528 -0.0046
  192MPD1    H7 2985   0.689   1.733  12.912 -0.1324  0.2047 -1.4353
  193MPD1     C 2986   1.009   1.405  16.538 -0.7110 -0.6506  0.6687
  193MPD1    C1 2987   1.092   1.299  16.569  0.1629  0.1286 -0.6034
  193MPD1    C2 2988   1.228   1.320  16.578  0.0243 -0.4123 -0.2237
  193MPD1    C3 2989   1.276   1.449  16.571 -0.1979  0.0207 -0.3564
  193MPD1    C4 2990   1.199   1.556  16.536  0.1445 -0.2595 -0.4541
  193MPD1    C5 2991   1.066   1.533  16.526 -0.0859 -0.1674  0.2943
  193MPD1     H 2992   1.288   1.232  16.600 -0.4122 -0.5049  0.5963
  193MPD1    H1 2993   1.241   1.655  16.519  1.2280 -0.5144  0.7516
  193MPD1    H2 2994   0.902   1.397  16.525 -0.8660 -1.4510  2.3885
  193MPD1    H3 2995   0.996   1.615  16.517  0.0634 -0.0794 -0.0531
  193MPD1     N 2996   1.413   1.478  16.601 -0.3823  0.6490  0.0037
  193MPD1    H5 2997   1.441   1.575  16.600  2.3738 -0.1577  0.4444
  193MPD1    N1 2998   1.049   1.168  16.551 -0.1169 -0.2577  0.8281
  193MPD1    H6 2999   1.100   1.093  16.598 -0.4606  0.2015  1.9318
  193MPD1    H7 3000   0.953   1.160  16.584 -0.6290  0.5974 -0.4786
  194MPD1     C 3001   3.424   3.369   0.385  0.3063  1.3478  0.0736
  194MPD1    C1 3002   3.364   3.311   0.273 -0.5798 -0.1353  0.6280
  194MPD1    C2 3003   3.438   3.227   0.191 -0.0346 -0.0653  0.1035
  194MPD1    C3 3004   3.571   3.199   0.217  0.6812 -0.3284  0.7016
  194MPD1    C4 3005   3.622   3.238   0.338 -1.0549  0.4841  0.0424
  194MPD1    C5 3006   3.550   3.324   0.419 -0.4682  1.1733 -0.7354
  194MPD1     H 3007   3.398   3.199   0.095  4.1129 -0.5159 -1.4701
  194MPD1    H1 3008   3.726   3.218   0.362 -1.7963 -2.3717  0.8927
  194MPD1    H2 3009   3.371   3.447   0.439 -2.9661  0.2832 -1.5690
  194MPD1    H3 3010   3.596   3.379   0.500 -0.1273  2.3881 -1.7745
  194MPD1     N 3011   3.653   3.112   0.139 -0.5224  0.5877 -0.3129
  194MPD1    H5 3012   3.744   3.089   0.177 -0.5402  1.0138 -0.0124
  194MPD1    N1 3013   3.237   3.349   0.239  1.0011 -0.1307 -0.8960
  194MPD1    H6 3014   3.193   3.286   0.172  0.0167  0.7852 -1.1173
  194MPD1    H7 3015   3.175   3.360   0.318 -0.1022 -0.8410 -1.6729
  195MPD1     C 3016   1.573   0.241   1.219 -0.0872  0.3183  0.2193
  195MPD1    C1 3017   1.701   0.289   1.203  0.1322 -0.2062  0.2566
  195MPD1    C2 3018   1.742   0.286   1.071  0.6757 -0.2134  0.3093
  195MPD1    C3 3019   1.684   0.208   0.971  0.6033 -0.2734 -1.0675
  195MPD1    C4 3020   1.560   0.155   1.000 -0.4278  0.5300 -0.5335
  195MPD1    C5 3021   1.502   0.179   1.121  0.0066  0.2306  0.2379
  195MPD1     H 3022   1.836   0.341   1.064  1.6598 -1.8151  0.9519
  195MPD1    H1 3023   1.510   0.098   0.923 -0.0803 -2.2615  1.2908
  195MPD1    H2 3024   1.527   0.253   1.316 -0.0473 -0.4149  0.3324
  195MPD1    H3 3025   1.406   0.136   1.147  0.6971 -0.8148  1.0565
  195MPD1     N 3026   1.741   0.200   0.842 -0.2945  0.0694 -0.1881
  195MPD1    H5 3027   1.672   0.169   0.775  1.5158 -1.6482 -1.2343
  195MPD1    N1 3028   1.769   0.369   1.300 -0.4035 -0.0941 -0.1873
  195MPD1    H6 3029   1.868   0.349   1.292 -0.5588 -1.5778  1.6451
  195MPD1    H7 3030   1.743   0.331   1.391  0.2165  1.6432  0.7166
  196MPD1     C 3031   0.810   3.553   0.343 -0.4518 -0.4695 -0.3582
  196MPD1    C1 3032   0.916   3.594   0.422 -0.0423  0.2237 -0.5347
  196MPD1    C2 3033   0.907   3.728   0.467  0.0927 -0.3523 -0.6384
  196MPD1    C3 3034   0.794   3.803   0.441  0.0661  0.6607 -0.5045
  196MPD1    C4 3035   0.700   3.757   0.352  0.4574 -0.1964  0.1845
  196MPD1    C5 3036   0.707   3.631   0.301  0.0437  0.5114 -0.1239
  196MPD1     H 3037   0.995   3.766   0.519  0.7583 -2.6869 -0.0248
  196MPD1    H1 3038   0.619   3.819   0.316  1.0386 -0.7583 -2.0988
  196MPD1    H2 3039   0.818   3.449   0.317  1.0912 -1.2687  3.3479
  196MPD1    H3 3040   0.631   3.596   0.231 -0.8814  0.1612  1.0543
  196MPD1     N 3041   0.775   3.932   0.499  0.1100  0.2470 -0.2456
  196MPD1    H5 3042   0.701   3.988   0.459  0.9609  0.9243 -0.8699
  196MPD1    N1 3043   1.024   3.508   0.444 -0.1400 -0.4864 -0.2444
  196MPD1    H6 3044   1.059   3.527   0.537  0.1148 -3.0090  0.1587
  196MPD1    H7 3045   1.001   3.409   0.438 -0.0888 -0.3403 -3.2923
  197MPD1     C 3046   4.473   2.891  17.373  0.1833  0.2345 -0.1781
  197MPD1    C1 3047   4.453   2.767  17.320 -0.5229  0.1181  0.5988
  197MPD1    C2 3048   4.564   2.691  17.294 -0.1085  0.3615  0.4116
  197MPD1    C3 3049   4.690   2.753  17.293  0.6161  0.0329  0.0952
  197MPD1    C4 3050   4.701   2.886  17.319  0.1783  0.9733 -0.0771
  197MPD1    C5 3051   4.590   2.956  17.353 -0.5583 -0.4624 -0.0688
  197MPD1     H 3052   4.550   2.592  17.254  2.3104  0.8386 -1.5969
  197MPD1    H1 3053   0.056   2.937  17.306  0.2303  0.8891 -0.0247
  197MPD1    H2 3054   4.391   2.952  17.411  0.0745  0.0026 -0.0426
  197MPD1    H3 3055   4.602   3.057  17.390 -1.2884  0.0952 -1.3229
  197MPD1     N 3056   0.072   2.685  17.269 -0.3268 -0.8489  0.4182
  197MPD1    H5 3057   0.153   2.743  17.285  0.3569 -1.4700 -0.7753
  197MPD1    N1 3058   4.329   2.704  17.331  0.2541  0.0422 -0.1185
  197MPD1    H6 3059   4.245   2.761  17.323  2.1576  2.9104  0.6776
  197MPD1    H7 3060   4.311   2.632  17.261 -0.4917 -1.8999  2.0670
  198MPD1     C 3061   2.033   0.195  15.071  0.1302 -0.2469  0.2757
  198MPD1    C1 3062   2.076   0.327  15.074  0.2500  0.1753 -0.4346
  198MPD1    C2 3063   2.082   0.385  15.201  0.2901  0.1194 -1.0357
  198MPD1    C3 3064   2.060   0.317  15.321  0.1693 -0.4279 -0.4126
  198MPD1    C4 3065   2.016   0.187  15.309 -0.6591  0.2699  0.0998
  198MPD1    C5 3066   2.000   0.124  15.182 -0.7569  0.1016 -0.4710
  198MPD1     H 3067   2.118   0.487  15.205 -2.0072  0.8905  0.0950
  198MPD1    H1 3068   2.001   0.125  15.397  2.0624  0.5979  0.8177
  198MPD1    H2 3069   2.024   0.141  14.977  2.9963 -3.1514  1.6731
  198MPD1    H3 3070   1.983   0.017  15.176 -0.4362  0.0103  0.2520
  198MPD1     N 3071   2.077   0.378  15.443  0.1256  0.1152 -0.4642
  198MPD1    H5 3072   2.096   0.478  15.442 -0.2080  0.1804 -0.3411
  198MPD1    N1 3073   2.121   0.397  14.957  0.0016  0.3499  0.0224
  198MPD1    H6 3074   2.099   0.348  14.870 -0.5749 -1.2877  1.0898
  198MPD1    H7 3075   2.092   0.494  14.949  1.2440  0.7388  0.2937
  199MPD1     C 3076   4.249   2.046   9.790  0.2752 -0.8709  0.2375
  199MPD1    C1 3077   4.180   2.084   9.902  0.2404 -0.1200 -0.6619
  199MPD1    C2 3078   4.054   2.046   9.916  0.6250 -0.1138  0.1849
  199MPD1    C3 3079   3.988   1.975   9.818 -0.6094  0.4951 -0.0548
  199MPD1    C4 3080   4.063   1.930   9.711  0.5472 -0.2979 -0.6861
  199MPD1    C5 3081   4.193   1.967   9.688  0.2236 -0.2346  0.1632
  199MPD1     H 3082   4.004   2.071  10.009 -0.2991 -2.2153  0.2632
  199MPD1    H1 3083   4.019   1.864   9.637 -0.1393  0.4575 -0.9503
  199MPD1    H2 3084   4.348   2.078   9.760 -0.0146 -0.8386 -0.7135
  199MPD1    H3 3085   4.242   1.950   9.593  2.7335 -1.0518  1.6223
  199MPD1     N 3086   3.850   1.936   9.818  0.3893 -0.6012 -0.0725
  199MPD1    H5 3087   3.812   1.879   9.743  0.5192 -0.6548 -0.0991
  199MPD1    N1 3088   4.228   2.186   9.985  0.4613  0.6733 -0.1939
  199MPD1    H6 3089   4.328   2.169   9.993  0.9365  3.7115  0.0046
  199MPD1    H7 3090   4.189   2.171  10.077  0.6985 -1.8645 -0.5060
  200MPD1     C 3091   2.273   1.299  15.808  0.2840 -0.4515 -0.0478
  200MPD1    C1 3092   2.248   1.217  15.698  0.1394 -0.6907  0.3387
  200MPD1    C2 3093   2.327   1.238  15.592 -0.4113  0.0488 -0.3516
  200MPD1    C3 3094   2.426   1.330  15.581  0.4831  0.5792  0.4516
  200MPD1    C4 3095   2.442   1.410  15.688  0.2592 -0.0253 -0.4016
  200MPD1    C5 3096   2.364   1.396  15.794 -0.3583 -0.2297 -0.6754
  200MPD1     H 3097   2.313   1.169  15.509 -0.7330 -3.2318  2.4079
  200MPD1    H1 3098   2.525   1.481  15.692 -0.9809  1.3619  0.6386
  200MPD1    H2 3099   2.219   1.298  15.903  1.9882  0.0481  0.9136
  200MPD1    H3 3100   2.397   1.450  15.882 -0.2349 -0.9837 -0.2513
  200MPD1     N 3101   2.512   1.337  15.469  0.5192  0.1488  0.2558
  200MPD1    H5 3102   2.485   1.275  15.393 -3.0773  1.3240  0.5722
  200MPD1    N1 3103   2.157   1.106  15.702 -0.0089  0.4107  0.4622
  200MPD1    H6 3104   2.118   1.088  15.794  1.6936 -2.6421  0.5666
  200MPD1    H7 3105   2.081   1.126  15.638  0.2971  1.2063  0.3420
  201MPD1     C 3106   0.655   1.166  12.874  0.7524  0.0409 -0.0883
  201MPD1    C1 3107   0.598   1.046  12.858 -0.0246 -0.3919  0.5268
  201MPD1    C2 3108   0.661   0.935  12.919 -0.2976  0.2327 -0.3671
  201MPD1    C3 3109   0.759   0.956  13.016  0.6099  0.4753  0.0089
  201MPD1    C4 3110   0.791   1.086  13.053 -0.5222 -0.3153  0.0497
  201MPD1    C5 3111   0.743   1.189  12.979  0.1145 -0.1411  0.6675
  201MPD1     H 3112   0.626   0.835  12.897  1.4728 -0.5454  0.3410
  201MPD1    H1 3113   0.860   1.110  13.134 -1.6129  0.4292  0.7564
  201MPD1    H2 3114   0.625   1.256  12.820  1.6918  1.3540  1.5739
  201MPD1    H3 3115   0.780   1.287  13.006  2.1702 -0.7980  0.2099
  201MPD1     N 3116   0.817   0.841  13.078  0.4560  0.0349 -0.2292
  201MPD1    H5 3117   0.805   0.753  13.027 -1.2308  0.3790 -0.4118
  201MPD1    N1 3118   0.513   1.027  12.753 -0.0459 -0.1003  0.0758
  201MPD1    H6 3119   0.477   0.931  12.756  0.6195 -0.3210  0.8701
  201MPD1    H7 3120   0.435   1.092  12.749 -1.6911 -2.1373 -0.8854
  202MPD1     C 3121   0.008   0.201   8.814  0.6262 -0.0766  1.0064
  202MPD1    C1 3122   0.123   0.184   8.883 -0.2537 -0.3602  0.6648
  202MPD1    C2 3123   0.126   0.236   9.010  0.3041  0.2422  0.1391
  202MPD1    C3 3124   0.029   0.324   9.061 -0.5050  0.1043  0.8979
  202MPD1    C4 3125   4.669   0.369   8.974 -0.0282  0.1215  0.4973
  202MPD1    C5 3126   4.663   0.302   8.860  0.3795  0.0417  0.5534
  202MPD1     H 3127   0.201   0.190   9.073  0.1305  0.1726  0.2959
  202MPD1    H1 3128   4.595   0.447   8.990 -0.2844  0.0790 -0.5242
  202MPD1    H2 3129   4.713   0.142   8.730  2.6419 -1.9728  1.5246
  202MPD1    H3 3130   4.582   0.343   8.801  0.5980  0.1601  0.3337
  202MPD1     N 3131   0.037   0.383   9.192 -0.4501  1.0844  0.4655
  202MPD1    H5 3132   4.703   0.448   9.218 -0.1676  1.6127 -0.0847
  202MPD1    N1 3133   0.196   0.061   8.867  0.2900  0.6928  0.3830
  202MPD1    H6 3134   0.212   0.046   8.768 -0.3189 -0.8005  0.5057
  202MPD1    H7 3135   0.290   0.072   8.905  0.0439 -0.4151  1.3372
  203MPD1     C 3136   3.631   0.838  12.293 -0.6504  0.1034 -0.1061
  203MPD1    C1 3137   3.738   0.774  12.237 -0.2164  0.1195  0.7569
  203MPD1    C2 3138   3.841   0.725  12.315 -0.1303 -0.1825  1.2237
  203MPD1    C3 3139   3.831   0.751  12.453  0.0496 -0.0458  0.1764
  203MPD1    C4 3140   3.731   0.821  12.512  0.4239 -0.2269 -0.6336
  203MPD1    C5 3141   3.626   0.862  12.432 -0.4349 -0.0057  0.0567
  203MPD1     H 3142   3.910   0.648  12.281 -1.7349 -0.9184 -0.4007
  203MPD1    H1 3143   3.724   0.839  12.618  3.7903  0.6923 -0.5723
  203MPD1    H2 3144   3.549   0.867  12.228 -0.1003 -1.4433 -1.5010
  203MPD1    H3 3145   3.545   0.924  12.468  0.3757  0.0800  1.7014
  203MPD1     N 3146   3.937   0.696  12.529 -0.0944 -0.1354 -0.1992
  203MPD1    H5 3147   4.006   0.652  12.470 -0.5648 -1.3519  0.1498
  203MPD1    N1 3148   3.740   0.742  12.103  0.4750 -0.3021  0.6430
  203MPD1    H6 3149   3.835   0.725  12.072  1.2319  2.9973  1.1530
  203MPD1    H7 3150   3.692   0.809  12.043  0.3612 -1.1530 -0.2141
  204MPD1     C 3151   4.363   2.679   0.108 -0.3614  0.0343  0.1531
  204MPD1    C1 3152   4.392   2.664  17.730 -0.3799  0.0359 -0.1442
  204MPD1    C2 3153   4.422   2.534  17.688  0.1942  0.3947  0.1379
  204MPD1    C3 3154   4.405   2.429   0.019 -0.5221  0.1007  0.1241
  204MPD1    C4 3155   4.369   2.449   0.147  0.1396  0.0150 -0.1190
  204MPD1    C5 3156   4.347   2.580   0.191  0.1903 -0.4188  0.8247
  204MPD1     H 3157   4.460   2.512  17.589  0.0535 -2.0194  0.6122
  204MPD1    H1 3158   4.364   2.369   0.220 -0.8564  0.0174 -0.1730
  204MPD1    H2 3159   4.348   2.773   0.160 -1.5143  0.7923 -1.5273
  204MPD1    H3 3160   4.330   2.598   0.296 -0.0088 -0.1931  0.7564
  204MPD1     N 3161   4.433   2.305  17.728 -0.0636  0.2327 -0.3866
  204MPD1    H5 3162   4.420   2.302  17.627  0.8363 -1.6957 -0.4429
  204MPD1    N1 3163   4.421   2.780  17.657 -0.4917 -0.4058  0.4366
  204MPD1    H6 3164   4.372   2.865  17.682 -1.6108 -0.6764 -0.8419
  204MPD1    H7 3165   4.433   2.780  17.556  1.1174  2.1636  0.6255
  205MPD1     C 3166   3.784   0.565  17.725 -0.3771 -0.2615 -0.2665
  205MPD1    C1 3167   3.753   0.687   0.022 -0.2351 -0.0286  0.0685
  205MPD1    C2 3168   3.856   0.756   0.089 -0.2083  0.0009 -0.4829
  205MPD1    C3 3169   3.986   0.707   0.096 -0.3756 -0.7686 -0.2525
  205MPD1    C4 3170   4.016   0.592   0.025 -0.4665 -0.4800 -1.0529
  205MPD1    C5 3171   3.915   0.524  17.727 -0.1949 -0.1206  0.2433
  205MPD1     H 3172   3.832   0.853   0.131  2.5170 -0.3322  1.8895
  205MPD1    H1 3173   4.119   0.557   0.022 -0.0335  0.6593  1.2983
  205MPD1    H2 3174   3.708   0.502  17.679  1.0239 -2.7386  0.8389
  205MPD1    H3 3175   3.932   0.429  17.678 -0.7656 -0.1496  0.0930
  205MPD1     N 3176   4.090   0.786   0.157 -0.2429 -0.6311 -0.6560
  205MPD1    H5 3177   4.075   0.882   0.184 -0.9504 -1.2859  1.3216
  205MPD1    N1 3178   3.621   0.728   0.027 -0.2163  0.2771  0.3323
  205MPD1    H6 3179   3.611   0.830   0.027  1.0206  0.4097 -1.3496
  205MPD1    H7 3180   3.559   0.697  17.710  1.5929  0.9013 -1.4627
  206MPD1     C 3181   3.557   3.914  17.371 -0.5250  0.2041 -0.1722
  206MPD1    C1 3182   3.642   3.803  17.357  0.0695 -0.1685  0.3218
  206MPD1    C2 3183   3.656   3.734  17.235 -0.3081 -0.2797 -0.1678
  206MPD1    C3 3184   3.597   3.787  17.120 -0.0930  1.0543 -0.5033
  206MPD1    C4 3185   3.514   3.900  17.135  0.8687 -0.5279 -0.7587
  206MPD1    C5 3186   3.498   3.958  17.257  1.2797  0.3990  0.0599
  206MPD1     H 3187   3.715   3.643  17.236 -0.8096 -0.6024  0.0228
  206MPD1    H1 3188   3.459   3.954  17.058 -0.2498 -0.0640  0.3645
  206MPD1    H2 3189   3.520   3.966  17.458  2.6134 -0.5833  1.6252
  206MPD1    H3 3190   3.418   4.030  17.268  0.5743 -0.3641 -0.0842
  206MPD1     N 3191   3.615   3.741  16.985 -0.6087 -0.2690  0.1357
  206MPD1    H5 3192   3.567   3.793  16.912 -0.1038  3.1546  2.2456
  206MPD1    N1 3193   3.694   3.743  17.472  0.4455  0.3223  0.9143
  206MPD1    H6 3194   3.775   3.682  17.461  2.0395  2.4310  0.7733
  206MPD1    H7 3195   3.708   3.802  17.554  2.1133 -1.0386  1.6125
  207MPD1     C 3196   1.939   0.751  10.364  0.1799 -0.1950 -0.3834
  207MPD1    C1 3197   1.963   0.875  10.419  0.2288  0.2492 -0.3852
  207MPD1    C2 3198   1.874   0.982  10.394 -0.0721  0.0103  0.2077
  207MPD1    C3 3199   1.765   0.965  10.309  1.1423 -0.2558 -0.0635
  207MPD1    C4 3200   1.747   0.840  10.252 -0.1035 -0.9581 -0.6459
  207MPD1    C5 3201   1.828   0.735  10.283 -0.4028 -0.0675  0.5187
  207MPD1     H 3202   1.879   1.080  10.441 -0.2935  0.6147 -1.0537
  207MPD1    H1 3203   1.665   0.826  10.182 -1.0418 -0.9817  0.4693
  207MPD1    H2 3204   2.007   0.669  10.384 -0.5765 -0.7685 -0.1424
  207MPD1    H3 3205   1.808   0.635  10.247 -0.9665  0.2137  0.0456
  207MPD1     N 3206   1.684   1.077  10.275 -0.2925  0.2516  0.1761
  207MPD1    H5 3207   1.631   1.061  10.190 -2.2166 -0.4065  1.5108
  207MPD1    N1 3208   2.067   0.886  10.525  0.3014  0.2076  0.2091
  207MPD1    H6 3209   2.142   0.820  10.506 -0.2780 -0.9704  2.0391
  207MPD1    H7 3210   2.116   0.975  10.517 -1.1325  1.0578  0.8244
  208MPD1     C 3211   0.897   4.441   0.128  0.6922  0.0555  0.1138
  208MPD1    C1 3212   0.784   4.418   0.058  0.3511  0.8861  0.9332
  208MPD1    C2 3213   0.674   4.493   0.090  0.2124  0.2823 -0.7037
  208MPD1    C3 3214   0.682   4.605   0.169  0.8238  0.3109  0.4323
  208MPD1    C4 3215   0.801   4.632   0.231  0.2099 -0.2653 -1.1096
  208MPD1    C5 3216   0.907   4.544   0.219 -0.1583  0.4526 -0.6081
  208MPD1     H 3217   0.586   4.451   0.042  0.7058  0.8495 -2.1066
  208MPD1    H1 3218   0.806   4.708   0.308 -0.0018  0.9554 -2.3141
  208MPD1    H2 3219   0.982   4.376   0.112  0.6317 -0.2729  1.1566
  208MPD1    H3 3220   0.994   4.557   0.282 -2.4804 -0.5355  2.8716
  208MPD1     N 3221   0.557   4.671   0.205 -0.8059  0.4339  0.4889
  208MPD1    H5 3222   0.468   4.632   0.175 -0.8490  1.3487 -0.5494
  208MPD1    N1 3223   0.767   4.299  17.750  0.5098 -0.0519 -0.2501
  208MPD1    H6 3224   0.855   4.278  17.704  0.8982 -1.4775  1.1268
  208MPD1    H7 3225   0.699   4.300  17.674 -0.3312  1.6880  0.5420
  209MPD1     C 3226   0.176   1.687   9.882 -0.6649  0.1313  0.4802
  209MPD1    C1 3227   0.304   1.694   9.932  0.7027  0.1275 -0.0981
  209MPD1    C2 3228   0.357   1.585  10.000  0.0915  0.3160  0.8442
  209MPD1    C3 3229   0.281   1.471  10.035 -0.3959  0.2612  0.0659
  209MPD1    C4 3230   0.142   1.481  10.001  0.0449 -0.0473  0.2052
  209MPD1    C5 3231   0.093   1.584   9.924  0.3167  0.0870  0.1229
  209MPD1     H 3232   0.465   1.582  10.013  0.0860 -0.4168  0.6928
  209MPD1    H1 3233   0.073   1.407  10.041  0.3950  0.1000  1.0740
  209MPD1    H2 3234   0.122   1.754   9.816  1.1095  0.3861 -0.7023
  209MPD1    H3 3235   4.727   1.596   9.900  1.3342 -0.6352 -4.7054
  209MPD1     N 3236   0.343   1.369  10.110  0.4536  0.2609  0.1081
  209MPD1    H5 3237   0.436   1.382  10.150  0.3846 -1.3903  0.8337
  209MPD1    N1 3238   0.393   1.797   9.884 -0.9959 -1.0407 -0.0120
  209MPD1    H6 3239   0.359   1.889   9.857 -0.2559 -0.6009  0.5814
  209MPD1    H7 3240   0.478   1.806   9.938 -1.7866  3.4583  0.4611
  210MPD1     C 3241   0.459   0.449  10.640 -0.0219  0.8582 -0.4275
  210MPD1    C1 3242   0.342   0.489  10.570 -0.3804 -0.1463 -0.4336
  210MPD1    C2 3243   0.351   0.596  10.486  0.7145  0.3871 -0.1018
  210MPD1    C3 3244   0.468   0.667  10.475 -0.3275  0.1235  0.1883
  210MPD1    C4 3245   0.582   0.625  10.545 -0.4862  0.1765  0.1060
  210MPD1    C5 3246   0.580   0.511  10.623 -0.1058  0.1756  0.2554
  210MPD1     H 3247   0.264   0.617  10.425  1.0769  1.8961 -0.0998
  210MPD1    H1 3248   0.680   0.668  10.531 -0.9840  1.3092  0.1278
  210MPD1    H2 3249   0.457   0.363  10.706  2.5692  1.8976  1.0036
  210MPD1    H3 3250   0.672   0.487  10.676 -0.5617  0.5117  1.2042
  210MPD1     N 3251   0.480   0.779  10.394 -0.7196 -0.6262 -0.4045
  210MPD1    H5 3252   0.568   0.830  10.389 -0.2044 -1.4895 -0.1529
  210MPD1    N1 3253   0.228   0.413  10.579 -0.4718  0.3104  0.6584
  210MPD1    H6 3254   0.146   0.474  10.572 -0.9809 -0.2443  1.8888
  210MPD1    H7 3255   0.216   0.352  10.659  0.4301 -1.4878 -0.5867
  211MPD1     C 3256   4.648   0.350  16.275  0.7081  0.2493 -0.1824
  211MPD1    C1 3257   4.677   0.483  16.282 -0.2549 -0.6662 -0.1076
  211MPD1    C2 3258   4.583   0.563  16.340  0.6415  1.0876 -0.4909
  211MPD1    C3 3259   4.451   0.520  16.354  0.0387  0.3906  0.5499
  211MPD1    C4 3260   4.430   0.383  16.346  0.6456 -0.0177  0.1611
  211MPD1    C5 3261   4.525   0.300  16.302 -0.1615 -0.2277 -0.2991
  211MPD1     H 3262   4.599   0.669  16.357 -0.7595  1.4358 -1.3295
  211MPD1    H1 3263   4.342   0.326  16.376 -0.5448  1.7436  0.0153
  211MPD1    H2 3264   4.731   0.287  16.243 -0.5391 -1.1842 -0.5585
  211MPD1    H3 3265   4.509   0.193  16.302  0.0064 -0.2553  1.8066
  211MPD1     N 3266   4.353   0.605  16.401 -0.2861  0.0520  0.2023
  211MPD1    H5 3267   4.371   0.705  16.396 -1.2523  0.1620 -1.0591
  211MPD1    N1 3268   0.066   0.525  16.260 -0.1297 -0.2819 -0.2682
  211MPD1    H6 3269   0.121   0.456  16.208 -0.4327 -2.3586  2.1925
  211MPD1    H7 3270   0.066   0.624  16.235  0.3980 -0.9104 -2.7996
  212MPD1     C 3271   2.788   3.942  16.462  1.1523  0.5222 -0.0807
  212MPD1    C1 3272   2.734   3.821  16.434 -0.0560 -0.5503  0.0654
  212MPD1    C2 3273   2.765   3.714  16.517  0.1613  0.4998  0.0795
  212MPD1    C3 3274   2.846   3.731  16.623  0.2474 -0.3621  0.4500
  212MPD1    C4 3275   2.896   3.858  16.652  0.8267 -0.4835 -0.4203
  212MPD1    C5 3276   2.874   3.960  16.564  0.0885  0.1789 -0.3903
  212MPD1     H 3277   2.707   3.622  16.518  0.0184  0.5804 -1.3320
  212MPD1    H1 3278   2.960   3.878  16.738 -0.2456 -1.3679  0.5758
  212MPD1    H2 3279   2.755   4.026  16.403 -2.4903 -0.9296 -0.1396
  212MPD1    H3 3280   2.924   4.053  16.586 -1.5708  0.6642  1.4219
  212MPD1     N 3281   2.880   3.626  16.716 -0.4538 -0.0377  0.5072
  212MPD1    H5 3282   2.938   3.648  16.797 -0.7164  2.5572 -0.0318
  212MPD1    N1 3283   2.638   3.803  16.336 -0.0970  0.4212 -0.1014
  212MPD1    H6 3284   2.640   3.869  16.258  1.3356 -1.4188 -1.6244
  212MPD1    H7 3285   2.624   3.706  16.310 -0.7761  0.3043  0.7095
  213MPD1     C 3286   2.456   4.398  15.464 -0.4461  0.1653 -0.1876
  213MPD1    C1 3287   2.359   4.443  15.372  0.5931  0.2617  0.0497
  213MPD1    C2 3288   2.232   4.422  15.414 -0.5180 -0.4955 -0.0948
  213MPD1    C3 3289   2.192   4.328  15.512  0.2016  0.0496 -0.5594
  213MPD1    C4 3290   2.291   4.269  15.588  0.3375 -0.3704 -0.3147
  213MPD1    C5 3291   2.422   4.311  15.564  0.3802  0.1636 -0.2853
  213MPD1     H 3292   2.158   4.475  15.354  0.2896 -0.4721 -1.0833
  213MPD1    H1 3293   2.262   4.188  15.653 -1.1149 -0.2133 -0.7723
  213MPD1    H2 3294   2.561   4.411  15.439 -0.2258 -0.1987  0.5444
  213MPD1    H3 3295   2.506   4.273  15.621 -1.3898 -2.1985  0.6937
  213MPD1     N 3296   2.056   4.297  15.527 -0.5501 -0.1136 -0.3272
  213MPD1    H5 3297   1.993   4.353  15.471 -0.7296  1.1017  1.0931
  213MPD1    N1 3298   2.401   4.553  15.301  0.2179  0.4098 -0.2280
  213MPD1    H6 3299   2.330   4.564  15.229  0.6658  3.4922 -0.1991
  213MPD1    H7 3300   2.486   4.526  15.251  1.4945 -0.4083  2.3735
  214MPD1     C 3301   1.178   3.822  15.967 -0.7052 -0.1593  0.0174
  214MPD1    C1 3302   1.295   3.857  16.033 -0.3574  0.4428  0.1902
  214MPD1    C2 3303   1.398   3.920  15.959 -0.1999 -1.0312 -0.6156
  214MPD1    C3 3304   1.376   3.968  15.834 -1.1915  0.2321 -0.4323
  214MPD1    C4 3305   1.255   3.930  15.771  0.1860 -0.4128  0.2957
  214MPD1    C5 3306   1.161   3.860  15.836 -0.1614 -0.1798  0.0270
  214MPD1     H 3307   1.498   3.938  15.997 -0.3982 -0.6509 -0.2718
  214MPD1    H1 3308   1.230   3.972  15.674  0.4013 -0.2346  0.3176
  214MPD1    H2 3309   1.101   3.763  16.014  1.3460 -1.3931  1.8469
  214MPD1    H3 3310   1.074   3.833  15.776  0.3145  1.2701 -1.3245
  214MPD1     N 3311   1.463   4.050  15.754  0.0786  0.7870  0.1113
  214MPD1    H5 3312   1.439   4.074  15.658  0.8227 -1.1000 -0.5570
  214MPD1    N1 3313   1.316   3.801  16.167 -0.7958 -0.4703  0.4143
  214MPD1    H6 3314   1.381   3.861  16.218  1.0505 -3.0419  1.0718
  214MPD1    H7 3315   1.229   3.795  16.220 -1.3395 -0.3609 -0.4617
  215MPD1     C 3316   1.254   0.615  10.847 -0.0069  0.1734  0.4802
  215MPD1    C1 3317   1.270   0.616  10.983 -0.3637  0.3512  0.9472
  215MPD1    C2 3318   1.290   0.730  11.048 -0.0945  0.2324 -0.3682
  215MPD1    C3 3319   1.277   0.849  10.981 -1.2358  0.0988  0.1051
  215MPD1    C4 3320   1.263   0.853  10.846 -1.0254 -0.5959 -0.8335
  215MPD1    C5 3321   1.249   0.734  10.775  0.3230  1.1360  0.3917
  215MPD1     H 3322   1.307   0.728  11.155  3.7213 -3.1223 -0.9974
  215MPD1    H1 3323   1.239   0.942  10.790 -1.0860 -0.9053 -1.3055
  215MPD1    H2 3324   1.232   0.531  10.783  2.9687 -0.1244 -0.1319
  215MPD1    H3 3325   1.231   0.727  10.669 -0.8679 -1.4045  0.7516
  215MPD1     N 3326   1.295   0.964  11.062  0.9656  0.2061 -0.1431
  215MPD1    H5 3327   1.313   0.945  11.160  1.7093 -0.5360 -0.4206
  215MPD1    N1 3328   1.264   0.496  11.052  0.6535  0.1051  0.0525
  215MPD1    H6 3329   1.253   0.506  11.153  0.8748 -0.4327  0.1293
  215MPD1    H7 3330   1.180   0.445  11.026  0.7732 -0.8045  1.4269
  216MPD1     C 3331   2.695   3.495   0.933 -0.0747  0.8725  0.4717
  216MPD1    C1 3332   2.826   3.495   0.978 -0.4838 -0.1610 -0.0926
  216MPD1    C2 3333   2.919   3.427   0.907 -0.3748 -0.3350  0.3781
  216MPD1    C3 3334   2.875   3.346   0.794  0.0942  0.4322 -0.0566
  216MPD1    C4 3335   2.740   3.338   0.761 -0.9303 -0.5419  0.4167
  216MPD1    C5 3336   2.655   3.418   0.824  0.0936 -0.2377 -0.1250
  216MPD1     H 3337   3.022   3.441   0.937 -0.1662 -1.7028  0.3103
  216MPD1    H1 3338   2.708   3.289   0.670 -0.1125  1.6608 -1.0314
  216MPD1    H2 3339   2.622   3.563   0.974 -0.9412 -0.4166  1.0838
  216MPD1    H3 3340   2.551   3.418   0.793  0.0666 -1.1324 -0.0496
  216MPD1     N 3341   2.982   3.268   0.731  0.0078  0.3960  1.0694
  216MPD1    H5 3342   3.077   3.295   0.752  0.1887  1.3630 -0.9964
  216MPD1    N1 3343   2.863   3.579   1.083 -0.9078  0.1146 -0.3643
  216MPD1    H6 3344   2.955   3.561   1.123 -0.7632 -1.4304 -1.4019
  216MPD1    H7 3345   2.805   3.607   1.162 -1.8646 -0.2456 -0.9353
  217MPD1     C 3346   4.106   0.430   7.858  0.3524  0.7907 -0.2734
  217MPD1    C1 3347   3.970   0.414   7.879  0.0861 -0.2267  0.0934
  217MPD1    C2 3348   3.929   0.416   8.010  0.1691 -0.2822 -0.0112
  217MPD1    C3 3349   4.020   0.438   8.117  0.3270 -0.0458 -0.8512
  217MPD1    C4 3350   4.152   0.459   8.090 -0.1136 -0.3797 -0.4931
  217MPD1    C5 3351   4.193   0.452   7.961  0.1818 -0.3044 -0.3477
  217MPD1     H 3352   3.822   0.405   8.024  0.2571 -1.6337 -0.3852
  217MPD1    H1 3353   4.226   0.478   8.167 -0.4489  3.2601 -1.0455
  217MPD1    H2 3354   4.150   0.425   7.760 -0.8823 -0.0006 -0.7888
  217MPD1    H3 3355   4.299   0.458   7.936  0.2700 -2.4446 -0.4595
  217MPD1     N 3356   3.982   0.428   8.256 -0.0606 -0.1399 -0.1286
  217MPD1    H5 3357   4.055   0.449   8.323  0.3178  1.9704 -1.1829
  217MPD1    N1 3358   3.885   0.425   7.768 -0.0265 -0.2414 -0.1829
  217MPD1    H6 3359   3.808   0.358   7.775 -1.1775  1.0105 -0.8740
  217MPD1    H7 3360   3.924   0.404   7.676  2.2101 -0.0144  0.7078
  218MPD1     C 3361   1.089   1.320  13.235 -0.3831  0.5522 -0.0338
  218MPD1    C1 3362   1.083   1.355  13.108 -0.3578 -0.4796  1.1075
  218MPD1    C2 3363   1.110   1.263  13.013 -0.5768 -0.0156 -0.0862
  218MPD1    C3 3364   1.147   1.130  13.039  0.0528  0.3117 -0.1102
  218MPD1    C4 3365   1.143   1.094  13.170  0.7297  0.0032 -0.1660
  218MPD1    C5 3366   1.112   1.190  13.270  0.4266  0.1865  0.2156
  218MPD1     H 3367   1.106   1.286  12.907 -1.0643 -0.3213 -0.1339
  218MPD1    H1 3368   1.151   0.989  13.196 -1.9247 -0.7025 -2.2989
  218MPD1    H2 3369   1.073   1.401  13.306  0.2619  0.0779  0.6431
  218MPD1    H3 3370   1.109   1.151  13.371 -0.3950  0.8612  0.4546
  218MPD1     N 3371   1.185   1.042  12.931 -0.2238 -0.2072  0.4565
  218MPD1    H5 3372   1.182   1.074  12.835  0.8043  1.2687  0.9223
  218MPD1    N1 3373   1.071   1.496  13.075  0.5895  0.6167  0.0520
  218MPD1    H6 3374   1.000   1.542  13.132  0.7999 -1.5697  2.0925
  218MPD1    H7 3375   1.041   1.506  12.978 -0.4087 -0.8323  0.2069
  219MPD1     C 3376   0.974   0.826  11.976  0.8975 -0.3827  0.1640
  219MPD1    C1 3377   1.070   0.910  12.030 -0.1002  0.2728  0.0504
  219MPD1    C2 3378   1.091   0.906  12.166 -0.7597  0.3389  0.1341
  219MPD1    C3 3379   1.031   0.810  12.245 -1.0017  0.2173  0.3738
  219MPD1    C4 3380   0.931   0.728  12.185  1.0392 -0.3125  0.4708
  219MPD1    C5 3381   0.904   0.733  12.048 -0.5467 -0.1277 -0.1043
  219MPD1     H 3382   1.170   0.959  12.217 -0.6462 -0.7251  1.0903
  219MPD1    H1 3383   0.878   0.655  12.244  1.4809 -0.7866  0.2841
  219MPD1    H2 3384   0.945   0.825  11.871  0.2760  3.4405  0.3157
  219MPD1    H3 3385   0.824   0.671  12.008 -0.6016  0.3024 -0.6625
  219MPD1     N 3386   1.068   0.789  12.380  0.6330 -0.6501  0.2409
  219MPD1    H5 3387   1.016   0.716  12.426  0.5630 -0.7949 -0.0699
  219MPD1    N1 3388   1.133   1.009  11.951  0.3460 -0.5876  0.5260
  219MPD1    H6 3389   1.216   1.053  11.993  0.1287  0.7779 -0.4706
  219MPD1    H7 3390   1.146   0.991  11.852 -0.5150  1.5576  0.0136
  220MPD1     C 3391   0.633   2.317   9.871 -0.3917 -0.3700  0.3262
  220MPD1    C1 3392   0.588   2.188   9.835  0.2136 -0.0246  0.6364
  220MPD1    C2 3393   0.622   2.076   9.908  0.2912 -0.1662 -1.0176
  220MPD1    C3 3394   0.704   2.096  10.016 -0.5386 -1.1696  0.1506
  220MPD1    C4 3395   0.747   2.225  10.054 -0.2883  0.2860  0.4149
  220MPD1    C5 3396   0.713   2.330   9.974 -0.8849 -0.3186  0.0852
  220MPD1     H 3397   0.586   1.978   9.880  1.2555 -0.8550  0.1363
  220MPD1    H1 3398   0.818   2.238  10.135 -1.3170 -0.7277  1.4827
  220MPD1    H2 3399   0.600   2.402   9.811 -1.6662  0.5151  2.2869
  220MPD1    H3 3400   0.743   2.432   9.995  0.0299 -0.2807 -1.4407
  220MPD1     N 3401   0.743   2.001  10.108 -0.0772  0.4663  0.5009
  220MPD1    H5 3402   0.796   2.034  10.188  1.5034 -1.2753  0.1747
  220MPD1    N1 3403   0.513   2.180   9.719 -0.2940 -0.1855 -0.3356
  220MPD1    H6 3404   0.453   2.098   9.729  1.4865 -1.5851 -1.2123
  220MPD1    H7 3405   0.468   2.264   9.682  1.8613  0.3847 -1.6505
  221MPD1     C 3406   4.635   3.702  17.221 -0.4137  0.5811  0.4101
  221MPD1    C1 3407   4.675   3.833  17.210 -0.6698  0.4575 -0.2547
  221MPD1    C2 3408   4.617   3.914  17.119 -0.0639 -0.0385 -0.7152
  221MPD1    C3 3409   4.529   3.864  17.031 -0.1137 -0.4721 -0.0983
  221MPD1    C4 3410   4.508   3.727  17.024  0.1130 -0.2032 -0.4083
  221MPD1    C5 3411   4.556   3.646  17.124  0.5592  0.1198  0.3435
  221MPD1     H 3412   4.638   4.020  17.127 -0.9947  0.2534 -2.0775
  221MPD1    H1 3413   4.445   3.690  16.944  0.1482 -0.6734 -0.2226
  221MPD1    H2 3414   4.671   3.634  17.297 -0.1832 -0.3916 -0.5880
  221MPD1    H3 3415   4.538   3.540  17.124 -0.8297  0.3614  0.9552
  221MPD1     N 3416   4.482   3.943  16.920 -0.0298 -0.3026 -0.0487
  221MPD1    H5 3417   4.419   3.886  16.864  0.0421  2.1368 -2.5402
  221MPD1    N1 3418   0.001   3.884  17.325 -0.0183 -0.1607  0.3760
  221MPD1    H6 3419   0.065   3.960  17.303 -0.6350 -0.3482 -2.0877
  221MPD1    H7 3420   0.055   3.817  17.380  1.2869  0.9331  0.4299
  222MPD1     C 3421   3.387   3.626  16.786 -0.1761  0.2296 -0.0448
  222MPD1    C1 3422   3.335   3.748  16.818 -0.1428  0.8724  0.0591
  222MPD1    C2 3423   3.280   3.768  16.949  0.1392 -0.0647 -0.4002
  222MPD1    C3 3424   3.251   3.658  17.029  0.5287  0.0814 -0.0146
  222MPD1    C4 3425   3.298   3.531  16.987 -0.3613 -0.3683  0.3358
  222MPD1    C5 3426   3.355   3.522  16.866  0.3283 -0.1076 -0.1992
  222MPD1     H 3427   3.273   3.867  16.992  0.8372 -0.8144  1.4158
  222MPD1    H1 3428   3.293   3.453  17.061 -1.3588  0.1661  0.8241
  222MPD1    H2 3429   3.434   3.606  16.690 -0.4934  3.0721 -0.7907
  222MPD1    H3 3430   3.375   3.420  16.835  1.3151 -0.0513  0.2602
  222MPD1     N 3431   3.198   3.664  17.157  0.4501  0.4847  0.0917
  222MPD1    H5 3432   3.195   3.578  17.211  0.6771  0.6234  0.3257
  222MPD1    N1 3433   3.384   3.847  16.738 -0.1570  0.0872 -0.4183
  222MPD1    H6 3434   3.324   3.929  16.736  1.8405  1.5282 -0.4319
  222MPD1    H7 3435   3.392   3.812  16.643 -0.8444 -0.4712 -0.2742
  223MPD1     C 3436   2.885   3.182   0.210  0.9396  0.3506  0.1026
  223MPD1    C1 3437   2.878   3.314   0.255  0.4110  1.2768 -0.2842
  223MPD1    C2 3438   2.900   3.414   0.169  0.1682 -0.0376 -0.2661
  223MPD1    C3 3439   2.932   3.391   0.039 -0.3056 -0.0058 -0.6852
  223MPD1    C4 3440   2.925   3.262  17.744  0.1251 -0.8609 -0.5601
  223MPD1    C5 3441   2.903   3.163   0.076  0.5796  0.5604 -0.2023
  223MPD1     H 3442   2.898   3.516   0.208  2.1798 -0.5218  1.1290
  223MPD1    H1 3443   2.938   3.247  17.638  1.8590  1.1870 -0.6424
  223MPD1    H2 3444   2.876   3.090   0.267  2.9085 -0.3993 -0.7965
  223MPD1    H3 3445   2.891   3.061   0.041 -0.9432  1.0033 -0.9884
  223MPD1     N 3446   2.974   3.506  17.719 -0.1619 -0.3174 -0.0954
  223MPD1    H5 3447   2.930   3.590  17.756  0.2306  1.1532 -2.9535
  223MPD1    N1 3448   2.872   3.341   0.393  0.0846 -0.0350 -0.2157
  223MPD1    H6 3449   2.848   3.262   0.452 -0.6270  0.8824  0.7385
  223MPD1    H7 3450   2.822   3.426   0.418 -0.9492 -0.9906  0.9654
  224MPD1     C 3451   3.554   0.833   9.006  0.3471  0.2035 -0.1128
  224MPD1    C1 3452   3.529   0.918   9.107  0.2555 -0.0709 -0.3651
  224MPD1    C2 3453   3.623   0.927   9.204  0.4060 -0.5862 -0.4334
  224MPD1    C3 3454   3.744   0.863   9.200  0.1720 -0.0785  0.1488
  224MPD1    C4 3455   3.770   0.776   9.094  0.4145  0.1730  0.3697
  224MPD1    C5 3456   3.671   0.764   9.005 -0.0473 -0.5547 -0.2819
  224MPD1     H 3457   3.610   1.006   9.277  0.2124 -0.7260 -0.3181
  224MPD1    H1 3458   3.855   0.710   9.086  2.0132  2.3731 -0.9082
  224MPD1    H2 3459   3.478   0.796   8.938 -0.6951 -0.7777  1.5989
  224MPD1    H3 3460   3.681   0.691   8.926 -0.7850 -1.2282  0.2494
  224MPD1     N 3461   3.854   0.887   9.290 -0.2522 -0.2018 -0.2208
  224MPD1    H5 3462   3.943   0.840   9.275  0.6410  0.9940  1.2983
  224MPD1    N1 3463   3.396   0.971   9.123 -0.1074  0.1484  0.6064
  224MPD1    H6 3464   3.351   0.996   9.035 -0.5828  3.0453  1.6507
  224MPD1    H7 3465   3.380   1.055   9.179 -0.9418 -0.8651  1.8839
  225MPD1     C 3466   1.177   1.871  12.225 -0.1265 -0.7267  0.1804
  225MPD1    C1 3467   1.159   1.730  12.228 -0.7901  0.5613 -0.5092
  225MPD1    C2 3468   1.045   1.675  12.293 -0.2587  0.0285  0.1335
  225MPD1    C3 3469   0.961   1.768  12.357 -0.2424 -0.3933 -0.1661
  225MPD1    C4 3470   0.993   1.901  12.374  0.1945  0.1595 -0.3231
  225MPD1    C5 3471   1.093   1.959  12.298 -0.2419 -0.0947 -0.4550
  225MPD1     H 3472   1.024   1.569  12.292 -2.9771  0.5360  1.1744
  225MPD1    H1 3473   0.939   1.965  12.443  0.0562  0.9759 -1.1926
  225MPD1    H2 3474   1.257   1.918  12.169  0.0139  0.4673  1.4045
  225MPD1    H3 3475   1.113   2.065  12.306 -1.5857  0.2424 -1.5648
  225MPD1     N 3476   0.845   1.741  12.433  0.6878 -0.2686 -0.1503
  225MPD1    H5 3477   0.824   1.810  12.505  1.3523 -0.2792  0.0518
  225MPD1    N1 3478   1.244   1.659  12.142  0.2849 -0.5075 -0.0436
  225MPD1    H6 3479   1.260   1.560  12.163  0.5461 -0.1479  1.4743
  225MPD1    H7 3480   1.334   1.700  12.120  0.8558 -0.7369  1.8072
  226MPD1     C 3481   3.486   2.407   9.619 -0.1748 -0.3531 -0.1243
  226MPD1    C1 3482   3.347   2.399   9.594  0.3073 -0.5977  0.7385
  226MPD1    C2 3483   3.291   2.279   9.571  0.0481 -0.6208  0.8091
  226MPD1    C3 3484   3.364   2.159   9.572 -1.2284  0.2306 -0.4426
  226MPD1    C4 3485   3.503   2.167   9.579  0.4365 -0.0637 -0.3575
  226MPD1    C5 3486   3.562   2.293   9.606  0.1888  0.5321  0.1940
  226MPD1     H 3487   3.183   2.271   9.573 -0.0119 -0.3769 -1.3535
  226MPD1    H1 3488   3.576   2.087   9.585 -0.0550 -0.3792  1.3108
  226MPD1    H2 3489   3.540   2.499   9.636  1.0561 -1.4994  2.1554
  226MPD1    H3 3490   3.667   2.317   9.620  0.4140  0.7250 -1.7553
  226MPD1     N 3491   3.301   2.040   9.555 -0.1909  0.4290 -0.3941
  226MPD1    H5 3492   3.199   2.048   9.555 -0.4942 -3.2364 -2.2886
  226MPD1    N1 3493   3.271   2.516   9.623 -0.3623 -0.0983 -0.6355
  226MPD1    H6 3494   3.185   2.504   9.571  0.6274 -1.9109 -1.8583
  226MPD1    H7 3495   3.313   2.599   9.581  0.9012 -0.5994 -0.3661
  227MPD1     C 3496   2.592   1.542  10.004 -1.3367 -0.3600 -0.1322
  227MPD1    C1 3497   2.641   1.441   9.921 -0.1217  0.3698  0.2891
  227MPD1    C2 3498   2.737   1.484   9.836  0.3440 -0.4207  0.3782
  227MPD1    C3 3499   2.791   1.611   9.835  0.0654  0.6843 -0.6363
  227MPD1    C4 3500   2.752   1.700   9.932 -0.1222  0.5225  0.0112
  227MPD1    C5 3501   2.652   1.666  10.017  0.2853  0.0132 -0.2078
  227MPD1     H 3502   2.776   1.410   9.767  0.9035 -1.8269  2.2271
  227MPD1    H1 3503   2.785   1.803   9.923 -0.3902  0.6829  0.7926
  227MPD1    H2 3504   2.510   1.523  10.072 -1.9783  0.6467 -0.6313
  227MPD1    H3 3505   2.612   1.738  10.087 -0.8367  0.7217 -1.5903
  227MPD1     N 3506   2.888   1.636   9.733 -0.1280  0.2737  0.6709
  227MPD1    H5 3507   2.899   1.564   9.664 -2.3057  0.8895 -0.3261
  227MPD1    N1 3508   2.570   1.326   9.898  0.0199 -0.7616 -0.0772
  227MPD1    H6 3509   2.624   1.261   9.841 -1.6048  0.0477 -2.5379
  227MPD1    H7 3510   2.522   1.280   9.974 -0.5895 -1.8941 -1.1622
  228MPD1     C 3511   3.018   3.504  13.478 -0.7115  0.0799 -0.2550
  228MPD1    C1 3512   3.014   3.645  13.469  0.4872  0.4723  0.3598
  228MPD1    C2 3513   2.900   3.708  13.422 -0.0614 -0.0924  0.8094
  228MPD1    C3 3514   2.782   3.637  13.407 -0.2620 -0.7406 -0.3223
  228MPD1    C4 3515   2.782   3.498  13.423  0.5382 -0.0166 -0.1947
  228MPD1    C5 3516   2.902   3.430  13.447 -0.7493 -0.4519 -0.1557
  228MPD1     H 3517   2.902   3.814  13.401  0.0447 -0.2863 -0.1408
  228MPD1    H1 3518   2.701   3.439  13.383  2.0083 -2.9907  1.2250
  228MPD1    H2 3519   3.110   3.457  13.511 -1.5923 -1.8099 -0.4833
  228MPD1    H3 3520   2.901   3.322  13.439 -1.0897 -0.3472 -1.5344
  228MPD1     N 3521   2.676   3.711  13.360  0.2151 -0.3577  0.1133
  228MPD1    H5 3522   2.697   3.807  13.333  0.4480  0.1123  1.9330
  228MPD1    N1 3523   3.139   3.714  13.478  0.1894 -0.3965 -0.2037
  228MPD1    H6 3524   3.130   3.809  13.513 -2.4514 -0.6710 -0.1856
  228MPD1    H7 3525   3.203   3.672  13.545 -0.1931 -0.6979 -0.0286
  229MPD1     C 3526   2.252   3.176  14.535 -0.2753  1.0257  0.2417
  229MPD1    C1 3527   2.302   3.071  14.457  0.8948  0.2620 -0.8603
  229MPD1    C2 3528   2.377   2.974  14.520 -0.1285  0.5721 -0.1631
  229MPD1    C3 3529   2.408   2.981  14.653 -0.3803  0.3359  0.0790
  229MPD1    C4 3530   2.354   3.090  14.730 -0.3593 -0.8338 -0.5453
  229MPD1    C5 3531   2.272   3.182  14.667 -1.0324  0.5212  0.5382
  229MPD1     H 3532   2.425   2.894  14.466  1.1205 -0.1221  2.0009
  229MPD1    H1 3533   2.383   3.096  14.834 -1.4503  2.6442 -0.4408
  229MPD1    H2 3534   2.176   3.240  14.492 -0.6340 -0.2166 -0.9909
  229MPD1    H3 3535   2.226   3.258  14.729  0.5453  0.3238  1.9605
  229MPD1     N 3536   2.493   2.894  14.726 -0.2623 -0.1041 -0.0837
  229MPD1    H5 3537   2.503   2.916  14.824  1.6283  0.9483 -0.5060
  229MPD1    N1 3538   2.257   3.053  14.330 -1.0738 -0.1171  0.3172
  229MPD1    H6 3539   2.237   3.138  14.278 -0.4916  0.3967  0.9440
  229MPD1    H7 3540   2.319   2.999  14.270  0.6060 -0.4857  2.4036
  230MPD1     C 3541   2.348   2.822  15.555 -0.0446  0.1065  0.3031
  230MPD1    C1 3542   2.383   2.923  15.474  0.3141 -0.1737 -0.5483
  230MPD1    C2 3543   2.441   2.901  15.352  0.6230 -0.3419  0.2041
  230MPD1    C3 3544   2.462   2.771  15.305 -0.4536  0.3122 -0.2377
  230MPD1    C4 3545   2.429   2.666  15.387 -0.1297  0.1754 -0.1568
  230MPD1    C5 3546   2.375   2.693  15.514 -0.2608 -0.8502  0.0155
  230MPD1     H 3547   2.450   2.990  15.290 -2.3569  0.9251  1.5683
  230MPD1    H1 3548   2.414   2.565  15.352 -0.6005  0.4277 -0.7006
  230MPD1    H2 3549   2.300   2.840  15.650 -0.2418  1.3961 -0.0352
  230MPD1    H3 3550   2.343   2.615  15.584  1.0083  0.0353  1.5717
  230MPD1     N 3551   2.513   2.751  15.173 -0.1256 -0.1047  0.0652
  230MPD1    H5 3552   2.527   2.832  15.113 -1.3359 -0.8123 -1.1758
  230MPD1    N1 3553   2.347   3.056  15.506 -0.2936  0.2212  0.2124
  230MPD1    H6 3554   2.359   3.076  15.605  0.0358 -1.6927  0.5787
  230MPD1    H7 3555   2.399   3.131  15.462 -2.8592  0.2592 -2.7745
  231MPD1     C 3556   1.268   4.203  16.022  0.6497  0.5204  0.5242
  231MPD1    C1 3557   1.358   4.293  15.975  0.1132  0.0416 -0.1876
  231MPD1    C2 3558   1.332   4.396  15.888  0.1404 -0.6056 -0.0554
  231MPD1    C3 3559   1.204   4.411  15.835  0.3871 -0.4136 -0.1247
  231MPD1    C4 3560   1.110   4.313  15.875  0.3857 -0.2298  0.5024
  231MPD1    C5 3561   1.144   4.217  15.967  0.3830  0.1745 -0.1090
  231MPD1     H 3562   1.407   4.473  15.877 -0.4972 -0.1193 -0.9541
  231MPD1    H1 3563   1.004   4.323  15.852  0.0755  0.3538  2.1524
  231MPD1    H2 3564   1.301   4.133  16.098  0.2162 -2.1367 -1.7367
  231MPD1    H3 3565   1.077   4.138  15.999  1.0979 -0.2118  0.4629
  231MPD1     N 3566   1.179   4.522  15.745  0.6056 -0.3131  0.0577
  231MPD1    H5 3567   1.255   4.588  15.734 -0.0159  0.3973  0.0630
  231MPD1    N1 3568   1.485   4.292  16.045 -0.7551  0.1686  0.0679
  231MPD1    H6 3569   1.519   4.204  16.084  0.2701 -0.7043 -2.8175
  231MPD1    H7 3570   1.559   4.340  15.996 -1.3117  0.2115 -0.7304
  232MPD1     C 3571   2.666   1.293  16.406 -0.1482  0.5323  0.4373
  232MPD1    C1 3572   2.689   1.408  16.474  0.2976 -0.1272  1.0224
  232MPD1    C2 3573   2.593   1.437  16.571 -0.8089 -0.2748 -0.3319
  232MPD1    C3 3574   2.496   1.352  16.622  0.5321 -0.5240  0.7201
  232MPD1    C4 3575   2.491   1.226  16.567 -0.0655  0.1638 -0.7152
  232MPD1    C5 3576   2.576   1.202  16.462 -0.2464 -0.6870  0.5659
  232MPD1     H 3577   2.583   1.544  16.589 -0.9621  0.0042 -2.0719
  232MPD1    H1 3578   2.427   1.149  16.608 -1.2676  1.3651 -0.3317
  232MPD1    H2 3579   2.710   1.282  16.308 -0.3846  0.7842  0.3066
  232MPD1    H3 3580   2.573   1.105  16.414 -1.1755 -0.1464 -0.4661
  232MPD1     N 3581   2.412   1.401  16.730 -0.2105  0.2824 -0.6651
  232MPD1    H5 3582   2.438   1.490  16.771  1.9490 -0.5178 -0.2849
  232MPD1    N1 3583   2.775   1.499  16.420  0.1892 -0.3878  0.1682
  232MPD1    H6 3584   2.813   1.559  16.493  0.8570 -0.1120 -0.4177
  232MPD1    H7 3585   2.844   1.445  16.370  3.3897  2.2822  1.6994
  233MPD1     C 3586   2.422   4.286   0.929 -0.1072 -0.2141 -0.1957
  233MPD1    C1 3587   2.519   4.349   0.855 -0.3231  0.3494 -0.5159
  233MPD1    C2 3588   2.648   4.302   0.846 -0.0347 -0.0191  0.8360
  233MPD1    C3 3589   2.679   4.187   0.913 -0.0149  0.1709  0.3358
  233MPD1    C4 3590   2.580   4.114   0.978 -1.0684 -0.3880 -0.7429
  233MPD1    C5 3591   2.453   4.162   0.982 -0.5143 -0.6669 -0.2865
  233MPD1     H 3592   2.724   4.358   0.793 -1.7051  1.0491 -0.4302
  233MPD1    H1 3593   2.604   4.037   1.051 -0.9036  1.1933  0.8831
  233MPD1    H2 3594   2.320   4.319   0.940  0.0601  0.3839 -0.4372
  233MPD1    H3 3595   2.371   4.105   1.024  0.7107 -1.6030  0.8398
  233MPD1     N 3596   2.810   4.133   0.921 -0.1278  0.1221  0.6704
  233MPD1    H5 3597   2.836   4.067   0.993  0.0512  0.8697  1.2912
  233MPD1    N1 3598   2.487   4.471   0.795  0.1318  0.2521 -0.1758
  233MPD1    H6 3599   2.388   4.463   0.772  0.5796 -0.7754 -1.7242
  233MPD1    H7 3600   2.547   4.489   0.715  1.9347 -2.8430  0.4502
  234MPD1     C 3601   0.498   4.423   9.001  0.0679  0.4115  0.2626
  234MPD1    C1 3602   0.376   4.391   8.942 -0.6283  0.8984 -0.4728
  234MPD1    C2 3603   0.265   4.443   9.003  0.1642 -0.1964 -0.1168
  234MPD1    C3 3604   0.273   4.538   9.108 -0.1240 -0.4049 -0.1346
  234MPD1    C4 3605   0.392   4.574   9.156 -0.3524 -0.2094 -0.1909
  234MPD1    C5 3606   0.499   4.515   9.099  0.0578  0.0899  0.3856
  234MPD1     H 3607   0.165   4.422   8.969  0.2317 -0.9734  0.1676
  234MPD1    H1 3608   0.412   4.648   9.233 -0.1260 -1.0580  0.5785
  234MPD1    H2 3609   0.591   4.375   8.972  0.2666  0.5784  0.6339
  234MPD1    H3 3610   0.595   4.549   9.137  0.1877  0.8136 -0.5798
  234MPD1     N 3611   0.150   4.587   9.162  0.7540  0.4864  0.1039
  234MPD1    H5 3612   0.070   4.565   9.103 -0.0799  2.6300  0.4492
  234MPD1    N1 3613   0.367   4.291   8.844  0.1215  0.2671  0.2650
  234MPD1    H6 3614   0.283   4.293   8.786 -0.2983 -1.5877  0.8115
  234MPD1    H7 3615   0.448   4.302   8.784  1.5151 -1.2168  1.8637
  235MPD1     C 3616   1.357   1.353  10.594 -0.1164  0.9796  0.0887
  235MPD1    C1 3617   1.260   1.417  10.517  0.1848 -0.0475 -0.1527
  235MPD1    C2 3618   1.263   1.553  10.495 -0.0008 -0.0719  0.0089
  235MPD1    C3 3619   1.364   1.627  10.555  0.4747 -0.0590  1.1854
  235MPD1    C4 3620   1.459   1.563  10.628 -0.0925 -0.1915 -0.0717
  235MPD1    C5 3621   1.451   1.428  10.650 -0.7904 -0.7908  0.3736
  235MPD1     H 3622   1.174   1.604  10.459 -0.5273  0.7481  2.4640
  235MPD1    H1 3623   1.549   1.614  10.661 -0.0639 -0.6163  0.5102
  235MPD1    H2 3624   1.344   1.247  10.614  0.0157  0.6497 -1.5708
  235MPD1    H3 3625   1.532   1.380  10.704 -0.1312 -1.5821 -1.3008
  235MPD1     N 3626   1.356   1.769  10.542  0.2918 -0.2949 -0.4536
  235MPD1    H5 3627   1.279   1.804  10.486  1.0889  0.6122 -0.9838
  235MPD1    N1 3628   1.153   1.336  10.474  0.2213 -0.1090 -0.0438
  235MPD1    H6 3629   1.182   1.240  10.455 -0.4298 -0.7236  1.9898
  235MPD1    H7 3630   1.090   1.379  10.407  0.2528  0.0340  0.0188
  236MPD1     C 3631   0.376   3.740  10.206 -0.3572  0.1388  0.0076
  236MPD1    C1 3632   0.473   3.833  10.234  0.5345  0.1830 -0.2506
  236MPD1    C2 3633   0.601   3.787  10.252  0.4759  0.2098 -0.2884
  236MPD1    C3 3634   0.640   3.657  10.242 -0.3242  0.2116 -0.9290
  236MPD1    C4 3635   0.544   3.570  10.197 -0.3897  0.7170 -0.5777
  236MPD1    C5 3636   0.420   3.610  10.177  0.3037  0.2944 -0.3670
  236MPD1     H 3637   0.674   3.858  10.288 -1.4480  2.1062 -0.0876
  236MPD1    H1 3638   0.579   3.468  10.182 -0.7492  0.3230  1.2204
  236MPD1    H2 3639   0.272   3.762  10.183 -0.0940  1.5310  0.1602
  236MPD1    H3 3640   0.336   3.549  10.145 -0.9820  1.5325  0.6260
  236MPD1     N 3641   0.760   3.604  10.301 -0.0035  0.2464 -0.8002
  236MPD1    H5 3642   0.759   3.503  10.301 -3.2997  0.2602 -0.3669
  236MPD1    N1 3643   0.436   3.958  10.278  0.3903 -0.0118  0.0701
  236MPD1    H6 3644   0.345   3.976  10.235  0.1602  0.8332  0.9041
  236MPD1    H7 3645   0.497   4.037  10.256 -1.6232  1.0590 -1.6717
  237MPD1     C 3646   1.317   1.257  15.236  0.0893  0.6005 -0.6173
  237MPD1    C1 3647   1.218   1.267  15.140 -0.1094  0.2705  0.0989
  237MPD1    C2 3648   1.095   1.212  15.169 -0.7091 -0.7162  0.3436
  237MPD1    C3 3649   1.062   1.159  15.294  0.4068 -0.6972 -0.2198
  237MPD1    C4 3650   1.157   1.162  15.395 -0.3011 -0.6021 -0.0143
  237MPD1    C5 3651   1.282   1.200  15.358 -0.9532 -0.3334  0.2681
  237MPD1     H 3652   1.031   1.194  15.084 -0.6082 -0.6224  0.2480
  237MPD1    H1 3653   1.138   1.131  15.497  2.5643 -0.4073  0.5810
  237MPD1    H2 3654   1.414   1.298  15.207 -0.2535  1.5547 -0.3961
  237MPD1    H3 3655   1.356   1.208  15.437 -0.4873 -1.0288 -0.0966
  237MPD1     N 3656   0.947   1.088  15.314  0.4203 -0.2536  0.5343
  237MPD1    H5 3657   0.939   1.056  15.409 -0.7979  0.9265  0.8294
  237MPD1    N1 3658   1.251   1.310  15.016 -0.5233 -0.0681 -0.5301
  237MPD1    H6 3659   1.328   1.376  15.018 -0.3849 -0.2908  1.1798
  237MPD1    H7 3660   1.172   1.341  14.960 -0.9906 -1.7849 -0.8258
  238MPD1     C 3661   2.840   3.750  15.020  0.4146  0.5758 -0.3067
  238MPD1    C1 3662   2.870   3.863  14.957 -0.0185 -0.1249 -0.0003
  238MPD1    C2 3663   2.764   3.936  14.897  0.6798  0.1044 -0.1009
  238MPD1    C3 3664   2.640   3.878  14.890  0.4900 -0.0699 -0.0798
  238MPD1    C4 3665   2.616   3.756  14.942  0.2307 -0.3243  0.7543
  238MPD1    C5 3666   2.713   3.692  15.009  0.7876 -0.5060  0.3826
  238MPD1     H 3667   2.790   4.025  14.839  0.7620 -1.0588 -1.8456
  238MPD1    H1 3668   2.526   3.699  14.925 -0.8676  1.7331 -0.2642
  238MPD1    H2 3669   2.912   3.688  15.073  2.0312  2.2136 -0.5924
  238MPD1    H3 3670   2.696   3.599  15.062  1.4501  1.4726  4.1284
  238MPD1     N 3671   2.533   3.937  14.812 -0.1009  0.2419 -0.7299
  238MPD1    H5 3672   2.453   3.885  14.779  0.9159 -2.2887  0.8311
  238MPD1    N1 3673   3.008   3.898  14.964 -0.4814 -0.1864  0.6498
  238MPD1    H6 3674   3.017   3.994  14.931  1.2637  0.2214  2.3316
  238MPD1    H7 3675   3.032   3.913  15.062  1.3426  0.2878  0.1276
  239MPD1     C 3676   2.993   0.795  15.068 -0.4968  0.1815 -0.1487
  239MPD1    C1 3677   2.865   0.746  15.080 -0.4090 -1.0177 -0.2933
  239MPD1    C2 3678   2.779   0.757  14.970 -0.3923  0.6457 -0.8435
  239MPD1    C3 3679   2.825   0.788  14.844  0.4657  0.1401 -0.3352
  239MPD1    C4 3680   2.962   0.812  14.827 -0.3815 -0.0247  0.8796
  239MPD1    C5 3681   3.037   0.825  14.941 -0.3474 -0.6693  0.2038
  239MPD1     H 3682   2.676   0.726  14.985 -0.5808  0.8044 -1.7667
  239MPD1    H1 3683   2.996   0.845  14.729 -1.2554 -2.9318 -0.4276
  239MPD1    H2 3684   3.065   0.814  15.147 -2.5023  0.0498  1.7082
  239MPD1    H3 3685   3.134   0.872  14.929  0.0471 -0.9179  2.3858
  239MPD1     N 3686   2.745   0.821  14.728 -0.2135 -0.0086  0.2508
  239MPD1    H5 3687   2.792   0.854  14.645 -1.1437 -0.1006 -0.3072
  239MPD1    N1 3688   2.810   0.705  15.200  0.3070  0.7571 -0.0755
  239MPD1    H6 3689   2.866   0.636  15.250 -0.1766  0.6432  0.3013
  239MPD1    H7 3690   2.717   0.668  15.182  0.2752 -0.1133  1.8717
  240MPD1     C 3691   2.011   0.652  13.266  0.4771 -1.2875  0.0423
  240MPD1    C1 3692   2.077   0.531  13.286  0.2384 -0.1593  0.3694
  240MPD1    C2 3693   2.064   0.474  13.411  0.1346  0.2156  0.1122
  240MPD1    C3 3694   1.986   0.520  13.511  0.1872 -0.2776 -1.1150
  240MPD1    C4 3695   1.912   0.635  13.488  0.3580  0.2555  0.4562
  240MPD1    C5 3696   1.929   0.698  13.366 -0.3115  0.4485 -0.2168
  240MPD1     H 3697   2.128   0.388  13.428 -1.2010 -0.5627  1.2624
  240MPD1    H1 3698   1.844   0.678  13.561  0.6127  0.9039  0.3135
  240MPD1    H2 3699   2.018   0.709  13.174  0.3154  2.2902  2.2198
  240MPD1    H3 3700   1.866   0.784  13.350  0.8783  1.4243  0.3234
  240MPD1     N 3701   1.975   0.448  13.631 -0.6447 -0.4890 -0.6871
  240MPD1    H5 3702   2.022   0.359  13.629  0.3666 -0.0436  2.6594
  240MPD1    N1 3703   2.171   0.477  13.198  0.0425 -0.2986  0.5810
  240MPD1    H6 3704   2.149   0.496  13.101  1.5791  1.0355  0.4920
  240MPD1    H7 3705   2.172   0.376  13.211  1.4313 -0.3591  0.0108
  241MPD1     C 3706   2.613   4.709  14.204  0.3845 -0.6833 -0.0250
  241MPD1    C1 3707   2.613   0.099  14.147  0.5800  0.4558  0.3111
  241MPD1    C2 3708   2.493   0.155  14.098 -0.2525 -0.2209 -0.1310
  241MPD1    C3 3709   2.371   0.097  14.130 -0.3843  0.1708 -0.0161
  241MPD1    C4 3710   2.378   4.729  14.216  0.6170 -0.2535  0.2923
  241MPD1    C5 3711   2.492   4.657  14.243  0.0726  0.2889  0.1171
  241MPD1     H 3712   2.493   0.250  14.045 -1.4784 -0.5854 -0.7828
  241MPD1    H1 3713   2.286   4.687  14.255 -1.4939  2.0865 -2.1532
  241MPD1    H2 3714   2.705   4.660  14.234  0.2541 -0.0471  1.4113
  241MPD1    H3 3715   2.479   4.565  14.298 -2.5194  0.8191  0.4109
  241MPD1     N 3716   2.251   0.144  14.080 -0.0024 -0.3183  0.3936
  241MPD1    H5 3717   2.169   0.095  14.114 -0.6151  1.6716  1.7710
  241MPD1    N1 3718   2.738   0.167  14.115  0.1696  0.3210  0.2223
  241MPD1    H6 3719   2.811   0.158  14.186  0.6478  0.4312 -0.2548
  241MPD1    H7 3720   2.730   0.266  14.094  4.6051  0.7942  0.8294
  242MPD1     C 3721   2.043   3.395  16.010 -0.2796  0.5452 -0.2348
  242MPD1    C1 3722   1.967   3.487  15.936  0.3182 -0.1209  0.5218
  242MPD1    C2 3723   1.967   3.476  15.793  0.3756 -0.0451  0.0685
  242MPD1    C3 3724   2.018   3.368  15.730 -0.1810  0.1932  0.5422
  242MPD1    C4 3725   2.079   3.269  15.803  0.4184 -0.2987 -0.1301
  242MPD1    C5 3726   2.090   3.285  15.941  0.5720  0.3044  0.2353
  242MPD1     H 3727   1.914   3.549  15.735  0.1561 -1.6953 -1.8164
  242MPD1    H1 3728   2.138   3.194  15.751  1.8195 -0.8312  2.2473
  242MPD1    H2 3729   2.048   3.403  16.118 -1.5405  0.1531 -0.1480
  242MPD1    H3 3730   2.156   3.217  15.994  0.7288 -1.4582 -2.1896
  242MPD1     N 3731   2.023   3.350  15.592 -0.1878  0.1859 -0.1575
  242MPD1    H5 3732   2.066   3.263  15.562 -0.1617  0.9158 -2.2063
  242MPD1    N1 3733   1.921   3.604  16.003  0.5282 -0.5807 -0.4860
  242MPD1    H6 3734   1.846   3.651  15.953  1.2611  0.8378 -0.2394
  242MPD1    H7 3735   1.894   3.596  16.101 -0.1406  0.7888 -0.5588
  243MPD1     C 3736   3.137   2.831  17.523 -0.2197  0.7016 -0.0410
  243MPD1    C1 3737   3.156   2.735  17.422  0.0313  0.2158  0.1026
  243MPD1    C2 3738   3.265   2.653  17.423  0.1320  0.0875  0.2098
  243MPD1    C3 3739   3.354   2.656  17.532 -0.3594 -0.6207 -0.0890
  243MPD1    C4 3740   3.341   2.757  17.629  0.1307  0.5101  0.2703
  243MPD1    C5 3741   3.224   2.836  17.623 -0.2762 -0.5315 -0.1490
  243MPD1     H 3742   3.281   2.574  17.351 -1.3541 -0.1389  0.1225
  243MPD1    H1 3743   3.399   2.764  17.720  0.6572 -0.5834  0.0216
  243MPD1    H2 3744   3.058   2.905  17.519 -0.8900 -0.0139 -0.0982
  243MPD1    H3 3745   3.219   2.913  17.699  2.2496 -0.5632  0.0464
  243MPD1     N 3746   3.454   2.555  17.545 -0.4390 -0.1211 -0.0540
  243MPD1    H5 3747   3.445   2.478  17.479  0.1733 -1.3686  1.3264
  243MPD1    N1 3748   3.076   2.741  17.307  0.6759  0.6612  0.9214
  243MPD1    H6 3749   2.979   2.758  17.331  0.6037  3.2589 -1.2483
  243MPD1    H7 3750   3.072   2.659  17.247  1.0108  0.5409  1.0614
  244MPD1     C 3751   4.097   1.896   0.331  0.3643  0.6175  0.3824
  244MPD1    C1 3752   4.032   1.846   0.218  0.4619  0.1378  0.4032
  244MPD1    C2 3753   3.981   1.942   0.133  0.0995 -0.8912  0.1791
  244MPD1    C3 3754   3.996   2.073   0.158 -0.0487 -0.3486 -0.4283
  244MPD1    C4 3755   4.053   2.131   0.269 -0.5278 -0.7723  0.1315
  244MPD1    C5 3756   4.108   2.036   0.351  0.3949 -0.0785  0.2131
  244MPD1     H 3757   3.933   1.910   0.041 -0.1582  0.4614 -0.1543
  244MPD1    H1 3758   4.063   2.237   0.287  0.3128 -1.1532  1.9629
  244MPD1    H2 3759   4.143   1.831   0.404 -1.7717 -0.5799  0.6436
  244MPD1    H3 3760   4.167   2.070   0.435 -0.2544  0.2146  0.5508
  244MPD1     N 3761   3.932   2.148   0.057  0.2527 -0.9556 -0.9437
  244MPD1    H5 3762   3.892   2.101  17.734 -1.8903 -2.0728  0.7868
  244MPD1    N1 3763   4.019   1.706   0.200  0.2999  0.4100  0.7100
  244MPD1    H6 3764   4.047   1.670   0.109 -1.1753 -1.2667  0.9071
  244MPD1    H7 3765   4.095   1.675   0.261  0.3696  0.7187  0.7767
  245MPD1     C 3766   0.267   2.674  14.230  0.2738 -0.2172 -0.1240
  245MPD1    C1 3767   0.201   2.722  14.116 -0.4320  0.6406 -0.2691
  245MPD1    C2 3768   0.275   2.727  13.995  0.0614 -0.0209 -0.2600
  245MPD1    C3 3769   0.411   2.702  13.993  0.4404 -0.0028  0.4703
  245MPD1    C4 3770   0.474   2.660  14.111 -0.2822 -0.5933  0.2740
  245MPD1    C5 3771   0.403   2.647  14.226 -0.2926  0.4217 -0.9727
  245MPD1     H 3772   0.232   2.761  13.901 -0.7867  0.5992  0.3397
  245MPD1    H1 3773   0.581   2.644  14.121 -0.1731 -0.7758 -1.2483
  245MPD1    H2 3774   0.215   2.661  14.325 -3.0998  1.3910 -1.7465
  245MPD1    H3 3775   0.453   2.618  14.318 -0.5006  1.1708 -0.6228
  245MPD1     N 3776   0.475   2.737  13.875 -0.2338 -0.1476 -0.8624
  245MPD1    H5 3777   0.419   2.786  13.806 -0.4243 -1.4855 -1.6747
  245MPD1    N1 3778   0.060   2.745  14.113  0.5944 -0.8192 -0.1790
  245MPD1    H6 3779   0.028   2.811  14.042  0.8672 -0.0610  0.4024
  245MPD1    H7 3780   0.010   2.783  14.192  4.8808  0.5871  1.8842
  246MPD1     C 3781   1.924   0.095   9.999 -0.1037  0.2216  0.1425
  246MPD1    C1 3782   1.950   4.719  10.065  0.4812  0.4573 -0.1013
  246MPD1    C2 3783   1.899   4.602  10.005 -0.1026 -0.7424  0.0461
  246MPD1    C3 3784   1.807   4.608   9.897 -0.0252  0.2002 -0.4024
  246MPD1    C4 3785   1.796   4.731   9.833 -0.1558  0.1258 -0.5243
  246MPD1    C5 3786   1.862   0.101   9.880  0.1461 -0.5181  0.5021
  246MPD1     H 3787   1.926   4.506  10.047 -0.6172 -1.3909 -1.0840
  246MPD1    H1 3788   1.729   0.008   9.749  0.0632 -2.5497 -1.2435
  246MPD1    H2 3789   1.971   0.187  10.032  1.2672 -0.9842  1.5883
  246MPD1    H3 3790   1.837   0.202   9.848 -2.5558 -0.9355  1.2968
  246MPD1     N 3791   1.746   4.493   9.856  0.0384  0.2064  0.2654
  246MPD1    H5 3792   1.766   4.412   9.914 -1.1786  0.6012  1.2505
  246MPD1    N1 3793   2.027   4.722  10.179 -0.2889 -0.4959  0.7032
  246MPD1    H6 3794   2.033   0.069  10.232  1.3399 -1.6618  2.4615
  246MPD1    H7 3795   2.007   4.644  10.242  0.0500  1.2219  2.9445
  247MPD1     C 3796   0.374   2.637  16.830 -0.2537  1.3606  0.2963
  247MPD1    C1 3797   0.480   2.661  16.747  0.1746 -0.2013 -0.3380
  247MPD1    C2 3798   0.510   2.555  16.671 -0.2016 -0.0103 -0.6154
  247MPD1    C3 3799   0.427   2.438  16.653 -0.1500 -0.0035 -0.0312
  247MPD1    C4 3800   0.322   2.428  16.741  0.0804  0.5191 -0.5425
  247MPD1    C5 3801   0.293   2.525  16.828 -0.2617 -0.9510  0.0195
  247MPD1     H 3802   0.599   2.568  16.611  0.1707  1.6009  0.2738
  247MPD1    H1 3803   0.258   2.341  16.736  0.1395  0.2713  2.8283
  247MPD1    H2 3804   0.357   2.713  16.905 -0.6277  0.9580  0.6258
  247MPD1    H3 3805   0.218   2.514  16.905  2.4999  0.4577  2.9287
  247MPD1     N 3806   0.460   2.326  16.574  0.2937 -0.2233  0.0463
  247MPD1    H5 3807   0.399   2.245  16.580 -0.8401  0.4755 -2.0150
  247MPD1    N1 3808   0.564   2.766  16.771  0.2445  0.7334 -0.4472
  247MPD1    H6 3809   0.619   2.795  16.691 -0.7086 -1.6613 -1.9692
  247MPD1    H7 3810   0.518   2.854  16.792 -1.1589  0.2117 -1.3117
  248MPD1     C 3811   0.901   2.023  17.113  0.4171 -0.3037 -0.0761
  248MPD1    C1 3812   0.810   1.955  17.194  0.1692 -0.1689  1.0615
  248MPD1    C2 3813   0.759   2.029  17.297 -0.6119  0.4482 -0.0635
  248MPD1    C3 3814   0.814   2.154  17.329 -0.2013  0.1589  0.1432
  248MPD1    C4 3815   0.900   2.220  17.240 -0.4824  0.0832  0.0433
  248MPD1    C5 3816   0.937   2.154  17.128 -0.3830 -0.5893  0.5243
  248MPD1     H 3817   0.686   1.991  17.367 -0.2060  1.8901  1.1562
  248MPD1    H1 3818   0.931   2.323  17.254  0.6996 -0.1023 -1.2915
  248MPD1    H2 3819   0.947   1.967  17.032  1.8625  0.5288  0.1734
  248MPD1    H3 3820   0.992   2.205  17.049 -1.1312 -0.9606 -0.2395
  248MPD1     N 3821   0.754   2.227  17.432 -0.3163 -0.6383  0.4785
  248MPD1    H5 3822   0.676   2.176  17.472 -1.2538 -0.3945 -1.0498
  248MPD1    N1 3823   0.743   1.837  17.155 -0.0707  0.1156  0.2995
  248MPD1    H6 3824   0.697   1.788  17.231  4.1573 -3.0071  0.8244
  248MPD1    H7 3825   0.814   1.775  17.116  1.2858  0.8956  1.5434
  249MPD1     C 3826   2.484   2.593  10.287 -0.0138  0.5425 -0.0911
  249MPD1    C1 3827   2.538   2.571  10.412 -0.5071 -0.5011 -0.1680
  249MPD1    C2 3828   2.666   2.525  10.418 -0.1390  0.4148  0.2076
  249MPD1    C3 3829   2.743   2.531  10.313  0.4425 -0.3098 -0.2164
  249MPD1    C4 3830   2.695   2.554  10.194  0.1984 -0.9595  0.3364
  249MPD1    C5 3831   2.565   2.591  10.182 -0.1367 -0.4361 -0.2942
  249MPD1     H 3832   2.701   2.498  10.517 -2.3739 -1.1372  0.5745
  249MPD1    H1 3833   2.764   2.557  10.110 -1.7795  0.5530 -1.2208
  249MPD1    H2 3834   2.379   2.613  10.273 -0.5313 -1.6768  0.5434
  249MPD1    H3 3835   2.530   2.598  10.079  1.5573 -1.1474 -0.9290
  249MPD1     N 3836   2.882   2.501  10.327 -0.6024 -0.0442  0.7945
  249MPD1    H5 3837   2.906   2.447  10.410 -0.5508 -0.6947  0.3519
  249MPD1    N1 3838   2.449   2.557  10.520  0.8419 -0.4062  0.2404
  249MPD1    H6 3839   2.368   2.615  10.501  1.2542  0.6096  1.5539
  249MPD1    H7 3840   2.486   2.585  10.611 -0.5051  0.0362  0.6429
  250MPD2     C 3841   3.740   1.140  12.834 -0.2333 -0.3913  0.0468
  250MPD2    C1 3842   3.683   1.264  12.792  0.5835  0.5073  0.2394
  250MPD2    C2 3843   3.557   1.257  12.732  0.1453 -0.7981  0.2155
  250MPD2    C3 3844   3.500   1.133  12.716 -0.7470 -0.8346  0.3188
  250MPD2    C4 3845   3.558   1.015  12.754  0.4689  0.1683 -0.5773
  250MPD2    C5 3846   3.677   1.020  12.824 -0.9623 -0.5941 -0.1961
  250MPD2     H 3847   3.502   1.346  12.702  0.4318  0.6244  3.8946
  250MPD2    H1 3848   3.510   0.921  12.729  0.1405  1.4185 -4.7154
  250MPD2    H2 3849   3.839   1.146  12.879 -0.0191  0.1918 -0.4957
  250MPD2    H3 3850   3.734   0.940  12.870 -0.3487  0.3781  0.7228
  250MPD2     N 3851   3.383   1.102  12.657 -0.0488  0.0321 -0.2002
  250MPD2    H5 3852   3.350   1.006  12.663 -0.0439 -0.0189 -0.9799
  250MPD2    N1 3853   3.744   1.392  12.826  1.0302  0.2904  0.0786
  250MPD2    H7 3854   3.838   1.378  12.862  0.1466  0.0454  2.3145
  251TMC3    C1 3855   3.781   1.620  12.845  0.0989  0.0642  0.1385
  251TMC3    C2 3856   3.734   1.728  12.918 -0.3080  0.0093 -0.1182
  251TMC3    C3 3857   3.824   1.810  12.979  0.5123 -0.2830  0.1905
  251TMC3    C4 3858   3.914   1.595  12.836 -0.1940 -0.0072 -0.2149
  251TMC3    C5 3859   4.000   1.687  12.888 -1.3088  0.3160  0.2337
  251TMC3    C6 3860   3.958   1.790  12.963  0.5667  0.2929 -0.2206
  251TMC3     C 3861   3.690   1.518  12.816 -0.2369 -0.4380  0.2363
  251TMC3     O 3862   3.571   1.547  12.809  0.0850 -0.7223  0.0540
  251TMC3     H 3863   3.627   1.738  12.937  0.2018  0.6726  2.4730
  251TMC3    H1 3864   3.949   1.504  12.790 -1.0558 -0.1257 -0.6385
  251TMC3    H2 3865   4.027   1.869  12.990 -0.3830  1.2581 -0.5917
  251TMC3    C7 3866   4.145   1.646  12.895  0.2108  0.4981  0.3608
  251TMC3    C8 3867   3.773   1.891  13.091  0.2043 -0.0165  0.5726
  251TMC3    O1 3868   4.170   1.534  12.844  0.5771 -0.3057  0.8333
  251TMC3    O2 3869   3.663   1.845  13.124  0.4317  0.2434  0.1437
  252TMC3    C1 3870   2.778   2.835   9.586 -0.6739 -0.0744  0.1633
  252TMC3    C2 3871   2.908   2.871   9.547  0.6527  0.4050 -0.2021
  252TMC3    C3 3872   3.012   2.812   9.616 -0.2778  0.6052 -0.2771
  252TMC3    C4 3873   2.758   2.743   9.687 -0.3386  0.7191  0.7463
  252TMC3    C5 3874   2.869   2.686   9.747  0.4322  0.7731 -0.2444
  252TMC3    C6 3875   2.996   2.705   9.704 -0.4651 -0.0975 -0.4769
  252TMC3     C 3876   2.676   2.937   9.564  0.1838 -0.1592 -0.7069
  252TMC3     O 3877   2.718   3.051   9.547  0.5950 -0.6430  0.0999
  252TMC3     H 3878   2.938   2.944   9.473  0.8519  1.1098  0.5779
  252TMC3    H1 3879   2.661   2.718   9.727  1.1487 -2.2435  2.5125
  252TMC3    H2 3880   3.073   2.643   9.748  0.0597 -0.4192 -1.8244
  252TMC3    C7 3881   2.838   2.566   9.829 -0.3493 -0.3773  0.6233
  252TMC3    C8 3882   3.148   2.854   9.596 -0.7305  0.3275  0.1832
  252TMC3    O1 3883   2.728   2.557   9.881 -0.3627  0.5658  0.3011
  252TMC3    O2 3884   3.174   2.916   9.493 -0.3740 -0.1963 -0.3766
  253MPD2     C 3885   0.499   1.299  15.178  0.1670 -0.7881  0.5628
  253MPD2    C1 3886   0.389   1.224  15.217  0.1493 -0.6868  1.1701
  253MPD2    C2 3887   0.374   1.189  15.345  0.2941 -0.7390  0.2035
  253MPD2    C3 3888   0.464   1.235  15.445  0.6139  0.3996 -0.3047
  253MPD2    C4 3889   0.581   1.295  15.405  0.1433  0.2235 -0.1602
  253MPD2    C5 3890   0.599   1.321  15.270  0.4163 -0.2716  0.6503
  253MPD2     H 3891   0.281   1.136  15.364 -0.2654  0.5869  1.1326
  253MPD2    H1 3892   0.645   1.328  15.486 -1.9988  1.1246  1.1534
  253MPD2    H2 3893   0.512   1.326  15.074 -2.4740  0.5102  0.5734
  253MPD2    H3 3894   0.680   1.388  15.243  1.5040 -1.3431  1.2664
  253MPD2     N 3895   0.441   1.226  15.583  0.3604 -0.2182 -0.4377
  253MPD2    H5 3896   0.513   1.253  15.648 -0.2693 -0.1353  0.2245
  253MPD2    N1 3897   0.283   1.182  15.123  0.4492  0.0063 -0.7392
  253MPD2    H7 3898   0.210   1.127  15.167  0.3844 -0.0842 -0.9558
  254TMC3    C1 3899   0.307   1.218  15.780  0.4781 -0.1766  0.0104
  254TMC3    C2 3900   0.191   1.273  15.836 -0.0520  0.3760  0.1963
  254TMC3    C3 3901   0.188   1.299  15.970  0.6765 -0.0689 -0.2555
  254TMC3    C4 3902   0.415   1.185  15.852 -0.7021  0.5594 -0.3729
  254TMC3    C5 3903   0.408   1.203  15.987 -0.1368 -0.3035  0.2978
  254TMC3    C6 3904   0.297   1.255  16.049  0.0935  0.3289  0.5895
  254TMC3     C 3905   0.316   1.208  15.636  0.3556 -0.1042 -0.3841
  254TMC3     O 3906   0.203   1.190  15.587 -0.6023  0.4071 -0.1305
  254TMC3     H 3907   0.118   1.310  15.764  1.3375 -0.4402 -1.6276
  254TMC3    H1 3908   0.500   1.147  15.798 -0.3117  2.1243 -0.8409
  254TMC3    H2 3909   0.307   1.301  16.147  0.0628  2.4011 -0.3699
  254TMC3    C7 3910   0.507   1.142  16.070 -0.1254 -0.1838 -0.1171
  254TMC3    C8 3911   0.066   1.322  16.041 -0.1974 -0.1467  0.5184
  254TMC3    O1 3912   0.476   1.133  16.188 -0.0506 -0.4953  0.1047
  254TMC3    O2 3913   0.065   1.284  16.159 -0.1713  0.2456 -0.0776
  255MPD2     C 3914   2.416   0.043  10.357  0.5472  0.8944  0.4848
  255MPD2    C1 3915   2.441   0.060  10.223  0.1726 -0.1586 -0.4597
  255MPD2    C2 3916   2.561   0.112  10.181  0.0918  0.4340 -0.2043
  255MPD2    C3 3917   2.663   0.133  10.278  0.3310 -0.0203 -0.2073
  255MPD2    C4 3918   2.634   0.125  10.413 -0.2860 -0.3281  0.1147
  255MPD2    C5 3919   2.503   0.087  10.445 -0.2142  0.6056  0.5058
  255MPD2     H 3920   2.597   0.099  10.079  0.9342 -2.4714  0.4916
  255MPD2    H1 3921   2.700   0.156  10.493 -0.4576 -1.2315  0.6076
  255MPD2    H2 3922   2.321   0.001  10.389  1.4699  0.7715  3.1239
  255MPD2    H3 3923   2.476   0.073  10.549 -2.1214  0.9411  0.0595
  255MPD2     N 3924   2.791   0.151  10.228 -0.3360 -0.1644  0.0059
  255MPD2    H5 3925   2.817   0.162  10.130 -0.0388 -1.5362 -0.0731
  255MPD2    N1 3926   2.352   0.010  10.127  0.8337  0.1281  0.1003
  255MPD2    H7 3927   2.281   4.685  10.159  1.0990  0.1063  0.6504
  256TMC3    C1 3928   2.256   4.709   9.916 -0.2676  0.2262  0.2359
  256TMC3    C2 3929   2.232   0.018   9.789 -0.2573 -0.2341 -0.6421
  256TMC3    C3 3930   2.170   4.672   9.698  0.5480  0.2990 -0.7424
  256TMC3    C4 3931   2.232   4.578   9.940 -0.4628  0.0753 -0.5144
  256TMC3    C5 3932   2.169   4.499   9.845 -0.3118 -0.4596 -0.1021
  256TMC3    C6 3933   2.130   4.548   9.723  0.3923 -0.1891  0.0551
  256TMC3     C 3934   2.353   0.039   9.992  0.1463  0.5766  0.2315
  256TMC3     O 3935   2.426   0.113   9.929  0.4913  0.2276  0.0079
  256TMC3     H 3936   2.254   0.121   9.763 -0.0173 -0.1789 -0.2235
  256TMC3    H1 3937   2.254   4.535  10.037  1.9828 -0.5843 -1.3723
  256TMC3    H2 3938   2.074   4.479   9.660  0.0586  0.8689 -0.8109
  256TMC3    C7 3939   2.136   4.356   9.869 -0.4535  0.0815  0.6856
  256TMC3    C8 3940   2.177   4.699   9.556  0.0095  0.3884  0.2526
  256TMC3    O1 3941   2.064   4.302   9.785 -0.1770  0.0984  0.3274
  256TMC3    O2 3942   2.117   4.621   9.485  0.6924  0.4687  0.1982
  257MPD2     C 3943   1.946   1.185  13.289  0.1446 -0.0939 -0.1762
  257MPD2    C1 3944   2.069   1.139  13.237  0.0158  0.0710 -0.5346
  257MPD2    C2 3945   2.142   1.044  13.308 -0.0589  0.2080  0.6094
  257MPD2    C3 3946   2.104   1.004  13.433  0.5414  0.1334  0.2969
  257MPD2    C4 3947   1.993   1.073  13.489 -0.4593 -0.4201  0.2651
  257MPD2    C5 3948   1.914   1.146  13.414 -0.5059 -0.0664  0.0093
  257MPD2     H 3949   2.226   0.996  13.259 -0.8088  1.8793 -2.3333
  257MPD2    H1 3950   1.944   1.048  13.582  0.5811  0.7774  1.1291
  257MPD2    H2 3951   1.878   1.255  13.240 -2.2827 -0.5949  2.4968
  257MPD2    H3 3952   1.818   1.184  13.448 -0.6041  1.8764 -2.4285
  257MPD2     N 3953   2.167   0.899  13.491  0.0748  0.1250 -0.2648
  257MPD2    H5 3954   2.249   0.860  13.444  1.3212  0.8049  1.3237
  257MPD2    N1 3955   2.118   1.200  13.121 -0.4318  0.1218 -0.1441
  257MPD2    H7 3956   2.045   1.252  13.073 -0.2390  0.4874 -0.0459
  258TMC3    C1 3957   2.242   0.747  13.656 -0.0194 -0.5287  0.8494
  258TMC3    C2 3958   2.321   0.677  13.568  0.6649  0.8913 -0.4581
  258TMC3    C3 3959   2.391   0.572  13.618  0.5399  0.4498 -0.5631
  258TMC3    C4 3960   2.259   0.730  13.792  0.4129 -0.0334  0.5764
  258TMC3    C5 3961   2.357   0.646  13.839  0.0274  0.5746  0.0848
  258TMC3    C6 3962   2.417   0.557  13.752 -0.0831  0.2034 -0.7408
  258TMC3     C 3963   2.139   0.838  13.617  0.3495 -0.0442  0.0703
  258TMC3     O 3964   2.066   0.884  13.706 -0.2757 -0.6947  0.3921
  258TMC3     H 3965   2.294   0.678  13.463  2.6045  2.3601 -0.9273
  258TMC3    H1 3966   2.206   0.787  13.868 -2.0217 -1.0944 -0.3149
  258TMC3    H2 3967   2.479   0.475  13.787 -1.7572 -1.0675 -0.7217
  258TMC3    C7 3968   2.364   0.616  13.980 -1.0639 -0.3290 -0.3205
  258TMC3    C8 3969   2.453   0.490  13.525 -0.2399 -0.0073 -0.1493
  258TMC3    O1 3970   2.263   0.648  14.041 -0.0914  0.5320 -0.0328
  258TMC3    O2 3971   2.452   0.372  13.550  0.0643 -0.1084 -0.2002
  259MPD2     C 3972   2.310   2.446   0.766 -0.7851  0.6931 -0.5414
  259MPD2    C1 3973   2.275   2.311   0.777 -0.1251 -0.0006 -0.2486
  259MPD2    C2 3974   2.268   2.237   0.662 -0.4162  0.1603 -0.1615
  259MPD2    C3 3975   2.300   2.298   0.541  0.5122 -0.3447 -0.3468
  259MPD2    C4 3976   2.321   2.431   0.529  0.0860  0.5476  0.7165
  259MPD2    C5 3977   2.326   2.505   0.643  0.1389  0.3757  0.2738
  259MPD2     H 3978   2.257   2.129   0.664 -1.6904  0.3501  2.9257
  259MPD2    H1 3979   2.327   2.487   0.437  0.7733 -0.5821  0.0830
  259MPD2    H2 3980   2.320   2.507   0.855 -0.0973 -0.4246  0.1512
  259MPD2    H3 3981   2.341   2.611   0.631 -2.2718  0.1554 -5.0573
  259MPD2     N 3982   2.296   2.210   0.423  0.1258  0.1311  0.6067
  259MPD2    H5 3983   2.280   2.112   0.444 -0.5763  0.5152  1.9080
  259MPD2    N1 3984   2.261   2.258   0.910 -0.1687  0.5057  0.2617
  259MPD2    H7 3985   2.284   2.322   0.985 -0.3710  0.0927  0.6747
  260TMC3    C1 3986   2.349   2.150   0.196  0.2220  0.7732  0.2752
  260TMC3    C2 3987   2.431   2.172   0.090 -0.5924 -0.0775  0.3990
  260TMC3    C3 3988   2.492   2.065   0.030  0.0300 -0.8716  0.1079
  260TMC3    C4 3989   2.322   2.033   0.245  0.2347  0.2109  0.2143
  260TMC3    C5 3990   2.377   1.928   0.181 -0.1468  0.3029 -0.3548
  260TMC3    C6 3991   2.458   1.940   0.070 -0.3361 -0.3923 -0.0930
  260TMC3     C 3992   2.325   2.253   0.298  0.1273  0.3458 -0.1694
  260TMC3     O 3993   2.373   2.356   0.259 -0.6130 -0.4858  0.8661
  260TMC3     H 3994   2.458   2.273   0.060 -0.7569  0.4362  1.9841
  260TMC3    H1 3995   2.228   2.028   0.299 -0.0905 -1.4352 -0.4903
  260TMC3    H2 3996   2.502   1.851   0.026 -1.3133 -1.0999  0.3671
  260TMC3    C7 3997   2.284   1.819   0.158  0.5430 -0.2014 -0.5013
  260TMC3    C8 3998   2.499   2.092  17.649 -0.6326  0.6920 -0.8526
  260TMC3    O1 3999   2.291   1.771   0.046 -0.2301  0.3086  0.9882
  260TMC3    O2 4000   2.525   2.205  17.607 -0.0295 -0.1832  0.0866
  261MPD2     C 4001   3.206   0.979  11.900 -0.8334 -0.4869  0.3543
  261MPD2    C1 4002   3.133   1.067  11.975  0.1703 -0.9304  0.2699
  261MPD2    C2 4003   3.072   1.173  11.918  0.4014 -0.7307 -0.3794
  261MPD2    C3 4004   3.085   1.201  11.786 -0.7308 -0.2798  0.2138
  261MPD2    C4 4005   3.154   1.108  11.713 -0.1850 -0.4719 -0.1683
  261MPD2    C5 4006   3.218   1.001  11.769 -0.2058  0.6335 -0.2979
  261MPD2     H 4007   3.016   1.239  11.985  0.2957  0.1990 -1.3925
  261MPD2    H1 4008   3.176   1.131  11.609 -1.7344 -3.5079 -1.1592
  261MPD2    H2 4009   3.259   0.894  11.939 -1.0398  0.3912  2.5199
  261MPD2    H3 4010   3.284   0.943  11.706 -1.0222 -1.6485  0.9302
  261MPD2     N 4011   3.037   1.318  11.727 -0.2000 -0.2453 -0.0593
  261MPD2    H5 4012   3.006   1.390  11.792 -4.3193 -1.6300 -0.5230
  261MPD2    N1 4013   3.130   1.056  12.115 -0.8609  0.0058  0.3053
  261MPD2    H7 4014   3.076   1.125  12.166 -0.6731 -0.9454  1.7599
  262TMC3    C1 4015   2.971   1.464  11.553 -0.9288  0.0972  0.7030
  262TMC3    C2 4016   2.866   1.514  11.627  0.0878 -0.9313  0.1402
  262TMC3    C3 4017   2.805   1.629  11.581 -0.6133  0.2634  0.3829
  262TMC3    C4 4018   3.030   1.537  11.449  0.1603  0.3143 -0.5695
  262TMC3    C5 4019   2.988   1.662  11.426  0.3181 -0.1812 -0.0788
  262TMC3    C6 4020   2.872   1.708  11.487 -0.5320  0.0523  0.3955
  262TMC3     C 4021   3.035   1.343  11.586 -0.1718 -0.0851  0.0117
  262TMC3     O 4022   3.079   1.280  11.489  0.6629  0.4672  0.2455
  262TMC3     H 4023   2.819   1.441  11.692 -1.5655  0.6020  0.6593
  262TMC3    H1 4024   3.113   1.498  11.391  0.4348 -0.1280  0.1262
  262TMC3    H2 4025   2.830   1.806  11.469  2.2290  1.0783 -0.3677
  262TMC3    C7 4026   3.079   1.749  11.346  0.2350 -0.2074 -0.2971
  262TMC3    C8 4027   2.729   1.718  11.669  0.0225  0.6504 -0.2942
  262TMC3    O1 4028   3.174   1.688  11.304  0.0647  1.0376 -0.0519
  262TMC3    O2 4029   2.675   1.821  11.623  0.0657  0.2000 -0.2123
  263MPD2     C 4030   3.824   0.171  11.485 -0.8588 -0.3417  0.0102
  263MPD2    C1 4031   3.895   0.277  11.542  0.2791  0.2489 -0.6330
  263MPD2    C2 4032   3.875   0.412  11.505  0.1679 -0.4286 -0.0552
  263MPD2    C3 4033   3.790   0.444  11.400 -0.8208 -0.1217 -0.3139
  263MPD2    C4 4034   3.715   0.338  11.344  0.1104 -0.4770 -0.2579
  263MPD2    C5 4035   3.732   0.206  11.389  0.0805 -0.2884 -0.1828
  263MPD2     H 4036   3.949   0.485  11.535 -1.5605  0.9049  0.9557
  263MPD2    H1 4037   3.636   0.359  11.273 -0.5854 -0.8466  0.4048
  263MPD2    H2 4038   3.846   0.074  11.527 -3.2154  0.4409  2.9876
  263MPD2    H3 4039   3.669   0.126  11.352 -0.0229 -0.5181  0.4908
  263MPD2     N 4040   3.800   0.581  11.352 -0.2018  1.1513  0.3329
  263MPD2    H5 4041   3.854   0.643  11.412  1.6430 -0.1029 -0.0204
  263MPD2    N1 4042   4.003   0.252  11.631  0.3952  0.0809  0.1965
  263MPD2    H7 4043   4.046   0.160  11.624  3.3125  1.4032  0.9554
  264TMC3    C1 4044   3.829   0.729  11.165 -0.5009  0.0953  0.6071
  264TMC3    C2 4045   3.832   0.843  11.242  0.4884 -0.0658 -0.1036
  264TMC3    C3 4046   3.870   0.965  11.185  0.4789 -0.3141 -0.7820
  264TMC3    C4 4047   3.876   0.735  11.033  0.1111 -0.1135 -0.5125
  264TMC3    C5 4048   3.915   0.856  10.982 -0.1991  0.4326  0.3112
  264TMC3    C6 4049   3.924   0.966  11.060  0.2163  0.1540  0.1950
  264TMC3     C 4050   3.785   0.603  11.216  0.0709 -0.1152 -0.3542
  264TMC3     O 4051   3.761   0.516  11.130 -0.6550 -0.3142  0.3664
  264TMC3     H 4052   3.783   0.849  11.339  1.1156 -3.6066  0.4395
  264TMC3    H1 4053   3.883   0.646  10.971 -0.0644 -0.1199 -0.5219
  264TMC3    H2 4054   3.987   1.045  11.022  0.6521  0.3737  1.3788
  264TMC3    C7 4055   3.987   0.861  10.849  0.3238  0.2713 -0.5141
  264TMC3    C8 4056   3.869   1.091  11.257  0.6072  0.1635 -0.4657
  264TMC3    O1 4057   4.049   0.764  10.808 -0.4103 -0.0696 -0.1761
  264TMC3    O2 4058   3.854   1.190  11.185 -0.3217 -0.3434 -0.3432
  265MPD2     C 4059   1.343   0.562  15.824  0.3010  0.0999 -0.2154
  265MPD2    C1 4060   1.387   0.672  15.756  0.3303 -0.1728 -0.6763
  265MPD2    C2 4061   1.458   0.663  15.637  0.9354 -0.0293 -0.4494
  265MPD2    C3 4062   1.498   0.537  15.601 -0.6529  0.6968  0.3513
  265MPD2    C4 4063   1.452   0.429  15.664  0.4639  0.3535  0.1850
  265MPD2    C5 4064   1.372   0.439  15.770  0.1993  0.4060  0.5054
  265MPD2     H 4065   1.480   0.755  15.585 -2.3542 -0.2314 -2.2170
  265MPD2    H1 4066   1.471   0.327  15.632 -0.6696  0.3843 -0.5802
  265MPD2    H2 4067   1.268   0.569  15.901 -0.5546 -0.0236 -1.0382
  265MPD2    H3 4068   1.328   0.347  15.808  0.9894 -0.7004 -1.2870
  265MPD2     N 4069   1.573   0.516  15.480 -0.0579  0.1168  0.1690
  265MPD2    H5 4070   1.591   0.421  15.451 -2.3328 -0.1519 -0.3152
  265MPD2    N1 4071   1.355   0.798  15.812  0.1321 -0.5312  0.1798
  265MPD2    H7 4072   1.368   0.874  15.747 -0.6169  0.4009  1.1207
  266TMC3    C1 4073   1.336   0.960  15.982 -1.1303 -0.2005 -0.0642
  266TMC3    C2 4074   1.415   1.017  16.070 -0.0126  0.6529 -0.1326
  266TMC3    C3 4075   1.428   1.156  16.076  1.3057  0.2553  0.6878
  266TMC3    C4 4076   1.264   1.036  15.895  0.1275 -0.2188  0.3109
  266TMC3    C5 4077   1.273   1.177  15.904 -0.3933 -0.3717  0.3056
  266TMC3    C6 4078   1.357   1.243  15.991 -1.1547 -0.5865  0.6892
  266TMC3     C 4079   1.342   0.820  15.947  0.6533  0.7542 -0.7193
  266TMC3     O 4080   1.376   0.744  16.037  0.0908 -0.1773  0.2440
  266TMC3     H 4081   1.474   0.947  16.128  0.6020  1.5967  0.3796
  266TMC3    H1 4082   1.200   0.985  15.824  0.2531 -0.3607  0.2985
  266TMC3    H2 4083   1.354   1.351  15.999  0.2830 -0.1049 -5.1106
  266TMC3    C7 4084   1.183   1.254  15.827  0.2875  0.6006 -0.6421
  266TMC3    C8 4085   1.541   1.198  16.157  0.0174  0.9441  0.0387
  266TMC3    O1 4086   1.085   1.199  15.780  0.3956  0.0289 -0.4091
  266TMC3    O2 4087   1.623   1.119  16.200 -0.4285 -0.6470  0.1512
  267MPD2     C 4088   3.821   3.331   0.901  0.0131 -0.0109  0.8627
  267MPD2    C1 4089   3.811   3.197   0.877  0.1118  0.4441 -0.2737
  267MPD2    C2 4090   3.701   3.155   0.812  0.2003 -0.1481  0.2400
  267MPD2    C3 4091   3.585   3.236   0.795 -0.0311 -0.0668  0.5812
  267MPD2    C4 4092   3.600   3.368   0.827 -0.3023  0.8314 -0.4304
  267MPD2    C5 4093   3.723   3.414   0.874 -0.2551  0.3596 -0.4521
  267MPD2     H 4094   3.694   3.053   0.777  1.1476 -0.4819  1.0172
  267MPD2    H1 4095   3.514   3.435   0.822 -0.3656  0.6903 -1.3581
  267MPD2    H2 4096   3.910   3.365   0.954 -1.4236  0.0958  3.2371
  267MPD2    H3 4097   3.742   3.518   0.898 -1.6988  0.8181 -1.3202
  267MPD2     N 4098   3.462   3.197   0.733 -0.3585 -0.9396 -0.1251
  267MPD2    H5 4099   3.393   3.270   0.723  0.3159 -0.1461  1.0064
  267MPD2    N1 4100   3.919   3.113   0.909 -0.2997 -0.1660 -0.2111
  267MPD2    H7 4101   4.007   3.157   0.936 -0.1082 -0.9903  0.4888
  268TMC3    C1 4102   4.050   2.914   0.902  0.2450 -0.1263 -0.6122
  268TMC3    C2 4103   4.148   2.978   0.836  0.3783 -0.3493  0.2807
  268TMC3    C3 4104   4.261   2.912   0.801  0.3592 -0.9240 -0.0057
  268TMC3    C4 4105   4.061   2.785   0.949  0.0832 -0.6348 -0.3999
  268TMC3    C5 4106   4.173   2.723   0.909 -0.3208 -0.2899  0.1337
  268TMC3    C6 4107   4.274   2.781   0.837  0.1512  0.4933 -0.4168
  268TMC3     C 4108   3.917   2.979   0.905 -0.3458 -0.0244 -0.3558
  268TMC3     O 4109   3.824   2.898   0.905 -0.0271  0.0779 -0.1756
  268TMC3     H 4110   4.134   3.080   0.801  2.2192  0.0345  0.6337
  268TMC3    H1 4111   3.979   2.738   1.002  0.4284  0.9149  1.5090
  268TMC3    H2 4112   4.365   2.726   0.815  0.6710  1.6097 -1.0347
  268TMC3    C7 4113   4.191   2.583   0.937  1.0160  0.5690 -0.2616
  268TMC3    C8 4114   4.333   2.938   0.685 -0.6527  0.2697 -0.7601
  268TMC3    O1 4115   4.295   2.533   0.973  0.4671  0.0468  0.3543
  268TMC3    O2 4116   4.443   2.888   0.658  0.1022 -0.0312 -0.1810
  269MPD2     C 4117   4.116   1.239  15.726 -0.2879  0.5219 -1.1095
  269MPD2    C1 4118   3.987   1.281  15.749  0.1988  0.2292  0.0256
  269MPD2    C2 4119   3.962   1.419  15.738  0.4994 -0.0922 -0.3378
  269MPD2    C3 4120   4.057   1.499  15.688 -0.2632  0.3685 -0.6697
  269MPD2    C4 4121   4.178   1.458  15.652  0.6483 -0.0509  0.2489
  269MPD2    C5 4122   4.209   1.328  15.676 -0.7379 -0.7023 -0.3978
  269MPD2     H 4123   3.867   1.459  15.774  0.6084  0.6621 -0.8931
  269MPD2    H1 4124   4.258   1.517  15.611  0.2350  0.2416 -0.1354
  269MPD2    H2 4125   4.151   1.137  15.738  1.8787  1.3585 -0.1835
  269MPD2    H3 4126   4.308   1.295  15.646  0.3373  1.5594  0.6935
  269MPD2     N 4127   4.012   1.636  15.690  0.4759  0.4395 -0.3393
  269MPD2    H5 4128   3.918   1.643  15.727  0.0896 -0.8408 -1.0853
  269MPD2    N1 4129   3.893   1.186  15.778 -0.1271 -0.2161 -0.7463
  269MPD2    H7 4130   3.922   1.089  15.779  0.2780 -0.1002 -1.5685
  270TMC3    C1 4131   3.691   1.082  15.832 -0.7698  0.2413 -0.1372
  270TMC3    C2 4132   3.578   1.048  15.761  0.3808  0.0663 -0.2708
  270TMC3    C3 4133   3.546   0.914  15.754  0.5557  0.2127 -0.2339
  270TMC3    C4 4134   3.774   0.987  15.895 -0.5514 -0.1303 -0.0339
  270TMC3    C5 4135   3.730   0.859  15.890  0.2478 -0.2737 -0.2088
  270TMC3    C6 4136   3.609   0.819  15.834  0.8457  0.5615 -0.2496
  270TMC3     C 4137   3.755   1.201  15.788  0.2548  0.1458 -0.3221
  270TMC3     O 4138   3.680   1.289  15.761  0.1453 -0.1780  0.3356
  270TMC3     H 4139   3.513   1.116  15.707  2.0224  1.1208 -0.9075
  270TMC3    H1 4140   3.866   1.018  15.942 -1.3798 -1.1667  2.2490
  270TMC3    H2 4141   3.585   0.714  15.844  0.3685  0.6866 -0.0949
  270TMC3    C7 4142   3.810   0.764  15.964 -0.3837 -0.0798 -0.2640
  270TMC3    C8 4143   3.527   0.878  15.618 -0.5435  0.7534 -0.0772
  270TMC3    O1 4144   3.917   0.809  16.003  0.0462 -0.2146  0.4099
  270TMC3    O2 4145   3.518   0.958  15.531 -0.1123  0.0765 -0.2481
  271MPD2     C 4146   3.227   0.870  13.939  0.1790 -0.2165 -0.5210
  271MPD2    C1 4147   3.247   0.976  14.027 -0.5185 -0.7493 -0.4243
  271MPD2    C2 4148   3.173   1.087  14.008 -0.5839  0.2226  0.0270
  271MPD2    C3 4149   3.077   1.097  13.905  0.0914  0.5571  0.1175
  271MPD2    C4 4150   3.055   0.986  13.824  0.0571  0.7408 -0.3677
  271MPD2    C5 4151   3.137   0.877  13.839 -0.0947 -0.0983  0.4467
  271MPD2     H 4152   3.190   1.173  14.071 -1.9348 -0.2009  0.9804
  271MPD2    H1 4153   2.981   0.996  13.746 -0.5138  1.4256  0.2600
  271MPD2    H2 4154   3.289   0.782  13.947 -3.7834 -2.7698  1.8552
  271MPD2    H3 4155   3.126   0.792  13.773 -1.5693 -0.2931  0.9304
  271MPD2     N 4156   2.997   1.211  13.880  0.3482 -1.0346 -0.1387
  271MPD2    H5 4157   2.932   1.198  13.803  0.6704  0.1682 -0.6115
  271MPD2    N1 4158   3.339   0.969  14.137 -0.2364  0.4831  0.1020
  271MPD2    H7 4159   3.337   1.050  14.198 -1.9771  0.7969 -0.3834
  272TMC3    C1 4160   3.496   0.880  14.284 -0.4692 -0.4474 -0.6812
  272TMC3    C2 4161   3.625   0.845  14.280  0.4410 -0.1440  0.6225
  272TMC3    C3 4162   3.700   0.857  14.397  0.0650 -0.3673 -0.3934
  272TMC3    C4 4163   3.442   0.949  14.390 -0.5659  0.3451  0.4230
  272TMC3    C5 4164   3.518   0.970  14.501  0.3926 -0.5580  0.1038
  272TMC3    C6 4165   3.646   0.911  14.517  0.0779  0.0558 -0.1220
  272TMC3     C 4166   3.417   0.861  14.165 -0.4615 -0.1402  0.4346
  272TMC3     O 4167   3.447   0.764  14.097  0.4204 -0.0796  0.2650
  272TMC3     H 4168   3.676   0.797  14.198 -0.3946 -1.2018  0.7355
  272TMC3    H1 4169   3.341   0.986  14.384 -0.2736  0.8485 -1.3115
  272TMC3    H2 4170   3.696   0.914  14.613 -0.4315  2.5693  0.0773
  272TMC3    C7 4171   3.446   1.040  14.602  0.2362 -0.0031  0.0130
  272TMC3    C8 4172   3.840   0.843  14.395 -0.0709  0.5545 -0.5337
  272TMC3    O1 4173   3.347   1.103  14.567  0.4722  0.2661  0.1794
  272TMC3    O2 4174   3.890   0.830  14.288  0.1812  0.4208 -0.7818
  273MPD2     C 4175   4.678   4.025  12.081  0.2382  0.5714 -0.9648
  273MPD2    C1 4176   0.014   4.104  12.001 -0.3053 -0.7047 -0.0446
  273MPD2    C2 4177   4.706   4.136  11.875  0.2492 -0.2959  0.2143
  273MPD2    C3 4178   4.586   4.080  11.830  0.3349 -0.1761  0.8154
  273MPD2    C4 4179   4.503   4.002  11.910 -0.0561 -0.7006 -0.1552
  273MPD2    C5 4180   4.557   3.979  12.038 -0.1616 -0.5478  0.1843
  273MPD2     H 4181   0.032   4.185  11.804 -0.1240 -0.5371 -0.2987
  273MPD2    H1 4182   4.413   3.960  11.868 -0.8914 -1.9732  2.9371
  273MPD2    H2 4183   4.717   3.989  12.176  0.8515 -1.9244 -2.1436
  273MPD2    H3 4184   4.489   3.919  12.098 -0.0720 -0.9725 -0.1397
  273MPD2     N 4185   4.548   4.087  11.691  0.4815 -0.5799  0.3721
  273MPD2    H5 4186   4.451   4.065  11.668 -0.2884  2.4493  0.7473
  273MPD2    N1 4187   0.131   4.168  12.053  0.2644 -0.3405 -0.0171
  273MPD2    H7 4188   0.148   4.154  12.152  0.8626  0.1791 -0.0446
  274TMC3    C1 4189   4.573   4.176  11.473 -0.1897 -0.0537 -0.0869
  274TMC3    C2 4190   4.444   4.147  11.433  0.3358  0.4729  0.4143
  274TMC3    C3 4191   4.396   4.230  11.334 -0.5927  0.2197 -0.4761
  274TMC3    C4 4192   4.648   4.276  11.416 -0.1121 -0.1814  0.1977
  274TMC3    C5 4193   4.602   4.350  11.309 -0.6136 -0.2606  0.2489
  274TMC3    C6 4194   4.479   4.316  11.260  0.5705  0.4678  0.3793
  274TMC3     C 4195   4.637   4.122  11.592  0.0556  0.1622 -0.6224
  274TMC3     O 4196   0.020   4.125  11.599 -0.1629  0.1277  0.7225
  274TMC3     H 4197   4.382   4.073  11.483  0.8479 -2.6362 -3.4895
  274TMC3    H1 4198   0.001   4.315  11.457  0.0218 -0.0077 -0.2672
  274TMC3    H2 4199   4.442   4.395  11.196 -2.3606 -1.4469 -0.3224
  274TMC3    C7 4200   4.623   4.490  11.318 -0.2166  0.3120 -0.4407
  274TMC3    C8 4201   4.269   4.201  11.262  0.4258  0.6027  0.4552
  274TMC3    O1 4202   4.518   4.556  11.324  0.3363  0.7745 -0.1299
  274TMC3    O2 4203   4.230   4.301  11.201 -0.4527  0.1161  0.0892
  275MPD2     C 4204   4.671   2.462  14.774  0.8234 -0.1878 -0.2561
  275MPD2    C1 4205   4.686   2.330  14.793 -0.6588  0.4435  0.5807
  275MPD2    C2 4206   4.577   2.245  14.780 -0.3681 -0.5279  0.0969
  275MPD2    C3 4207   4.455   2.296  14.735 -0.0846  0.2291  0.4534
  275MPD2    C4 4208   4.441   2.433  14.713 -0.3122 -1.2518  0.1844
  275MPD2    C5 4209   4.552   2.515  14.736  0.3981  0.0313  0.0514
  275MPD2     H 4210   4.585   2.139  14.801  2.0068 -0.4106 -0.2129
  275MPD2    H1 4211   4.357   2.484  14.668 -1.1737 -2.7260  0.1194
  275MPD2    H2 4212   0.009   2.533  14.798 -0.8766  2.0202 -1.2586
  275MPD2    H3 4213   4.542   2.621  14.716  0.3851  0.2351  1.1464
  275MPD2     N 4214   4.346   2.214  14.724  0.1455 -1.0158 -0.5379
  275MPD2    H5 4215   4.256   2.260  14.710  0.0488 -0.1161  2.9421
  275MPD2    N1 4216   0.062   2.267  14.844 -0.0875 -0.3519  0.0207
  275MPD2    H7 4217   0.053   2.167  14.862 -1.3455 -0.4728 -1.3620
  276TMC3    C1 4218   0.271   2.223  14.929 -0.5603 -0.1582 -0.8203
  276TMC3    C2 4219   0.214   2.111  14.989  0.0984 -0.0168  0.1131
  276TMC3    C3 4220   0.294   2.038  15.071 -0.6032 -0.7204  0.6713
  276TMC3    C4 4221   0.402   2.266  14.957 -0.0910  0.3442  0.4522
  276TMC3    C5 4222   0.471   2.186  15.054 -0.6001  0.0819 -0.3561
  276TMC3    C6 4223   0.416   2.073  15.109 -0.3459 -0.0434 -0.3184
  276TMC3     C 4224   0.181   2.324  14.871  0.1979 -0.2560  0.1276
  276TMC3     O 4225   0.226   2.435  14.840 -0.6447 -0.3278 -0.3639
  276TMC3     H 4226   0.107   2.092  14.995  0.5000 -1.7524  1.6067
  276TMC3    H1 4227   0.447   2.356  14.917 -1.9715  0.9002 -0.3953
  276TMC3    H2 4228   0.454   2.022  15.197 -1.7491 -1.5235 -0.5894
  276TMC3    C7 4229   0.605   2.215  15.101  0.0592  0.0838  0.3594
  276TMC3    C8 4230   0.228   1.942  15.155 -0.3409 -0.5460 -0.2186
  276TMC3    O1 4231   0.649   2.159  15.201  0.2612  0.1814 -0.1152
  276TMC3    O2 4232   0.251   1.936  15.275 -0.1649 -0.3635  0.0801
  277MPD2     C 4233   1.453   1.348  13.410 -0.0410 -0.0209 -0.0834
  277MPD2    C1 4234   1.373   1.426  13.490  1.0940  0.0781 -0.1402
  277MPD2    C2 4235   1.336   1.380  13.613 -0.0351 -0.1204 -0.4336
  277MPD2    C3 4236   1.403   1.269  13.665  0.2374  0.3087 -0.0151
  277MPD2    C4 4237   1.492   1.200  13.587 -0.5225  0.2390 -0.0722
  277MPD2    C5 4238   1.505   1.232  13.458 -0.1128 -0.7293  0.3862
  277MPD2     H 4239   1.267   1.434  13.677 -2.1697 -3.0774 -0.2672
  277MPD2    H1 4240   1.545   1.110  13.615 -2.7055 -0.7747  0.8628
  277MPD2    H2 4241   1.486   1.393  13.317 -1.4734 -0.1515 -0.6552
  277MPD2    H3 4242   1.564   1.169  13.393  2.0892 -0.8609  2.5016
  277MPD2     N 4243   1.381   1.231  13.802  0.0171 -0.2746 -1.0042
  277MPD2    H5 4244   1.296   1.266  13.846  0.0901 -0.2799 -0.8605
  277MPD2    N1 4245   1.329   1.549  13.438  0.5071 -0.0680 -0.4543
  277MPD2    H7 4246   1.333   1.557  13.336  0.2030 -2.1878 -0.6332
  278TMC3    C1 4247   1.383   1.116  14.002 -0.3515 -0.8468  0.2059
  278TMC3    C2 4248   1.410   0.993  14.050  0.0387  0.7314 -0.1627
  278TMC3    C3 4249   1.331   0.956  14.152  0.5244 -1.0073 -0.4810
  278TMC3    C4 4250   1.304   1.202  14.067  0.4668  0.8162 -0.6473
  278TMC3    C5 4251   1.238   1.168  14.180 -0.1078 -0.6115  0.3873
  278TMC3    C6 4252   1.248   1.038  14.223  0.0285 -0.4354 -0.1573
  278TMC3     C 4253   1.455   1.145  13.880 -0.0989  0.1996 -0.3215
  278TMC3     O 4254   1.541   1.068  13.841 -0.1796 -0.1300  0.0847
  278TMC3     H 4255   1.468   0.913  14.003  0.0565  0.1365  0.8785
  278TMC3    H1 4256   1.310   1.304  14.033  0.2981  1.4954  1.3814
  278TMC3    H2 4257   1.182   0.988  14.293 -1.7732  2.1444 -0.0156
  278TMC3    C7 4258   1.116   1.246  14.200  0.1881  0.4501  0.1221
  278TMC3    C8 4259   1.248   0.843  14.122 -0.0925 -0.5551  0.0536
  278TMC3    O1 4260   1.103   1.337  14.117 -0.2265  0.1499 -0.2686
  278TMC3    O2 4261   1.210   0.777  14.218  0.0330  0.2836  0.3154
  279MPD2     C 4262   1.029   0.270   0.187  0.7816  0.6605  0.2770
  279MPD2    C1 4263   1.005   0.394   0.247  0.3233 -0.7176 -0.2852
  279MPD2    C2 4264   1.042   0.507   0.175 -0.0647 -0.3384  0.8168
  279MPD2    C3 4265   1.058   0.505   0.036 -0.4731 -0.8256  0.5204
  279MPD2    C4 4266   1.064   0.381  17.734 -0.2152  0.2895 -0.6699
  279MPD2    C5 4267   1.060   0.264   0.053  0.3772 -0.2969 -0.0410
  279MPD2     H 4268   1.057   0.597   0.233  0.7197 -1.1622  1.8793
  279MPD2    H1 4269   1.083   0.364  17.628  0.4270  0.7966 -0.6369
  279MPD2    H2 4270   1.018   0.175   0.240  2.7502 -0.6849 -1.7596
  279MPD2    H3 4271   1.062   0.169   0.001 -2.6641 -1.2270  1.5251
  279MPD2     N 4272   1.090   0.619  17.716 -0.5141  1.0025  0.4177
  279MPD2    H5 4273   1.079   0.618  17.616  0.9483  0.4142  0.2653
  279MPD2    N1 4274   0.976   0.406   0.387  0.2157 -0.0162 -0.4145
  279MPD2    H7 4275   0.982   0.318   0.438 -2.1533 -0.5273 -0.9906
  280TMC3    C1 4276   0.839   0.601   0.393 -0.1021  0.2377  0.2880
  280TMC3    C2 4277   0.731   0.535   0.341  0.0966 -0.0126 -0.5482
  280TMC3    C3 4278   0.626   0.618   0.309 -0.1437  0.5112  0.4971
  280TMC3    C4 4279   0.852   0.739   0.399 -0.3591  0.2019  0.0776
  280TMC3    C5 4280   0.742   0.812   0.359  0.9820 -0.3142 -0.2736
  280TMC3    C6 4281   0.628   0.754   0.316  0.1759  0.0619 -0.1734
  280TMC3     C 4282   0.940   0.519   0.457  0.2721 -0.1823  0.1559
  280TMC3     O 4283   0.945   0.526   0.577 -0.3076  0.0377  0.4081
  280TMC3     H 4284   0.727   0.427   0.334  2.0188 -0.3823  3.9618
  280TMC3    H1 4285   0.927   0.779   0.467  0.2431 -1.6033  0.4777
  280TMC3    H2 4286   0.545   0.818   0.288 -0.7039 -0.7133  0.6623
  280TMC3    C7 4287   0.743   0.952   0.399 -0.6083  0.3491 -0.1183
  280TMC3    C8 4288   0.503   0.550   0.288 -0.1677 -0.1714 -0.2498
  280TMC3    O1 4289   0.811   0.968   0.496 -0.0811 -0.2412 -0.1312
  280TMC3    O2 4290   0.406   0.617   0.324 -0.5483  0.3145 -0.3984
  281TMC3    C1 4291   4.576   1.306  13.409 -0.2939  0.0592  0.4137
  281TMC3    C2 4292   4.625   1.344  13.291 -0.2358  0.3718  0.2046
  281TMC3    C3 4293   4.603   1.269  13.171 -0.3333 -0.0727  0.5356
  281TMC3    C4 4294   4.485   1.209  13.415 -1.0663  0.0916 -0.6652
  281TMC3    C5 4295   4.463   1.140  13.304  0.7025  0.3317  0.6143
  281TMC3    C6 4296   4.517   1.168  13.181 -0.0556  0.6821 -0.5633
  281TMC3     C 4297   4.551   1.412  13.506  0.2008  0.0866  0.1524
  281TMC3     O 4298   4.495   1.371  13.607  0.1752 -0.5168 -0.0681
  281TMC3     H 4299   4.699   1.423  13.297 -1.4973  1.5759 -0.2013
  281TMC3    H1 4300   4.421   1.182  13.499  0.9711 -1.4218  0.3848
  281TMC3    H2 4301   4.469   1.122  13.095  0.6478 -2.9421  0.9882
  281TMC3    C7 4302   4.343   1.075  13.311  0.2837  0.1842 -0.2319
  281TMC3    C8 4303   4.566   1.354  13.062  0.4096 -0.1060 -0.0320
  281TMC3    O1 4304   4.261   1.097  13.227 -0.1847 -0.4079  0.0473
  281TMC3    O2 4305   4.478   1.312  12.986  0.2909 -0.0401 -0.5316
  282MPD2     C 4306   1.805   2.727  15.237 -0.0940  0.3478  0.4184
  282MPD2    C1 4307   1.683   2.733  15.298  0.2265 -0.4777  0.6406
  282MPD2    C2 4308   1.571   2.693  15.227  0.1086 -0.9197 -0.9380
  282MPD2    C3 4309   1.580   2.653  15.092  0.5246 -0.1632  0.0562
  282MPD2    C4 4310   1.699   2.654  15.032  0.5028  0.2603 -0.2189
  282MPD2    C5 4311   1.813   2.678  15.102  0.0419  0.2711  0.5214
  282MPD2     H 4312   1.477   2.707  15.280 -0.5802 -1.0300 -2.1405
  282MPD2    H1 4313   1.701   2.640  14.925  1.6878  0.1151 -0.1794
  282MPD2    H2 4314   1.891   2.749  15.299  0.9403  0.3055 -1.0144
  282MPD2    H3 4315   1.909   2.659  15.056  0.2580 -0.3433  1.2254
  282MPD2     N 4316   1.459   2.651  15.023  0.4349 -0.1983  0.6038
  282MPD2    H5 4317   1.386   2.684  15.085 -1.3489 -1.5973 -0.7608
  282MPD2    N1 4318   1.661   2.784  15.426 -0.5482 -0.2282 -0.2260
  282MPD2    H7 4319   1.572   2.775  15.473 -0.0183 -1.9524  0.4531
  283TMC3    C1 4320   1.694   2.904  15.611  0.5474 -0.5484 -0.5713
  283TMC3    C2 4321   1.702   3.032  15.654 -0.6799 -0.1325  0.0348
  283TMC3    C3 4322   1.663   3.060  15.782 -0.2000 -0.2146 -0.5623
  283TMC3    C4 4323   1.661   2.804  15.702 -0.3195 -0.3911  0.2111
  283TMC3    C5 4324   1.623   2.835  15.832 -0.0455 -0.3274 -0.1834
  283TMC3    C6 4325   1.619   2.964  15.867  0.0496  0.1445 -0.2368
  283TMC3     C 4326   1.755   2.866  15.487 -0.8153  0.5686 -0.1924
  283TMC3     O 4327   1.837   2.942  15.429 -0.5383  0.0453  0.6020
  283TMC3     H 4328   1.750   3.105  15.591 -1.0778  0.9658  1.0013
  283TMC3    H1 4329   1.663   2.702  15.666  0.7987 -0.7661  1.3354
  283TMC3    H2 4330   1.604   2.980  15.973 -0.0051  0.1637 -0.2471
  283TMC3    C7 4331   1.570   2.734  15.915  0.1587  0.0528 -0.0940
  283TMC3    C8 4332   1.646   3.194  15.829 -0.6411 -0.2781  0.3415
  283TMC3    O1 4333   1.515   2.774  16.017  0.6519  0.0462 -0.1669
  283TMC3    O2 4334   1.618   3.208  15.948 -0.2167  0.0385 -0.4682
  284MPD2     C 4335   4.437   2.721  12.284 -0.7855 -0.8624 -0.4293
  284MPD2    C1 4336   4.397   2.605  12.226 -0.1213  0.2063 -0.5455
  284MPD2    C2 4337   4.462   2.487  12.265  0.2743 -0.4345 -1.0959
  284MPD2    C3 4338   4.562   2.482  12.357 -0.1720 -0.0188 -0.5464
  284MPD2    C4 4339   4.609   2.606  12.400  0.2765 -0.2788  0.7743
  284MPD2    C5 4340   4.550   2.720  12.363 -0.6503 -0.1383 -0.3241
  284MPD2     H 4341   4.418   2.397  12.224 -1.5400  0.0032 -0.1113
  284MPD2    H1 4342   4.695   2.615  12.467 -0.7521  2.7913  1.7130
  284MPD2    H2 4343   4.394   2.818  12.263  1.7089  0.3544  0.0741
  284MPD2    H3 4344   4.598   2.814  12.384 -0.6671  0.1890 -1.8075
  284MPD2     N 4345   4.624   2.368  12.404 -0.0064 -0.1038 -0.3625
  284MPD2    H5 4346   4.685   2.381  12.484  0.2896  0.6529 -0.7099
  284MPD2    N1 4347   4.285   2.586  12.135 -0.2305  0.2256 -0.1965
  284MPD2    H7 4348   4.264   2.490  12.109 -0.9580 -0.1217  1.7008
  285TMC3    C1 4349   4.122   2.648  11.983 -0.6381  0.4682  0.0637
  285TMC3    C2 4350   4.151   2.524  11.922  0.6353 -0.7356 -0.1010
  285TMC3    C3 4351   4.127   2.509  11.788  0.0389  0.1267  0.3491
  285TMC3    C4 4352   4.086   2.755  11.910 -0.0687  0.1672 -0.0985
  285TMC3    C5 4353   4.065   2.733  11.775  0.0745  0.0538 -0.7085
  285TMC3    C6 4354   4.103   2.618  11.707  0.6054  0.1658  0.0072
  285TMC3     C 4355   4.201   2.688  12.099 -0.1918  0.3165 -0.2411
  285TMC3     O 4356   4.213   2.810  12.117 -0.0982 -0.1283  0.1030
  285TMC3     H 4357   4.169   2.429  11.973 -2.5483 -0.5076  1.4772
  285TMC3    H1 4358   4.062   2.851  11.955  2.6114  1.1102 -0.6466
  285TMC3    H2 4359   4.097   2.624  11.599  0.9021  0.6303  0.0132
  285TMC3    C7 4360   4.059   2.856  11.698  0.5710  0.0840 -0.8204
  285TMC3    C8 4361   4.187   2.408  11.707 -0.1145 -1.1625  0.0902
  285TMC3    O1 4362   4.142   2.869  11.603 -0.4130 -0.5344 -0.3086
  285TMC3    O2 4363   4.143   2.294  11.716  0.7661  0.2650  0.6319
  286MPD2     C 4364   0.310   0.799   1.418  0.3174  0.0596 -0.5736
  286MPD2    C1 4365   0.240   0.723   1.323 -0.8764 -0.1689 -0.6528
  286MPD2    C2 4366   0.264   0.584   1.308 -0.0461  0.1323 -0.2039
  286MPD2    C3 4367   0.358   0.526   1.388 -0.3988 -0.2015  0.2562
  286MPD2    C4 4368   0.423   0.604   1.485 -0.1289  0.2651 -0.1361
  286MPD2    C5 4369   0.395   0.739   1.505  0.7456  0.3032  0.0653
  286MPD2     H 4370   0.209   0.522   1.238  1.6047 -0.5909 -0.8543
  286MPD2    H1 4371   0.503   0.557   1.541 -1.9712 -3.0828 -0.3376
  286MPD2    H2 4372   0.299   0.907   1.422 -0.3971 -0.0684  1.1286
  286MPD2    H3 4373   0.458   0.798   1.571  0.7497  0.4163 -0.0373
  286MPD2     N 4374   0.413   0.396   1.376 -0.2284 -0.5613  0.2404
  286MPD2    H5 4375   0.501   0.380   1.425 -0.2724  0.9750  0.8334
  286MPD2    N1 4376   0.146   0.775   1.229  0.3317 -0.3159  0.0687
  286MPD2    H7 4377   0.098   0.711   1.166 -2.8668  2.3031 -0.1798
  287TMC3    C1 4378   0.432   0.172   1.304 -0.3141  0.2489 -0.0759
  287TMC3    C2 4379   0.396   0.091   1.193  0.0096  0.7083  0.3389
  287TMC3    C3 4380   0.492   0.016   1.142  0.1236 -0.3443  0.1116
  287TMC3    C4 4381   0.544   0.160   1.373 -0.2489 -0.1177  0.1150
  287TMC3    C5 4382   0.637   0.085   1.315 -0.4074 -0.2142  1.5188
  287TMC3    C6 4383   0.612   0.019   1.197  1.1799  0.4598 -0.2220
  287TMC3     C 4384   0.360   0.298   1.306 -0.3845 -0.2035 -0.3225
  287TMC3     O 4385   0.256   0.292   1.242 -0.4218 -0.0389 -0.4508
  287TMC3     H 4386   0.323   0.118   1.117 -0.2104  0.4680  0.4648
  287TMC3    H1 4387   0.569   0.213   1.465  0.0930  0.9498 -0.5854
  287TMC3    H2 4388   0.691   4.703   1.149 -0.5991 -1.7608 -0.5665
  287TMC3    C7 4389   0.767   0.070   1.385  0.1860  0.3750  0.6402
  287TMC3    C8 4390   0.459   4.708   1.006 -0.3300 -0.6267  0.5448
  287TMC3    O1 4391   0.788   0.152   1.474 -0.4646  0.5629 -0.1223
  287TMC3    O2 4392   0.347   4.662   0.990 -0.1740 -0.0843  0.2580
  288TMC3    C1 4393   1.643   0.513  14.587 -0.3386 -0.4506 -0.4426
  288TMC3    C2 4394   1.584   0.497  14.706  0.3575  0.8673  0.3769
  288TMC3    C3 4395   1.509   0.602  14.758 -0.3970 -0.4917  0.3731
  288TMC3    C4 4396   1.641   0.629  14.518 -0.1370  0.1504  0.1547
  288TMC3    C5 4397   1.600   0.735  14.587 -0.3457  0.4623  0.8113
  288TMC3    C6 4398   1.541   0.727  14.710 -0.0204  0.5434 -0.1767
  288TMC3     C 4399   1.710   0.394  14.532 -0.1809 -0.0562  0.3979
  288TMC3     O 4400   1.668   0.287  14.569 -0.6286  0.2432  0.3815
  288TMC3     H 4401   1.585   0.394  14.741  2.4665  0.4621 -0.9137
  288TMC3    H1 4402   1.692   0.633  14.422 -1.0802  3.1921 -0.2002
  288TMC3    H2 4403   1.510   0.819  14.757  0.8624  0.3680  0.7524
  288TMC3    C7 4404   1.563   0.856  14.522  0.8572 -0.1040  0.2747
  288TMC3    C8 4405   1.452   0.600  14.894 -0.1121 -0.2822  0.6419
  288TMC3    O1 4406   1.489   0.935  14.576 -0.5676  0.6163 -0.1978
  288TMC3    O2 4407   1.430   0.704  14.953 -0.7295  0.0661 -0.4364
  289MPD2     C 4408   1.777   4.575  14.079 -0.3809  0.1126 -0.0721
  289MPD2    C1 4409   1.713   4.697  14.078 -0.0428  0.8813 -0.2219
  289MPD2    C2 4410   1.572   4.703  14.078  0.4247  0.1490  0.0177
  289MPD2    C3 4411   1.495   4.586  14.078  0.5513 -0.1034 -0.1495
  289MPD2    C4 4412   1.565   4.469  14.084 -0.3236  0.2298  0.1605
  289MPD2    C5 4413   1.699   4.462  14.087 -1.2033  0.3812 -0.0861
  289MPD2     H 4414   1.521   0.058  14.073  0.5209  0.2234  0.4605
  289MPD2    H1 4415   1.521   4.372  14.107 -3.0905  1.6020  0.6464
  289MPD2    H2 4416   1.885   4.561  14.081 -0.4590 -0.5677 -0.8119
  289MPD2    H3 4417   1.745   4.364  14.097 -0.5036  0.7737  0.5267
  289MPD2     N 4418   1.359   4.577  14.080  0.1664  0.2156  0.1143
  289MPD2    H5 4419   1.326   4.481  14.072 -1.0651  0.5967  0.4677
  289MPD2    N1 4420   1.799   0.069  14.073 -1.0080 -0.1852  0.2149
  289MPD2    H7 4421   1.897   0.045  14.064 -1.1288 -0.3980 -0.4903
  290TMC3    C1 4422   1.134   4.674  14.104  0.6154 -0.7543  0.1879
  290TMC3    C2 4423   1.063   0.048  14.134  0.1899 -0.0904 -0.3989
  290TMC3    C3 4424   0.931   0.044  14.102  0.1814  0.5412  0.1751
  290TMC3    C4 4425   1.076   4.562  14.048  0.1881  0.4534  0.3032
  290TMC3    C5 4426   0.943   4.569  14.018 -0.1841  0.0815  0.5905
  290TMC3    C6 4427   0.869   4.680  14.035  0.2197  0.1457  1.1049
  290TMC3     C 4428   1.278   4.690  14.094 -0.2280  0.5051  0.1587
  290TMC3     O 4429   1.315   0.065  14.122 -0.1406  0.5202 -0.4097
  290TMC3     H 4430   1.113   0.136  14.171  2.7332 -1.8162  0.3134
  290TMC3    H1 4431   1.118   4.463  14.044  0.2096  0.5741 -1.9853
  290TMC3    H2 4432   0.762   4.663  14.037 -0.0865  2.0239  0.4516
  290TMC3    C7 4433   0.874   4.458  13.961 -0.5324  0.2540  0.1308
  290TMC3    C8 4434   0.848   0.165  14.129  0.2184 -0.1926  0.5411
  290TMC3    O1 4435   0.806   4.485  13.865 -0.0161 -0.2189  0.1006
  290TMC3    O2 4436   0.758   0.196  14.049 -0.3274  0.2020 -0.3375
  291MPD2     C 4437   1.786   4.125   0.330 -0.2719 -0.1075  0.0164
  291MPD2    C1 4438   1.692   4.191   0.402  0.6178  0.1251 -1.0703
  291MPD2    C2 4439   1.731   4.313   0.453 -0.1859  0.4575  0.1488
  291MPD2    C3 4440   1.848   4.375   0.416 -0.9573 -0.2811  0.3092
  291MPD2    C4 4441   1.940   4.308   0.333  0.2535 -0.8207 -0.1323
  291MPD2    C5 4442   1.908   4.180   0.301 -0.4093  0.0126  0.1112
  291MPD2     H 4443   1.653   4.358   0.514  2.1756  2.9109  1.3832
  291MPD2    H1 4444   2.033   4.352   0.299 -1.4264  1.0528 -2.3729
  291MPD2    H2 4445   1.776   4.019   0.307  0.8320  0.3702 -2.6528
  291MPD2    H3 4446   1.990   4.128   0.253 -0.4474 -0.5700  0.6784
  291MPD2     N 4447   1.900   4.501   0.452 -0.3640 -0.0926  0.7027
  291MPD2    H5 4448   1.986   4.523   0.404 -1.0345  1.0632  0.0329
  291MPD2    N1 4449   1.577   4.122   0.454 -0.2230 -0.5289 -0.1031
  291MPD2    H7 4450   1.539   4.164   0.539 -1.7127 -1.5053 -0.2813
  292TMC3    C1 4451   1.412   3.956   0.490  0.2648 -0.9491 -1.0157
  292TMC3    C2 4452   1.366   4.038   0.594  1.2363 -0.1811  0.0006
  292TMC3    C3 4453   1.290   3.979   0.691  0.2779  0.0512  0.1951
  292TMC3    C4 4454   1.387   3.822   0.488 -0.1775  0.1375  0.4529
  292TMC3    C5 4455   1.301   3.774   0.574 -0.2788 -0.3541  0.0587
  292TMC3    C6 4456   1.250   3.849   0.672 -0.1974  0.1877  0.2157
  292TMC3     C 4457   1.524   4.002   0.408 -0.0973  0.0139  0.2446
  292TMC3     O 4458   1.573   3.917   0.339 -0.3403  0.0176  0.2009
  292TMC3     H 4459   1.389   4.144   0.589  0.4383  0.0586  1.3097
  292TMC3    H1 4460   1.439   3.760   0.416  1.9769  0.3742  1.7968
  292TMC3    H2 4461   1.160   3.812   0.720 -0.2476  1.3518  1.0193
  292TMC3    C7 4462   1.298   3.626   0.582 -0.3696  0.6003 -0.1623
  292TMC3    C8 4463   1.222   4.069   0.783  0.7776 -0.7002 -1.0951
  292TMC3    O1 4464   1.327   3.570   0.477  0.2423 -0.4802  0.3257
  292TMC3    O2 4465   1.204   4.185   0.748 -0.4473 -0.2875 -0.4310
  293MPD2     C 4466   2.460   0.728  12.730  0.3135 -0.4884  0.3737
  293MPD2    C1 4467   2.374   0.825  12.764 -0.2316 -0.3983  0.4311
  293MPD2    C2 4468   2.401   0.902  12.871 -0.1127 -0.5450 -0.4274
  293MPD2    C3 4469   2.526   0.893  12.934  0.0548  0.9604  0.3052
  293MPD2    C4 4470   2.616   0.796  12.894 -0.3279  0.3880 -0.8145
  293MPD2    C5 4471   2.579   0.710  12.798  0.4543  0.1844 -0.2430
  293MPD2     H 4472   2.335   0.978  12.912 -2.7598 -1.9296 -2.1514
  293MPD2    H1 4473   2.712   0.783  12.943 -1.1728  0.2669  0.8213
  293MPD2    H2 4474   2.443   0.653  12.654  1.5598  2.1910 -2.5479
  293MPD2    H3 4475   2.645   0.626  12.782 -0.8285 -0.9406  0.3011
  293MPD2     N 4476   2.547   0.969  13.046  0.1492 -0.4367 -0.3685
  293MPD2    H5 4477   2.482   1.035  13.087 -0.5834  0.4071 -2.8765
  293MPD2    N1 4478   2.263   0.836  12.681 -0.3658 -0.2300 -0.5034
  293MPD2    H7 4479   2.253   0.760  12.615  0.6159 -1.0995  0.3547
  294TMC3    C1 4480   2.059   0.918  12.592 -0.5628  0.1804  0.3877
  294TMC3    C2 4481   2.042   0.796  12.533  0.0628  0.8026  0.4201
  294TMC3    C3 4482   1.946   0.790  12.438  0.0590 -0.0318  0.8068
  294TMC3    C4 4483   2.000   1.034  12.550 -0.3360 -0.4647 -0.2722
  294TMC3    C5 4484   1.912   1.029  12.443  0.4298 -0.8125  0.3035
  294TMC3    C6 4485   1.888   0.905  12.390  0.2812 -0.8045 -0.4572
  294TMC3     C 4486   2.174   0.938  12.679  0.2845 -0.5317  0.1098
  294TMC3     O 4487   2.186   1.043  12.738  0.9790 -0.4252 -0.4198
  294TMC3     H 4488   2.092   0.706  12.566 -0.7139 -0.3053 -1.4622
  294TMC3    H1 4489   2.015   1.128  12.602 -0.8082  0.3452 -1.5930
  294TMC3    H2 4490   1.803   0.901  12.323  2.0374  0.1066 -2.7291
  294TMC3    C7 4491   1.849   1.147  12.390  0.1546  0.3378  0.3877
  294TMC3    C8 4492   1.885   0.660  12.416  0.5663  0.0419  0.1744
  294TMC3    O1 4493   1.834   1.242  12.469  0.0190 -0.3489 -0.3006
  294TMC3    O2 4494   1.915   0.572  12.493 -0.0348 -0.0629  0.2753
  295MPD2     C 4495   3.313   4.416   0.891 -0.5084  0.1693 -0.1879
  295MPD2    C1 4496   3.216   4.454   0.791  0.1151  0.0552  0.7946
  295MPD2    C2 4497   3.093   4.490   0.831 -0.7195 -0.8608 -0.5217
  295MPD2    C3 4498   3.053   4.479   0.961 -0.0248  0.7393 -0.3511
  295MPD2    C4 4499   3.145   4.429   1.053 -0.2870 -0.2234 -0.4632
  295MPD2    C5 4500   3.272   4.397   1.017  0.4111 -0.1377 -0.3399
  295MPD2     H 4501   3.016   4.529   0.765 -0.2191  1.6008  0.3684
  295MPD2    H1 4502   3.124   4.413   1.158  0.9324  2.1354  0.1384
  295MPD2    H2 4503   3.419   4.413   0.870  0.1468  1.4526  2.8688
  295MPD2    H3 4504   3.334   4.375   1.103  1.0137 -1.3397 -1.0866
  295MPD2     N 4505   2.925   4.508   1.013  0.4537  0.7560 -0.4598
  295MPD2    H5 4506   2.912   4.475   1.108 -2.0601  0.3630 -0.9443
  295MPD2    N1 4507   3.255   4.468   0.655 -0.8123 -0.3113  0.3590
  295MPD2    H7 4508   3.180   4.474   0.587 -2.0212  1.3541  1.8512
  296TMC3    C1 4509   2.719   4.606   1.047 -0.0554 -0.1733  0.2047
  296TMC3    C2 4510   2.642   4.717   1.004 -0.1410  0.7200  0.3249
  296TMC3    C3 4511   2.518   4.736   1.054 -0.9038 -0.9443 -0.2517
  296TMC3    C4 4512   2.661   4.509   1.135  0.9908  0.0901  0.2327
  296TMC3    C5 4513   2.529   4.524   1.165  0.0003  0.4121 -0.5703
  296TMC3    C6 4514   2.458   4.634   1.124 -0.3570  0.0975 -0.3559
  296TMC3     C 4515   2.831   4.585   0.953 -0.9282  0.1725 -0.2400
  296TMC3     O 4516   2.828   4.633   0.840 -1.0872 -0.8197  0.2309
  296TMC3     H 4517   2.698   0.057   0.956 -1.1678  0.6090 -1.0655
  296TMC3    H1 4518   2.711   4.417   1.160 -0.4836 -0.8519 -0.2861
  296TMC3    H2 4519   2.360   4.648   1.168 -0.0880  0.4824  0.1217
  296TMC3    C7 4520   2.469   4.407   1.239 -0.6548  0.3306  0.0378
  296TMC3    C8 4521   2.455   0.129   1.075  0.1379 -1.1719 -0.1635
  296TMC3    O1 4522   2.542   4.312   1.268  0.2406 -0.9796  0.5886
  296TMC3    O2 4523   2.345   0.123   1.123  0.2947 -0.2588  0.3062
  297MPD2     C 4524   0.767   1.542  16.943  0.6762  1.5594 -0.3789
  297MPD2    C1 4525   0.758   1.611  16.827  0.0394  0.3986 -0.0372
  297MPD2    C2 4526   0.868   1.689  16.793  0.4919  0.3315  0.2314
  297MPD2    C3 4527   0.975   1.711  16.882 -0.3064  1.0168  0.9703
  297MPD2    C4 4528   0.971   1.649  17.007 -0.4022 -0.2152 -0.3502
  297MPD2    C5 4529   0.865   1.570  17.035  0.6868  0.1303 -1.0988
  297MPD2     H 4530   0.862   1.753  16.706 -2.9529 -0.3239 -0.0135
  297MPD2    H1 4531   1.060   1.665  17.067 -0.7919  0.8073 -0.0459
  297MPD2    H2 4532   0.700   1.463  16.975 -1.6943  2.7920 -2.2778
  297MPD2    H3 4533   0.860   1.510  17.125 -1.1998  1.8172 -0.0780
  297MPD2     N 4534   1.073   1.805  16.845 -0.3046  0.0408 -0.3138
  297MPD2    H5 4535   1.068   1.835  16.748 -2.4165 -2.8932 -1.1358
  297MPD2    N1 4536   0.652   1.593  16.743  0.6743 -0.5289 -0.7612
  297MPD2    H7 4537   0.667   1.635  16.652  0.9360  3.1381  0.9927
  298TMC3    C1 4538   0.442   1.519  16.662 -0.4769 -0.0981  0.3354
  298TMC3    C2 4539   0.501   1.516  16.537 -0.3415  0.1505  0.7414
  298TMC3    C3 4540   0.432   1.573  16.431 -0.1228  0.1746 -0.6835
  298TMC3    C4 4541   0.316   1.565  16.686  0.7449 -0.5187  0.2715
  298TMC3    C5 4542   0.241   1.606  16.574  0.5089  0.1447 -0.2010
  298TMC3    C6 4543   0.302   1.614  16.446  1.0772 -0.4784 -0.4480
  298TMC3     C 4544   0.529   1.537  16.774 -0.0159  0.2181  0.3520
  298TMC3     O 4545   0.476   1.530  16.884  0.3407 -0.0013 -0.2663
  298TMC3     H 4546   0.593   1.459  16.531 -0.0044  0.9354 -1.2134
  298TMC3    H1 4547   0.268   1.566  16.784 -1.5576 -0.7518 -0.8364
  298TMC3    H2 4548   0.262   1.679  16.369  0.5234 -0.2232  0.0540
  298TMC3    C7 4549   0.121   1.676  16.600  0.2350 -0.3708 -0.3163
  298TMC3    C8 4550   0.502   1.563  16.303  0.3534  0.2382  0.2239
  298TMC3    O1 4551   0.098   1.710  16.716  0.0999  0.2798 -0.1921
  298TMC3    O2 4552   0.619   1.514  16.314  0.1084 -0.3266  0.2054
  299MPD2     C 4553   0.463   1.485  10.853 -0.4451 -0.3668  0.3770
  299MPD2    C1 4554   0.501   1.600  10.788  0.3768 -0.1977  0.7324
  299MPD2    C2 4555   0.429   1.642  10.676  0.2498  1.3787  0.0822
  299MPD2    C3 4556   0.325   1.565  10.625  0.1419 -0.4049 -0.6338
  299MPD2    C4 4557   0.288   1.447  10.692  0.1611 -0.9407  0.2763
  299MPD2    C5 4558   0.361   1.403  10.804 -0.4039 -0.5610 -0.2416
  299MPD2     H 4559   0.454   1.734  10.624 -0.9447  1.6537  0.0070
  299MPD2    H1 4560   0.210   1.381  10.655 -0.5494  0.6529 -1.0567
  299MPD2    H2 4561   0.516   1.452  10.941  2.8769 -1.0126 -1.8678
  299MPD2    H3 4562   0.323   1.315  10.854  0.8882  0.8998  3.3288
  299MPD2     N 4563   0.242   1.595  10.512  0.6053  1.2162 -0.4443
  299MPD2    H5 4564   0.164   1.531  10.496  1.3032  0.0284  0.9017
  299MPD2    N1 4565   0.607   1.670  10.854 -0.1152 -0.1604  0.2564
  299MPD2    H7 4566   0.642   1.635  10.943  1.5009 -1.6515 -0.9738
  300TMC3    C1 4567   0.141   1.721  10.333  0.0357 -0.4207 -0.5038
  300TMC3    C2 4568   0.173   1.781  10.225 -0.5083 -1.1085  0.3958
  300TMC3    C3 4569   0.075   1.843  10.150 -0.0598  0.5247  0.1263
  300TMC3    C4 4570   0.018   1.721  10.385  0.2773 -0.9023 -0.3344
  300TMC3    C5 4571   4.656   1.768  10.304 -0.3060  0.9187  0.2900
  300TMC3    C6 4572   4.685   1.843  10.190 -0.5465  0.4073  0.2210
  300TMC3     C 4573   0.252   1.705  10.429 -0.1358  0.1574 -0.9731
  300TMC3     O 4574   0.345   1.784  10.424 -0.2493 -0.0839 -0.1825
  300TMC3     H 4575   0.273   1.774  10.185 -0.4149  0.5195  0.3420
  300TMC3    H1 4576   0.001   1.648  10.464  0.1775 -0.2142  0.2804
  300TMC3    H2 4577   4.610   1.879  10.119 -3.0579 -0.3603  2.4720
  300TMC3    C7 4578   4.519   1.726  10.320  0.6424 -0.5174  0.1684
  300TMC3    C8 4579   0.126   1.962  10.076 -0.1826 -0.2565 -0.6262
  300TMC3    O1 4580   4.461   1.657  10.236 -0.2870  0.0945 -0.5049
  300TMC3    O2 4581   0.053   2.014   9.992  0.4145 -0.1431  0.0880
  301MPD2     C 4582   3.239   2.300   1.509  0.4137 -0.5060  0.1045
  301MPD2    C1 4583   3.173   2.274   1.389  0.0128 -0.6958  0.4308
  301MPD2    C2 4584   3.204   2.162   1.315  0.0218  0.4415  0.0353
  301MPD2    C3 4585   3.314   2.081   1.358 -0.3822  0.3703 -0.2588
  301MPD2    C4 4586   3.385   2.116   1.473  0.5771  0.0543 -0.3148
  301MPD2    C5 4587   3.341   2.224   1.546  0.1645 -0.9328 -0.0436
  301MPD2     H 4588   3.151   2.139   1.224 -2.1705  0.4396  1.2965
  301MPD2    H1 4589   3.468   2.051   1.500  2.5398  2.9988  0.7376
  301MPD2    H2 4590   3.223   2.385   1.575 -0.6922  1.0278 -2.1485
  301MPD2    H3 4591   3.393   2.248   1.639 -1.0913  0.0219  0.4082
  301MPD2     N 4592   3.365   1.972   1.279  0.1308 -0.7778  0.3224
  301MPD2    H5 4593   3.449   1.919   1.301  0.0983 -0.3164  1.5385
  301MPD2    N1 4594   3.074   2.367   1.337 -0.1448 -0.7982 -0.2635
  301MPD2    H7 4595   3.045   2.344   1.242  0.1585 -1.7433 -0.1311
  302TMC3    C1 4596   3.376   1.831   1.092 -0.7346  0.4399  0.0960
  302TMC3    C2 4597   3.447   1.731   1.167  0.5270 -0.3362 -0.0385
  302TMC3    C3 4598   3.490   1.620   1.094 -0.1636  0.2918 -0.3748
  302TMC3    C4 4599   3.370   1.831   0.953 -0.2164  0.2620  0.0018
  302TMC3    C5 4600   3.423   1.720   0.894  0.1560 -0.0802 -0.2266
  302TMC3    C6 4601   3.481   1.619   0.956 -0.3569  0.0131 -0.6244
  302TMC3     C 4602   3.322   1.949   1.152 -0.0715 -0.2164 -0.1067
  302TMC3     O 4603   3.238   2.009   1.081 -0.2838 -0.7059  0.2925
  302TMC3     H 4604   3.443   1.726   1.275  2.0252 -0.0438  0.0323
  302TMC3    H1 4605   3.340   1.919   0.896  0.5526 -0.9265 -2.2583
  302TMC3    H2 4606   3.495   1.524   0.905  0.9220  0.1195 -0.4926
  302TMC3    C7 4607   3.426   1.714   0.751  0.2002 -1.0301  0.1033
  302TMC3    C8 4608   3.531   1.504   1.165  0.5183  0.4416  0.0137
  302TMC3    O1 4609   3.502   1.636   0.696  0.2369 -0.8409  0.2445
  302TMC3    O2 4610   3.604   1.523   1.263  0.0063  0.4797  0.0397
  303MPD2     C 4611   3.223   1.227  10.857  0.3768 -0.5253  0.3510
  303MPD2    C1 4612   3.085   1.234  10.867  0.0814 -0.0259  0.6882
  303MPD2    C2 4613   3.010   1.225  10.749 -0.2231  0.5178 -0.4505
  303MPD2    C3 4614   3.070   1.214  10.624  0.2585  0.3937  0.0513
  303MPD2    C4 4615   3.208   1.209  10.618 -1.0374  0.7558  0.7742
  303MPD2    C5 4616   3.281   1.208  10.732 -0.6813  0.2560  0.7013
  303MPD2     H 4617   2.905   1.247  10.759 -0.4562 -1.2778  1.0490
  303MPD2    H1 4618   3.253   1.197  10.520 -0.5606  0.8999  0.9803
  303MPD2    H2 4619   3.292   1.245  10.939 -1.3975  2.1389  1.2769
  303MPD2    H3 4620   3.388   1.198  10.715 -0.9164  2.4641 -2.0757
  303MPD2     N 4621   3.004   1.205  10.502  0.2501 -0.3478  0.8004
  303MPD2    H5 4622   3.060   1.206  10.417  0.3374  0.2162  0.8602
  303MPD2    N1 4623   3.027   1.266  10.994  0.5836  0.5438  0.2607
  303MPD2    H7 4624   3.093   1.258  11.070  0.8401  1.8019  0.1659
  304TMC3    C1 4625   2.858   1.289  11.158 -0.7060  0.1730 -0.5001
  304TMC3    C2 4626   2.741   1.343  11.181 -0.9510  0.4236  0.4689
  304TMC3    C3 4627   2.677   1.305  11.290  0.1651 -0.2405 -0.1475
  304TMC3    C4 4628   2.901   1.180  11.233  0.3821 -0.7384 -0.0588
  304TMC3    C5 4629   2.835   1.141  11.341 -0.6030  0.6123  0.2919
  304TMC3    C6 4630   2.723   1.211  11.371  0.1214  0.0031 -0.8429
  304TMC3     C 4631   2.894   1.297  11.019  0.4389 -0.7697 -0.6095
  304TMC3     O 4632   2.801   1.318  10.948 -0.0107  0.7264  0.3859
  304TMC3     H 4633   2.700   1.418  11.115 -0.1343 -1.8993 -2.6922
  304TMC3    H1 4634   2.989   1.123  11.205  1.4736  1.7371 -1.6716
  304TMC3    H2 4635   2.672   1.184  11.463  0.2532  2.2837 -0.1232
  304TMC3    C7 4636   2.823   0.998  11.359  0.0333  0.1236  0.1354
  304TMC3    C8 4637   2.539   1.263  11.262  0.0153 -0.3176 -0.8528
  304TMC3    O1 4638   2.925   0.925  11.352  0.7264 -0.1842 -0.0260
  304TMC3    O2 4639   2.499   1.161  11.319  0.0515  0.1845  1.1990
  305MPD2     C 4640   1.335   2.567  14.113 -0.5559 -0.1211  0.1106
  305MPD2    C1 4641   1.427   2.640  14.038  0.2189  0.6645  0.2126
  305MPD2    C2 4642   1.416   2.656  13.907 -0.2342  0.1849 -0.1870
  305MPD2    C3 4643   1.308   2.584  13.842 -0.4376 -0.1023  0.3031
  305MPD2    C4 4644   1.212   2.513  13.913 -0.0709  0.5017  0.2712
  305MPD2    C5 4645   1.237   2.499  14.045  0.4915 -0.2308  0.2560
  305MPD2     H 4646   1.483   2.727  13.860  0.4682 -0.9403 -0.8771
  305MPD2    H1 4647   1.133   2.455  13.866  0.9431 -1.4912  1.0699
  305MPD2    H2 4648   1.339   2.568  14.222 -0.3245  2.4080  0.0711
  305MPD2    H3 4649   1.163   2.457  14.112 -0.8517  1.5334 -0.1121
  305MPD2     N 4650   1.289   2.585  13.700  0.5497 -0.9076  0.0983
  305MPD2    H5 4651   1.201   2.552  13.662 -0.8168  1.6540  1.0277
  305MPD2    N1 4652   1.526   2.701  14.115 -0.5586 -0.1312 -0.1822
  305MPD2    H7 4653   1.515   2.701  14.216 -0.6686 -2.3697 -0.2085
  306TMC3    C1 4654   1.730   2.828  14.159 -0.3392 -0.0505 -0.6254
  306TMC3    C2 4655   1.861   2.807  14.128 -0.6127 -0.0306  0.1392
  306TMC3    C3 4656   1.943   2.852  14.219  0.2273 -0.5259 -0.8936
  306TMC3    C4 4657   1.693   2.914  14.256 -0.0498 -0.0904  0.2954
  306TMC3    C5 4658   1.784   2.974  14.333 -0.5628 -0.5142 -0.3548
  306TMC3    C6 4659   1.913   2.942  14.316  0.7072  0.0197  0.8875
  306TMC3     C 4660   1.632   2.772  14.061  0.1828  0.2887 -0.1511
  306TMC3     O 4661   1.675   2.785  13.949 -0.0656 -0.4839  0.7854
  306TMC3     H 4662   1.890   2.744  14.045 -1.8403 -0.4759  0.0495
  306TMC3    H1 4663   1.588   2.936  14.270  0.0882  1.9036 -1.8498
  306TMC3    H2 4664   1.994   2.993  14.366  1.1957  0.1916 -0.0881
  306TMC3    C7 4665   1.741   3.082  14.417 -0.0881  1.3026  0.1755
  306TMC3    C8 4666   2.074   2.791  14.228  0.2036 -0.4277  0.0746
  306TMC3    O1 4667   1.650   3.148  14.372 -0.2016 -0.1649  0.7126
  306TMC3    O2 4668   2.114   2.743  14.125 -0.3797 -0.9367  0.2310
  307MPD2     C 4669   4.714   1.690   0.906 -0.4959 -0.3342 -0.1708
  307MPD2    C1 4670   4.591   1.748   0.880  0.5741 -0.0631  0.3926
  307MPD2    C2 4671   4.480   1.670   0.898 -0.3259 -0.4141  0.5489
  307MPD2    C3 4672   4.489   1.536   0.925  0.2143 -0.1163  0.0415
  307MPD2    C4 4673   4.609   1.480   0.946 -0.2297  0.6054  0.1924
  307MPD2    C5 4674   4.720   1.559   0.942 -0.1743 -0.3789 -0.3405
  307MPD2     H 4675   4.382   1.717   0.890 -1.0828 -2.3466 -1.5421
  307MPD2    H1 4676   4.615   1.378   0.981  0.6957  1.4039  2.3549
  307MPD2    H2 4677   0.069   1.740   0.890  0.9761 -3.3710 -0.8941
  307MPD2    H3 4678   0.076   1.509   0.950 -0.1843 -0.7215 -2.4163
  307MPD2     N 4679   4.366   1.464   0.941  0.4714  0.1863  0.0859
  307MPD2    H5 4680   4.283   1.522   0.933  0.0102 -0.2764  1.5874
  307MPD2    N1 4681   4.577   1.883   0.846 -0.7098  0.4721  0.5026
  307MPD2    H7 4682   4.479   1.901   0.828 -0.8725 -0.9441 -0.0522
  308TMC3    C1 4683   4.045   1.231   0.815  0.3651  0.0243  0.0705
  308TMC3    C2 4684   3.954   1.320   0.864 -0.5651  0.4290 -0.0841
  308TMC3    C3 4685   3.994   1.390   0.972 -0.3052 -0.3303  0.3097
  308TMC3    C4 4686   4.163   1.204   0.874 -0.3202  0.6242 -0.0616
  308TMC3    C5 4687   4.210   1.287   0.973 -0.0194  0.2115 -0.0953
  308TMC3    C6 4688   4.123   1.378   1.025  0.5699 -0.2081 -0.7401
  308TMC3     C 4689   4.041   1.188   0.672 -0.0449  0.5373 -0.1094
  308TMC3     O 4690   4.150   1.179   0.620  0.7282 -0.0950  0.2055
  308TMC3     H 4691   3.866   1.337   0.804  1.7238  4.0711 -2.3523
  308TMC3    H1 4692   4.241   1.147   0.826 -0.3574 -0.0046  0.6346
  308TMC3    H2 4693   4.141   1.435   1.115  0.4497  0.0938 -0.9081
  308TMC3    C7 4694   4.349   1.328   0.952  0.0840 -0.2839 -0.5498
  308TMC3    C8 4695   3.905   1.496   1.026 -0.2339 -0.1788 -0.2572
  308TMC3    O1 4696   4.433   1.239   0.932  0.2328  0.4086  0.3988
  308TMC3    O2 4697   3.905   1.509   1.149 -0.4012  0.3795 -0.4338
  309MPD2     C 4698   3.524   1.707  17.272 -0.5093 -0.4593  0.1094
  309MPD2    C1 4699   3.481   1.707  17.142  0.1616  0.1849  0.1798
  309MPD2    C2 4700   3.342   1.680  17.125 -0.3951 -0.1715 -0.2243
  309MPD2    C3 4701   3.254   1.660  17.234  0.2003 -0.0913 -0.3561
  309MPD2    C4 4702   3.313   1.649  17.361 -0.3271 -0.1084  0.3722
  309MPD2    C5 4703   3.445   1.679  17.378  0.4343 -0.8873  0.3187
  309MPD2     H 4704   3.300   1.678  17.025 -2.0498 -1.5115  0.4889
  309MPD2    H1 4705   3.247   1.636  17.446 -0.6611 -1.3785 -0.0824
  309MPD2    H2 4706   3.621   1.751  17.290 -0.2650 -1.5633  1.4893
  309MPD2    H3 4707   3.486   1.682  17.479  2.7932 -1.9394 -0.5969
  309MPD2     N 4708   3.110   1.656  17.225 -0.0596  0.6402  0.2293
  309MPD2    H5 4709   3.070   1.642  17.317 -1.2301  3.0193  0.0853
  309MPD2    N1 4710   3.561   1.727  17.025 -0.0668 -0.4010  0.1863
  309MPD2    H7 4711   3.508   1.714  16.939  0.3653  0.8674 -0.2723
  310TMC3    C1 4712   3.752   1.707  16.890 -0.0458 -0.9029  0.4936
  310TMC3    C2 4713   3.687   1.755  16.777 -0.1802 -0.2537 -0.1552
  310TMC3    C3 4714   3.743   1.728  16.656  0.0293  0.3288 -0.2924
  310TMC3    C4 4715   3.871   1.642  16.881  0.8843  0.6148 -0.8115
  310TMC3    C5 4716   3.931   1.626  16.754  0.1607  0.3758  0.1411
  310TMC3    C6 4717   3.871   1.686  16.650 -0.6039 -0.4018 -0.2388
  310TMC3     C 4718   3.704   1.733  17.023 -0.3150  0.0165 -0.0312
  310TMC3     O 4719   3.790   1.726  17.109 -0.0443 -0.0296  0.1369
  310TMC3     H 4720   3.601   1.819  16.789  0.2023  0.7267 -2.6097
  310TMC3    H1 4721   3.906   1.588  16.968  1.1095  3.9993  1.1757
  310TMC3    H2 4722   3.925   1.698  16.556  1.4639 -0.3302  0.9571
  310TMC3    C7 4723   4.013   1.509  16.732  0.3176 -0.1862  0.1314
  310TMC3    C8 4724   3.695   1.802  16.539 -0.2618  0.2436  0.2832
  310TMC3    O1 4725   4.003   1.463  16.618  0.0228 -0.2196 -0.8258
  310TMC3    O2 4726   3.780   1.880  16.496  0.3181  0.3882  0.2477
  311MPD2     C 4727   0.657   2.832  13.246 -0.3185 -0.0759 -0.1341
  311MPD2    C1 4728   0.618   2.944  13.181 -1.3967 -0.0379  0.1151
  311MPD2    C2 4729   0.487   2.970  13.181  0.5188  0.5278 -0.1458
  311MPD2    C3 4730   0.392   2.881  13.226 -0.6199 -0.0162  0.2938
  311MPD2    C4 4731   0.430   2.757  13.283  0.2531 -1.0996 -0.8490
  311MPD2    C5 4732   0.566   2.731  13.291  0.4829 -0.4731 -0.4905
  311MPD2     H 4733   0.449   3.067  13.153 -1.6051 -0.6959 -1.4669
  311MPD2    H1 4734   0.359   2.694  13.335 -0.3930 -0.0621 -0.4911
  311MPD2    H2 4735   0.764   2.815  13.255 -0.3961 -0.1881  0.6113
  311MPD2    H3 4736   0.605   2.653  13.355 -2.1853 -1.7150 -0.3750
  311MPD2     N 4737   0.259   2.931  13.218 -0.1800  0.6868  0.7299
  311MPD2    H5 4738   0.246   3.030  13.203 -0.4300  0.7846  1.5961
  311MPD2    N1 4739   0.708   3.038  13.126 -0.8263 -0.4676 -0.2328
  311MPD2    H7 4740   0.668   3.124  13.090  2.7386  0.0175 -3.0370
  312TMC3    C1 4741   0.031   2.926  13.202  0.8940  0.3002 -0.0583
  312TMC3    C2 4742   4.662   2.858  13.158  0.5960  0.1107  0.1833
  312TMC3    C3 4743   4.540   2.916  13.164 -0.0739  0.3098 -0.1839
  312TMC3    C4 4744   0.029   3.047  13.259  0.1625 -0.3619 -0.4969
  312TMC3    C5 4745   4.645   3.094  13.285  0.5342 -0.4969 -0.0106
  312TMC3    C6 4746   4.531   3.037  13.230 -0.0752 -0.2339 -0.3399
  312TMC3     C 4747   0.152   2.851  13.218 -0.1977 -0.0247 -0.4563
  312TMC3     O 4748   0.150   2.733  13.204 -0.3669  0.1655  0.3250
  312TMC3     H 4749   4.688   2.766  13.105  1.2795  0.1567  0.4326
  312TMC3    H1 4750   0.112   3.082  13.320  0.1337 -0.3214 -0.4806
  312TMC3    H2 4751   4.434   3.072  13.263  0.4768  2.0815 -1.1311
  312TMC3    C7 4752   4.635   3.199  13.383  0.2362 -0.2353 -0.1480
  312TMC3    C8 4753   4.424   2.846  13.108  0.8906  0.9630 -1.0431
  312TMC3    O1 4754   4.546   3.284  13.368 -0.0292  0.4287 -0.1723
  312TMC3    O2 4755   4.453   2.736  13.070 -0.3947 -1.1694  0.4311
  313MPD2     C 4756   3.721   2.699  11.681  0.0216  0.5677  0.5805
  313MPD2    C1 4757   3.778   2.715  11.555 -0.3998  0.0609  0.0599
  313MPD2    C2 4758   3.826   2.604  11.482  0.1890  0.3535 -0.1586
  313MPD2    C3 4759   3.812   2.471  11.538  0.7986 -0.2902 -0.5764
  313MPD2    C4 4760   3.752   2.462  11.662 -0.7507 -0.1222 -0.4080
  313MPD2    C5 4761   3.704   2.573  11.728  0.0413 -0.2352 -0.0894
  313MPD2     H 4762   3.866   2.621  11.383  1.3849  0.0351  0.2674
  313MPD2    H1 4763   3.737   2.364  11.706  1.6792  0.8606  2.5619
  313MPD2    H2 4764   3.682   2.779  11.744  1.4026 -0.7865  3.1570
  313MPD2    H3 4765   3.676   2.569  11.833 -1.8889  0.6324 -0.5887
  313MPD2     N 4766   3.857   2.363  11.456  0.6455 -0.0122 -0.3976
  313MPD2    H5 4767   3.900   2.390  11.368 -0.0890 -1.2874 -1.1464
  313MPD2    N1 4768   3.791   2.840  11.488 -0.0859 -0.2907  1.0264
  313MPD2    H7 4769   3.844   2.844  11.402 -0.9512  0.1433  0.5224
  314TMC3    C1 4770   3.742   3.054  11.417 -0.4981  0.2489 -0.4066
  314TMC3    C2 4771   3.863   3.077  11.369 -0.7674  0.2948  0.3647
  314TMC3    C3 4772   3.862   3.157  11.256  0.1265 -0.2994 -0.2247
  314TMC3    C4 4773   3.628   3.110  11.369  0.5576  0.5489 -0.2535
  314TMC3    C5 4774   3.632   3.188  11.258 -0.8112  0.1069 -0.5245
  314TMC3    C6 4775   3.748   3.211  11.197  0.1954 -0.1640 -0.0921
  314TMC3     C 4776   3.721   2.953  11.524 -0.2839  0.3375 -0.6035
  314TMC3     O 4777   3.615   2.960  11.585  0.1621 -0.1875  0.1006
  314TMC3     H 4778   3.950   3.020  11.400 -0.6930  0.8972  1.2649
  314TMC3    H1 4779   3.532   3.085  11.412  1.6553  0.9534  2.4151
  314TMC3    H2 4780   3.758   3.267  11.105 -2.6202 -0.1884 -0.3928
  314TMC3    C7 4781   3.520   3.162  11.163  0.2047 -0.1509  0.4334
  314TMC3    C8 4782   3.986   3.184  11.179  0.0311  0.8352 -0.8495
  314TMC3    O1 4783   3.414   3.135  11.216 -0.1162 -0.9176 -0.2202
  314TMC3    O2 4784   4.002   3.288  11.115 -0.0402  0.3358 -0.3414
  315MPD2     C 4785   4.437   1.004  17.710  0.0370  0.0225 -0.1611
  315MPD2    C1 4786   4.559   0.991   0.014  1.5247 -0.6171 -0.3764
  315MPD2    C2 4787   4.633   1.101   0.046  0.5278 -0.0899  0.1501
  315MPD2    C3 4788   4.592   1.227   0.007 -0.0421  0.1193 -0.3727
  315MPD2    C4 4789   4.470   1.240  17.709 -0.3193  0.1039 -0.4910
  315MPD2    C5 4790   4.393   1.128  17.686 -0.1070 -0.1186  0.5581
  315MPD2     H 4791   4.726   1.084   0.099  1.0990  0.1105 -0.7770
  315MPD2    H1 4792   4.433   1.341  17.692  0.2678  0.2068 -1.1741
  315MPD2    H2 4793   4.376   0.914  17.699 -1.8538  1.4070 -1.0024
  315MPD2    H3 4794   4.293   1.151  17.651  0.2753  3.0681  1.4920
  315MPD2     N 4795   4.691   1.326   0.030  0.0020 -0.4612  0.1006
  315MPD2    H5 4796   0.035   1.300   0.080  1.0860  2.9741  0.1082
  315MPD2    N1 4797   4.615   0.868   0.042  0.0476 -0.0175  0.9661
  315MPD2    H7 4798   4.692   0.870   0.108 -1.1610  0.6222  2.3563
  316TMC3    C1 4799   0.036   1.543   0.052  0.1957 -0.5753  0.2519
  316TMC3    C2 4800   0.140   1.491   0.128  0.0731  0.2913 -0.4086
  316TMC3    C3 4801   0.232   1.573   0.164 -0.5598 -0.0911  0.4336
  316TMC3    C4 4802   0.037   1.668  17.754  0.3217 -0.0856 -0.7910
  316TMC3    C5 4803   0.134   1.751   0.044 -0.7790  0.4652 -0.4099
  316TMC3    C6 4804   0.230   1.707   0.126  0.3848 -0.1577 -0.1109
  316TMC3     C 4805   4.666   1.460   0.011  0.4881  0.4276  0.1889
  316TMC3     O 4806   4.577   1.523  17.705  0.3562  0.0462  0.8795
  316TMC3     H 4807   0.144   1.394   0.176 -0.7279  1.3248  1.7628
  316TMC3    H1 4808   4.698   1.702  17.688  0.0113 -2.6155 -1.7204
  316TMC3    H2 4809   0.291   1.782   0.175  0.6081 -1.7183  1.9598
  316TMC3    C7 4810   0.122   1.894   0.027  0.6270 -0.3322 -0.2158
  316TMC3    C8 4811   0.355   1.536   0.235  0.0649  0.3942  0.3380
  316TMC3    O1 4812   0.140   1.969   0.124  0.3423 -0.2227 -0.1767
  316TMC3    O2 4813   0.403   1.626   0.305 -0.1265  0.3433  0.0318
  317MPD2     C 4814   1.813   4.500  12.496 -0.0440  0.0451 -0.2827
  317MPD2    C1 4815   1.942   4.476  12.539 -0.4264 -1.1361 -0.3776
  317MPD2    C2 4816   1.961   4.483  12.670  0.3355 -0.3571  0.2095
  317MPD2    C3 4817   1.863   4.510  12.761 -0.1705 -0.1859 -0.6785
  317MPD2    C4 4818   1.738   4.542  12.716 -0.1324 -0.0553  0.1841
  317MPD2    C5 4819   1.715   4.524  12.585 -0.1805 -0.0534  0.5363
  317MPD2     H 4820   2.059   4.462  12.711  1.3297  1.8860 -0.9790
  317MPD2    H1 4821   1.649   4.563  12.775  0.7392  0.9071  1.1497
  317MPD2    H2 4822   1.790   4.486  12.391 -0.4921 -1.2931 -0.0085
  317MPD2    H3 4823   1.612   4.538  12.554 -1.3651 -1.0946  4.0507
  317MPD2     N 4824   1.894   4.485  12.894 -0.3991 -0.0897  0.3765
  317MPD2    H5 4825   1.981   4.433  12.902 -1.1247 -1.0790  1.8434
  317MPD2    N1 4826   2.048   4.434  12.451 -0.3692  0.1638  0.4860
  317MPD2    H7 4827   2.135   4.402  12.493 -0.6999  1.9370  2.5145
  318TMC3    C1 4828   1.845   4.429  13.114  0.4488  0.0639 -0.5084
  318TMC3    C2 4829   1.740   4.371  13.179  0.0988 -0.5289 -0.3177
  318TMC3    C3 4830   1.773   4.276  13.277 -0.9354 -0.0209 -1.2035
  318TMC3    C4 4831   1.975   4.411  13.153  0.2531  0.1041 -0.3374
  318TMC3    C5 4832   2.001   4.319  13.250 -0.2822  1.1404  0.4402
  318TMC3    C6 4833   1.901   4.246  13.311  0.1085 -0.0575  0.1517
  318TMC3     C 4834   1.807   4.501  12.996 -0.4964  0.4100 -0.1171
  318TMC3     O 4835   1.702   4.555  13.011  0.2711 -0.0726  0.1174
  318TMC3     H 4836   1.642   4.364  13.134 -1.1759 -0.2588  2.4775
  318TMC3    H1 4837   2.053   4.471  13.109  0.2344  0.6356  0.3450
  318TMC3    H2 4838   1.927   4.167  13.381 -0.9401 -0.1474  0.4418
  318TMC3    C7 4839   2.135   4.344  13.312  0.1742 -0.1798 -0.2328
  318TMC3    C8 4840   1.671   4.181  13.326 -0.4994 -0.6424  0.1313
  318TMC3    O1 4841   2.196   4.452  13.293  0.5020  0.2951 -0.3464
  318TMC3    O2 4842   1.694   4.089  13.405 -0.2591 -0.1321 -0.0870
  319MPD2     C 4843   2.826   0.972  16.114 -0.1898 -0.4157 -0.6383
  319MPD2    C1 4844   2.756   0.954  16.230  0.5321  0.6429 -0.3140
  319MPD2    C2 4845   2.623   0.899  16.225 -0.7457 -0.0625  0.5038
  319MPD2    C3 4846   2.576   0.843  16.108  0.1126  0.4488  0.1766
  319MPD2    C4 4847   2.651   0.865  15.994 -0.0632 -0.5566 -0.4301
  319MPD2    C5 4848   2.774   0.927  15.997 -0.4561  0.0121  0.0614
  319MPD2     H 4849   2.561   0.896  16.314  1.1938 -0.5974  1.8444
  319MPD2    H1 4850   2.609   0.841  15.897  0.9822 -3.7448 -0.0736
  319MPD2    H2 4851   2.917   1.030  16.105 -0.1292 -0.4966 -0.5378
  319MPD2    H3 4852   2.824   0.957  15.905 -0.3510 -2.5926 -0.7492
  319MPD2     N 4853   2.446   0.793  16.101 -0.2971 -0.2098  0.4904
  319MPD2    H5 4854   2.402   0.788  16.009  0.3978  0.7630  0.1053
  319MPD2    N1 4855   2.812   0.986  16.361 -0.4376 -0.7650 -0.7725
  319MPD2    H7 4856   2.754   0.957  16.439  0.4185 -0.4439 -0.0299
  320TMC3    C1 4857   2.233   0.707  16.168 -0.1783 -0.8625 -0.3767
  320TMC3    C2 4858   2.177   0.758  16.054 -0.3291 -0.0772 -0.8114
  320TMC3    C3 4859   2.046   0.743  16.016 -0.4918 -0.2329  0.1720
  320TMC3    C4 4860   2.145   0.632  16.250  0.3092  0.4513 -0.0535
  320TMC3    C5 4861   2.014   0.615  16.210 -0.3831  0.5039 -0.3443
  320TMC3    C6 4862   1.964   0.669  16.093  0.0633  0.3996  1.0659
  320TMC3     C 4863   2.371   0.741  16.203 -0.4906 -0.3836  0.3707
  320TMC3     O 4864   2.404   0.705  16.316  0.1080 -0.4539  0.2079
  320TMC3     H 4865   2.242   0.815  15.989 -1.4149  2.1136  0.0224
  320TMC3    H1 4866   2.175   0.579  16.340  0.6381  0.6562 -0.0414
  320TMC3    H2 4867   1.861   0.651  16.063  1.1147 -0.8507 -1.7757
  320TMC3    C7 4868   1.931   0.494  16.247 -0.5190  0.0188  0.9474
  320TMC3    C8 4869   1.986   0.858  15.949 -0.1351  1.1643  0.0968
  320TMC3    O1 4870   1.883   0.432  16.152 -0.3821  0.7924  0.4562
  320TMC3    O2 4871   2.051   0.955  15.921  0.4163  0.1076 -0.0104
  321TMC3    C1 4872   2.944   1.090  16.514 -0.4085 -1.0988  0.2713
  321TMC3    C2 4873   2.888   1.012  16.605 -0.0836 -0.0441  0.4099
  321TMC3    C3 4874   2.929   1.029  16.737  0.3744 -0.5436 -0.0491
  321TMC3    C4 4875   3.046   1.176  16.538  0.0724 -0.3845 -0.1943
  321TMC3    C5 4876   3.082   1.197  16.667 -0.6579 -0.8082 -0.5800
  321TMC3    C6 4877   3.027   1.124  16.762 -1.0057  0.5371 -0.5418
  321TMC3     C 4878   2.910   1.074  16.375  0.4297 -0.0688  1.4190
  321TMC3     O 4879   2.978   1.140  16.302  0.3145 -0.2520 -0.0997
  321TMC3     H 4880   2.813   0.935  16.588 -1.3642  1.4901 -0.8305
  321TMC3    H1 4881   3.093   1.242  16.466 -0.7710  1.3743  0.8658
  321TMC3    H2 4882   3.057   1.129  16.866 -2.7020 -1.3872  0.0312
  321TMC3    C7 4883   3.224   1.216  16.703  0.0492 -0.2688 -0.4288
  321TMC3    C8 4884   2.972   0.911  16.805  0.5237  0.3507 -0.5710
  321TMC3    O1 4885   3.278   1.323  16.667 -0.4023 -0.1153  0.3413
  321TMC3    O2 4886   3.094   0.895  16.810 -0.1782  0.8207 -0.2384
  322MPD2     C 4887   1.408   2.239  13.442 -0.1398 -0.4423 -0.5054
  322MPD2    C1 4888   1.432   2.185  13.562 -0.2741  0.1072 -0.3310
  322MPD2    C2 4889   1.483   2.055  13.577 -0.1025 -0.7004  0.7540
  322MPD2    C3 4890   1.507   1.979  13.469 -0.1442  0.1437  0.0625
  322MPD2    C4 4891   1.475   2.031  13.341 -0.0092 -0.1056 -0.3330
  322MPD2    C5 4892   1.432   2.163  13.334  0.2561 -0.5112 -0.5014
  322MPD2     H 4893   1.514   2.017  13.674  1.8198 -3.2190 -0.8431
  322MPD2    H1 4894   1.503   1.984  13.248 -0.2230  0.3239 -0.6134
  322MPD2    H2 4895   1.371   2.340  13.431  1.2298  0.1118 -0.0546
  322MPD2    H3 4896   1.421   2.205  13.235 -1.9272 -0.3721 -0.1993
  322MPD2     N 4897   1.581   1.862  13.490 -0.2269  0.9803  0.0326
  322MPD2    H5 4898   1.598   1.845  13.589 -1.0503  0.0786  0.0170
  322MPD2    N1 4899   1.423   2.269  13.675 -0.2494  0.3433  0.1898
  322MPD2    H7 4900   1.393   2.365  13.660 -1.7531 -0.2168 -0.3316
  323TMC3    C1 4901   1.524   2.351  13.870 -0.7575  0.0125 -0.4413
  323TMC3    C2 4902   1.613   2.429  13.798  0.0723 -0.0841  0.2134
  323TMC3    C3 4903   1.712   2.488  13.862  0.6294  0.4457 -0.4605
  323TMC3    C4 4904   1.557   2.326  14.003 -0.4627  0.0718  0.0933
  323TMC3    C5 4905   1.663   2.388  14.062 -0.2945 -0.4737  0.3628
  323TMC3    C6 4906   1.745   2.464  13.993  0.5665 -0.6591  0.3921
  323TMC3     C 4907   1.449   2.243  13.809  0.1519  0.7449  0.1812
  323TMC3     O 4908   1.449   2.131  13.857  0.2483 -0.1317  0.2118
  323TMC3     H 4909   1.596   2.444  13.692 -1.7673 -1.8152  0.2482
  323TMC3    H1 4910   1.488   2.263  14.058  1.6880 -1.6621  0.8169
  323TMC3    H2 4911   1.826   2.522  14.035  0.1375  0.9636 -0.9831
  323TMC3    C7 4912   1.695   2.336  14.193  0.2010  0.0184 -0.0572
  323TMC3    C8 4913   1.818   2.550  13.785 -0.2255 -0.3891  0.3184
  323TMC3    O1 4914   1.601   2.286  14.252 -0.4339  0.1481  0.1257
  323TMC3    O2 4915   1.931   2.561  13.835 -0.2037  0.2644  0.6708
  324MPD2     C 4916   3.262   3.227  14.073 -0.0347  0.5115  0.8828
  324MPD2    C1 4917   3.237   3.351  14.128 -0.1714  0.1510  0.1258
  324MPD2    C2 4918   3.103   3.399  14.135 -1.4118 -0.3228  0.1289
  324MPD2    C3 4919   2.998   3.308  14.101 -0.0956 -0.3669 -0.9078
  324MPD2    C4 4920   3.032   3.182  14.060 -0.2352  0.4305 -1.2849
  324MPD2    C5 4921   3.162   3.147  14.036 -0.5959  0.0867 -0.0007
  324MPD2     H 4922   3.075   3.496  14.175 -1.7938  0.4124 -1.8824
  324MPD2    H1 4923   2.953   3.112  14.034  1.7600 -2.8627  1.4350
  324MPD2    H2 4924   3.363   3.196  14.048 -1.2193 -0.4795 -2.7562
  324MPD2    H3 4925   3.185   3.054  13.985 -1.7888  0.9873 -2.1470
  324MPD2     N 4926   2.859   3.340  14.127 -0.4477 -0.6293  0.8638
  324MPD2    H5 4927   2.792   3.265  14.115 -0.8515 -0.4049  1.7641
  324MPD2    N1 4928   3.340   3.435  14.183 -0.5443 -0.1475  0.2929
  324MPD2    H7 4929   3.317   3.525  14.224  3.4568  1.6041 -1.2771
  325TMC3    C1 4930   2.670   3.475  14.154  0.1023 -0.3537 -0.4989
  325TMC3    C2 4931   2.586   3.366  14.168  0.3261  0.1366  0.1367
  325TMC3    C3 4932   2.456   3.394  14.145  0.1332 -0.1808  0.2999
  325TMC3    C4 4933   2.625   3.598  14.113 -0.4310  0.2592  0.1084
  325TMC3    C5 4934   2.490   3.614  14.090 -0.1481 -0.0453  0.3887
  325TMC3    C6 4935   2.402   3.513  14.106  1.1189  1.0277 -0.7100
  325TMC3     C 4936   2.811   3.471  14.145  0.2458  0.4241 -0.2310
  325TMC3     O 4937   2.871   3.579  14.126  0.9171  1.0288 -0.1705
  325TMC3     H 4938   2.617   3.268  14.202  2.6414  0.2153 -1.7500
  325TMC3    H1 4939   2.685   3.688  14.114 -1.9282  1.2452  0.3404
  325TMC3    H2 4940   2.304   3.511  14.059  0.4988  4.0416  0.4378
  325TMC3    C7 4941   2.427   3.740  14.090 -0.2661 -0.1461  0.9511
  325TMC3    C8 4942   2.360   3.283  14.138  0.9054  0.3575 -1.0267
  325TMC3    O1 4943   2.465   3.818  14.003 -0.6125 -0.2418 -0.1621
  325TMC3    O2 4944   2.400   3.171  14.103 -0.5041 -0.1635 -0.2803
  326MPD2     C 4945   3.483   0.059  10.896  0.1349  0.1628  0.0970
  326MPD2    C1 4946   3.581   4.705  10.930 -0.3532  0.0496 -1.2909
  326MPD2    C2 4947   3.694   0.010  11.000  0.0510 -0.4029 -0.8207
  326MPD2    C3 4948   3.713   0.141  11.047 -0.1185  0.4576 -0.4415
  326MPD2    C4 4949   3.611   0.229  11.032 -0.0555 -0.2952  0.9396
  326MPD2    C5 4950   3.506   0.186  10.954 -0.3600 -0.0009  0.2076
  326MPD2     H 4951   3.768   4.673  11.017 -0.2247 -0.1781  1.3685
  326MPD2    H1 4952   3.610   0.334  11.062 -0.6266  0.1556 -0.6583
  326MPD2    H2 4953   3.393   0.044  10.838 -0.3163 -1.8723  1.3402
  326MPD2    H3 4954   3.434   0.265  10.931  0.8227  1.1726  0.5193
  326MPD2     N 4955   3.833   0.196  11.084 -0.0164  0.1492 -0.8103
  326MPD2    H5 4956   3.834   0.296  11.097 -0.0152  0.1642 -0.9341
  326MPD2    N1 4957   3.578   4.569  10.888 -0.6432  0.1415 -0.0503
  326MPD2    H7 4958   3.653   4.504  10.912 -0.5623  1.4424  3.2432
  327TMC3    C1 4959   3.541   4.395  10.735  0.4155  0.0904  0.4576
  327TMC3    C2 4960   3.622   4.422  10.630  0.3396 -0.2945  0.0264
  327TMC3    C3 4961   3.740   4.363  10.616 -0.9075 -0.1269  0.8480
  327TMC3    C4 4962   3.575   4.297  10.820 -0.1337 -0.8935  0.0119
  327TMC3    C5 4963   3.697   4.236  10.808  0.0750  0.4993 -0.6098
  327TMC3    C6 4964   3.781   4.269  10.705 -0.0066 -0.1013 -0.6831
  327TMC3     C 4965   3.489   4.518  10.793  0.0378 -0.6365 -0.1694
  327TMC3     O 4966   3.394   4.573  10.743  0.5837  0.2935  0.6356
  327TMC3     H 4967   3.598   4.512  10.575  0.9802 -0.0903  0.0832
  327TMC3    H1 4968   3.515   4.272  10.906 -1.8564  0.0196 -0.9316
  327TMC3    H2 4969   3.856   4.198  10.669 -0.0111 -0.6050  0.2950
  327TMC3    C7 4970   3.732   4.138  10.904  0.2096 -0.3190 -0.1391
  327TMC3    C8 4971   3.838   4.434  10.532 -0.1084 -0.0588 -0.4457
  327TMC3    O1 4972   3.633   4.092  10.958 -0.2809 -0.1083 -0.8459
  327TMC3    O2 4973   3.783   4.514  10.455  0.6197 -0.2231  0.0256
  328MPD2     C 4974   2.424   4.624  16.941  0.6198 -0.4737 -0.5511
  328MPD2    C1 4975   2.349   4.525  16.995 -0.1664 -0.1155  0.7575
  328MPD2    C2 4976   2.259   4.462  16.913 -0.4668  0.0248 -0.7740
  328MPD2    C3 4977   2.240   4.496  16.780 -0.2284  0.4262 -0.5191
  328MPD2    C4 4978   2.302   4.614  16.731  0.3521 -0.4439 -0.0344
  328MPD2    C5 4979   2.397   4.667  16.815  0.0114  0.6759  0.4782
  328MPD2     H 4980   2.200   4.382  16.956  1.0707 -0.8178 -0.2051
  328MPD2    H1 4981   2.314   4.629  16.625 -1.2226  0.5520 -0.0712
  328MPD2    H2 4982   2.508   4.671  16.990  2.3413 -2.2186 -1.8563
  328MPD2    H3 4983   2.473   4.730  16.771  0.4828  0.4701  0.9953
  328MPD2     N 4984   2.148   4.432  16.695 -0.4511  0.1956 -0.4591
  328MPD2    H5 4985   2.130   4.483  16.609  0.2516  0.3438 -0.5162
  328MPD2    N1 4986   2.385   4.485  17.127  1.0353 -0.0269 -0.3109
  328MPD2    H7 4987   2.473   4.521  17.162  0.6670  0.5782  0.0142
  329TMC3    C1 4988   2.353   4.404  17.331 -0.4236  0.0710  0.7039
  329TMC3    C2 4989   2.418   4.509  17.395 -0.7668 -0.5443 -1.2954
  329TMC3    C3 4990   2.426   4.516  17.529 -0.7377  0.6097 -0.2114
  329TMC3    C4 4991   2.290   4.307  17.404  0.2326  0.0578  0.0951
  329TMC3    C5 4992   2.308   4.317  17.540  0.0452 -0.4459  0.2107
  329TMC3    C6 4993   2.374   4.420  17.602 -0.1227  0.5151 -0.6605
  329TMC3     C 4994   2.309   4.408  17.199 -0.4435 -0.5922 -0.0508
  329TMC3     O 4995   2.198   4.364  17.179  0.1559  0.5469 -0.1290
  329TMC3     H 4996   2.442   4.599  17.340  2.3516 -0.1510  0.6815
  329TMC3    H1 4997   2.243   4.223  17.355 -1.8932  1.0770  0.4029
  329TMC3    H2 4998   2.401   4.411  17.707 -0.8311 -1.3121 -0.6432
  329TMC3    C7 4999   2.272   4.206  17.627 -0.0011 -0.2445 -1.0731
  329TMC3    C8 5000   2.452   4.648  17.588 -0.0122  0.3029 -0.2163
  329TMC3    O1 5001   2.325   4.197  17.738 -0.4825 -0.5139 -0.3824
  329TMC3    O2 5002   2.506   4.725  17.509  0.6133  0.2059  0.1657
  330TMC3    C1 5003   3.939   4.386   8.990 -0.5795 -0.2241  0.3760
  330TMC3    C2 5004   3.833   4.302   8.999  0.2475  0.0083  0.4529
  330TMC3    C3 5005   3.828   4.219   9.112 -0.2300 -0.2750  0.2959
  330TMC3    C4 5006   4.038   4.384   9.086  0.7798 -0.4878 -0.0582
  330TMC3    C5 5007   4.033   4.293   9.191  0.2853  0.2399  0.3810
  330TMC3    C6 5008   3.926   4.210   9.210 -0.1758  0.5196 -0.3173
  330TMC3     C 5009   3.947   4.465   8.869  0.5595  1.0122  0.1698
  330TMC3     O 5010   4.061   4.488   8.830 -0.0670  0.1347 -0.2060
  330TMC3     H 5011   3.747   4.307   8.933  0.8587 -0.0889 -0.3439
  330TMC3    H1 5012   4.127   4.444   9.069  0.0585  1.1399  1.9475
  330TMC3    H2 5013   3.913   4.167   9.308  0.3098  0.1800 -0.4034
  330TMC3    C7 5014   4.145   4.289   9.271  0.0879  0.7536 -0.6253
  330TMC3    C8 5015   3.711   4.130   9.107  0.3337 -0.5981 -0.0327
  330TMC3    O1 5016   4.231   4.375   9.256  0.0188 -0.0391 -0.1410
  330TMC3    O2 5017   3.635   4.143   9.015  0.3014 -0.4066 -0.0369
  331MPD2     C 5018   2.417   2.290  13.060 -0.7773  0.3126 -0.0841
  331MPD2    C1 5019   2.520   2.362  12.997  0.6195 -0.0497 -0.5064
  331MPD2    C2 5020   2.581   2.302  12.886  0.4686  0.4713 -0.4462
  331MPD2    C3 5021   2.549   2.174  12.840 -0.0328  0.0578  0.4822
  331MPD2    C4 5022   2.449   2.104  12.912  0.1131 -0.1942  0.2453
  331MPD2    C5 5023   2.390   2.163  13.024 -0.4299  0.3386  0.1666
  331MPD2     H 5024   2.662   2.347  12.829 -0.8153  1.5794 -1.3840
  331MPD2    H1 5025   2.420   2.004  12.883  1.7173 -0.2864 -1.0635
  331MPD2    H2 5026   2.355   2.331  13.139  0.3288  0.9729  0.4429
  331MPD2    H3 5027   2.316   2.104  13.076  1.1923 -0.7921  1.1955
  331MPD2     N 5028   2.610   2.132  12.723  0.0783 -0.0624  0.4336
  331MPD2    H5 5029   2.669   2.205  12.684 -1.2340  2.1151  2.5525
  331MPD2    N1 5030   2.559   2.493  13.039 -1.2870 -0.1861 -0.0801
  331MPD2    H7 5031   2.511   2.536  13.117  0.6746 -0.9839  1.5762
  332TMC3    C1 5032   2.678   2.016  12.539  0.2183  0.9242 -0.3806
  332TMC3    C2 5033   2.682   2.140  12.490  0.1073 -0.2476 -0.7553
  332TMC3    C3 5034   2.795   2.181  12.433 -0.1083  1.0768  0.8166
  332TMC3    C4 5035   2.799   1.952  12.570  0.2070 -0.1296  0.1085
  332TMC3    C5 5036   2.919   2.009  12.533 -0.5685  0.1032 -0.2626
  332TMC3    C6 5037   2.920   2.119  12.454 -0.1064 -0.4221  0.4383
  332TMC3     C 5038   2.602   2.011  12.657 -0.3377 -0.5336 -0.3046
  332TMC3     O 5039   2.557   1.908  12.698  0.9174  0.4959  0.8195
  332TMC3     H 5040   2.591   2.194  12.471  0.0885  0.6689  1.8587
  332TMC3    H1 5041   2.797   1.859  12.626 -0.4673  1.9918  3.5561
  332TMC3    H2 5042   3.017   2.145  12.414 -0.4658  0.1671 -0.0410
  332TMC3    C7 5043   3.038   1.929  12.544 -0.3571 -0.4697 -0.9077
  332TMC3    C8 5044   2.788   2.285  12.331  0.0957 -0.8419 -0.6476
  332TMC3    O1 5045   3.021   1.815  12.556 -0.3122  0.0035  0.3360
  332TMC3    O2 5046   2.888   2.321  12.270 -0.1281  0.1320  0.2794
  333MPD2     C 5047   2.264   3.308  11.183 -0.2535 -0.3163 -0.0448
  333MPD2    C1 5048   2.307   3.238  11.073  0.5665  0.6125 -0.2429
  333MPD2    C2 5049   2.277   3.104  11.069  0.2688  0.5757  0.4756
  333MPD2    C3 5050   2.235   3.036  11.179 -0.2084  0.4148  0.0110
  333MPD2    C4 5051   2.198   3.109  11.290  0.6442  0.3164  0.4783
  333MPD2    C5 5052   2.210   3.249  11.289 -0.2312 -0.4066 -0.0569
  333MPD2     H 5053   2.304   3.053  10.978 -0.6969 -0.6922  0.8966
  333MPD2    H1 5054   2.164   3.058  11.379  1.5324  0.4626  0.9008
  333MPD2    H2 5055   2.284   3.413  11.197  0.1167 -0.4983  0.7966
  333MPD2    H3 5056   2.193   3.308  11.378 -0.6649  1.0331 -1.0869
  333MPD2     N 5057   2.233   2.896  11.180 -0.0817 -0.0957  0.0611
  333MPD2    H5 5058   2.274   2.847  11.101 -4.2328  0.2151 -2.3248
  333MPD2    N1 5059   2.398   3.298  10.977 -0.3119  0.2350  0.3050
  333MPD2    H7 5060   2.424   3.396  10.979  0.6008  0.0267 -0.7450
  334TMC3    C1 5061   2.534   3.324  10.788 -1.0352  0.5272 -0.6090
  334TMC3    C2 5062   2.635   3.267  10.714 -0.1205 -0.2502  0.3491
  334TMC3    C3 5063   2.728   3.355  10.674 -0.5568 -0.0984 -0.4490
  334TMC3    C4 5064   2.495   3.459  10.787 -0.3370  0.2923 -0.0230
  334TMC3    C5 5065   2.587   3.538  10.726  0.3956 -0.8633  0.7588
  334TMC3    C6 5066   2.711   3.491  10.684  0.4113  0.1884  0.0640
  334TMC3     C 5067   2.469   3.233  10.881 -0.0737  0.6445  0.0577
  334TMC3     O 5068   2.474   3.115  10.849 -0.3614  0.4879 -0.0050
  334TMC3     H 5069   2.650   3.161  10.701 -2.4541 -0.6682  1.0640
  334TMC3    H1 5070   2.405   3.497  10.834 -0.8257  1.4880 -1.9533
  334TMC3    H2 5071   2.778   3.560  10.635  2.2549 -1.6085  0.0532
  334TMC3    C7 5072   2.593   3.677  10.758  0.4292  0.0912  0.1552
  334TMC3    C8 5073   2.858   3.296  10.643 -1.2858  0.0889  0.0717
  334TMC3    O1 5074   2.688   3.747  10.778  0.2210 -0.0437  0.2497
  334TMC3    O2 5075   2.874   3.179  10.688  0.5177 -0.5759  0.3419
  335TMC3    C1 5076   2.835   4.227  17.448  0.5168 -0.1551 -0.3687
  335TMC3    C2 5077   2.771   4.170  17.345  0.2403 -0.2438 -0.0687
  335TMC3    C3 5078   2.819   4.189  17.219  0.2361 -0.2416  0.3373
  335TMC3    C4 5079   2.954   4.288  17.430 -0.5681 -0.4002  0.5941
  335TMC3    C5 5080   3.013   4.293  17.311 -0.0799 -0.8375  0.1754
  335TMC3    C6 5081   2.948   4.236  17.202 -0.1959  0.4790 -0.2629
  335TMC3     C 5082   2.764   4.253  17.570 -0.3238 -0.7717 -0.1769
  335TMC3     O 5083   2.683   4.171  17.607 -0.3679 -0.3998 -0.0749
  335TMC3     H 5084   2.667   4.145  17.359  0.0805  1.4860  1.6791
  335TMC3    H1 5085   2.994   4.320  17.526 -1.6022  0.9000  0.5948
  335TMC3    H2 5086   2.992   4.242  17.103 -0.3063 -0.9466 -0.4080
  335TMC3    C7 5087   3.153   4.341  17.289 -0.4423 -0.0591 -0.3047
  335TMC3    C8 5088   2.766   4.107  17.108  0.0805  0.5739 -0.5477
  335TMC3    O1 5089   3.199   4.310  17.183 -0.3722 -0.2818  0.4983
  335TMC3    O2 5090   2.847   4.076  17.018  0.6864  0.2277  0.5711
  336MPD2     C 5091   2.566   2.051  16.402 -0.4139 -0.5221 -0.0668
  336MPD2    C1 5092   2.482   2.013  16.295  0.2405 -0.3862  0.1874
  336MPD2    C2 5093   2.493   1.883  16.248  0.5574  0.6113  0.1688
  336MPD2    C3 5094   2.561   1.775  16.309 -0.1188  0.3815 -0.0721
  336MPD2    C4 5095   2.612   1.812  16.432  0.4808 -0.1402  0.8076
  336MPD2    C5 5096   2.623   1.950  16.472  0.3603 -0.0005  0.1670
  336MPD2     H 5097   2.434   1.854  16.161 -0.5246  1.3195  0.6724
  336MPD2    H1 5098   2.664   1.740  16.493  0.2255 -0.9978  0.0020
  336MPD2    H2 5099   2.558   2.153  16.439  0.4254  0.1529 -1.7510
  336MPD2    H3 5100   2.684   1.972  16.559 -0.9777  1.8345  0.6708
  336MPD2     N 5101   2.573   1.641  16.254 -0.0113  0.0938  0.1117
  336MPD2    H5 5102   2.612   1.570  16.314 -2.4480 -0.2471  1.2962
  336MPD2    N1 5103   2.404   2.095  16.209  0.0217  0.4368 -0.2147
  336MPD2    H7 5104   2.365   2.062  16.122 -0.8923  0.3690  0.2187
  337TMC3    C1 5105   2.262   2.265  16.151  0.3807 -0.4222  0.5559
  337TMC3    C2 5106   2.175   2.177  16.093  0.1869 -0.3026 -0.4326
  337TMC3    C3 5107   2.094   2.228  15.994 -0.0977 -0.2655 -0.0036
  337TMC3    C4 5108   2.252   2.397  16.127  0.3116  0.2045 -0.5941
  337TMC3    C5 5109   2.158   2.446  16.046 -0.7238 -0.6164 -0.7232
  337TMC3    C6 5110   2.088   2.363  15.965  0.0232 -0.3739  0.2324
  337TMC3     C 5111   2.346   2.216  16.257 -0.5134 -0.4890 -0.0059
  337TMC3     O 5112   2.376   2.285  16.351 -0.0444 -0.5866 -0.4240
  337TMC3     H 5113   2.195   2.072  16.113 -2.9296 -0.4147  2.1205
  337TMC3    H1 5114   2.316   2.461  16.187  0.2511  0.5127 -0.8516
  337TMC3    H2 5115   2.023   2.405  15.889 -2.7067  0.1818  2.8955
  337TMC3    C7 5116   2.200   2.574  15.980  0.0299 -0.2508 -0.7967
  337TMC3    C8 5117   2.016   2.137  15.915 -0.7726 -0.7141  0.2264
  337TMC3    O1 5118   2.200   2.578  15.856 -0.6794 -0.6334  0.4463
  337TMC3    O2 5119   1.996   2.019  15.951  0.4481 -0.3253 -0.1453
  338MPD2     C 5120   2.845   1.276   0.633  0.2812  0.4502  0.2561
  338MPD2    C1 5121   2.826   1.228   0.503  1.0519 -0.3576 -0.4093
  338MPD2    C2 5122   2.693   1.225   0.455 -0.3003  0.9757  0.1544
  338MPD2    C3 5123   2.593   1.265   0.539  0.0202 -0.3851  0.6685
  338MPD2    C4 5124   2.617   1.310   0.668  0.5175 -0.0401 -0.2897
  338MPD2    C5 5125   2.740   1.312   0.709 -0.0389  0.0621 -0.2852
  338MPD2     H 5126   2.673   1.198   0.352  2.9424  2.8931 -0.9730
  338MPD2    H1 5127   2.542   1.340   0.739 -0.2838  0.5258 -1.3752
  338MPD2    H2 5128   2.942   1.270   0.682  0.3977  2.4964  0.2654
  338MPD2    H3 5129   2.752   1.366   0.803  1.3147  1.4295 -1.2437
  338MPD2     N 5130   2.462   1.253   0.488 -0.3467  0.2059  0.1966
  338MPD2    H5 5131   2.453   1.202   0.401  0.8406 -1.6213  1.1287
  338MPD2    N1 5132   2.933   1.196   0.416  0.0519  0.6007 -0.3431
  338MPD2    H7 5133   2.905   1.162   0.324  0.9761 -0.0859 -0.3674
  339TMC3    C1 5134   2.228   1.291   0.472 -0.4229 -0.2007 -0.2710
  339TMC3    C2 5135   2.105   1.288   0.536  0.2388 -0.3158 -0.8613
  339TMC3    C3 5136   1.992   1.298   0.452  0.4275  0.2943  0.3690
  339TMC3    C4 5137   2.237   1.302   0.330  0.5091 -0.8604 -0.1245
  339TMC3    C5 5138   2.120   1.304   0.258 -0.0421  0.4935 -0.8791
  339TMC3    C6 5139   1.996   1.299   0.319  0.1704 -0.1217  0.0381
  339TMC3     C 5140   2.344   1.285   0.555  0.3179  0.5275 -0.1167
  339TMC3     O 5141   2.332   1.302   0.674 -0.1534 -0.2644 -0.0517
  339TMC3     H 5142   2.097   1.274   0.643  1.4035  0.3637 -0.6863
  339TMC3    H1 5143   2.330   1.300   0.275  2.6804 -1.4516  3.5159
  339TMC3    H2 5144   1.907   1.311   0.259 -0.0622 -0.1917  0.3685
  339TMC3    C7 5145   2.131   1.325   0.111  0.8783  1.3075  0.0824
  339TMC3    C8 5146   1.852   1.279   0.502 -0.3271 -0.6248  0.7228
  339TMC3    O1 5147   2.242   1.327   0.066 -0.1017 -0.5516  0.7017
  339TMC3    O2 5148   1.761   1.237   0.430 -0.2144  0.4348  0.6370
  340MPD2     C 5149   2.132   3.917  10.096  0.4126  0.6796  0.1096
  340MPD2    C1 5150   2.138   3.945   9.963  0.8148  0.3779 -0.1378
  340MPD2    C2 5151   2.161   4.079   9.926  0.8006  0.2816 -0.0901
  340MPD2    C3 5152   2.146   4.178  10.025 -0.8356 -0.5969  0.2850
  340MPD2    C4 5153   2.142   4.148  10.159  0.0157  0.2872 -0.4596
  340MPD2    C5 5154   2.133   4.012  10.197  0.3410  0.7132  0.6348
  340MPD2     H 5155   2.181   4.110   9.824  1.4880  1.6923  0.4703
  340MPD2    H1 5156   2.147   4.218  10.241  1.9730 -0.2090 -0.1507
  340MPD2    H2 5157   2.118   3.812  10.120  0.3491 -0.0802 -3.3507
  340MPD2    H3 5158   2.152   3.984  10.300 -0.0892  1.2925  0.8713
  340MPD2     N 5159   2.162   4.307   9.991 -0.1354  0.1000 -0.1372
  340MPD2    H5 5160   2.203   4.376  10.053  1.1513 -0.4802 -0.3219
  340MPD2    N1 5161   2.128   3.843   9.868  0.6514  0.1093 -0.9328
  340MPD2    H7 5162   2.104   3.750   9.901 -2.4386  1.3663  0.3858
  341TMC3    C1 5163   2.137   3.743   9.655 -0.1237 -0.0052  0.0181
  341TMC3    C2 5164   2.012   3.694   9.678 -0.2855  0.4758  0.2441
  341TMC3    C3 5165   1.937   3.650   9.574  0.1416 -0.3358  0.7050
  341TMC3    C4 5166   2.176   3.763   9.526 -0.6135  0.7426 -0.1806
  341TMC3    C5 5167   2.100   3.719   9.422  0.1595  0.4884 -0.1700
  341TMC3    C6 5168   1.974   3.666   9.444 -0.4814  0.4699  0.5712
  341TMC3     C 5169   2.175   3.857   9.739  0.3309  0.0319 -0.2672
  341TMC3     O 5170   2.234   3.948   9.685  0.3038  0.3022  0.1518
  341TMC3     H 5171   1.979   3.671   9.778  0.9348  0.8454  0.7294
  341TMC3    H1 5172   2.277   3.800   9.522 -0.5136  0.5096  0.1683
  341TMC3    H2 5173   1.918   3.636   9.356  1.2964 -1.0349 -0.0422
  341TMC3    C7 5174   2.114   3.789   9.297 -0.2735  0.4459 -0.1356
  341TMC3    C8 5175   1.836   3.552   9.614 -0.2326 -0.1998 -0.2353
  341TMC3    O1 5176   2.021   3.783   9.221 -0.0561 -0.3153  0.3985
  341TMC3    O2 5177   1.808   3.535   9.731 -0.5280  0.6741  0.0596
  342MPD2     C 5178   0.924   2.282   0.212  0.3416  0.1184 -0.0622
  342MPD2    C1 5179   1.043   2.294   0.137 -0.2274  0.1220  0.6055
  342MPD2    C2 5180   1.137   2.399   0.174  0.9160 -0.3988  0.4265
  342MPD2    C3 5181   1.109   2.496   0.274  0.3005 -0.1824  0.1042
  342MPD2    C4 5182   0.995   2.474   0.345  0.6316  0.6252  0.4236
  342MPD2    C5 5183   0.902   2.379   0.315 -1.3052 -0.5646 -0.0692
  342MPD2     H 5184   1.229   2.405   0.116  0.0451  3.0692 -0.6478
  342MPD2    H1 5185   0.963   2.543   0.422 -2.2048  0.8755 -0.9579
  342MPD2    H2 5186   0.851   2.206   0.188 -0.3353 -0.1821  3.0174
  342MPD2    H3 5187   0.813   2.371   0.376 -0.5163  1.1781  1.2991
  342MPD2     N 5188   1.188   2.607   0.304  0.0715 -0.1991  0.3127
  342MPD2    H5 5189   1.151   2.662   0.381  1.1246 -0.8952  1.3143
  342MPD2    N1 5190   1.074   2.215   0.021  0.3640  0.6210  0.2918
  342MPD2    H7 5191   1.164   2.231  17.735  0.1334  0.1665 -0.3522
  343TMC3    C1 5192   1.058   2.024  17.632 -0.8024 -0.0344  0.5469
  343TMC3    C2 5193   1.138   2.078  17.533 -0.2659 -0.6657  0.7149
  343TMC3    C3 5194   1.181   2.000  17.430  0.2575 -0.0911 -0.3590
  343TMC3    C4 5195   1.001   1.902  17.608 -0.6261  0.6827  0.5067
  343TMC3    C5 5196   1.035   1.835  17.491 -0.6315  0.8025  0.4259
  343TMC3    C6 5197   1.133   1.874  17.406 -0.1662 -0.2084 -0.2663
  343TMC3     C 5198   1.001   2.108  17.738 -0.4633 -0.2117  0.5235
  343TMC3     O 5199   0.896   2.064   0.027  0.0736 -0.4455  0.1375
  343TMC3     H 5200   1.184   2.175  17.548 -1.0253 -0.3584  1.0508
  343TMC3    H1 5201   0.924   1.865  17.675  0.2544 -2.6549 -0.3160
  343TMC3    H2 5202   1.151   1.822  17.313  2.7255 -0.6152  0.5006
  343TMC3    C7 5203   0.978   1.698  17.458  0.0295  0.7066  0.1981
  343TMC3    C8 5204   1.296   2.045  17.353  0.1543  0.1534  0.2861
  343TMC3    O1 5205   0.995   1.652  17.345  0.3443 -0.0558  0.1810
  343TMC3    O2 5206   1.341   2.153  17.383  0.1785 -0.2433  0.4545
  344MPD2     C 5207   0.958   2.421  11.132 -0.4032 -0.0868  0.2527
  344MPD2    C1 5208   0.966   2.369  11.007  0.0518  0.3174  0.0039
  344MPD2    C2 5209   1.021   2.459  10.915  1.0089 -0.1542 -0.0633
  344MPD2    C3 5210   1.086   2.577  10.952  0.3027 -0.0218  0.2114
  344MPD2    C4 5211   1.077   2.619  11.085 -0.4550  0.5695  0.0988
  344MPD2    C5 5212   1.006   2.545  11.175  0.6190  0.3203 -0.0533
  344MPD2     H 5213   1.012   2.426  10.812 -2.2708  1.7040 -0.3668
  344MPD2    H1 5214   1.129   2.704  11.127  0.3841  1.1432 -2.1188
  344MPD2    H2 5215   0.912   2.361  11.210 -0.7470 -0.5039 -0.2721
  344MPD2    H3 5216   1.006   2.572  11.280 -0.6084 -1.6666  0.4588
  344MPD2     N 5217   1.164   2.657  10.864 -0.0739  0.5673 -0.3796
  344MPD2    H5 5218   1.222   2.728  10.907  0.3319  0.4409 -0.7142
  344MPD2    N1 5219   0.910   2.242  10.962  0.7604 -0.2911  0.2371
  344MPD2    H7 5220   0.924   2.211  10.867  0.3247  0.8498 -0.2014
  345TMC3    C1 5221   1.253   2.742  10.673  0.1134  0.2282 -0.6008
  345TMC3    C2 5222   1.355   2.790  10.750 -0.4310 -0.0788 -0.5296
  345TMC3    C3 5223   1.408   2.915  10.716  0.4133  0.2514  0.0977
  345TMC3    C4 5224   1.196   2.811  10.575 -0.5117 -0.5526 -0.2470
  345TMC3    C5 5225   1.249   2.940  10.553 -0.1256  0.3166  0.6524
  345TMC3    C6 5226   1.353   2.992  10.621 -0.0747 -0.5518 -0.4490
  345TMC3     C 5227   1.169   2.644  10.730  0.4905 -0.8366  0.1035
  345TMC3     O 5228   1.089   2.584  10.656  0.2527  0.6643 -0.6061
  345TMC3     H 5229   1.396   2.735  10.834  1.4987  1.1730 -0.6325
  345TMC3    H1 5230   1.109   2.769  10.526 -1.7787  2.4693 -0.5551
  345TMC3    H2 5231   1.402   3.080  10.580 -0.1015 -0.5468 -0.4708
  345TMC3    C7 5232   1.200   3.031  10.452 -0.4203 -0.3393  0.1674
  345TMC3    C8 5233   1.533   2.972  10.768 -0.1503 -0.5261 -0.0222
  345TMC3    O1 5234   1.269   3.125  10.416  0.4134  0.1601  0.2604
  345TMC3    O2 5235   1.595   3.051  10.698  0.3352  0.0640 -0.5620
  346MPD2     C 5236   1.353   4.249  14.328 -0.1835  0.1151  0.2557
  346MPD2    C1 5237   1.395   4.138  14.259  0.0588 -0.1267  0.1641
  346MPD2    C2 5238   1.441   4.031  14.335 -0.3457  0.1126  1.0253
  346MPD2    C3 5239   1.457   4.040  14.470  0.5910  0.0017 -0.6234
  346MPD2    C4 5240   1.425   4.155  14.535 -0.0871 -0.5036 -0.0391
  346MPD2    C5 5241   1.376   4.259  14.460  0.7388 -0.5707  0.6058
  346MPD2     H 5242   1.472   3.938  14.287  0.8365  0.6691  0.7185
  346MPD2    H1 5243   1.423   4.171  14.642 -1.8043 -3.3730  0.3666
  346MPD2    H2 5244   1.313   4.334  14.274 -0.5870 -0.5766 -0.5484
  346MPD2    H3 5245   1.326   4.340  14.511  0.0795 -0.6187  0.0439
  346MPD2     N 5246   1.514   3.924  14.539  0.6820 -0.4657 -0.0006
  346MPD2    H5 5247   1.554   3.852  14.479  0.1714 -1.9633  1.4667
  346MPD2    N1 5248   1.395   4.128  14.119 -0.9053  0.2242 -0.3640
  346MPD2    H7 5249   1.443   4.047  14.082 -1.1018 -0.8976  1.8465
  347TMC3    C1 5250   1.663   3.834  14.701  0.0673  0.3744 -0.0405
  347TMC3    C2 5251   1.769   3.825  14.612 -0.6456 -0.2596  0.8071
  347TMC3    C3 5252   1.891   3.794  14.657  0.1347  0.8760 -0.3782
  347TMC3    C4 5253   1.690   3.834  14.829 -0.1948  0.3570 -0.6843
  347TMC3    C5 5254   1.815   3.805  14.873 -0.6695 -0.4778  0.0107
  347TMC3    C6 5255   1.916   3.772  14.788 -0.2335 -0.3850 -0.9851
  347TMC3     C 5256   1.553   3.931  14.669 -0.3971 -0.6697  0.2256
  347TMC3     O 5257   1.512   4.006  14.762 -0.4401 -0.2236  0.2617
  347TMC3     H 5258   1.744   3.846  14.509 -2.3870  0.1912  1.3358
  347TMC3    H1 5259   1.616   3.857  14.905 -0.2761 -0.3183 -0.5597
  347TMC3    H2 5260   2.017   3.745  14.815 -0.7444 -1.5254 -0.1834
  347TMC3    C7 5261   1.851   3.809  15.013 -0.5929 -0.2213  0.3270
  347TMC3    C8 5262   2.004   3.812  14.571  0.6710  0.9174  0.0840
  347TMC3    O1 5263   1.760   3.779  15.087  0.1399  0.6834  0.2947
  347TMC3    O2 5264   2.099   3.740  14.594  0.2403 -0.6013  0.6896
  348MPD2     C 5265   4.472   3.647  11.794 -0.4549 -0.5135 -0.0731
  348MPD2    C1 5266   4.601   3.694  11.777 -0.3402 -0.3760 -0.2877
  348MPD2    C2 5267   4.639   3.732  11.654 -0.4088 -0.2851  0.1569
  348MPD2    C3 5268   4.545   3.744  11.549  0.3050  0.0435 -0.7052
  348MPD2    C4 5269   4.420   3.686  11.568 -0.1454 -0.5382  0.2076
  348MPD2    C5 5270   4.380   3.638  11.693 -0.2208  0.1474 -0.3704
  348MPD2     H 5271   4.738   3.775  11.651 -0.5858  0.0010 -2.3276
  348MPD2    H1 5272   4.342   3.689  11.493 -0.6940  0.1718  0.7930
  348MPD2    H2 5273   4.436   3.621  11.893 -0.1541  0.6057  0.3343
  348MPD2    H3 5274   4.279   3.608  11.717  0.9065 -1.6489  2.0620
  348MPD2     N 5275   4.591   3.787  11.425  0.0661  0.0940 -0.1235
  348MPD2    H5 5276   4.692   3.783  11.413 -0.2641 -0.0977 -2.7229
  348MPD2    N1 5277   4.696   3.700  11.884  0.7201  0.4516  0.0603
  348MPD2    H7 5278   0.048   3.735  11.858  2.4453 -2.8621  1.6603
  349TMC3    C1 5279   0.063   3.632  12.080  0.1153  0.1739  0.4407
  349TMC3    C2 5280   0.040   3.536  12.173 -0.2894  0.2431 -0.3850
  349TMC3    C3 5281   0.108   3.420  12.158  0.0211  0.3480  0.0649
  349TMC3    C4 5282   0.161   3.624  11.986  0.3646  0.4479 -0.1636
  349TMC3    C5 5283   0.217   3.501  11.965 -0.2515  0.3824  0.1945
  349TMC3    C6 5284   0.197   3.400  12.054  0.7000  0.2470  0.6178
  349TMC3     C 5285   4.678   3.654  12.012 -0.0504 -0.0943  0.8408
  349TMC3     O 5286   4.577   3.632  12.072 -0.3173  0.4448  0.4564
  349TMC3     H 5287   4.699   3.544  12.244  1.6724  0.6515  1.7817
  349TMC3    H1 5288   0.194   3.702  11.919 -1.2199  0.9961 -0.3043
  349TMC3    H2 5289   0.228   3.301  12.023  1.5959  1.0916 -1.2203
  349TMC3    C7 5290   0.211   3.442  11.833 -0.3472  1.0577 -0.3746
  349TMC3    C8 5291   0.112   3.325  12.266  0.3532 -0.5726  0.2618
  349TMC3    O1 5292   0.125   3.356  11.823  0.2716  0.0248 -0.1836
  349TMC3    O2 5293   0.220   3.283  12.300 -0.5172  0.2005 -0.5007
  350MPD2     C 5294   4.309   2.072  10.621 -0.7583  0.2221 -0.1668
  350MPD2    C1 5295   4.178   2.032  10.612  0.5564 -0.0192  0.4962
  350MPD2    C2 5296   4.099   2.037  10.722 -0.0166 -0.1352  0.3031
  350MPD2    C3 5297   4.141   2.096  10.841 -0.1175 -0.5081  0.5194
  350MPD2    C4 5298   4.274   2.138  10.847  0.8748  0.0121  0.1471
  350MPD2    C5 5299   4.351   2.124  10.735 -0.5205 -0.0346  0.4598
  350MPD2     H 5300   3.998   1.996  10.712  0.0020 -0.1975  0.3657
  350MPD2    H1 5301   4.320   2.167  10.940  0.3534 -0.3187  0.5079
  350MPD2    H2 5302   4.377   2.079  10.537  0.8735  3.3946  1.4141
  350MPD2    H3 5303   4.458   2.137  10.731 -0.4922 -0.0816  1.1944
  350MPD2     N 5304   4.052   2.085  10.952 -0.0838  0.3162 -0.5685
  350MPD2    H5 5305   3.962   2.039  10.939  1.0855 -2.1836  0.2955
  350MPD2    N1 5306   4.127   1.965  10.497 -0.5479  0.2183  0.4637
  350MPD2    H7 5307   4.033   1.926  10.498  0.4465 -2.2022  0.6611
  351TMC3    C1 5308   4.110   1.902  10.263 -0.1616  0.3193 -1.0432
  351TMC3    C2 5309   4.173   1.826  10.169 -0.3922  0.3522  0.3534
  351TMC3    C3 5310   4.088   1.745  10.087 -0.5481  0.3050 -0.5629
  351TMC3    C4 5311   3.974   1.889  10.276 -0.6433  0.1753 -0.5303
  351TMC3    C5 5312   3.899   1.818  10.195 -0.6222  0.0496 -0.0598
  351TMC3    C6 5313   3.953   1.750  10.093 -0.1214 -0.6375  0.4925
  351TMC3     C 5314   4.188   1.956  10.371  0.7605 -0.5370  0.3148
  351TMC3     O 5315   4.290   2.008  10.323 -0.1066 -0.2067  0.5188
  351TMC3     H 5316   4.280   1.821  10.154 -0.1774  0.4366  1.9216
  351TMC3    H1 5317   3.919   1.951  10.346 -0.8305 -0.4109 -0.1623
  351TMC3    H2 5318   3.891   1.699  10.021 -0.2579  0.9273 -0.4707
  351TMC3    C7 5319   3.757   1.815  10.217  0.2883  0.2678 -0.0398
  351TMC3    C8 5320   4.139   1.644   9.996 -0.1898 -0.6699  0.4983
  351TMC3    O1 5321   3.702   1.914  10.263 -0.8231  0.8588  0.1476
  351TMC3    O2 5322   4.052   1.587   9.929  0.2037  0.4438  0.0767
  352MPD2     C 5323   2.802   3.331   1.486 -0.7594 -0.4150  0.4654
  352MPD2    C1 5324   2.716   3.274   1.394 -0.1281 -1.1476 -0.7045
  352MPD2    C2 5325   2.734   3.138   1.376 -0.4513  0.3586  0.2032
  352MPD2    C3 5326   2.837   3.065   1.433  0.4847 -0.6668 -0.6529
  352MPD2    C4 5327   2.914   3.126   1.525  0.1461  0.4031  0.2267
  352MPD2    C5 5328   2.897   3.258   1.548  0.8842 -0.1992 -0.4855
  352MPD2     H 5329   2.662   3.100   1.304 -2.2264  2.0879  1.0772
  352MPD2    H1 5330   2.992   3.070   1.576  0.2457 -1.7054 -2.2286
  352MPD2    H2 5331   2.804   3.436   1.510 -0.6663 -0.4347  0.5394
  352MPD2    H3 5332   2.957   3.304   1.624  1.0845 -1.0549 -0.1227
  352MPD2     N 5333   2.867   2.935   1.379  0.0056  0.2326  0.6810
  352MPD2    H5 5334   2.958   2.906   1.413 -0.0946 -1.6748 -0.6740
  352MPD2    N1 5335   2.611   3.355   1.343  1.0241  0.3865  0.2422
  352MPD2    H7 5336   2.600   3.450   1.378 -1.7242  0.4518 -0.8058
  353TMC3    C1 5337   2.825   2.726   1.241  0.2878  0.6291  0.0431
  353TMC3    C2 5338   2.919   2.670   1.320  0.3774  0.6257 -0.6716
  353TMC3    C3 5339   2.920   2.538   1.321  0.5973 -0.4298 -0.3639
  353TMC3    C4 5340   2.738   2.653   1.159  0.5313 -0.3200 -0.1859
  353TMC3    C5 5341   2.759   2.518   1.150  0.1435 -0.1619  0.1565
  353TMC3    C6 5342   2.857   2.459   1.231  0.1377  0.8219 -0.5843
  353TMC3     C 5343   2.781   2.858   1.300  0.0659  1.7648  0.2491
  353TMC3     O 5344   2.663   2.883   1.276  0.4166 -0.7527  0.1397
  353TMC3     H 5345   2.997   2.721   1.375  0.2477 -0.7353  0.7870
  353TMC3    H1 5346   2.665   2.709   1.102  0.8633  2.2273  1.8659
  353TMC3    H2 5347   2.868   2.351   1.234  0.5952  0.8957  0.3491
  353TMC3    C7 5348   2.703   2.448   1.044 -0.5028  0.5402  0.1487
  353TMC3    C8 5349   3.025   2.475   1.394 -0.4763 -0.6399  0.6829
  353TMC3    O1 5350   2.658   2.525   0.957  0.7061  0.5068  0.5278
  353TMC3    O2 5351   3.076   2.529   1.491  0.4628 -0.1377 -0.3330
  354TMC3    C1 5352   4.386   4.521  13.632  0.6087  0.1884 -0.2847
  354TMC3    C2 5353   4.300   4.624  13.605  0.4261 -0.5597  0.0367
  354TMC3    C3 5354   4.287   4.672  13.476 -0.3745 -0.9770 -0.3622
  354TMC3    C4 5355   4.467   4.469  13.534  0.2581  0.5236 -1.0624
  354TMC3    C5 5356   4.442   4.512  13.407  0.5734 -0.2739 -0.7289
  354TMC3    C6 5357   4.366   4.623  13.377  0.5074 -0.2302  0.1535
  354TMC3     C 5358   4.424   4.493  13.771 -0.3604 -0.4126  0.2422
  354TMC3     O 5359   4.338   4.532  13.848 -0.3286  0.2878 -0.1701
  354TMC3     H 5360   4.233   4.656  13.684  0.3192  1.1976 -0.7685
  354TMC3    H1 5361   4.541   4.391  13.551 -0.1528 -0.0655 -2.0165
  354TMC3    H2 5362   4.349   4.639  13.271 -0.1647  0.2486  0.3280
  354TMC3    C7 5363   4.547   4.479  13.311 -0.4303  0.1005 -0.0155
  354TMC3    C8 5364   4.177   0.029  13.458  0.3136 -0.3264 -0.6119
  354TMC3    O1 5365   4.587   4.364  13.301 -0.5940 -0.5181 -0.0931
  354TMC3    O2 5366   4.097   0.032  13.550 -0.5499  0.2999  0.4424
  355MPD2     C 5367   4.129   1.051  12.160 -0.1846  0.2232 -0.6242
  355MPD2    C1 5368   4.227   1.038  12.070 -0.1797  0.3507 -0.1998
  355MPD2    C2 5369   4.324   0.941  12.081  0.5689 -0.4616 -0.0434
  355MPD2    C3 5370   4.326   0.861  12.189 -0.2879  0.1495  0.1865
  355MPD2    C4 5371   4.220   0.872  12.280 -0.2364 -0.7630 -0.4311
  355MPD2    C5 5372   4.124   0.961  12.261 -0.5205 -0.0524 -0.3012
  355MPD2     H 5373   4.412   0.956  12.021  2.1802  0.9479  2.7009
  355MPD2    H1 5374   4.211   0.807  12.366 -1.2184  1.1287  0.8971
  355MPD2    H2 5375   4.055   1.129  12.145 -1.4799 -0.8748  0.0264
  355MPD2    H3 5376   4.055   0.974  12.344 -1.7362 -1.7356 -1.0468
  355MPD2     N 5377   4.429   0.765  12.222 -0.5205  0.0995  0.2398
  355MPD2    H5 5378   4.412   0.718  12.310 -0.1500  0.0079  0.2626
  355MPD2    N1 5379   4.224   1.127  11.957 -0.3994 -0.1863 -0.0773
  355MPD2    H7 5380   4.177   1.217  11.963 -0.0486  0.0682 -1.1408
  356TMC3    C1 5381   4.657   0.691  12.205  0.1812  0.0863  1.0695
  356TMC3    C2 5382   0.028   0.675  12.126 -0.5583  0.4132 -0.1126
  356TMC3    C3 5383   0.150   0.726  12.163 -0.8115  0.4464 -0.0808
  356TMC3    C4 5384   4.674   0.729  12.335 -0.2149  0.1988 -0.4198
  356TMC3    C5 5385   0.062   0.776  12.377 -0.2018 -0.4205 -0.0971
  356TMC3    C6 5386   0.169   0.789  12.286  0.2004 -0.7758  0.1526
  356TMC3     C 5387   4.539   0.747  12.143  0.6375 -0.1696 -0.7574
  356TMC3     O 5388   4.552   0.792  12.031 -0.0921  0.1918  0.2727
  356TMC3     H 5389   0.011   0.638  12.025 -1.8084 -2.0515  1.0009
  356TMC3    H1 5390   4.595   0.726  12.409 -0.3979 -0.9744 -0.6616
  356TMC3    H2 5391   0.261   0.836  12.318  1.0723 -3.1465  1.1077
  356TMC3    C7 5392   0.073   0.812  12.521  0.2640  0.0820 -0.2661
  356TMC3    C8 5393   0.214   0.778  12.033 -0.7588 -0.7229  0.0055
  356TMC3    O1 5394   4.731   0.772  12.603  0.4598 -0.4284  0.1149
  356TMC3    O2 5395   0.190   0.719  11.926 -0.0153 -0.0478 -0.5187
  357MPD2     C 5396   3.650   4.139   0.275  0.0349 -0.6531  0.0110
  357MPD2    C1 5397   3.679   4.157   0.414 -0.8028 -0.6852 -0.1248
  357MPD2    C2 5398   3.578   4.153   0.505 -0.5047 -0.1580  0.1128
  357MPD2    C3 5399   3.445   4.121   0.462 -0.3488 -0.4558  0.0775
  357MPD2    C4 5400   3.423   4.115   0.325 -0.1401 -0.3466 -0.0744
  357MPD2    C5 5401   3.521   4.120   0.235  0.1329 -0.2553 -0.1596
  357MPD2     H 5402   3.602   4.160   0.610  0.4392  2.2433 -0.2723
  357MPD2    H1 5403   3.324   4.100   0.282 -0.9093  2.9139  0.5394
  357MPD2    H2 5404   3.732   4.145   0.205  0.2537 -1.6193  0.1859
  357MPD2    H3 5405   3.501   4.129   0.129  0.2064  1.2604 -0.0431
  357MPD2     N 5406   3.339   4.101   0.550 -0.5771 -1.2953  0.2928
  357MPD2    H5 5407   3.246   4.088   0.511  0.2762  0.9302 -2.4622
  357MPD2    N1 5408   3.804   4.185   0.472  0.0772 -0.1472  0.1336
  357MPD2    H7 5409   3.794   4.221   0.567 -2.8393  0.6869 -0.4829
  358TMC3    C1 5410   4.034   4.238   0.500  0.1206  0.2410 -0.0369
  358TMC3    C2 5411   4.146   4.282   0.435 -0.1822  0.1770 -0.5640
  358TMC3    C3 5412   4.238   4.352   0.510  0.1485  0.7195  0.4039
  358TMC3    C4 5413   4.003   4.265   0.628  0.2550 -0.5423  0.5304
  358TMC3    C5 5414   4.104   4.315   0.707 -0.4981  0.6438 -0.1872
  358TMC3    C6 5415   4.217   4.362   0.644  0.5787 -0.3072 -0.9725
  358TMC3     C 5416   3.930   4.171   0.419 -0.7221  0.1601 -0.4195
  358TMC3     O 5417   3.959   4.142   0.302  0.0110 -0.4601  0.5249
  358TMC3     H 5418   4.136   4.293   0.328 -1.3167  0.8202 -0.3879
  358TMC3    H1 5419   3.912   4.227   0.672  0.6913 -2.3713 -0.1446
  358TMC3    H2 5420   4.271   4.449   0.681 -2.7141  0.3503  2.2960
  358TMC3    C7 5421   4.087   4.353   0.844  0.7095  0.3684  0.4884
  358TMC3    C8 5422   4.365   4.394   0.452 -0.2261 -0.0206 -0.2589
  358TMC3    O1 5423   4.184   4.385   0.913 -0.0007 -0.0645  0.3373
  358TMC3    O2 5424   4.443   4.423   0.541 -0.3726  0.3342  0.3520
  359MPD2     C 5425   0.166   4.525  12.661 -0.6817 -0.2318  0.0326
  359MPD2    C1 5426   0.100   4.483  12.549 -0.3540  0.0300 -0.2061
  359MPD2    C2 5427   4.708   4.440  12.571  0.1989  1.1233 -0.6098
  359MPD2    C3 5428   4.649   4.446  12.696  0.4214  0.0709 -0.8001
  359MPD2    C4 5429   4.725   4.483  12.803 -0.3937 -0.1970  0.4269
  359MPD2    C5 5430   0.115   4.528  12.784 -0.0496 -0.8701  0.5647
  359MPD2     H 5431   4.638   4.418  12.491  0.5872  1.1104 -0.9523
  359MPD2    H1 5432   4.690   4.480  12.906 -1.5101 -1.6757 -0.0064
  359MPD2    H2 5433   0.269   4.558  12.653 -1.0206  0.0525 -3.1200
  359MPD2    H3 5434   0.191   4.555  12.857 -1.0030 -2.8153  2.2779
  359MPD2     N 5435   4.510   4.422  12.719 -0.3784 -0.3273 -0.2370
  359MPD2    H5 5436   4.483   4.435  12.816 -2.7315 -0.1891 -0.9192
  359MPD2    N1 5437   0.157   4.473  12.417  0.4948  0.2073 -0.2105
  359MPD2    H7 5438   0.101   4.407  12.364  0.0237  0.2987  0.1781
  360TMC3    C1 5439   0.302   4.496  12.240 -0.0006  0.2363 -0.5881
  360TMC3    C2 5440   0.379   4.581  12.166 -0.5960 -0.0718 -0.2130
  360TMC3    C3 5441   0.406   4.550  12.033  0.0789  0.8077  0.6100
  360TMC3    C4 5442   0.264   4.373  12.191 -0.1327 -0.5334 -0.2039
  360TMC3    C5 5443   0.302   4.333  12.063  0.3813 -0.0501 -0.5544
  360TMC3    C6 5444   0.365   4.428  11.982  0.1693 -0.1473  0.4439
  360TMC3     C 5445   0.271   4.537  12.375 -0.3386 -0.2614  0.5801
  360TMC3     O 5446   0.331   4.630  12.427 -0.1766 -0.5005 -0.4636
  360TMC3     H 5447   0.402   4.679  12.206  0.4577  0.7169 -2.7198
  360TMC3    H1 5448   0.222   4.299  12.258 -1.0358  1.3892  1.3857
  360TMC3    H2 5449   0.417   4.389  11.895  0.0868  3.5434 -1.2959
  360TMC3    C7 5450   0.222   4.243  11.986  0.5954  0.2142 -0.4688
  360TMC3    C8 5451   0.447   4.655  11.941  0.2160  0.9806  0.2698
  360TMC3    O1 5452   0.235   4.265  11.867 -0.4457  0.0200  0.1471
  360TMC3    O2 5453   0.424   0.028  11.981 -0.0110 -0.3414  0.0010
  361MPD2     C 5454   1.817   3.034  16.586 -0.4928 -0.8230 -0.2845
  361MPD2    C1 5455   1.801   3.026  16.724 -0.5130 -0.7153  0.3326
  361MPD2    C2 5456   1.879   2.939  16.795 -0.1454  0.2000  0.6959
  361MPD2    C3 5457   1.977   2.868  16.724  0.2519 -0.4762 -0.5337
  361MPD2    C4 5458   1.986   2.870  16.586 -0.7158  1.1306  0.3871
  361MPD2    C5 5459   1.911   2.961  16.520  0.0474  0.4297  0.5627
  361MPD2     H 5460   1.857   2.924  16.900 -1.3879  1.1529  0.5788
  361MPD2    H1 5461   2.061   2.809  16.536 -0.9993 -0.4453  1.8798
  361MPD2    H2 5462   1.755   3.107  16.536 -1.8659 -0.7561  1.4890
  361MPD2    H3 5463   1.921   2.963  16.412  0.5398 -0.4129  0.5927
  361MPD2     N 5464   2.063   2.783  16.792 -0.0965  0.3178  0.1107
  361MPD2    H5 5465   2.131   2.734  16.736  0.2326  1.4100 -0.4376
  361MPD2    N1 5466   1.687   3.082  16.796 -0.6753 -0.8407 -0.0353
  361MPD2    H7 5467   1.674   3.047  16.891  0.2420  1.3109  0.8885
  362TMC3    C1 5468   1.493   3.206  16.830 -0.7636 -1.0404 -0.7843
  362TMC3    C2 5469   1.519   3.199  16.964 -0.4530 -0.1593 -0.1110
  362TMC3    C3 5470   1.437   3.254  17.055 -0.1346  0.1216 -0.0590
  362TMC3    C4 5471   1.384   3.278  16.786  0.1049  0.3258  0.2270
  362TMC3    C5 5472   1.292   3.317  16.878 -0.0888  0.6038  0.6377
  362TMC3    C6 5473   1.312   3.301  17.016  0.0258  0.1801 -0.2466
  362TMC3     C 5474   1.584   3.151  16.734 -0.3454 -0.5159 -0.2390
  362TMC3     O 5475   1.565   3.190  16.616  0.3608 -0.0132  0.6449
  362TMC3     H 5476   1.611   3.164  17.010 -0.3796 -1.3436 -1.1378
  362TMC3    H1 5477   1.370   3.296  16.680  0.8084 -2.0029 -0.2499
  362TMC3    H2 5478   1.234   3.330  17.085  0.8349  1.3894  0.1627
  362TMC3    C7 5479   1.190   3.404  16.825  0.1131  0.8653 -0.5190
  362TMC3    C8 5480   1.440   3.213  17.191  0.0812  0.1539  0.3526
  362TMC3    O1 5481   1.151   3.493  16.896  0.1242 -0.1312  0.0223
  362TMC3    O2 5482   1.496   3.108  17.216  0.0957 -0.2871 -0.4079
  363TMC3    C1 5483   4.002   1.041   8.987 -0.1632  0.0483  0.5595
  363TMC3    C2 5484   4.098   1.039   9.080  0.3929  0.2822  0.6346
  363TMC3    C3 5485   4.090   1.122   9.191  0.2175  0.2963 -0.9232
  363TMC3    C4 5486   3.904   1.139   8.990 -0.1800 -0.2403 -0.6358
  363TMC3    C5 5487   3.894   1.217   9.098 -0.4124 -0.3863 -0.1165
  363TMC3    C6 5488   3.987   1.210   9.195 -0.0804 -0.2627 -0.1013
  363TMC3     C 5489   4.020   0.973   8.864  0.1546 -0.3498 -1.1695
  363TMC3     O 5490   4.133   0.931   8.845 -0.1188 -0.2041 -0.1615
  363TMC3     H 5491   4.180   0.968   9.076  1.4715  1.5849 -0.2970
  363TMC3    H1 5492   3.848   1.157   8.899 -2.2754 -1.4998  0.4060
  363TMC3    H2 5493   3.978   1.270   9.284  2.2691 -0.4872  0.2978
  363TMC3    C7 5494   3.769   1.289   9.127 -0.3621  0.1157 -0.3978
  363TMC3    C8 5495   4.200   1.140   9.293 -0.2041 -0.2792  0.2646
  363TMC3    O1 5496   3.772   1.363   9.223  0.2199  0.0550  0.3058
  363TMC3    O2 5497   4.179   1.233   9.369  0.2359  0.2239 -0.3386
  364MPD2     C 5498   4.322   4.595  10.447  0.8895  0.2639 -0.1801
  364MPD2    C1 5499   4.202   4.639  10.399 -0.7785  0.2157 -0.2930
  364MPD2    C2 5500   4.083   4.577  10.439  0.0211  0.5518 -0.5690
  364MPD2    C3 5501   4.083   4.477  10.533 -0.1265  0.4011 -0.1955
  364MPD2    C4 5502   4.200   4.433  10.583  0.0970 -0.2085 -0.3627
  364MPD2    C5 5503   4.322   4.488  10.534 -0.0321  0.6156 -0.1753
  364MPD2     H 5504   3.989   4.608  10.394 -0.8992 -1.3357  0.0275
  364MPD2    H1 5505   4.196   4.356  10.660  1.1739  0.9790  0.8975
  364MPD2    H2 5506   4.418   4.631  10.413  0.1550  2.9331  0.5916
  364MPD2    H3 5507   4.421   4.452  10.559  0.6630  0.3715 -3.2768
  364MPD2     N 5508   3.965   4.416  10.580 -0.7534 -0.8212  0.0984
  364MPD2    H5 5509   3.973   4.352  10.658 -0.4725 -1.1589 -0.2115
  364MPD2    N1 5510   4.217   0.010  10.314 -0.2304 -0.1842  0.3772
  364MPD2    H7 5511   4.308   0.036  10.278 -0.8511 -0.1168 -1.1500
  365TMC3    C1 5512   4.140   0.201  10.195 -0.5607 -0.3120 -0.3174
  365TMC3    C2 5513   4.194   0.173  10.071  0.0440  0.3390 -0.3207
  365TMC3    C3 5514   4.180   0.262   9.979  0.1458 -0.0872  0.4127
  365TMC3    C4 5515   4.081   0.317  10.230 -0.3660 -0.8252 -0.1770
  365TMC3    C5 5516   4.097   0.417  10.138 -0.5459 -0.0301  0.5101
  365TMC3    C6 5517   4.120   0.382  10.007 -0.0696 -0.5699 -0.0393
  365TMC3     C 5518   4.109   0.090  10.283  0.2527  0.0609 -0.7853
  365TMC3     O 5519   4.002   0.093  10.344 -0.1798 -0.2179 -0.2693
  365TMC3     H 5520   4.198   0.068  10.047 -0.2286  0.2679 -0.0613
  365TMC3    H1 5521   4.061   0.328  10.336  0.0405 -1.5975 -0.0240
  365TMC3    H2 5522   4.114   0.468   9.941  0.2736  0.8470  1.7424
  365TMC3    C7 5523   4.093   0.559  10.164  0.7614  0.5502  0.1739
  365TMC3    C8 5524   4.179   0.199   9.845 -0.1453 -0.1192  0.0413
  365TMC3    O1 5525   4.186   0.620  10.111  0.2553  0.8523  0.1368
  365TMC3    O2 5526   4.239   0.092   9.831 -0.0928  0.7806  0.0840
  366MPD2     C 5527   1.859   1.112  15.507  0.0326 -0.7791 -0.2029
  366MPD2    C1 5528   1.969   1.174  15.443 -0.8223  0.0455  0.1692
  366MPD2    C2 5529   2.055   1.089  15.370 -0.3439  1.5113  0.1688
  366MPD2    C3 5530   2.045   0.952  15.361  0.0195 -0.5997 -0.2052
  366MPD2    C4 5531   1.939   0.896  15.420  0.1128 -0.0017  0.0420
  366MPD2    C5 5532   1.844   0.976  15.488  0.1625 -0.4671  0.3947
  366MPD2     H 5533   2.139   1.137  15.321 -1.1942  2.1498 -0.6630
  366MPD2    H1 5534   1.925   0.789  15.411  1.6170 -0.2207  0.3062
  366MPD2    H2 5535   1.783   1.175  15.551  1.1265  0.7197 -0.4317
  366MPD2    H3 5536   1.765   0.920  15.536  1.5397 -0.6781  2.4649
  366MPD2     N 5537   2.152   0.881  15.308  0.4551  0.2408  0.5912
  366MPD2    H5 5538   2.220   0.931  15.253 -3.0211  0.6010 -3.3393
  366MPD2    N1 5539   2.010   1.309  15.455  0.1640 -0.0853 -0.2689
  366MPD2    H7 5540   2.082   1.339  15.390  0.0910  2.8981  1.0283
  367TMC3    C1 5541   2.025   1.525  15.526 -0.4842  0.1309 -0.3367
  367TMC3    C2 5542   2.097   1.586  15.627  0.4348  0.5183  0.0888
  367TMC3    C3 5543   2.120   1.722  15.613  0.9008  0.4912 -0.9001
  367TMC3    C4 5544   1.981   1.600  15.425 -0.7795 -0.4384  0.0642
  367TMC3    C5 5545   2.006   1.731  15.415 -0.7919 -0.7530  0.3898
  367TMC3    C6 5546   2.081   1.794  15.507 -0.1112  0.2233 -0.1676
  367TMC3     C 5547   1.965   1.399  15.544 -0.6526 -0.1854  0.0652
  367TMC3     O 5548   1.907   1.384  15.647  0.2478 -0.5175  0.4200
  367TMC3     H 5549   2.156   1.527  15.697 -0.4485  0.8334  1.1017
  367TMC3    H1 5550   1.929   1.546  15.347  1.3702  1.3767 -2.6315
  367TMC3    H2 5551   2.101   1.900  15.503  1.8168 -0.0827  1.2860
  367TMC3    C7 5552   1.933   1.817  15.316  0.1708 -0.2239  0.2947
  367TMC3    C8 5553   2.218   1.779  15.706 -0.5590  0.4036  0.5426
  367TMC3    O1 5554   1.987   1.922  15.289 -0.4616  0.1350 -0.4720
  367TMC3    O2 5555   2.295   1.698  15.757 -0.1783 -0.7577 -0.3490
  368MPD2     C 5556   3.254   3.110  13.160 -0.0490 -0.2273 -0.2651
  368MPD2    C1 5557   3.231   3.223  13.084 -0.2064 -0.0149  0.7455
  368MPD2    C2 5558   3.335   3.279  13.022  0.1817  0.0712  0.0029
  368MPD2    C3 5559   3.464   3.229  13.026 -1.2527  0.4449  0.5416
  368MPD2    C4 5560   3.480   3.120  13.103  0.1404 -0.4349  0.2847
  368MPD2    C5 5561   3.381   3.060  13.173  0.4552  0.0459  1.0575
  368MPD2     H 5562   3.316   3.379  12.983 -2.0435 -1.3048 -2.4150
  368MPD2    H1 5563   3.581   3.087  13.126  0.1485 -1.1414 -0.7891
  368MPD2    H2 5564   3.180   3.046  13.205  1.1442 -1.2062  0.3183
  368MPD2    H3 5565   3.399   2.961  13.212 -0.3553 -0.7058 -0.4633
  368MPD2     N 5566   3.574   3.301  12.967  0.6619 -0.4250 -0.2327
  368MPD2    H5 5567   3.667   3.282  13.002  0.7901 -0.4461 -0.5787
  368MPD2    N1 5568   3.102   3.289  13.082 -0.2466  0.2290  0.1825
  368MPD2    H7 5569   3.092   3.366  13.016 -0.8233 -0.3015 -0.3500
  369TMC3    C1 5570   2.883   3.334  13.103  0.0511  0.4604 -0.3318
  369TMC3    C2 5571   2.914   3.464  13.077  0.8283 -0.4551  0.9737
  369TMC3    C3 5572   2.802   3.541  13.053  0.7477 -0.3849  0.2531
  369TMC3    C4 5573   2.754   3.280  13.127 -0.7377 -0.2838  0.4703
  369TMC3    C5 5574   2.657   3.364  13.108 -0.0219  0.4235 -0.1383
  369TMC3    C6 5575   2.682   3.495  13.071 -0.1941 -0.8849  0.0040
  369TMC3     C 5576   2.991   3.249  13.146 -0.4314 -0.6032 -0.3915
  369TMC3     O 5577   2.965   3.152  13.210  0.4609  0.1076 -0.0844
  369TMC3     H 5578   3.012   3.504  13.100  1.7204 -0.3314 -3.1510
  369TMC3    H1 5579   2.735   3.176  13.152 -0.9314  0.0833  1.8649
  369TMC3    H2 5580   2.600   3.567  13.069  0.9881  0.4256 -1.0317
  369TMC3    C7 5581   2.528   3.323  13.152  1.1035  0.3172 -0.7088
  369TMC3    C8 5582   2.818   3.684  13.035 -0.3438 -0.6290 -0.0246
  369TMC3    O1 5583   2.529   3.220  13.217  0.2175 -0.5048  0.1063
  369TMC3    O2 5584   2.720   3.756  13.024  0.6094  0.5361  0.1033
  370TMC3    C1 5585   2.613   3.626  15.920 -0.0205  0.0327  0.8772
  370TMC3    C2 5586   2.514   3.624  16.013  0.0037 -0.5712  0.3955
  370TMC3    C3 5587   2.412   3.532  16.006  0.1044  0.0432  0.9858
  370TMC3    C4 5588   2.623   3.533  15.819 -0.9310 -0.0527 -0.1398
  370TMC3    C5 5589   2.521   3.452  15.808 -0.0392 -0.3457  0.4872
  370TMC3    C6 5590   2.413   3.447  15.895  0.1074  0.0016 -0.9015
  370TMC3     C 5591   2.737   3.678  15.958  0.2929 -1.0660 -0.5043
  370TMC3     O 5592   2.832   3.603  15.947 -0.5087  0.4143 -0.2258
  370TMC3     H 5593   2.526   3.691  16.098  1.5187 -0.4451  0.0793
  370TMC3    H1 5594   2.700   3.556  15.747 -1.8533  0.4536 -0.9620
  370TMC3    H2 5595   2.338   3.368  15.889  2.7219 -2.4710 -0.9666
  370TMC3    C7 5596   2.557   3.339  15.727  0.2468 -0.8913 -0.3296
  370TMC3    C8 5597   2.404   3.473  16.134 -0.3310  0.0003  0.3618
  370TMC3    O1 5598   2.465   3.279  15.665 -0.5076 -0.1355 -0.6458
  370TMC3    O2 5599   2.461   3.370  16.149  0.2558  0.1634 -0.0479
  371TMC3    C1 5600   4.018   1.873  15.641 -0.4197  0.5361  0.1318
  371TMC3    C2 5601   3.908   1.891  15.720  0.0950  0.6344  0.1583
  371TMC3    C3 5602   3.857   2.013  15.725 -0.7196  0.2581 -0.2234
  371TMC3    C4 5603   4.081   1.976  15.569  0.0280 -0.0922  0.4208
  371TMC3    C5 5604   4.025   2.098  15.579  0.3204 -0.4911  0.1093
  371TMC3    C6 5605   3.909   2.116  15.654 -0.2845  0.3517  0.3538
  371TMC3     C 5606   4.083   1.741  15.638 -0.5622 -1.2664  0.6236
  371TMC3     O 5607   4.192   1.736  15.582 -0.1943  0.6332 -0.0163
  371TMC3     H 5608   3.864   1.809  15.777 -0.5323  0.0084 -1.2131
  371TMC3    H1 5609   4.184   1.960  15.539 -0.8019 -0.1214 -2.3923
  371TMC3    H2 5610   3.854   2.210  15.647 -0.9002  0.0230  0.7486
  371TMC3    C7 5611   4.085   2.203  15.499 -0.3273 -0.3683  0.0804
  371TMC3    C8 5612   3.712   2.016  15.745  0.5448 -0.0515  0.1678
  371TMC3    O1 5613   4.058   2.322  15.528 -0.0360 -0.4889 -0.0771
  371TMC3    O2 5614   3.650   1.912  15.727  0.6683  0.1611 -0.1220
  372MPD2     C 5615   3.470   3.453  13.345  0.4485  0.3834  0.6477
  372MPD2    C1 5616   3.592   3.401  13.388  0.5081 -0.0743  0.0159
  372MPD2    C2 5617   3.597   3.283  13.465 -0.0596  0.6704  0.6055
  372MPD2    C3 5618   3.479   3.220  13.498 -0.2149  0.2389 -0.0437
  372MPD2    C4 5619   3.355   3.272  13.460  0.1543 -0.2415  0.0435
  372MPD2    C5 5620   3.355   3.386  13.382 -0.1191 -0.3068 -0.3085
  372MPD2     H 5621   3.691   3.235  13.490  0.1044 -0.0397 -1.3294
  372MPD2    H1 5622   3.263   3.216  13.471 -1.4696  2.1037 -1.7330
  372MPD2    H2 5623   3.460   3.533  13.272 -1.1387  1.1399  1.6954
  372MPD2    H3 5624   3.263   3.420  13.335 -0.0437 -0.4231 -0.5408
  372MPD2     N 5625   3.490   3.085  13.542 -0.6343 -0.1052 -0.1727
  372MPD2    H5 5626   3.584   3.049  13.537  0.2000  1.9287  0.8041
  372MPD2    N1 5627   3.715   3.474  13.393  0.5593 -0.5917  0.1599
  372MPD2    H7 5628   3.791   3.436  13.449  1.2709 -0.9939 -1.0612
  373TMC3    C1 5629   3.438   2.873  13.628 -0.1312 -0.0362  0.8136
  373TMC3    C2 5630   3.345   2.787  13.693 -0.0190  0.9451 -0.5718
  373TMC3    C3 5631   3.357   2.653  13.681 -0.1175 -0.1149  0.4688
  373TMC3    C4 5632   3.549   2.823  13.568  0.2317 -0.3636 -0.5573
  373TMC3    C5 5633   3.562   2.684  13.573  0.1735 -0.3323 -0.2662
  373TMC3    C6 5634   3.472   2.598  13.629 -0.0407 -0.2938 -0.4252
  373TMC3     C 5635   3.392   3.012  13.597  0.4503 -0.3597 -0.2760
  373TMC3     O 5636   3.274   3.039  13.620  0.5070 -0.3299  0.6438
  373TMC3     H 5637   3.259   2.834  13.740 -1.2402 -0.8353 -1.0092
  373TMC3    H1 5638   3.626   2.880  13.517 -0.6032  0.7759 -0.5379
  373TMC3    H2 5639   3.468   2.490  13.631 -0.3404 -0.2441  1.5273
  373TMC3    C7 5640   3.686   2.617  13.558  0.0304  0.0795 -0.2191
  373TMC3    C8 5641   3.333   2.589  13.811  0.6755  0.2893  0.0862
  373TMC3    O1 5642   3.698   2.515  13.491  0.0216  0.2661  0.4161
  373TMC3    O2 5643   3.314   2.467  13.812  0.8428  0.2574 -0.1764
  374TMC3    C1 5644   3.417   4.086   9.536  0.0421 -0.8615 -0.2281
  374TMC3    C2 5645   3.531   4.162   9.527 -0.1939  0.0949  0.0952
  374TMC3    C3 5646   3.528   4.250   9.425  0.1967 -0.3076 -0.2926
  374TMC3    C4 5647   3.310   4.106   9.453  0.5305 -1.1856 -0.3085
  374TMC3    C5 5648   3.318   4.191   9.348 -1.3178  0.0722 -0.5665
  374TMC3    C6 5649   3.437   4.265   9.320 -0.6271 -0.0505 -1.3390
  374TMC3     C 5650   3.388   3.987   9.645 -0.6405 -0.7975 -0.6832
  374TMC3     O 5651   3.267   3.958   9.655 -0.4247  0.3384  0.3982
  374TMC3     H 5652   3.590   4.172   9.618  1.1610  1.3599 -0.9370
  374TMC3    H1 5653   3.217   4.050   9.457  0.2389 -0.6903 -0.1511
  374TMC3    H2 5654   3.454   4.328   9.233 -0.4422  0.6523 -0.7926
  374TMC3    C7 5655   3.214   4.202   9.249 -1.0285 -0.8741 -0.4233
  374TMC3    C8 5656   3.645   4.349   9.412 -0.5391 -0.0856 -0.8773
  374TMC3    O1 5657   3.248   4.233   9.133  0.1181 -0.1978 -0.3336
  374TMC3    O2 5658   3.649   4.438   9.332  0.2846 -0.7296  0.6482
  375MPD2     C 5659   4.168   3.578  17.053  0.4485  0.0040  0.1778
  375MPD2    C1 5660   4.118   3.661  16.960 -0.7450  0.0936  0.6844
  375MPD2    C2 5661   4.130   3.621  16.825 -0.2146 -0.1725  0.5864
  375MPD2    C3 5662   4.182   3.503  16.783  0.8765 -0.8169 -0.0178
  375MPD2    C4 5663   4.227   3.417  16.875  0.7403 -0.1830  0.0327
  375MPD2    C5 5664   4.216   3.459  17.014 -0.4624 -0.2116 -0.4784
  375MPD2     H 5665   4.095   3.692  16.750  0.3499 -0.9520 -0.4051
  375MPD2    H1 5666   4.260   3.317  16.851 -1.8151 -0.7355 -1.0496
  375MPD2    H2 5667   4.174   3.611  17.156  2.7688  0.7816 -0.2106
  375MPD2    H3 5668   4.260   3.396  17.091  1.1909  2.3126  0.6295
  375MPD2     N 5669   4.210   3.470  16.652 -0.3983  0.4761 -0.0189
  375MPD2    H5 5670   4.266   3.386  16.637  2.6441  2.1238  2.1023
  375MPD2    N1 5671   4.060   3.792  16.984  0.4492  0.4549  0.3455
  375MPD2    H7 5672   4.012   3.842  16.910  0.0398 -4.1661 -2.4915
  376TMC3    C1 5673   4.214   3.491  16.418 -0.3452 -0.1599 -0.5334
  376TMC3    C2 5674   4.348   3.472  16.418 -0.2601 -0.0564  0.1700
  376TMC3    C3 5675   4.402   3.452  16.297  0.1765 -0.4273 -0.0776
  376TMC3    C4 5676   4.139   3.493  16.307  0.4845 -0.2482  0.4027
  376TMC3    C5 5677   4.193   3.475  16.181  0.0722 -0.4258  0.5640
  376TMC3    C6 5678   4.331   3.456  16.183 -0.1071 -0.5623 -0.2978
  376TMC3     C 5679   4.156   3.539  16.543  0.4531  0.3464 -0.3976
  376TMC3     O 5680   4.054   3.601  16.526  0.3159 -0.1264  0.2485
  376TMC3     H 5681   4.409   3.496  16.503 -2.0715 -0.0896  1.4795
  376TMC3    H1 5682   4.030   3.491  16.311  0.5361 -0.4631  1.6757
  376TMC3    H2 5683   4.374   3.450  16.084 -1.1985  0.0779 -0.8106
  376TMC3    C7 5684   4.141   3.546  16.070 -0.3309  0.6246  1.0230
  376TMC3    C8 5685   4.549   3.448  16.280 -0.5154  0.4555 -0.3556
  376TMC3    O1 5686   4.222   3.606  15.998  0.7682 -0.3237 -0.5774
  376TMC3    O2 5687   4.581   3.491  16.168  0.1655  0.5046  0.8824
  377MPD2     C 5688   1.772   4.118  12.878  0.4940  0.0553  0.2452
  377MPD2    C1 5689   1.861   4.033  12.937  0.3738 -0.1431  0.7600
  377MPD2    C2 5690   1.816   3.951  13.040 -0.0225  0.0011 -0.1452
  377MPD2    C3 5691   1.685   3.950  13.083  0.6154 -0.4086 -0.6088
  377MPD2    C4 5692   1.601   4.051  13.026 -0.0479 -0.7074  0.5494
  377MPD2    C5 5693   1.640   4.127  12.921 -0.2772 -0.1378  0.1809
  377MPD2     H 5694   1.887   3.885  13.089  0.3894  1.4531  1.2170
  377MPD2    H1 5695   1.499   4.050  13.062  0.4083  0.0850  1.8464
  377MPD2    H2 5696   1.806   4.182  12.797 -0.2519  0.9190  0.6231
  377MPD2    H3 5697   1.567   4.188  12.871  1.3166  1.5485 -0.0857
  377MPD2     N 5698   1.634   3.855  13.176  0.5185  0.4544 -0.9193
  377MPD2    H5 5699   1.537   3.859  13.206  1.0270  0.0883  0.8209
  377MPD2    N1 5700   1.987   4.015  12.875 -0.3808  0.1603 -0.0149
  377MPD2    H7 5701   1.999   4.068  12.789 -0.5811  0.1887 -0.0251
  378TMC3    C1 5702   2.252   3.904  12.585  0.5774 -0.0420  0.5113
  378TMC3    C2 5703   2.171   3.953  12.689  0.6755  0.2844 -0.2196
  378TMC3    C3 5704   2.177   3.901  12.816 -0.0994 -0.6917  0.5173
  378TMC3    C4 5705   2.327   3.794  12.620  0.1022 -0.0492  0.6958
  378TMC3    C5 5706   2.340   3.752  12.747 -0.0949 -0.3549 -0.6079
  378TMC3    C6 5707   2.269   3.806  12.849  0.6713 -0.9906  0.1845
  378TMC3     C 5708   2.214   3.931  12.448 -0.5364  0.2231 -0.2751
  378TMC3     O 5709   2.104   3.985  12.435  0.0315  0.5385  0.5688
  378TMC3     H 5710   2.116   4.045  12.670  1.4161  0.9772  0.9575
  378TMC3    H1 5711   2.357   3.727  12.541 -1.5845  1.0458 -0.8560
  378TMC3    H2 5712   2.262   3.755  12.944 -2.2989 -0.9072  0.0219
  378TMC3    C7 5713   2.456   3.659  12.777 -0.1772 -0.5052  0.2496
  378TMC3    C8 5714   2.085   3.929  12.917  0.5038 -0.3909  0.1110
  378TMC3    O1 5715   2.449   3.605  12.888  0.2861  0.2232 -0.0181
  378TMC3    O2 5716   2.077   3.844  13.005 -0.3667  0.1766  0.0352
  379MPD2     C 5717   3.361   1.989  16.199  0.3727  0.0442  0.4780
  379MPD2    C1 5718   3.286   1.943  16.307  0.7540  0.1971 -0.2194
  379MPD2    C2 5719   3.357   1.886  16.407  0.6906 -0.5669  0.5085
  379MPD2    C3 5720   3.496   1.879  16.404  0.0794 -0.1625  0.4032
  379MPD2    C4 5721   3.568   1.928  16.297 -0.3386  0.2693 -0.7774
  379MPD2    C5 5722   3.497   1.993  16.201 -0.3050 -0.4827  0.0216
  379MPD2     H 5723   3.301   1.839  16.487 -0.1343 -0.8260 -0.2281
  379MPD2    H1 5724   3.677   1.931  16.289 -0.2206  0.6550  1.1102
  379MPD2    H2 5725   3.307   2.032  16.116 -1.7066 -1.8028  0.8574
  379MPD2    H3 5726   3.557   2.038  16.123 -2.2578 -0.1790 -1.3122
  379MPD2     N 5727   3.561   1.802  16.509  0.0749 -0.2722 -0.4157
  379MPD2    H5 5728   3.502   1.743  16.567 -1.2665 -0.9230 -2.4627
  379MPD2    N1 5729   3.150   1.928  16.286 -0.2219 -0.1614  0.3926
  379MPD2    H7 5730   3.123   1.961  16.194 -2.9336  1.0163  1.6031
  380TMC3    C1 5731   2.941   1.831  16.296  0.5228  0.2963 -0.4593
  380TMC3    C2 5732   2.967   1.717  16.224 -0.5791 -0.5016  0.3844
  380TMC3    C3 5733   2.917   1.702  16.094 -0.1597  0.1280 -0.1950
  380TMC3    C4 5734   2.872   1.936  16.236  0.3906  0.1651 -0.4731
  380TMC3    C5 5735   2.809   1.916  16.112  0.4811  0.3248 -0.3270
  380TMC3    C6 5736   2.834   1.798  16.042 -0.5708  0.3849 -0.5679
  380TMC3     C 5737   3.062   1.858  16.363 -0.3923 -0.2371 -0.5380
  380TMC3     O 5738   3.078   1.803  16.474  0.2369  0.5140  0.4150
  380TMC3     H 5739   3.048   1.655  16.261  0.5012  1.0033  0.5341
  380TMC3    H1 5740   2.845   2.022  16.297 -1.1503 -0.8597  0.2933
  380TMC3    H2 5741   2.803   1.784  15.939 -0.1265 -3.4254 -0.1875
  380TMC3    C7 5742   2.727   2.020  16.053  0.3903 -0.4677  0.3398
  380TMC3    C8 5743   3.011   1.656  15.990  0.1764 -0.1803  0.0708
  380TMC3    O1 5744   2.748   2.133  16.089  0.7781 -0.3918 -0.1596
  380TMC3    O2 5745   2.967   1.663  15.874 -0.9520  0.0997  0.2373
  381TMC3    C1 5746   2.632   2.687  16.105 -0.1436 -0.1029 -0.3259
  381TMC3    C2 5747   2.643   2.818  16.057 -0.5735 -0.3444 -0.4123
  381TMC3    C3 5748   2.628   2.921  16.141 -0.3962  0.0722 -0.1579
  381TMC3    C4 5749   2.605   2.661  16.233 -0.3014  0.5927 -0.3157
  381TMC3    C5 5750   2.597   2.767  16.320  0.1756 -0.9335  0.1271
  381TMC3    C6 5751   2.597   2.896  16.276  0.3207  0.0422  0.0964
  381TMC3     C 5752   2.641   2.578  16.019  0.3108 -0.2282  0.1486
  381TMC3     O 5753   2.640   2.467  16.065  0.3728  0.3130  0.2266
  381TMC3     H 5754   2.674   2.854  15.959  1.3867  2.4978  1.2624
  381TMC3    H1 5755   2.592   2.556  16.258 -0.7710  0.7632  0.1607
  381TMC3    H2 5756   2.601   2.980  16.344  0.8234  1.0282 -1.1552
  381TMC3    C7 5757   2.588   2.732  16.462  1.0426  0.0294  0.6617
  381TMC3    C8 5758   2.730   3.030  16.125  0.1686  0.0358  0.0848
  381TMC3    O1 5759   2.624   2.621  16.489  0.4295  0.3399 -0.1248
  381TMC3    O2 5760   2.818   2.992  16.052  0.5073 -0.3992 -0.2355
  382MPD2     C 5761   2.306   0.544  16.656  0.4842 -0.2709  0.5863
  382MPD2    C1 5762   2.265   0.555  16.784  0.7228  0.3804 -0.1166
  382MPD2    C2 5763   2.248   0.444  16.866  0.1014 -1.0008 -0.4833
  382MPD2    C3 5764   2.275   0.316  16.821  0.2902  0.1668 -0.0648
  382MPD2    C4 5765   2.318   0.301  16.688 -0.1512 -0.4828 -0.5321
  382MPD2    C5 5766   2.338   0.415  16.615  0.6508 -0.0677 -0.3949
  382MPD2     H 5767   2.199   0.459  16.962  0.2669 -2.7365 -0.1200
  382MPD2    H1 5768   2.320   0.205  16.637 -2.1220 -0.3377 -0.8889
  382MPD2    H2 5769   2.315   0.625  16.584 -1.9420  1.0523  1.7910
  382MPD2    H3 5770   2.362   0.405  16.510 -0.4213  1.4841 -0.7804
  382MPD2     N 5771   2.249   0.201  16.904 -0.7281  0.1789 -0.2137
  382MPD2    H5 5772   2.245   0.109  16.861 -4.0612  0.6034 -0.7998
  382MPD2    N1 5773   2.235   0.674  16.842  0.3220 -0.0583  0.1979
  382MPD2    H7 5774   2.217   0.680  16.942 -0.4486  1.3992 -0.0279
  383TMC3    C1 5775   2.162   0.090  17.091  0.3634  0.2638  0.7809
  383TMC3    C2 5776   2.076   0.016  17.022  1.0672 -0.1418  0.7024
  383TMC3    C3 5777   2.015   4.651  17.084  0.3000 -0.1096 -0.1533
  383TMC3    C4 5778   2.171   0.071  17.224 -0.1045 -0.2894  0.3124
  383TMC3    C5 5779   2.110   4.707  17.287  0.0459 -0.0454 -0.3364
  383TMC3    C6 5780   2.025   4.620  17.215 -0.4210  0.4926  0.1148
  383TMC3     C 5781   2.226   0.208  17.038 -0.5178 -0.2059  0.4036
  383TMC3     O 5782   2.233   0.301  17.114 -0.2111  0.2527 -0.4248
  383TMC3     H 5783   2.047   0.040  16.920  1.8626 -1.3434  0.2033
  383TMC3    H1 5784   2.224   0.140  17.288 -1.9863  0.7939  0.6908
  383TMC3    H2 5785   1.963   4.550  17.269 -1.4683  1.5664  0.2902
  383TMC3    C7 5786   2.092   4.723  17.429  0.0788 -0.2051  0.9476
  383TMC3    C8 5787   1.930   4.557  17.008  0.6858  0.2210  0.1556
  383TMC3    O1 5788   2.102   0.095  17.478 -0.3181 -0.7253 -0.0986
  383TMC3    O2 5789   1.878   4.597  16.905  0.2504  0.3390 -0.1319
  384MPD2     C 5790   3.109   1.929  11.773 -0.8622 -0.4321  0.5224
  384MPD2    C1 5791   3.125   1.812  11.843  0.2784  0.3860 -0.0329
  384MPD2    C2 5792   3.196   1.713  11.782  0.0336  0.0837 -0.4540
  384MPD2    C3 5793   3.265   1.737  11.662  0.5869 -0.4920 -0.2522
  384MPD2    C4 5794   3.247   1.851  11.595 -0.1872 -0.0045 -0.2809
  384MPD2    C5 5795   3.169   1.944  11.646  0.3266  0.0396 -0.5029
  384MPD2     H 5796   3.228   1.622  11.831  0.5547  0.1664 -0.6395
  384MPD2    H1 5797   3.288   1.884  11.500  0.2629  2.4135  0.7528
  384MPD2    H2 5798   3.051   2.010  11.814  0.8628  0.1780  1.7721
  384MPD2    H3 5799   3.159   2.034  11.587 -1.7467 -0.7139 -1.3163
  384MPD2     N 5800   3.354   1.645  11.596 -0.9191  0.3858  0.7574
  384MPD2    H5 5801   3.406   1.674  11.514  1.0045 -1.6797  1.2523
  384MPD2    N1 5802   3.076   1.805  11.976 -0.3887 -0.1980  0.5850
  384MPD2    H7 5803   3.052   1.891  12.025 -0.7123 -0.1787  0.3879
  385TMC3    C1 5804   3.494   1.460  11.586 -0.2901 -0.0722 -0.0343
  385TMC3    C2 5805   3.474   1.320  11.559 -1.0949 -0.0090  0.2222
  385TMC3    C3 5806   3.565   1.235  11.618 -0.2284  0.1604 -0.5754
  385TMC3    C4 5807   3.605   1.500  11.669 -0.0633 -0.5876 -0.2968
  385TMC3    C5 5808   3.668   1.402  11.736 -0.5878 -0.9358 -0.1542
  385TMC3    C6 5809   3.655   1.269  11.717  0.5120  0.1944  0.2865
  385TMC3     C 5810   3.372   1.519  11.641  0.2085  0.6412  1.0797
  385TMC3     O 5811   3.316   1.455  11.727  0.1371 -0.2217  0.3269
  385TMC3     H 5812   3.396   1.292  11.489 -0.2876  0.8584 -1.0252
  385TMC3    H1 5813   3.602   1.607  11.687 -0.6285 -0.4931 -0.9588
  385TMC3    H2 5814   3.707   1.189  11.768 -0.8702 -0.7148  0.2721
  385TMC3    C7 5815   3.678   1.442  11.874  0.3867  0.2661  0.6076
  385TMC3    C8 5816   3.570   1.099  11.586 -0.0556  0.0592  0.7790
  385TMC3    O1 5817   3.649   1.561  11.902 -0.2497  0.0812 -1.0895
  385TMC3    O2 5818   3.617   1.015  11.658 -0.3177 -0.0005  0.4599
  386TMC3    C1 5819   3.467   4.298  11.957  0.3320  0.0223 -0.3484
  386TMC3    C2 5820   3.454   4.374  11.843  0.0426 -0.7095  0.3136
  386TMC3    C3 5821   3.343   4.457  11.839 -0.3358 -0.0178  0.5894
  386TMC3    C4 5822   3.386   4.320  12.072 -0.3468 -0.3292  0.2719
  386TMC3    C5 5823   3.291   4.417  12.060 -0.4667  0.3302  0.1209
  386TMC3    C6 5824   3.263   4.479  11.946  0.0680  0.5509 -0.4319
  386TMC3     C 5825   3.582   4.211  11.969 -0.3592 -0.8023  0.2672
  386TMC3     O 5826   3.691   4.252  11.925 -0.7819 -0.2583 -0.3543
  386TMC3     H 5827   3.530   4.371  11.765  0.8703 -1.1818  1.1401
  386TMC3    H1 5828   3.407   4.270  12.166 -0.5619 -0.4658  0.2474
  386TMC3    H2 5829   3.177   4.544  11.931 -0.8052 -0.6049 -0.3996
  386TMC3    C7 5830   3.237   4.466  12.190  0.1210  0.5658  0.0854
  386TMC3    C8 5831   3.281   4.470  11.712  0.6776  0.2360 -0.2918
  386TMC3    O1 5832   3.243   4.392  12.293 -0.3162  0.0562  0.7650
  386TMC3    O2 5833   3.205   4.561  11.685 -0.4148  0.0302  0.1760
  387MPD2     C 5834   0.836   4.441   9.806  0.1951 -0.6094  0.1425
  387MPD2    C1 5835   0.885   4.414   9.934 -0.1432 -0.1272  0.7210
  387MPD2    C2 5836   0.889   4.286   9.979  0.1735 -0.0183 -0.4246
  387MPD2    C3 5837   0.847   4.176   9.902 -0.4340 -0.5164 -0.1674
  387MPD2    C4 5838   0.789   4.202   9.779 -0.3751 -0.1201 -0.2635
  387MPD2    C5 5839   0.788   4.335   9.730 -1.0057  0.1047  0.0994
  387MPD2     H 5840   0.931   4.267  10.077  2.2925 -2.1948 -1.7498
  387MPD2    H1 5841   0.768   4.123   9.708 -3.1421  2.0563 -1.8768
  387MPD2    H2 5842   0.836   4.540   9.763  0.9207 -1.7474 -2.4747
  387MPD2    H3 5843   0.738   4.352   9.635  1.4513 -0.2989 -1.2721
  387MPD2     N 5844   0.882   4.046   9.953 -0.5380 -0.0140 -0.5585
  387MPD2    H5 5845   0.927   4.042  10.044 -0.8117  1.9412 -0.3392
  387MPD2    N1 5846   0.952   4.516  10.004  0.2065 -0.4779 -0.3374
  387MPD2    H7 5847   1.017   4.488  10.077 -0.1393  1.3353  0.6555
  388TMC3    C1 5848   1.080   4.694  10.063  0.2604 -0.2695 -0.3282
  388TMC3    C2 5849   1.083   0.093  10.096 -0.2895 -0.3672  0.4059
  388TMC3    C3 5850   1.166   0.130  10.200  0.5988 -1.2914  0.2686
  388TMC3    C4 5851   1.156   4.605  10.130 -0.1146 -0.0289 -0.4204
  388TMC3    C5 5852   1.223   4.649  10.242  0.0739 -0.2933  0.6681
  388TMC3    C6 5853   1.235   0.041  10.284  0.2295 -0.0045 -0.0443
  388TMC3     C 5854   0.976   4.648   9.977  0.3694  0.1711  0.2562
  388TMC3     O 5855   0.911   4.722   9.906 -0.8266 -0.4968 -0.3696
  388TMC3     H 5856   1.042   0.162  10.024 -0.2211  1.0135  1.7041
  388TMC3    H1 5857   1.170   4.510  10.081 -0.1354 -0.8716  1.2061
  388TMC3    H2 5858   1.284   0.074  10.375  0.5467  1.2004 -0.6483
  388TMC3    C7 5859   1.305   4.558  10.322  0.5044 -0.6830 -0.7203
  388TMC3    C8 5860   1.159   0.268  10.240  0.0348  0.8507  0.5419
  388TMC3    O1 5861   1.393   4.601  10.393  0.0795  0.9040 -0.1303
  388TMC3    O2 5862   1.232   0.297  10.332 -0.0237  0.4876 -0.9579
  389MPD2     C 5863   0.456   2.033  10.790  0.5670 -0.0211 -0.0401
  389MPD2    C1 5864   0.495   2.148  10.847  0.3484 -0.0687  0.3296
  389MPD2    C2 5865   0.463   2.169  10.978 -0.4999  0.3835  0.5845
  389MPD2    C3 5866   0.368   2.085  11.039  0.4436 -0.1175 -0.8389
  389MPD2    C4 5867   0.331   1.979  10.971 -0.0439  0.2069 -0.5155
  389MPD2    C5 5868   0.373   1.944  10.848 -0.0557 -0.9149  0.5708
  389MPD2     H 5869   0.510   2.244  11.041 -0.0832  0.5987  0.0264
  389MPD2    H1 5870   0.255   1.915  11.015 -0.5258 -0.4090 -2.2323
  389MPD2    H2 5871   0.476   2.009  10.686  1.9800  1.8066 -0.2080
  389MPD2    H3 5872   0.337   1.851  10.805 -0.0006 -1.2523  1.2399
  389MPD2     N 5873   0.318   2.106  11.167 -0.3513  0.1542  0.3712
  389MPD2    H5 5874   0.273   2.026  11.211 -1.3507 -0.3266 -1.5499
  389MPD2    N1 5875   0.563   2.239  10.763 -0.0500 -0.1356 -0.0721
  389MPD2    H7 5876   0.569   2.223  10.663 -1.0923  0.2082 -0.1896
  390TMC3    C1 5877   0.275   2.209  11.372 -0.5656  0.4065  0.2356
  390TMC3    C2 5878   0.201   2.096  11.404  0.6135 -0.2144 -0.0617
  390TMC3    C3 5879   0.178   2.062  11.538 -0.2062  1.4282  0.5393
  390TMC3    C4 5880   0.332   2.286  11.471 -0.0126  0.2342  0.1673
  390TMC3    C5 5881   0.310   2.251  11.601 -0.5837  0.7268 -0.0423
  390TMC3    C6 5882   0.229   2.143  11.636 -0.2152  0.3844 -0.6437
  390TMC3     C 5883   0.343   2.224  11.244 -0.6311  0.1680  1.2157
  390TMC3     O 5884   0.402   2.330  11.216 -0.3156 -0.6162  0.1285
  390TMC3     H 5885   0.137   2.038  11.338  0.8392 -0.7080  0.1508
  390TMC3    H1 5886   0.403   2.366  11.452  1.5397 -1.3808 -0.9687
  390TMC3    H2 5887   0.199   2.132  11.740 -2.9997  0.8143 -1.3949
  390TMC3    C7 5888   0.393   2.315  11.699  0.1792  0.2381 -0.5096
  390TMC3    C8 5889   0.094   1.946  11.563 -0.2829  0.2498 -0.1652
  390TMC3    O1 5890   0.454   2.421  11.677 -0.1453 -0.3658  0.0639
  390TMC3    O2 5891   0.079   1.863  11.472 -0.2308  0.1086  0.0574
  391MPD2     C 5892   4.124   3.827  10.790  0.9516 -1.0679 -0.1228
  391MPD2    C1 5893   4.243   3.900  10.781  0.4052  0.2821 -0.1492
  391MPD2    C2 5894   4.249   4.000  10.683  0.3462  0.5554  0.1619
  391MPD2    C3 5895   4.146   4.025  10.601 -0.2194  0.1401 -0.6038
  391MPD2    C4 5896   4.022   3.964  10.618  0.0501  0.6770 -0.5641
  391MPD2    C5 5897   4.012   3.862  10.708  0.0563 -0.3834 -0.5161
  391MPD2     H 5898   4.338   4.059  10.665 -1.1259  1.9786 -2.4885
  391MPD2    H1 5899   3.946   3.981  10.542 -2.6995 -1.7994  1.6268
  391MPD2    H2 5900   4.106   3.761  10.874  0.0017  2.1574  2.2112
  391MPD2    H3 5901   3.916   3.815  10.723  0.8037 -1.7840 -0.1075
  391MPD2     N 5902   4.167   4.119  10.496  0.4566 -0.0608  0.3246
  391MPD2    H5 5903   4.263   4.152  10.491  0.5560 -0.5599 -1.0496
  391MPD2    N1 5904   4.348   3.867  10.860 -0.6343 -0.1759 -0.4878
  391MPD2    H7 5905   4.338   3.780  10.911  1.3682  0.5111  1.0860
  392TMC3    C1 5906   4.121   4.249  10.294 -0.2795  0.1991  0.3797
  392TMC3    C2 5907   4.030   4.292  10.199  0.2498  0.5777  0.4281
  392TMC3    C3 5908   4.079   4.367  10.093 -0.4566  1.2310 -0.1798
  392TMC3    C4 5909   4.253   4.278  10.290 -1.0300 -0.2875 -0.1455
  392TMC3    C5 5910   4.297   4.351  10.177  0.5382 -0.3918  0.6443
  392TMC3    C6 5911   4.215   4.395  10.081 -0.2992 -0.4519 -0.0904
  392TMC3     C 5912   4.075   4.161  10.400 -0.5125 -0.3708  0.0295
  392TMC3     O 5913   3.952   4.159  10.409  0.3337  0.3056 -0.1733
  392TMC3     H 5914   3.924   4.297  10.222 -0.1172 -0.0371 -1.1587
  392TMC3    H1 5915   4.327   4.253  10.365 -0.6988 -1.9592 -1.0204
  392TMC3    H2 5916   4.257   4.444   9.994 -0.2434  0.5689  0.5134
  392TMC3    C7 5917   4.427   4.414  10.201  0.0379 -0.0828 -0.2807
  392TMC3    C8 5918   3.999   4.366   9.966 -0.5074  0.2177  0.0164
  392TMC3    O1 5919   4.499   4.352  10.282 -0.2945  0.4202  0.5207
  392TMC3    O2 5920   3.891   4.315   9.963  0.3072  0.2494 -0.2090
  393TMC3    C1 5921   3.001   2.035  10.872  0.2257  0.0890 -0.3734
  393TMC3    C2 5922   2.887   2.031  10.951  0.7104  0.3399 -0.3895
  393TMC3    C3 5923   2.852   1.908  11.004  0.1669  0.9819 -0.4769
  393TMC3    C4 5924   3.082   1.923  10.854 -0.0190 -0.2293 -0.9086
  393TMC3    C5 5925   3.050   1.809  10.916 -0.6023 -0.0679  0.2367
  393TMC3    C6 5926   2.936   1.799  10.988 -0.2968 -0.0488  0.0973
  393TMC3     C 5927   3.038   2.165  10.821 -0.1450  0.0906 -0.5556
  393TMC3     O 5928   2.935   2.231  10.794 -0.0217 -0.1925  0.0946
  393TMC3     H 5929   2.821   2.117  10.958 -1.6862 -1.6560  1.4776
  393TMC3    H1 5930   3.166   1.923  10.785 -0.4094  1.0709 -1.3945
  393TMC3    H2 5931   2.905   1.701  11.023 -0.5722  0.7676  2.1315
  393TMC3    C7 5932   3.155   1.708  10.926  0.9149 -0.4706  0.0797
  393TMC3    C8 5933   2.740   1.896  11.104 -0.5208  0.3284  0.4640
  393TMC3    O1 5934   3.124   1.591  10.904  0.3769 -0.0043 -0.1691
  393TMC3    O2 5935   2.742   1.802  11.184  0.7505  0.4435 -0.4138
  394TMC3    C1 5936   0.644   2.451  10.703  1.1145  0.2916 -0.0871
  394TMC3    C2 5937   0.569   2.439  10.596 -0.3635 -0.4277 -0.0177
  394TMC3    C3 5938   0.595   2.521  10.490  0.3662  0.1046 -0.9273
  394TMC3    C4 5939   0.747   2.541  10.726 -0.0894  0.2063  0.2700
  394TMC3    C5 5940   0.768   2.624  10.614  0.3742  0.4531  0.6741
  394TMC3    C6 5941   0.688   2.617  10.497  0.0860  0.3441 -0.5476
  394TMC3     C 5942   0.607   2.359  10.812  0.8122 -0.5281 -0.7224
  394TMC3     O 5943   0.616   2.393  10.930 -0.7317  0.3951  0.4600
  394TMC3     H 5944   0.488   2.367  10.594 -0.3521 -0.4150 -1.2871
  394TMC3    H1 5945   0.799   2.535  10.822  0.6526 -0.2234 -0.1540
  394TMC3    H2 5946   0.692   2.690  10.418  1.8282 -0.4792 -1.2175
  394TMC3    C7 5947   0.829   2.755  10.633 -0.0941 -0.5646 -0.4735
  394TMC3    C8 5948   0.528   2.495  10.361 -0.4143  0.7991  0.3240
  394TMC3    O1 5949   0.827   2.827  10.533  0.2161  0.2603  0.5780
  394TMC3    O2 5950   0.490   2.597  10.303 -0.1923 -0.7653 -0.2911
  395TMC3    C1 5951   0.225   3.926  15.229 -0.2028 -0.2391  0.7957
  395TMC3    C2 5952   0.115   3.989  15.168 -0.3354  0.0147 -0.2120
  395TMC3    C3 5953   0.138   4.089  15.077  0.0431 -0.1069 -0.1171
  395TMC3    C4 5954   0.355   3.957  15.195 -0.0154 -0.3542 -0.2479
  395TMC3    C5 5955   0.374   4.062  15.110 -1.1618  0.1320  0.2471
  395TMC3    C6 5956   0.263   4.141  15.056  0.0846  0.4431 -0.0052
  395TMC3     C 5957   0.195   3.841  15.346 -0.8711  0.4825  0.9484
  395TMC3     O 5958   0.085   3.798  15.368 -0.1039 -0.1634 -0.0411
  395TMC3     H 5959   0.023   3.939  15.196  0.3014 -0.6791  0.6404
  395TMC3    H1 5960   0.443   3.912  15.239 -1.1378 -1.2522  1.0926
  395TMC3    H2 5961   0.289   4.227  14.994  3.5222 -0.3576  0.3205
  395TMC3    C7 5962   0.499   4.137  15.125  0.4689  0.3966 -0.5137
  395TMC3    C8 5963   0.032   4.167  15.006  0.1204 -0.3428 -0.2326
  395TMC3    O1 5964   0.499   4.263  15.121  0.3772 -0.1171  0.0800
  395TMC3    O2 5965   0.063   4.275  14.955  0.2877 -0.5401 -0.2679
  396MPD2     C 5966   0.331   0.112  16.955  0.2594 -0.7893 -0.1499
  396MPD2    C1 5967   0.456   0.133  17.005 -0.3527  0.2823  0.0199
  396MPD2    C2 5968   0.533   0.233  16.955  0.2966 -0.2200 -0.3327
  396MPD2    C3 5969   0.478   0.320  16.864  0.0412 -0.4739  1.0905
  396MPD2    C4 5970   0.344   0.308  16.826  0.2948 -0.0402  0.1935
  396MPD2    C5 5971   0.269   0.196  16.869 -0.1883  0.5673  0.0608
  396MPD2     H 5972   0.639   0.250  16.969 -0.1269  1.0504  1.3208
  396MPD2    H1 5973   0.291   0.380  16.765 -0.4749 -0.9269 -0.1686
  396MPD2    H2 5974   0.271   0.031  16.993  0.8537 -1.0828  0.1741
  396MPD2    H3 5975   0.169   0.177  16.832  0.3497 -0.6569 -0.7462
  396MPD2     N 5976   0.560   0.422  16.816  0.0170  0.0170 -0.2458
  396MPD2    H5 5977   0.651   0.432  16.860 -1.6912 -0.6723  3.4944
  396MPD2    N1 5978   0.500   0.036  17.098 -0.9451  0.3805  0.1560
  396MPD2    H7 5979   0.450   4.688  17.106 -1.2188  0.6772  1.6045
  397TMC3    C1 5980   0.637   4.683  17.268 -0.6155 -0.1098 -0.0097
  397TMC3    C2 5981   0.764   4.663  17.301 -0.7803  0.0626  0.0591
  397TMC3    C3 5982   0.805   4.533  17.310 -0.0580 -0.8247  0.0149
  397TMC3    C4 5983   0.542   4.585  17.277  0.6000 -0.1812  0.7837
  397TMC3    C5 5984   0.582   4.466  17.315 -0.6462 -0.7761  0.7835
  397TMC3    C6 5985   0.708   4.435  17.330 -0.8159  0.0899 -0.2516
  397TMC3     C 5986   0.617   0.053  17.170  0.7729 -0.0512 -0.0337
  397TMC3     O 5987   0.701   0.144  17.168  0.1616  0.2275 -0.1085
  397TMC3     H 5988   0.836   0.000  17.278 -3.1011  2.0119 -0.7052
  397TMC3    H1 5989   0.437   4.603  17.254  0.8506 -1.7750 -1.6536
  397TMC3    H2 5990   0.744   4.338  17.363  0.3581  1.2800  2.0274
  397TMC3    C7 5991   0.508   4.393  17.419 -0.2383  0.2062 -0.0814
  397TMC3    C8 5992   0.943   4.481  17.333 -0.2296 -0.7745 -0.2022
  397TMC3    O1 5993   0.548   4.407  17.535  0.0832 -0.2839  0.2722
  397TMC3    O2 5994   0.954   4.380  17.401  0.2223 -0.6969 -0.0364
  398MPD2     C 5995   3.771   1.702  17.530 -0.0615 -0.1713  0.2439
  398MPD2    C1 5996   3.731   1.631  17.644  0.3006  0.0200 -0.3598
  398MPD2    C2 5997   3.679   1.691  17.754 -0.5929 -0.1133 -0.4680
  398MPD2    C3 5998   3.660   1.831  17.755  0.3442  0.1555 -0.6348
  398MPD2    C4 5999   3.678   1.896  17.627 -0.5377  0.5244  0.3425
  398MPD2    C5 6000   3.738   1.836  17.518  0.1338 -0.1784 -0.3690
  398MPD2     H 6001   3.671   1.635   0.089 -2.5966  1.1006  0.1090
  398MPD2    H1 6002   3.656   2.002  17.615  1.9284  0.9896 -0.0757
  398MPD2    H2 6003   3.827   1.657  17.449 -0.4565  1.2728 -0.8277
  398MPD2    H3 6004   3.763   1.900  17.435 -0.3751 -1.1130 -1.2456
  398MPD2     N 6005   3.641   1.903   0.117 -0.0159 -0.8081  0.1717
  398MPD2    H5 6006   3.653   1.855   0.206  1.7232 -0.4847  0.1113
  398MPD2    N1 6007   3.760   1.490  17.661  0.7335  0.0641  0.4028
  398MPD2    H7 6008   3.716   1.445  17.740 -0.7213 -2.3373 -1.7630
  399TMC3    C1 6009   3.839   1.274  17.607  0.8820  0.9032  0.3904
  399TMC3    C2 6010   3.946   1.184  17.603 -0.4960  0.0138  0.0789
  399TMC3    C3 6011   3.915   1.052  17.573  0.5132 -0.3524  0.6190
  399TMC3    C4 6012   3.711   1.229  17.598 -0.2196 -0.6240 -0.1080
  399TMC3    C5 6013   3.694   1.097  17.567  0.3725 -0.9076 -0.1128
  399TMC3    C6 6014   3.791   1.001  17.550  0.3434  0.2874 -0.4310
  399TMC3     C 6015   3.852   1.419  17.581 -0.0125 -0.2969  0.2106
  399TMC3     O 6016   3.936   1.473  17.510 -0.1152  0.2046 -0.1269
  399TMC3     H 6017   4.049   1.217  17.597 -0.7495  0.8421  0.3916
  399TMC3    H1 6018   3.625   1.295  17.592  1.3140  1.4433  0.6304
  399TMC3    H2 6019   3.761   0.897  17.541 -2.4506  1.1521 -1.1178
  399TMC3    C7 6020   3.558   1.042  17.546 -0.0437 -0.6397 -0.2312
  399TMC3    C8 6021   4.019   0.954  17.575  0.4722 -0.0594 -0.4177
  399TMC3    O1 6022   3.534   0.930  17.585  0.1479  0.6786 -0.4785
  399TMC3    O2 6023   4.099   0.963  17.667  0.4667 -0.3521 -0.1184
  400TMC3    C1 6024   1.946   4.333  16.654  0.5418  0.5766  0.0314
  400TMC3    C2 6025   1.877   4.216  16.675 -0.3420 -0.2804 -0.2426
  400TMC3    C3 6026   1.739   4.226  16.659 -0.3229 -0.4027 -0.0313
  400TMC3    C4 6027   1.879   4.451  16.629  0.1158  0.3878 -0.2006
  400TMC3    C5 6028   1.741   4.454  16.625 -0.1980 -0.2251  0.0819
  400TMC3    C6 6029   1.669   4.340  16.621  0.1886  0.0849  0.4753
  400TMC3     C 6030   2.069   4.331  16.726  0.4659  0.5578  0.1301
  400TMC3     O 6031   2.090   4.252  16.817  0.0215  0.1275 -0.5385
  400TMC3     H 6032   1.931   4.124  16.694  1.9777  1.1826  0.3259
  400TMC3    H1 6033   1.924   4.549  16.616 -1.6903  1.2396 -0.0212
  400TMC3    H2 6034   1.561   4.344  16.612  0.3674 -0.6126 -2.1023
  400TMC3    C7 6035   1.677   4.579  16.614 -0.3872 -0.2035 -0.5236
  400TMC3    C8 6036   1.663   4.100  16.671 -0.1208 -0.5758  0.6719
  400TMC3    O1 6037   1.567   4.572  16.565 -0.2845 -0.3038  0.1171
  400TMC3    O2 6038   1.731   3.998  16.664 -0.2404  0.5121  0.6045
  401MPD2     C 6039   0.489   3.648   1.216  0.1928  0.4779  0.1316
  401MPD2    C1 6040   0.596   3.576   1.280  0.9002 -0.8902 -0.7274
  401MPD2    C2 6041   0.655   3.471   1.208 -0.2006 -0.3041 -0.1535
  401MPD2    C3 6042   0.625   3.450   1.074 -0.2928  0.1241 -0.7377
  401MPD2    C4 6043   0.525   3.523   1.016  0.1329 -0.5033 -0.2326
  401MPD2    C5 6044   0.454   3.616   1.085  0.6768 -0.6985  0.0220
  401MPD2     H 6045   0.731   3.415   1.261  1.8290  1.2805 -1.4260
  401MPD2    H1 6046   0.494   3.499   0.915 -0.7176  0.8265 -0.2892
  401MPD2    H2 6047   0.439   3.733   1.260  0.3708  0.2252  0.8203
  401MPD2    H3 6048   0.382   3.681   1.036  0.9464 -0.8646 -0.6002
  401MPD2     N 6049   0.707   3.357   1.006  0.1198  0.6660 -0.1763
  401MPD2    H5 6050   0.769   3.300   1.064  1.5820  1.7151 -0.7063
  401MPD2    N1 6051   0.647   3.590   1.414 -0.1725 -0.7762  0.4244
  401MPD2    H7 6052   0.709   3.518   1.451  0.4489 -0.6840 -0.4553
  402TMC3    C1 6053   0.800   3.232   0.820  0.0531 -0.1572  0.1097
  402TMC3    C2 6054   0.815   3.117   0.892 -0.1292  0.4990  0.6653
  402TMC3    C3 6055   0.885   3.010   0.836 -0.7783  0.6847  0.8974
  402TMC3    C4 6056   0.845   3.239   0.691  0.2240 -0.4804 -0.3384
  402TMC3    C5 6057   0.903   3.128   0.634  0.5053 -0.3619 -0.6999
  402TMC3    C6 6058   0.928   3.013   0.705  0.2574  0.2632 -0.0190
  402TMC3     C 6059   0.706   3.334   0.868 -0.3882 -0.1812  0.4756
  402TMC3     O 6060   0.653   3.401   0.779  0.1559 -0.2658 -0.5634
  402TMC3     H 6061   0.799   3.109   0.999  1.5939  0.6204  0.9391
  402TMC3    H1 6062   0.832   3.321   0.621  0.4608  0.5558  0.8302
  402TMC3    H2 6063   0.986   2.928   0.669  2.1716  2.1797 -1.4814
  402TMC3    C7 6064   0.949   3.139   0.497  0.0398  0.1235  0.9535
  402TMC3    C8 6065   0.916   2.887   0.909 -0.3162 -0.0009  0.8985
  402TMC3    O1 6066   0.995   3.250   0.455  0.0649  0.4735 -0.0074
  402TMC3    O2 6067   1.012   2.818   0.882 -0.0488  0.0378 -0.6390
  403MPD2     C 6068   3.192   1.197  13.328 -0.6665 -0.1683  0.0382
  403MPD2    C1 6069   3.112   1.212  13.436 -0.6959  0.2732  0.7617
  403MPD2    C2 6070   3.160   1.191  13.560  1.0564  0.6402 -0.0577
  403MPD2    C3 6071   3.296   1.181  13.584  0.6542  0.7975  0.7391
  403MPD2    C4 6072   3.377   1.160  13.477 -0.2190  0.1117  0.5760
  403MPD2    C5 6073   3.324   1.162  13.350  0.0100  1.0281  0.0381
  403MPD2     H 6074   3.102   1.210  13.650  0.4218  0.6899 -0.4819
  403MPD2    H1 6075   3.481   1.136  13.493  0.7442  3.5280 -0.5451
  403MPD2    H2 6076   3.161   1.212  13.226 -0.8051  0.5564  0.1899
  403MPD2    H3 6077   3.381   1.155  13.259 -1.8451 -0.2492 -1.0270
  403MPD2     N 6078   3.342   1.193  13.719 -0.5974  0.2617 -0.6436
  403MPD2    H5 6079   3.275   1.205  13.794  0.2437  2.2748 -0.2312
  403MPD2    N1 6080   2.977   1.233  13.406 -0.0202 -0.3522  0.5361
  403MPD2    H7 6081   2.956   1.239  13.307  2.7610  1.3783  0.0505
  404TMC3    C1 6082   2.747   1.177  13.411 -0.2031  0.2800 -0.1257
  404TMC3    C2 6083   2.645   1.150  13.496  0.5096  0.3243  0.0556
  404TMC3    C3 6084   2.550   1.057  13.453 -0.1818  0.1742  0.1008
  404TMC3    C4 6085   2.747   1.122  13.284  0.7141  0.8104  0.0901
  404TMC3    C5 6086   2.642   1.049  13.243 -0.3321  0.9124  0.0695
  404TMC3    C6 6087   2.534   1.025  13.324 -0.6653  0.2405 -0.1952
  404TMC3     C 6088   2.873   1.205  13.485 -0.1360  0.4599 -0.5025
  404TMC3     O 6089   2.874   1.187  13.608  0.2302  0.1396 -0.4684
  404TMC3     H 6090   2.644   1.191  13.596  0.1498  0.1795  0.1105
  404TMC3    H1 6091   2.827   1.147  13.215  1.1381 -2.8281 -0.7286
  404TMC3    H2 6092   2.470   0.942  13.295  0.2244 -0.1963 -0.9179
  404TMC3    C7 6093   2.660   0.971  13.121 -0.4018  0.8985 -0.2589
  404TMC3    C8 6094   2.541   0.942  13.539 -0.4893 -0.4615  0.2894
  404TMC3    O1 6095   2.779   0.945  13.095  0.7817  0.2593 -0.4521
  404TMC3    O2 6096   2.536   0.831  13.485 -0.2839  0.5049 -0.8408
  405MPD2     C 6097   3.355   1.509  15.340  0.3569 -0.4201 -0.4624
  405MPD2    C1 6098   3.255   1.471  15.251  0.0602  0.6977  0.5476
  405MPD2    C2 6099   3.275   1.493  15.115  0.0056  0.6194  0.6483
  405MPD2    C3 6100   3.398   1.516  15.069 -0.8966  0.4984  0.4584
  405MPD2    C4 6101   3.507   1.538  15.156 -0.1641  0.0842 -0.4379
  405MPD2    C5 6102   3.481   1.536  15.295 -0.5394  0.4541  0.0943
  405MPD2     H 6103   3.193   1.472  15.048  0.9427 -0.6149 -0.1228
  405MPD2    H1 6104   3.604   1.558  15.113  0.0579 -1.0028 -0.4582
  405MPD2    H2 6105   3.330   1.505  15.446  1.3396  2.0918 -0.1425
  405MPD2    H3 6106   3.548   1.568  15.373 -1.0171 -1.1918  1.1688
  405MPD2     N 6107   3.411   1.504  14.928  0.0819 -0.4061 -0.4588
  405MPD2    H5 6108   3.324   1.524  14.880 -0.2218  1.0080  0.6647
  405MPD2    N1 6109   3.128   1.412  15.291 -0.2023 -0.4457 -0.3824
  405MPD2    H7 6110   3.109   1.395  15.390  2.2073 -2.9268 -0.3288
  406TMC3    C1 6111   3.466   1.664  14.543  0.0781  0.0660 -0.2341
  406TMC3    C2 6112   3.368   1.586  14.484  0.4766  0.7784 -0.0656
  406TMC3    C3 6113   3.338   1.465  14.547  0.4691 -0.1401 -0.2656
  406TMC3    C4 6114   3.535   1.628  14.646  0.0240 -0.5526 -0.7493
  406TMC3    C5 6115   3.501   1.516  14.707 -0.4613 -0.4341 -0.0238
  406TMC3    C6 6116   3.398   1.439  14.668  0.4318  0.0322  0.4518
  406TMC3     C 6117   3.479   1.805  14.516 -0.5373  0.3573 -0.1812
  406TMC3     O 6118   3.586   1.861  14.538  0.0646  0.0759  0.2033
  406TMC3     H 6119   3.315   1.620  14.396 -0.0227 -0.5464 -0.2645
  406TMC3    H1 6120   3.604   1.692  14.700 -1.3215  0.9520 -0.8112
  406TMC3    H2 6121   3.372   1.352  14.727 -1.6317  0.2499 -0.1446
  406TMC3    C7 6122   3.528   1.514  14.851 -0.7071  0.4246  0.2000
  406TMC3    C8 6123   3.206   1.414  14.524  0.0711 -0.3036  0.0228
  406TMC3    O1 6124   3.638   1.561  14.892  0.1127 -0.5989 -0.7322
  406TMC3    O2 6125   3.165   1.409  14.411 -0.3523  0.3081 -0.2633
  407MPD2     C 6126   0.252   3.950   9.821 -0.2420  0.9439  0.1366
  407MPD2    C1 6127   0.392   3.959   9.845  0.2960 -0.5195  0.1027
  407MPD2    C2 6128   0.442   4.060   9.939 -0.1634  0.2095  0.0706
  407MPD2    C3 6129   0.357   4.137  10.013 -0.0173 -0.4623  1.0867
  407MPD2    C4 6130   0.226   4.135   9.972  0.1738 -0.6712 -0.0898
  407MPD2    C5 6131   0.178   4.044   9.886 -0.2537  0.2179  0.2885
  407MPD2     H 6132   0.549   4.074   9.947 -0.1636  1.1864 -1.5616
  407MPD2    H1 6133   0.155   4.210  10.004  0.1483 -0.2022 -1.2721
  407MPD2    H2 6134   0.211   3.887   9.743  1.0462 -2.6496  2.3506
  407MPD2    H3 6135   0.072   4.045   9.866 -0.5404 -1.1953  1.7735
  407MPD2     N 6136   0.406   4.237  10.100  0.3428  0.2417 -0.1884
  407MPD2    H5 6137   0.342   4.310  10.131 -1.1082 -0.6656 -1.0194
  407MPD2    N1 6138   0.491   3.895   9.765  0.0038 -0.3422 -0.0515
  407MPD2    H7 6139   0.588   3.915   9.787  0.4580 -1.1428 -1.3522
  408TMC3    C1 6140   0.567   3.803   9.564  0.6131  0.7677  0.4969
  408TMC3    C2 6141   0.594   3.670   9.532 -0.7749  0.0413  0.3925
  408TMC3    C3 6142   0.710   3.645   9.465 -0.3156  0.0509 -0.0203
  408TMC3    C4 6143   0.650   3.913   9.532  0.6778 -0.6869  0.7554
  408TMC3    C5 6144   0.759   3.876   9.456  0.6828 -0.6383 -0.5580
  408TMC3    C6 6145   0.786   3.747   9.415  0.0138  0.6077 -0.4230
  408TMC3     C 6146   0.462   3.815   9.658  0.2426 -0.2909 -0.8046
  408TMC3     O 6147   0.359   3.766   9.620  0.1960  0.0859  1.0278
  408TMC3     H 6148   0.534   3.586   9.565 -0.9761  0.5416  1.2882
  408TMC3    H1 6149   0.622   4.014   9.559 -0.9464 -1.3304  1.4267
  408TMC3    H2 6150   0.872   3.725   9.353 -0.2844  0.4064 -0.7651
  408TMC3    C7 6151   0.868   3.965   9.469 -0.2827  0.5787  0.3092
  408TMC3    C8 6152   0.789   3.545   9.538  0.1919 -0.1800  0.3443
  408TMC3    O1 6153   0.975   3.910   9.488  0.4638  0.0072  0.3039
  408TMC3    O2 6154   0.719   3.453   9.575 -0.6114 -0.0963 -0.0418
  409MPD2     C 6155   0.648   4.016  17.382 -0.5741  0.9416 -0.5345
  409MPD2    C1 6156   0.783   4.000  17.397 -0.0213  0.4499  0.2286
  409MPD2    C2 6157   0.871   4.050  17.305 -0.0928  0.3196 -0.2534
  409MPD2    C3 6158   0.833   4.113  17.186  0.3267  0.3787  0.1794
  409MPD2    C4 6159   0.693   4.123  17.167  0.6190 -0.2819 -0.4783
  409MPD2    C5 6160   0.607   4.077  17.267 -0.7049  0.6640 -0.3745
  409MPD2     H 6161   0.976   4.036  17.328 -0.1127 -0.7520 -0.7799
  409MPD2    H1 6162   0.651   4.165  17.076 -0.6237 -0.0953  0.1762
  409MPD2    H2 6163   0.574   3.985  17.455  0.3527 -1.1569 -0.4778
  409MPD2    H3 6164   0.501   4.084  17.245  0.0312  0.7614 -3.7988
  409MPD2     N 6165   0.919   4.181  17.096  0.1270  0.1892  0.1609
  409MPD2    H5 6166   0.869   4.220  17.017 -0.2726 -1.8588 -0.5979
  409MPD2    N1 6167   0.839   3.945  17.514  0.4325  0.4252 -0.1027
  409MPD2    H7 6168   0.928   3.900  17.497 -0.8769 -2.4170  0.6044
  410TMC3    C1 6169   1.100   4.314  17.035 -0.2172  0.4480 -0.7784
  410TMC3    C2 6170   1.234   4.323  17.029 -0.0361  0.5949 -0.6445
  410TMC3    C3 6171   1.288   4.382  16.922 -0.4762  0.2867 -0.5677
  410TMC3    C4 6172   1.020   4.370  16.931  0.2726  0.1217 -0.6308
  410TMC3    C5 6173   1.088   4.433  16.826 -0.0165  0.3964  0.3022
  410TMC3    C6 6174   1.225   4.447  16.822 -0.5330  0.7027  0.9184
  410TMC3     C 6175   1.051   4.208  17.117 -0.4101  0.0714 -0.1175
  410TMC3     O 6176   1.129   4.186  17.211 -0.1994 -0.2374 -0.1510
  410TMC3     H 6177   1.300   4.274  17.100 -1.9766  2.1551  2.2502
  410TMC3    H1 6178   0.914   4.349  16.926  0.3707 -0.7424  0.8191
  410TMC3    H2 6179   1.273   4.465  16.726 -0.8219  0.6048  0.7558
  410TMC3    C7 6180   1.010   4.464  16.710  0.8912 -0.3997 -0.9248
  410TMC3    C8 6181   1.436   4.393  16.921  0.1208 -0.4349  0.6032
  410TMC3    O1 6182   0.902   4.405  16.694 -0.0079 -0.3616 -0.5187
  410TMC3    O2 6183   1.499   4.485  16.867 -0.0778  0.9087 -0.0570
  411MPD2     C 6184   1.220   4.658  14.801  0.3162 -0.2353  0.6681
  411MPD2    C1 6185   1.116   4.710  14.872  0.3846  0.1832 -0.1086
  411MPD2    C2 6186   1.003   4.637  14.893 -0.1081  0.7024  0.4616
  411MPD2    C3 6187   0.987   4.511  14.834  0.1965 -0.1659  0.0093
  411MPD2    C4 6188   1.099   4.460  14.765  0.3345 -0.1871 -0.4413
  411MPD2    C5 6189   1.211   4.531  14.752  0.0373 -0.5491  0.3266
  411MPD2     H 6190   0.925   4.688  14.949 -3.8219  0.6590 -4.6086
  411MPD2    H1 6191   1.098   4.362  14.717  0.0953 -1.7780  2.7627
  411MPD2    H2 6192   1.310   4.718  14.797  0.7014 -0.8917 -0.4589
  411MPD2    H3 6193   1.293   4.492  14.693  0.0352  0.4576 -0.3551
  411MPD2     N 6194   0.869   4.437  14.837 -0.2513  0.1084 -0.0665
  411MPD2    H5 6195   0.871   4.344  14.796  0.1573  0.6253 -1.2307
  411MPD2    N1 6196   1.125   0.105  14.914 -0.2402 -0.8664 -0.3880
  411MPD2    H7 6197   1.198   0.160  14.869 -2.5960  1.6121 -1.2349
  412TMC3    C1 6198   0.631   4.387  14.857  0.2353  0.5547 -0.2621
  412TMC3    C2 6199   0.512   4.451  14.873 -0.2916 -0.7635  0.5231
  412TMC3    C3 6200   0.397   4.414  14.805 -0.1448  0.6203 -0.0869
  412TMC3    C4 6201   0.640   4.282  14.763  0.6609  0.5262 -0.8473
  412TMC3    C5 6202   0.527   4.254  14.690 -0.0435 -0.2023  0.2657
  412TMC3    C6 6203   0.409   4.310  14.713  0.1478 -1.0397 -0.0003
  412TMC3     C 6204   0.748   4.471  14.895  0.0553 -0.7646 -0.1253
  412TMC3     O 6205   0.726   4.579  14.952 -0.2294  0.2306  0.6022
  412TMC3     H 6206   0.508   4.534  14.943 -0.8836 -0.9273  0.6808
  412TMC3    H1 6207   0.735   4.245  14.727  1.1333 -0.3762  1.3293
  412TMC3    H2 6208   0.315   4.270  14.674 -0.3552  0.1102  0.0174
  412TMC3    C7 6209   0.542   4.218  14.551  0.0783  0.1649  0.1855
  412TMC3    C8 6210   0.325   4.518  14.743 -0.1279 -0.2646 -0.5721
  412TMC3    O1 6211   0.629   4.135  14.518  0.1615  0.0442  0.0929
  412TMC3    O2 6212   0.362   4.532  14.626 -0.0866 -0.0649  0.0112
  413MPD2     C 6213   2.596   3.476  15.433 -0.1945 -0.0174  0.0609
  413MPD2    C1 6214   2.552   3.376  15.347 -0.2093 -0.5230  0.1417
  413MPD2    C2 6215   2.650   3.292  15.293  0.4634 -0.6581 -0.0797
  413MPD2    C3 6216   2.785   3.302  15.326  0.1520 -0.8546 -0.0294
  413MPD2    C4 6217   2.834   3.405  15.409 -0.2076 -0.0761  0.2918
  413MPD2    C5 6218   2.736   3.491  15.454 -0.2101  0.0384 -0.5038
  413MPD2     H 6219   2.623   3.211  15.226 -0.9386 -2.2455  2.3996
  413MPD2    H1 6220   2.939   3.411  15.434 -0.1998  0.1499  0.2032
  413MPD2    H2 6221   2.533   3.544  15.488 -0.5052 -0.0124 -0.3002
  413MPD2    H3 6222   2.769   3.565  15.526  0.0921  0.7291 -1.3534
  413MPD2     N 6223   2.867   3.192  15.286  0.2694 -0.8001  0.1225
  413MPD2    H5 6224   2.835   3.120  15.222 -2.3016 -0.4278  1.0019
  413MPD2    N1 6225   2.414   3.371  15.326 -0.0337 -0.1423 -0.2058
  413MPD2    H7 6226   2.357   3.436  15.378  0.1203 -0.0911 -0.1026
  414TMC3    C1 6227   3.038   3.040  15.290 -0.3106 -1.0273  0.7713
  414TMC3    C2 6228   3.052   2.939  15.377 -0.7785  0.2983 -1.0753
  414TMC3    C3 6229   2.992   2.826  15.338 -1.0819  0.1713  0.1620
  414TMC3    C4 6230   3.002   3.019  15.160  0.0530 -0.7445  0.0320
  414TMC3    C5 6231   2.956   2.903  15.119  0.4500  0.2494 -0.6065
  414TMC3    C6 6232   2.931   2.812  15.219  0.2368 -0.3466  0.8839
  414TMC3     C 6233   2.990   3.167  15.347 -0.2229  0.3241 -0.2668
  414TMC3     O 6234   3.049   3.213  15.445 -0.1586  0.3007 -0.4890
  414TMC3     H 6235   3.078   2.962  15.480 -1.3528 -1.5504 -0.5155
  414TMC3    H1 6236   2.996   3.105  15.094 -1.0450 -1.3786 -0.6998
  414TMC3    H2 6237   2.886   2.717  15.191 -2.3149  1.0686  0.1395
  414TMC3    C7 6238   2.846   2.923  15.029  0.2848 -0.3791  0.5528
  414TMC3    C8 6239   3.054   2.706  15.388 -0.4082 -0.1769 -0.1549
  414TMC3    O1 6240   2.758   2.991  15.084 -0.3889 -0.0815 -0.0746
  414TMC3    O2 6241   3.006   2.599  15.371  0.2693  0.2984  0.2683
  415TMC3    C1 6242   2.830   1.147  10.356 -0.1853  0.2318 -0.1817
  415TMC3    C2 6243   2.887   1.198  10.241 -0.3089 -0.3532  0.1646
  415TMC3    C3 6244   2.848   1.140  10.120 -0.3848 -1.1089  0.0174
  415TMC3    C4 6245   2.742   1.042  10.356 -0.4983 -0.4784  0.3789
  415TMC3    C5 6246   2.713   0.989  10.236  0.0925 -0.0880  0.2721
  415TMC3    C6 6247   2.755   1.041  10.117 -0.2338 -0.2816 -0.2951
  415TMC3     C 6248   2.870   1.187  10.489 -0.2467  0.5273  0.2676
  415TMC3     O 6249   2.781   1.185  10.576 -0.3657 -0.0972  0.0031
  415TMC3     H 6250   2.960   1.278  10.244 -3.0956  2.1519  2.0134
  415TMC3    H1 6251   2.715   1.000  10.452  0.3425  0.0567  0.8512
  415TMC3    H2 6252   2.734   0.996  10.021 -0.7378 -0.2837 -0.1815
  415TMC3    C7 6253   2.630   0.876  10.240 -0.7938  0.0516  0.3492
  415TMC3    C8 6254   2.929   1.168  10.000 -0.3824  0.9089  0.5970
  415TMC3    O1 6255   2.637   0.802  10.143  0.3811  0.1592 -0.4189
  415TMC3    O2 6256   2.946   1.073   9.924 -0.4957  0.3559  0.4507
  416MPD2     C 6257   0.105   0.114  11.613 -0.0333 -0.1673  0.6232
  416MPD2    C1 6258   4.709   0.074  11.605  0.0011 -0.7396  0.3300
  416MPD2    C2 6259   4.675   4.715  11.511 -0.4433  0.2322 -0.0046
  416MPD2    C3 6260   0.037   4.644  11.438  0.2958 -0.5729  1.4301
  416MPD2    C4 6261   0.164   4.682  11.451 -0.7760 -0.2836  0.0513
  416MPD2    C5 6262   0.194   0.041  11.537 -0.2468  0.6062 -0.2383
  416MPD2     H 6263   4.573   4.678  11.506 -0.8601  1.4742 -0.5703
  416MPD2    H1 6264   0.245   4.644  11.391  0.1646  1.6910  0.0760
  416MPD2    H2 6265   0.136   0.196  11.677 -0.8329  1.9602 -1.7445
  416MPD2    H3 6266   0.299   0.065  11.539 -0.3036  0.9184 -0.9041
  416MPD2     N 6267   0.009   4.532  11.350  0.0060  0.1590 -0.3722
  416MPD2    H5 6268   0.086   4.470  11.328  0.3490  0.5300 -0.2191
  416MPD2    N1 6269   4.606   0.134  11.682  0.2618  0.7637 -0.5952
  416MPD2    H7 6270   4.632   0.201  11.754  0.8418  0.7272 -0.7691
  417TMC3    C1 6271   4.382   0.203  11.748  0.4972  0.0044  0.0991
  417TMC3    C2 6272   4.422   0.252  11.868  0.4722 -0.0289  0.3353
  417TMC3    C3 6273   4.345   0.336  11.937  0.1435 -0.1609  0.4227
  417TMC3    C4 6274   4.257   0.230  11.703 -0.1144 -0.1961  0.0045
  417TMC3    C5 6275   4.172   0.290  11.788  0.3201  0.5110  0.0524
  417TMC3    C6 6276   4.215   0.347  11.901  0.2625 -0.2975  0.1113
  417TMC3     C 6277   4.471   0.124  11.654 -0.0527  0.6674 -0.2352
  417TMC3     O 6278   4.417   0.078  11.555 -0.0255 -0.0639  0.0480
  417TMC3     H 6279   4.508   0.212  11.920 -0.0343 -2.2936 -0.5973
  417TMC3    H1 6280   4.224   0.195  11.606 -0.1451 -1.2302  0.3901
  417TMC3    H2 6281   4.145   0.397  11.967 -1.3636 -0.1171 -1.7551
  417TMC3    C7 6282   4.046   0.339  11.728  0.2562 -0.5412 -1.0842
  417TMC3    C8 6283   4.378   0.380  12.071 -0.1133  0.0282 -0.0222
  417TMC3    O1 6284   3.999   0.441  11.778 -0.2784  0.1419 -0.3542
  417TMC3    O2 6285   4.280   0.403  12.144  0.5651 -0.6651  0.2427
  418TMC3    C1 6286   3.662   2.257   0.406 -0.0158 -0.2916 -0.0956
  418TMC3    C2 6287   3.619   2.216   0.280  0.0953 -0.2799 -0.0911
  418TMC3    C3 6288   3.608   2.080   0.264 -0.0147  0.1839 -0.0189
  418TMC3    C4 6289   3.690   2.173   0.510 -0.2492 -0.6782 -0.2322
  418TMC3    C5 6290   3.669   2.039   0.485  0.9061  0.8185  0.3380
  418TMC3    C6 6291   3.625   1.988   0.359 -0.8325 -0.0237 -0.2808
  418TMC3     C 6292   3.743   2.376   0.406 -0.3172 -0.0696  0.0879
  418TMC3     O 6293   3.692   2.481   0.368 -0.1978  0.0813  0.7235
  418TMC3     H 6294   3.620   2.282   0.194  1.3653 -0.5431 -0.2797
  418TMC3    H1 6295   3.703   2.210   0.611 -1.0967 -1.1819  0.0573
  418TMC3    H2 6296   3.602   1.883   0.349  1.8547 -0.4255 -1.9102
  418TMC3    C7 6297   3.702   1.929   0.581 -0.4913  0.2971  0.1433
  418TMC3    C8 6298   3.617   2.039   0.128 -0.8828  0.4936 -0.5913
  418TMC3    O1 6299   3.739   1.820   0.534 -0.5565  0.3989 -0.6763
  418TMC3    O2 6300   3.584   2.114   0.036 -0.0417  0.5205  0.5949
  419MPD2     C 6301   2.333   0.001  11.891 -0.2831  0.0049  0.5005
  419MPD2    C1 6302   2.241   0.099  11.920  1.1853 -0.4984 -0.1604
  419MPD2    C2 6303   2.207   0.121  12.050 -0.3765 -0.4276  0.9742
  419MPD2    C3 6304   2.244   0.045  12.156 -0.5936 -0.6195  1.1774
  419MPD2    C4 6305   2.329   4.678  12.125  0.5463 -0.1716  0.6454
  419MPD2    C5 6306   2.375   4.666  11.994 -0.5611  0.4758  0.2352
  419MPD2     H 6307   2.125   0.189  12.068 -1.9191 -1.8066 -0.8902
  419MPD2    H1 6308   2.371   4.612  12.200 -0.5031 -1.4636  0.0872
  419MPD2    H2 6309   2.363   4.715  11.790 -0.9293  0.0024  0.3030
  419MPD2    H3 6310   2.442   4.584  11.970 -1.4130 -0.4340  0.9263
  419MPD2     N 6311   2.185   0.071  12.283 -0.0926 -0.3008 -0.1506
  419MPD2    H5 6312   2.108   0.136  12.290  0.8233  0.8328 -0.6431
  419MPD2    N1 6313   2.166   0.177  11.828  0.3016  0.0327  0.4538
  419MPD2    H7 6314   2.091   0.233  11.866 -0.6040 -1.6958  1.2348
  420TMC3    C1 6315   2.170   0.074  12.518  0.0999  0.6310  0.0395
  420TMC3    C2 6316   2.044   0.126  12.509  0.0232  0.4990 -0.4272
  420TMC3    C3 6317   1.973   0.157  12.624  0.5620  0.6405  0.0054
  420TMC3    C4 6318   2.229   0.045  12.635 -0.3274 -0.9687 -0.2940
  420TMC3    C5 6319   2.160   0.081  12.750 -0.1152  0.3963 -0.0076
  420TMC3    C6 6320   2.033   0.134  12.747 -0.0346 -0.6342  0.0059
  420TMC3     C 6321   2.240   0.026  12.401  0.5936 -0.0008  1.1758
  420TMC3     O 6322   2.343   4.700  12.412  0.8229 -0.6440 -0.0156
  420TMC3     H 6323   1.995   0.154  12.416  0.4653  1.6391 -0.3174
  420TMC3    H1 6324   2.326   4.736  12.635 -1.0799 -2.4827  1.8296
  420TMC3    H2 6325   1.992   0.159  12.844  0.1964  0.2757 -0.1298
  420TMC3    C7 6326   2.223   0.075  12.881  0.3875 -0.3843  0.9783
  420TMC3    C8 6327   1.835   0.206  12.627 -0.2310 -0.3688  0.5526
  420TMC3    O1 6328   2.148   0.084  12.978  0.7176 -0.1494  0.3857
  420TMC3    O2 6329   1.810   0.292  12.711 -0.3008 -0.1721  0.4596
  421TMC3    C1 6330   3.474   1.172  13.913  0.6757  0.5096  0.3310
  421TMC3    C2 6331   3.427   1.290  13.971 -0.7447  0.1426  0.3658
  421TMC3    C3 6332   3.493   1.332  14.084 -0.0324 -0.7342  0.2431
  421TMC3    C4 6333   3.577   1.098  13.962  0.1937 -0.4712  0.3545
  421TMC3    C5 6334   3.640   1.154  14.065 -0.0243  0.0282 -0.2396
  421TMC3    C6 6335   3.605   1.270  14.122  0.1645 -0.0087 -0.3299
  421TMC3     C 6336   3.471   1.171  13.763  0.3431 -0.0350 -0.2521
  421TMC3     O 6337   3.563   1.123  13.701 -0.4886  0.4014  0.0194
  421TMC3     H 6338   3.356   1.355  13.921 -2.7353 -0.1429  2.8343
  421TMC3    H1 6339   3.620   1.029  13.890 -2.7097 -1.6427 -0.2318
  421TMC3    H2 6340   3.665   1.312  14.201  0.8620  0.1397 -0.9449
  421TMC3    C7 6341   3.763   1.100  14.112  0.0831  0.7810  0.2159
  421TMC3    C8 6342   3.468   1.461  14.140 -0.0426  0.4904  0.1136
  421TMC3    O1 6343   3.808   1.149  14.210  0.8160  0.3449  0.4181
  421TMC3    O2 6344   3.559   1.513  14.206 -0.2919 -0.5847  0.1681
  422TMC3    C1 6345   1.042   3.202  12.851  0.5058 -0.3064 -0.8348
  422TMC3    C2 6346   0.990   3.330  12.868 -0.3256  0.0447 -0.6570
  422TMC3    C3 6347   0.901   3.352  12.960 -0.6773 -0.0614 -0.5923
  422TMC3    C4 6348   0.997   3.091  12.922  0.0820 -0.1337 -0.3776
  422TMC3    C5 6349   0.896   3.123  13.012  0.0143 -0.3213  0.4504
  422TMC3    C6 6350   0.847   3.247  13.035 -0.6081  0.0070  0.1471
  422TMC3     C 6351   1.110   3.182  12.728 -0.1219  0.6817  0.0935
  422TMC3     O 6352   1.189   3.266  12.684  0.0962 -0.2082  0.3577
  422TMC3     H 6353   1.025   3.414  12.810  0.2919  0.6160  0.5506
  422TMC3    H1 6354   1.042   2.993  12.909  0.8915 -0.0084  1.4333
  422TMC3    H2 6355   0.785   3.288  13.114  0.5791  0.7508  0.7020
  422TMC3    C7 6356   0.835   3.012  13.083 -0.4193  0.0977  0.4453
  422TMC3    C8 6357   0.839   3.481  12.962 -0.4393 -0.2322 -0.5750
  422TMC3    O1 6358   0.896   2.905  13.083  0.3835  0.4893  0.1452
  422TMC3    O2 6359   0.916   3.574  12.943 -0.0513 -0.4625  0.2324
  423MPD2     C 6360   2.125   3.536   0.666  0.7643 -0.2905 -0.0369
  423MPD2    C1 6361   2.231   3.458   0.712 -0.6831 -0.0049  0.3971
  423MPD2    C2 6362   2.317   3.410   0.612 -0.1076 -0.3098 -0.4892
  423MPD2    C3 6363   2.307   3.439   0.480  0.1673 -0.0879  0.3808
  423MPD2    C4 6364   2.203   3.519   0.440 -0.4674  0.3502  0.1329
  423MPD2    C5 6365   2.115   3.565   0.530 -0.2178  0.1988  0.9264
  423MPD2     H 6366   2.402   3.350   0.645  1.4975  1.6322 -1.1040
  423MPD2    H1 6367   2.188   3.550   0.337 -0.2006 -1.4894 -0.4730
  423MPD2    H2 6368   2.053   3.585   0.730  0.9965  1.2169 -0.9098
  423MPD2    H3 6369   2.038   3.632   0.494  1.1489  0.4204 -1.6322
  423MPD2     N 6370   2.406   3.416   0.383  0.5454  0.5873 -0.1491
  423MPD2    H5 6371   2.382   3.448   0.290 -1.2127 -0.7814 -0.1551
  423MPD2    N1 6372   2.254   3.423   0.847  0.3718 -0.1170 -0.6091
  423MPD2    H7 6373   2.322   3.350   0.866 -2.1704 -2.2227  0.3895
  424TMC3    C1 6374   2.241   3.451   1.078  0.4053 -0.2656 -0.1519
  424TMC3    C2 6375   2.369   3.409   1.089  0.6579 -0.4147 -0.0535
  424TMC3    C3 6376   2.423   3.416   1.214 -0.1467  0.1190  0.2714
  424TMC3    C4 6377   2.168   3.495   1.184 -0.0763 -0.5060 -0.3100
  424TMC3    C5 6378   2.222   3.502   1.309  0.6269  0.5778  0.1388
  424TMC3    C6 6379   2.351   3.460   1.326  0.1724  0.1845  1.0620
  424TMC3     C 6380   2.196   3.493   0.948  0.1214  0.3277 -0.1983
  424TMC3     O 6381   2.115   3.586   0.949  0.3837 -0.4628 -0.3099
  424TMC3     H 6382   2.438   3.414   1.006  0.0633 -0.9855 -0.5866
  424TMC3    H1 6383   2.063   3.511   1.162 -0.3846  1.0404  2.2024
  424TMC3    H2 6384   2.399   3.447   1.422 -0.6081  2.1301  1.7181
  424TMC3    C7 6385   2.150   3.534   1.425 -0.0335  0.2078 -0.7735
  424TMC3    C8 6386   2.544   3.336   1.225 -0.0072 -0.5302 -0.3396
  424TMC3    O1 6387   2.208   3.545   1.532  0.5982 -0.0331  0.4557
  424TMC3    O2 6388   2.569   3.261   1.134  0.8263  0.5724 -0.1748
  425MPD2     C 6389   2.013   3.008  17.676 -0.0275 -0.4479 -0.3078
  425MPD2    C1 6390   1.974   2.884  17.705  0.6188 -0.6221  0.3368
  425MPD2    C2 6391   1.856   2.854   0.007 -0.2848  0.0658 -0.0288
  425MPD2    C3 6392   1.781   2.966   0.055 -0.1933 -0.2647  0.0646
  425MPD2    C4 6393   1.815   3.092   0.016 -0.3900 -0.4340 -0.0560
  425MPD2    C5 6394   1.934   3.117  17.704  0.0108 -0.0033  0.4841
  425MPD2     H 6395   1.818   2.754   0.022  0.0290 -0.1063 -0.3845
  425MPD2    H1 6396   1.750   3.179   0.024  1.5860  1.0765 -0.5708
  425MPD2    H2 6397   2.095   3.025  17.607  0.7312  1.2277  0.9865
  425MPD2    H3 6398   1.961   3.213  17.664  3.2425 -0.1813  2.2314
  425MPD2     N 6399   1.656   2.935   0.111  0.4388  0.7021  0.2764
  425MPD2    H5 6400   1.632   2.837   0.115 -1.7797  1.1294 -2.1539
  425MPD2    N1 6401   2.054   2.780  17.655 -0.0545 -0.0577  0.0938
  425MPD2    H7 6402   2.130   2.809  17.594  0.0866 -1.1197 -0.2428
  426TMC3    C1 6403   2.141   2.558  17.624  0.1684 -0.2141  0.0735
  426TMC3    C2 6404   2.096   2.540  17.491  0.0887 -0.2223 -0.4035
  426TMC3    C3 6405   2.103   2.414  17.432 -0.6926 -0.0150 -0.2476
  426TMC3    C4 6406   2.175   2.446  17.698 -0.8619 -0.0780 -0.8461
  426TMC3    C5 6407   2.178   2.326  17.637  0.2719  0.5833 -0.3070
  426TMC3    C6 6408   2.153   2.309  17.504 -0.2511  0.2800 -0.2003
  426TMC3     C 6409   2.069   2.651  17.709 -0.6056 -0.2259  0.9930
  426TMC3     O 6410   2.034   2.600   0.056 -0.1218  0.2516  0.6693
  426TMC3     H 6411   2.051   2.622  17.437 -0.1190  0.1378  0.3229
  426TMC3    H1 6412   2.218   2.464   0.038 -0.5639 -2.0138 -0.6197
  426TMC3    H2 6413   2.155   2.205  17.472 -0.1079  1.1197 -2.9628
  426TMC3    C7 6414   2.122   2.221  17.718  0.3362 -0.0412 -0.2376
  426TMC3    C8 6415   2.042   2.376  17.311 -0.6472 -0.5715  0.3788
  426TMC3    O1 6416   2.106   2.110  17.666 -0.6444  0.7992 -0.2947
  426TMC3    O2 6417   2.039   2.260  17.275 -0.1602  0.2823  0.2146
  427MPD2     C 6418   0.239   0.478  15.161  0.2226  0.2084 -0.3002
  427MPD2    C1 6419   0.166   0.392  15.238 -0.5752  0.6816 -0.8216
  427MPD2    C2 6420   0.027   0.402  15.235 -0.5736 -0.4931 -0.4567
  427MPD2    C3 6421   4.709   0.488  15.143 -0.2944 -0.5085  0.1960
  427MPD2    C4 6422   0.040   0.570  15.054  0.3429 -0.8622 -0.0453
  427MPD2    C5 6423   0.175   0.566  15.069  0.6388  0.9777  0.1926
  427MPD2     H 6424   4.705   0.340  15.299 -2.6205 -0.0100 -1.9650
  427MPD2    H1 6425   4.736   0.642  14.986  1.4233 -0.6107 -0.4792
  427MPD2    H2 6426   0.347   0.485  15.167  0.4267 -0.0365 -3.5266
  427MPD2    H3 6427   0.235   0.642  15.020  1.8554 -0.6044 -0.7608
  427MPD2     N 6428   4.569   0.490  15.109 -0.7708 -0.5264  0.0050
  427MPD2    H5 6429   4.548   0.546  15.028  0.2684 -1.7138 -1.0772
  427MPD2    N1 6430   0.241   0.323  15.339 -0.3145 -0.1993 -0.8038
  427MPD2    H7 6431   0.342   0.324  15.325 -0.2387 -2.5744 -0.4900
  428TMC3    C1 6432   0.281   0.186  15.537 -0.9313  0.4893 -0.3190
  428TMC3    C2 6433   0.221   0.130  15.647  0.5233 -0.7056 -1.0652
  428TMC3    C3 6434   0.285   0.011  15.696  0.1576  0.5104 -0.4925
  428TMC3    C4 6435   0.396   0.147  15.477 -0.2357  0.0434  0.2664
  428TMC3    C5 6436   0.452   0.030  15.523 -0.1217 -0.1428  0.2605
  428TMC3    C6 6437   0.390   4.691  15.624  0.4286 -0.2199 -0.2003
  428TMC3     C 6438   0.188   0.267  15.454  0.7781 -0.0735 -0.2985
  428TMC3     O 6439   0.079   0.303  15.500  0.0103  0.2951 -0.2505
  428TMC3     H 6440   0.129   0.162  15.693  0.7571 -1.2245 -0.2345
  428TMC3    H1 6441   0.450   0.198  15.399  0.7390  2.3001  2.4181
  428TMC3    H2 6442   0.429   4.597  15.660  0.4346 -0.3881 -0.6440
  428TMC3    C7 6443   0.593   0.008  15.544  0.8692 -0.0801 -0.5691
  428TMC3    C8 6444   0.226   4.661  15.794  0.7612  1.4115 -0.1512
  428TMC3    O1 6445   0.628   4.643  15.590  0.0501 -0.0878 -0.4851
  428TMC3    O2 6446   0.227   4.545  15.759  0.0322 -0.5920 -0.0063
  429MPD2     C 6447   1.441   0.299  17.740  0.3353  0.2659 -0.3766
  429MPD2    C1 6448   1.539   0.223  17.677  0.3609 -0.2028 -1.5378
  429MPD2    C2 6449   1.615   0.278  17.570 -0.9219 -1.0129  0.1430
  429MPD2    C3 6450   1.599   0.408  17.530  0.2679  0.7886 -0.3018
  429MPD2    C4 6451   1.497   0.480  17.594  0.1979  0.2391  0.7884
  429MPD2    C5 6452   1.422   0.428  17.698 -0.4561  0.1763  0.4222
  429MPD2     H 6453   1.687   0.215  17.518 -1.3568 -1.8449  0.5463
  429MPD2    H1 6454   1.471   0.581  17.564 -0.0027 -0.0122  0.1103
  429MPD2    H2 6455   1.386   0.258   0.066 -0.8932  0.2996 -1.1598
  429MPD2    H3 6456   1.338   0.487  17.731 -0.5665  0.6037 -0.6380
  429MPD2     N 6457   1.682   0.458  17.422  0.5925  0.0227  0.0228
  429MPD2    H5 6458   1.756   0.394  17.397  1.2880  0.7535  0.2238
  429MPD2    N1 6459   1.575   0.093  17.713 -0.6093 -0.0207 -0.0145
  429MPD2    H7 6460   1.651   0.058  17.655 -1.4647  0.3716 -1.3798
  430TMC3    C1 6461   1.727   0.583  17.224  0.6220  0.0977  0.6010
  430TMC3    C2 6462   1.697   0.689  17.144 -1.0104 -0.8076 -0.0066
  430TMC3    C3 6463   1.759   0.695  17.023  1.0849 -0.2191 -0.5194
  430TMC3    C4 6464   1.803   0.475  17.184 -0.0775 -0.1343  1.1647
  430TMC3    C5 6465   1.871   0.496  17.068 -0.3543 -0.4396  0.2430
  430TMC3    C6 6466   1.862   0.607  16.990 -0.3467  0.6203  0.0890
  430TMC3     C 6467   1.650   0.570  17.350 -0.4223 -0.0928  0.4922
  430TMC3     O 6468   1.570   0.659  17.371 -0.2490 -0.8815  0.1558
  430TMC3     H 6469   1.614   0.747  17.182 -0.1591  0.5318 -0.1529
  430TMC3    H1 6470   1.828   0.386  17.241  2.2680  0.3681  0.9307
  430TMC3    H2 6471   1.923   0.612  16.900  0.4674 -0.2604  0.6017
  430TMC3    C7 6472   1.857   0.375  16.982  0.3967  0.1218  0.8683
  430TMC3    C8 6473   1.694   0.744  16.900  0.3314 -0.1633  0.1382
  430TMC3    O1 6474   1.866   0.266  17.039  0.4536 -0.3335 -0.4543
  430TMC3    O2 6475   1.731   0.698  16.795 -0.0838 -0.0353 -0.4014
  431MPD2     C 6476   1.715   0.449  12.287 -0.0447 -1.2463 -0.1933
  431MPD2    C1 6477   1.783   0.544  12.221 -0.2416 -0.3374  0.2559
  431MPD2    C2 6478   1.785   0.540  12.081  0.0063 -0.6280 -0.4743
  431MPD2    C3 6479   1.733   0.426  12.012  0.0502 -0.3209 -0.0272
  431MPD2    C4 6480   1.666   0.330  12.083  0.3545  0.2724 -0.4944
  431MPD2    C5 6481   1.655   0.349  12.217 -0.0893 -0.3428 -0.0842
  431MPD2     H 6482   1.847   0.610  12.025  0.4587 -0.0873  0.6944
  431MPD2    H1 6483   1.614   0.249  12.032 -3.4847  2.0186  0.6589
  431MPD2    H2 6484   1.693   0.454  12.393 -1.0513  0.6552 -0.4910
  431MPD2    H3 6485   1.605   0.272  12.275  0.2397 -1.3271 -1.1117
  431MPD2     N 6486   1.765   0.396  11.872 -0.0385 -0.3617 -0.1871
  431MPD2    H5 6487   1.742   0.301  11.847  0.6577 -1.0947  1.9057
  431MPD2    N1 6488   1.838   0.653  12.284  0.7434  0.6004 -0.3233
  431MPD2    H7 6489   1.865   0.727  12.219  0.7958  1.5532  0.7762
  432TMC3    C1 6490   1.891   0.413  11.678  1.1627  0.7069 -0.0195
  432TMC3    C2 6491   1.935   0.504  11.586  0.1278 -0.1529 -0.4714
  432TMC3    C3 6492   2.057   0.492  11.532  0.4486 -0.0201  0.1534
  432TMC3    C4 6493   1.967   0.303  11.709 -0.3108  0.1279  0.0560
  432TMC3    C5 6494   2.087   0.289  11.643  1.3779 -0.3264 -0.0795
  432TMC3    C6 6495   2.140   0.390  11.564  0.1812 -0.2893  0.1762
  432TMC3     C 6496   1.827   0.482  11.778 -0.6203  0.3057  0.1156
  432TMC3     O 6497   1.848   0.604  11.785 -0.2968  0.3552  0.0634
  432TMC3     H 6498   1.883   0.598  11.573 -0.6293 -0.5999 -0.6730
  432TMC3    H1 6499   1.926   0.228  11.776 -1.4654  1.4442  0.8044
  432TMC3    H2 6500   2.222   0.362  11.499 -0.9327  0.0405 -1.3739
  432TMC3    C7 6501   2.177   0.187  11.688 -0.1818  0.3819 -0.1015
  432TMC3    C8 6502   2.119   0.619  11.494  0.4579  0.7889  0.0909
  432TMC3    O1 6503   2.269   0.147  11.619 -0.1677 -0.7244  0.1521
  432TMC3    O2 6504   2.049   0.698  11.432  0.5043  0.3014 -0.4545
  433MPD2     C 6505   0.421   4.229  10.507  0.8754  0.2975  0.2648
  433MPD2    C1 6506   0.497   4.146  10.588  0.6371  0.1323 -0.2084
  433MPD2    C2 6507   0.566   4.198  10.692 -0.5014  0.3878  0.3336
  433MPD2    C3 6508   0.579   4.334  10.707 -0.7359  0.3235 -0.3019
  433MPD2    C4 6509   0.501   4.416  10.623 -0.4009  0.1818 -0.1299
  433MPD2    C5 6510   0.426   4.364  10.525 -0.6050 -0.1069  0.4248
  433MPD2     H 6511   0.632   4.141  10.758  0.0141  0.1315 -0.4085
  433MPD2    H1 6512   0.492   4.521  10.649  1.4478  0.7507 -1.7743
  433MPD2    H2 6513   0.357   4.186  10.430  0.4950  0.0848  0.7005
  433MPD2    H3 6514   0.366   4.426  10.459  0.2569 -0.6672 -0.8594
  433MPD2     N 6515   0.673   4.368  10.799 -0.4939  0.5382 -0.1006
  433MPD2    H5 6516   0.724   4.297  10.850 -1.6379  0.9385  1.6323
  433MPD2    N1 6517   0.503   4.011  10.560 -0.2424 -0.2564  0.8640
  433MPD2    H7 6518   0.461   3.992  10.469 -1.2706  0.0519  1.2697
  434TMC3    C1 6519   0.560   3.782  10.602 -0.2010  0.3094  0.1793
  434TMC3    C2 6520   0.662   3.709  10.650  0.2660  0.2550  0.3599
  434TMC3    C3 6521   0.652   3.574  10.665  0.0243  0.5619 -0.2994
  434TMC3    C4 6522   0.444   3.720  10.558  0.1599 -0.0547 -0.2327
  434TMC3    C5 6523   0.431   3.581  10.573  0.1657  0.1036 -0.0691
  434TMC3    C6 6524   0.534   3.508  10.627  0.0613 -0.4162 -0.1258
  434TMC3     C 6525   0.543   3.920  10.655  0.2346 -0.4176 -0.5334
  434TMC3     O 6526   0.564   3.933  10.775 -0.1972  0.0908  0.8599
  434TMC3     H 6527   0.750   3.760  10.688 -1.0858  0.7510  2.7758
  434TMC3    H1 6528   0.373   3.785  10.509 -0.8450 -1.2257 -0.3191
  434TMC3    H2 6529   0.524   3.400  10.624 -1.6787 -0.3032  1.3029
  434TMC3    C7 6530   0.309   3.525  10.520 -0.2697  0.3541 -0.4970
  434TMC3    C8 6531   0.733   3.520  10.770  0.7703 -0.5145 -0.4103
  434TMC3    O1 6532   0.215   3.599  10.495 -0.4909  0.0086 -0.1803
  434TMC3    O2 6533   0.835   3.583  10.797  0.2763 -0.4559  0.5193
  435MPD2     C 6534   3.274   3.768  15.265  0.2033  0.3683 -0.4984
  435MPD2    C1 6535   3.173   3.740  15.359 -0.1677 -0.2512  0.2114
  435MPD2    C2 6536   3.205   3.658  15.463 -0.3126  0.2954 -1.1467
  435MPD2    C3 6537   3.326   3.596  15.484 -0.1728  0.7879 -0.4134
  435MPD2    C4 6538   3.425   3.617  15.385  0.4988  0.7727  1.3664
  435MPD2    C5 6539   3.399   3.714  15.283  0.0655 -0.0373  0.2962
  435MPD2     H 6540   3.129   3.628  15.534 -0.3441  0.4741 -1.1041
  435MPD2    H1 6541   3.528   3.584  15.391  0.9673  1.6821 -1.4369
  435MPD2    H2 6542   3.253   3.838  15.185  3.1772  0.9267 -0.7950
  435MPD2    H3 6543   3.488   3.728  15.223 -1.8465  0.7084 -2.3246
  435MPD2     N 6544   3.343   3.515  15.594  0.5531 -0.8374  0.0812
  435MPD2    H5 6545   3.264   3.503  15.657 -1.2256  1.6591 -1.6721
  435MPD2    N1 6546   3.041   3.784  15.354 -0.0502  0.3611 -0.1368
  435MPD2    H7 6547   2.986   3.754  15.433 -0.3508  1.0924 -0.0679
  436TMC3    C1 6548   2.639   3.870  15.288  0.1061  0.2627 -0.2140
  436TMC3    C2 6549   2.768   3.852  15.343  0.4472  0.0504  0.2893
  436TMC3    C3 6550   2.860   3.947  15.313 -0.7249  0.1832  0.3754
  436TMC3    C4 6551   2.611   3.990  15.230  0.1851  0.1018  0.0246
  436TMC3    C5 6552   2.700   4.090  15.220  0.1757 -0.5525 -0.3564
  436TMC3    C6 6553   2.833   4.069  15.259  0.5970 -0.0762  0.1872
  436TMC3     C 6554   2.531   3.808  15.360  0.1767 -0.1783  0.1897
  436TMC3     O 6555   2.486   3.704  15.310 -0.0463  0.4715 -0.2200
  436TMC3     H 6556   2.785   3.750  15.376 -1.2389 -0.6725 -1.0440
  436TMC3    H1 6557   2.503   4.000  15.226  0.1326 -0.1579  0.7336
  436TMC3    H2 6558   2.910   4.144  15.248  1.3216 -0.8713 -0.0583
  436TMC3    C7 6559   2.669   4.208  15.152  0.0450 -0.0679 -0.2612
  436TMC3    C8 6560   3.001   3.905  15.298  0.0059  0.4367  0.1229
  436TMC3    O1 6561   2.766   4.280  15.120  0.4954  0.3102 -0.1770
  436TMC3    O2 6562   3.071   3.982  15.233  0.8513  0.3439  0.4956
  437TMC3    C1 6563   1.356   1.331  12.594 -0.6408  0.6288 -0.2406
  437TMC3    C2 6564   1.274   1.402  12.678 -0.5931  0.2918 -0.0682
  437TMC3    C3 6565   1.237   1.525  12.647  0.9258 -0.1536 -0.2575
  437TMC3    C4 6566   1.417   1.388  12.481  0.0167  0.2941  1.6916
  437TMC3    C5 6567   1.381   1.518  12.457 -0.4666 -0.5891 -0.0793
  437TMC3    C6 6568   1.291   1.588  12.533 -0.0751  0.7545 -0.0161
  437TMC3     C 6569   1.420   1.212  12.645  0.3650 -0.6266  0.0538
  437TMC3     O 6570   1.402   1.191  12.764  0.4391  0.4926  0.0010
  437TMC3     H 6571   1.250   1.358  12.775  0.8093 -1.2458 -0.4070
  437TMC3    H1 6572   1.499   1.345  12.425 -1.6314 -2.0745  1.1015
  437TMC3    H2 6573   1.258   1.686  12.499  1.3824  1.2206 -0.1022
  437TMC3    C7 6574   1.485   1.617  12.421 -0.6168 -0.8875 -0.0707
  437TMC3    C8 6575   1.132   1.585  12.724  0.3255  0.0269  0.0495
  437TMC3    O1 6576   1.451   1.737  12.401 -0.2328  0.4543  0.0512
  437TMC3    O2 6577   1.063   1.506  12.784 -0.7129 -0.2697 -0.0375
  438MPD2     C 6578   4.171   1.906  16.945 -0.0743  1.1320 -0.3644
  438MPD2    C1 6579   4.271   1.824  16.993 -0.1388 -0.1747  0.9632
  438MPD2    C2 6580   4.311   1.841  17.126  0.0917 -0.5765 -0.5626
  438MPD2    C3 6581   4.256   1.943  17.212  0.8430  0.2563  0.2300
  438MPD2    C4 6582   4.164   2.032  17.152 -0.2530 -0.6000 -0.0115
  438MPD2    C5 6583   4.117   2.001  17.026  1.1841  0.1669 -0.1026
  438MPD2     H 6584   4.376   1.762  17.163  0.8907  1.2595  1.9350
  438MPD2    H1 6585   4.117   2.114  17.206  0.3133 -0.0061 -0.4152
  438MPD2    H2 6586   4.135   1.907  16.843 -3.6450 -1.5807  0.8817
  438MPD2    H3 6587   4.043   2.065  16.979 -0.2641 -1.0972  0.4501
  438MPD2     N 6588   4.292   1.966  17.350  0.3038  0.1397  0.0142
  438MPD2    H5 6589   4.245   2.038  17.404 -0.1496 -1.0453  1.2212
  438MPD2    N1 6590   4.343   1.731  16.920  0.7508  0.0103  0.5909
  438MPD2    H7 6591   4.421   1.685  16.966 -1.4796 -1.8533  2.4966
  439TMC3    C1 6592   4.405   1.612  16.724  0.4374  0.2124 -1.4249
  439TMC3    C2 6593   4.361   1.552  16.600  0.2192  0.1626  0.2016
  439TMC3    C3 6594   4.409   1.430  16.566  0.5169  0.4333  0.1234
  439TMC3    C4 6595   4.500   1.549  16.803 -0.8274  0.6353 -0.1090
  439TMC3    C5 6596   4.532   1.424  16.769 -0.4801 -1.4776 -0.0256
  439TMC3    C6 6597   4.486   1.365  16.655 -0.7803 -0.1141 -0.5599
  439TMC3     C 6598   4.317   1.704  16.789 -0.1367  0.3123 -0.7694
  439TMC3     O 6599   4.219   1.741  16.725  0.3144 -0.2895 -0.0754
  439TMC3     H 6600   4.305   1.614  16.532 -1.4180 -0.4918  0.9336
  439TMC3    H1 6601   4.545   1.588  16.893 -1.0915 -1.9272  1.1364
  439TMC3    H2 6602   4.515   1.262  16.635 -0.7528 -0.3532  0.7462
  439TMC3    C7 6603   4.672   1.395  16.803  0.1046 -0.4117  0.2053
  439TMC3    C8 6604   4.469   1.415  16.432 -0.3074  0.4462  0.2456
  439TMC3    O1 6605   4.726   1.416  16.911 -0.6326 -0.3526 -0.6026
  439TMC3    O2 6606   4.585   1.375  16.437 -0.6062 -0.4952  0.0804
  440MPD2     C 6607   3.035   2.188  14.748  0.3820 -0.0660  0.3884
  440MPD2    C1 6608   3.010   2.261  14.867  0.2139  0.0763  0.1464
  440MPD2    C2 6609   3.083   2.219  14.979  0.1142 -0.0736 -0.7333
  440MPD2    C3 6610   3.154   2.101  14.970 -0.0108  0.1241 -0.4371
  440MPD2    C4 6611   3.161   2.022  14.854  0.3563 -0.2842 -0.0342
  440MPD2    C5 6612   3.102   2.068  14.743 -0.8407 -0.3908 -0.0966
  440MPD2     H 6613   3.071   2.267  15.076 -0.5407 -2.2777  0.2912
  440MPD2    H1 6614   3.236   1.945  14.843 -0.0649 -0.5866 -0.7837
  440MPD2    H2 6615   2.997   2.216  14.650  1.2982 -0.7131 -0.1523
  440MPD2    H3 6616   3.113   2.015  14.650 -0.9090 -0.4710 -0.0596
  440MPD2     N 6617   3.210   2.067  15.092 -0.0933 -0.2040 -0.2798
  440MPD2    H5 6618   3.198   2.136  15.166  1.0840 -0.4591  0.1460
  440MPD2    N1 6619   2.921   2.370  14.885  0.3596  0.2127  0.4496
  440MPD2    H7 6620   2.917   2.406  14.980 -2.6496  1.2408 -0.0769
  441TMC3    C1 6621   3.309   1.950  15.264  0.0467 -0.0339  0.1779
  441TMC3    C2 6622   3.369   2.066  15.303 -0.0211 -0.1445 -1.2384
  441TMC3    C3 6623   3.425   2.067  15.425  0.4856 -1.2212 -0.4238
  441TMC3    C4 6624   3.295   1.839  15.340  0.6908 -0.8524 -0.0832
  441TMC3    C5 6625   3.364   1.845  15.461 -0.4586 -0.3769  0.4683
  441TMC3    C6 6626   3.435   1.957  15.501  0.1455  0.4395  0.0170
  441TMC3     C 6627   3.269   1.943  15.125 -0.4357 -0.3270  0.8175
  441TMC3     O 6628   3.295   1.848  15.050  0.1283  0.7565  0.5577
  441TMC3     H 6629   3.385   2.151  15.239 -0.7437  1.0842  0.2132
  441TMC3    H1 6630   3.249   1.744  15.315 -0.8410 -0.1296 -0.0303
  441TMC3    H2 6631   3.477   1.972  15.600  1.5207 -0.0283 -0.4896
  441TMC3    C7 6632   3.332   1.748  15.566  0.0418  0.3530 -0.1855
  441TMC3    C8 6633   3.467   2.191  15.483 -0.2559  0.2337 -0.3799
  441TMC3    O1 6634   3.222   1.699  15.558  0.6302 -0.1692 -0.4040
  441TMC3    O2 6635   3.586   2.203  15.507 -0.3484 -0.3994  0.1409
  442MPD2     C 6636   1.404   2.631  17.289  0.5350  0.3650 -1.3230
  442MPD2    C1 6637   1.309   2.664  17.189  0.1145 -0.3458 -0.3227
  442MPD2    C2 6638   1.279   2.561  17.096  0.4209 -0.0754 -0.6306
  442MPD2    C3 6639   1.345   2.437  17.100 -0.1758 -0.1107  0.4951
  442MPD2    C4 6640   1.426   2.402  17.210  0.4274 -0.0170 -0.0370
  442MPD2    C5 6641   1.455   2.506  17.296  0.5750  0.5238 -0.5317
  442MPD2     H 6642   1.203   2.584  17.022  0.7380 -0.5772 -1.1094
  442MPD2    H1 6643   1.474   2.306  17.227  3.2739  1.3436 -0.4045
  442MPD2    H2 6644   1.437   2.690  17.374 -0.4294 -1.7332  0.5027
  442MPD2    H3 6645   1.506   2.488  17.389 -1.5021 -0.2727  0.4560
  442MPD2     N 6646   1.322   2.335  17.012  0.5269  0.1882  0.3995
  442MPD2    H5 6647   1.359   2.244  17.039  0.1361 -0.5670 -1.6632
  442MPD2    N1 6648   1.243   2.788  17.184  0.2389 -0.5841  0.1540
  442MPD2    H7 6649   1.190   2.808  17.100 -0.5579 -1.8655  0.3609
  443TMC3    C1 6650   1.162   2.994  17.235 -0.6064  0.3143 -1.0762
  443TMC3    C2 6651   1.160   3.018  17.101 -0.0732  0.1667  0.0025
  443TMC3    C3 6652   1.041   3.081  17.064  0.0620  0.5675  0.2461
  443TMC3    C4 6653   1.069   3.032  17.326  0.4880 -0.1316 -0.1260
  443TMC3    C5 6654   0.956   3.094  17.280 -0.0084  0.2227  0.0691
  443TMC3    C6 6655   0.945   3.120  17.144 -0.1382 -0.1649 -0.1181
  443TMC3     C 6656   1.233   2.877  17.284 -0.3686  0.6844 -0.2124
  443TMC3     O 6657   1.254   2.858  17.405  0.0073  0.6085 -0.0047
  443TMC3     H 6658   1.234   2.980  17.031 -0.4958  0.3158 -0.5274
  443TMC3    H1 6659   1.069   3.007  17.431  1.9436 -0.4970 -0.2121
  443TMC3    H2 6660   0.849   3.150  17.103 -0.7239 -0.8160  0.7760
  443TMC3    C7 6661   0.836   3.064  17.350  0.0716 -0.1178  0.0622
  443TMC3    C8 6662   0.998   3.028  16.933  0.5910  0.3577 -0.5739
  443TMC3    O1 6663   0.738   3.056  17.281 -0.2190 -0.1350  0.8489
  443TMC3    O2 6664   1.053   2.919  16.914 -0.5752  0.3533 -0.0749
  444MPD2     C 6665   1.551   2.040  17.228 -0.2563  0.4853  0.4529
  444MPD2    C1 6666   1.455   1.955  17.190 -0.4700  0.2318 -0.3779
  444MPD2    C2 6667   1.484   1.857  17.101  0.1665 -0.4204 -0.0500
  444MPD2    C3 6668   1.608   1.842  17.047 -0.3808 -0.0397  0.4159
  444MPD2    C4 6669   1.706   1.932  17.084 -0.0424 -0.1484  0.0023
  444MPD2    C5 6670   1.671   2.028  17.176  0.5937  0.3822  0.1306
  444MPD2     H 6671   1.410   1.785  17.069  1.6218 -0.9253 -2.2821
  444MPD2    H1 6672   1.804   1.939  17.037 -0.3470 -1.3904 -0.8264
  444MPD2    H2 6673   1.538   2.123  17.296 -0.6857 -0.1816  1.1855
  444MPD2    H3 6674   1.751   2.094  17.206  1.4342  0.4543 -2.2399
  444MPD2     N 6675   1.635   1.727  16.963  0.5612  0.0787 -0.3429
  444MPD2    H5 6676   1.560   1.661  16.946 -1.3339  2.1523 -0.1516
  444MPD2    N1 6677   1.332   1.955  17.258  1.1531 -0.2051 -0.3624
  444MPD2    H7 6678   1.258   1.893  17.227 -0.0258  1.0998 -0.1067
  445TMC3    C1 6679   1.748   1.592  16.801 -0.2766  0.2255 -0.2189
  445TMC3    C2 6680   1.630   1.541  16.753  0.4594 -0.7235  0.1937
  445TMC3    C3 6681   1.630   1.432  16.672  1.4223  0.1215 -0.7280
  445TMC3    C4 6682   1.869   1.527  16.775 -0.8066  0.8729 -0.5702
  445TMC3    C5 6683   1.857   1.409  16.702  0.7194 -0.2080  0.3741
  445TMC3    C6 6684   1.741   1.366  16.637  0.1672 -0.1342  0.4439
  445TMC3     C 6685   1.755   1.708  16.896 -0.3141  1.0448 -0.6368
  445TMC3     O 6686   1.857   1.775  16.884  0.2199  0.7835 -0.6024
  445TMC3     H 6687   1.537   1.591  16.775  0.7174 -0.9751  1.8190
  445TMC3    H1 6688   1.966   1.550  16.816 -0.2664 -0.0402 -1.3247
  445TMC3    H2 6689   1.738   1.293  16.557 -1.7325 -0.7508  1.0938
  445TMC3    C7 6690   1.980   1.359  16.640  0.7614  0.0219 -0.5113
  445TMC3    C8 6691   1.507   1.378  16.624  0.7411  0.4641  0.4145
  445TMC3    O1 6692   2.071   1.436  16.627  0.2169  0.8253  0.3464
  445TMC3    O2 6693   1.516   1.264  16.594  0.2095 -0.1970 -0.0996
  446MPD2     C 6694   0.300   3.488  11.045 -0.4345  0.2781  0.4148
  446MPD2    C1 6695   0.282   3.594  10.950  0.0620 -0.1468 -0.5916
  446MPD2    C2 6696   0.382   3.691  10.956  1.4485  0.5171 -0.3729
  446MPD2    C3 6697   0.494   3.686  11.038  0.3012 -0.2414  0.4756
  446MPD2    C4 6698   0.507   3.582  11.124  0.3603 -0.2291  0.2141
  446MPD2    C5 6699   0.411   3.482  11.124  0.2620  0.1120  0.5223
  446MPD2     H 6700   0.376   3.766  10.878 -1.6444  0.0182 -0.6383
  446MPD2    H1 6701   0.597   3.566  11.182  1.0907 -0.4402 -0.9719
  446MPD2    H2 6702   0.228   3.409  11.060  0.8688 -1.7225 -3.8671
  446MPD2    H3 6703   0.418   3.398  11.193 -1.9413  1.2933  2.2045
  446MPD2     N 6704   0.595   3.780  11.014  0.0270 -0.5950 -0.0313
  446MPD2    H5 6705   0.582   3.844  10.936 -0.0839 -0.6278 -0.0401
  446MPD2    N1 6706   0.180   3.587  10.849  0.5433  0.4653 -0.3492
  446MPD2    H7 6707   0.150   3.675  10.808 -0.8843 -0.1444 -0.5989
  447TMC3    C1 6708   0.832   3.818  11.024  0.9928  0.6062  0.3965
  447TMC3    C2 6709   0.837   3.928  10.941 -0.0804  0.7749  0.1111
  447TMC3    C3 6710   0.958   3.943  10.882 -0.0151 -0.5174 -0.2615
  447TMC3    C4 6711   0.941   3.738  11.064  0.0994 -0.0237 -0.4874
  447TMC3    C5 6712   1.063   3.765  11.004 -0.5568  0.0301 -0.3339
  447TMC3    C6 6713   1.067   3.861  10.906 -0.2943 -0.2416  1.2368
  447TMC3     C 6714   0.715   3.772  11.087 -0.0325  0.1581 -0.0743
  447TMC3     O 6715   0.738   3.747  11.207  0.0923 -0.1180 -0.4500
  447TMC3     H 6716   0.745   3.976  10.910 -1.2780 -1.2796  0.4615
  447TMC3    H1 6717   0.927   3.645  11.118 -0.5459 -0.4152 -1.3295
  447TMC3    H2 6718   1.164   3.874  10.859 -0.4782 -2.5124  0.1966
  447TMC3    C7 6719   1.174   3.666  11.020  0.3611 -0.3296  0.2269
  447TMC3    C8 6720   0.965   4.042  10.779  0.1341 -0.6704 -0.1313
  447TMC3    O1 6721   1.137   3.559  11.066  0.9874  0.4981 -0.4151
  447TMC3    O2 6722   0.857   4.045  10.717 -0.3221 -0.2052 -0.0925
  448TMC3    C1 6723   3.728   2.986  17.706  0.1856  0.7558  0.2464
  448TMC3    C2 6724   3.707   2.893  17.609 -0.2299 -0.4432 -0.4852
  448TMC3    C3 6725   3.811   2.823  17.549  0.2239 -0.0062 -0.5633
  448TMC3    C4 6726   3.854   3.014  17.746  0.2664 -0.8584 -0.0188
  448TMC3    C5 6727   3.957   2.934  17.698 -0.1046  0.4853  0.2153
  448TMC3    C6 6728   3.936   2.838  17.601 -1.4695  0.0764  0.2698
  448TMC3     C 6729   3.619   3.039   0.027 -0.3730  0.3136  0.0145
  448TMC3     O 6730   3.511   3.027  17.735 -0.3083 -0.6426 -0.2247
  448TMC3     H 6731   3.605   2.882  17.574  0.1339 -0.0146 -1.6898
  448TMC3    H1 6732   3.885   3.095   0.054  1.8434 -1.7907  0.4029
  448TMC3    H2 6733   4.024   2.779  17.579 -1.4604  1.1766 -2.5688
  448TMC3    C7 6734   4.086   2.962  17.756 -0.0309 -0.3850  1.3523
  448TMC3    C8 6735   3.778   2.757  17.420 -0.2328 -0.3143 -0.1224
  448TMC3    O1 6736   4.175   2.968  17.674  0.3684 -0.3780  0.3231
  448TMC3    O2 6737   3.661   2.772  17.382 -0.3232 -0.1894 -0.3351
  449MPD2     C 6738   0.737   1.903  14.276  0.1292 -0.8210 -0.1504
  449MPD2    C1 6739   0.602   1.943  14.240  0.1339  0.0161  0.0688
  449MPD2    C2 6740   0.500   1.851  14.247 -0.7096  0.1821  0.0078
  449MPD2    C3 6741   0.520   1.720  14.283  0.2523  0.4003  0.5402
  449MPD2    C4 6742   0.642   1.683  14.326  0.6681  0.3990 -0.3673
  449MPD2    C5 6743   0.749   1.773  14.317 -0.6538 -0.4387  0.1402
  449MPD2     H 6744   0.399   1.883  14.226 -0.2477  1.3755 -0.4205
  449MPD2    H1 6745   0.665   1.580  14.349 -1.1769 -0.3285 -1.8252
  449MPD2    H2 6746   0.820   1.972  14.268 -0.2015  0.0163  3.6059
  449MPD2    H3 6747   0.849   1.736  14.335 -0.3096  0.5250  0.2240
  449MPD2     N 6748   0.417   1.631  14.286  0.7242 -0.3672 -0.0944
  449MPD2    H5 6749   0.329   1.654  14.241  1.0213  0.6055 -0.1752
  449MPD2    N1 6750   0.563   2.072  14.203  0.3238  0.1940 -0.2778
  449MPD2    H7 6751   0.464   2.091  14.199  0.4594  0.6565 -1.3227
  450TMC3    C1 6752   0.564   2.299  14.167 -0.2328 -0.2862 -0.8527
  450TMC3    C2 6753   0.588   2.342  14.042 -0.3948  0.7457  0.3112
  450TMC3    C3 6754   0.476   2.354  13.960 -0.3087 -0.3426 -0.1648
  450TMC3    C4 6755   0.436   2.284  14.214  0.0930  0.3193  0.0060
  450TMC3    C5 6756   0.329   2.304  14.134 -0.1482  0.0825  1.0562
  450TMC3    C6 6757   0.352   2.351  14.010  0.0438  0.1686 -0.3035
  450TMC3     C 6758   0.645   2.184  14.200  0.3126 -1.4729 -0.6086
  450TMC3     O 6759   0.767   2.189  14.206  0.0207 -0.6018  0.3661
  450TMC3     H 6760   0.690   2.348  14.007 -0.1058  1.7402  1.3265
  450TMC3    H1 6761   0.424   2.245  14.315  0.6750 -2.5593 -1.0472
  450TMC3    H2 6762   0.267   2.362  13.943 -2.5516 -3.3777  2.4110
  450TMC3    C7 6763   0.239   2.192  14.139 -0.3694  0.0708  0.4104
  450TMC3    C8 6764   0.489   2.345  13.814  0.2970 -0.3874 -1.2425
  450TMC3    O1 6765   0.271   2.096  14.207 -0.3889  0.2146 -0.1606
  450TMC3    O2 6766   0.385   2.361  13.747  0.0730 -0.3309 -0.7077
  451MPD2     C 6767   2.171   1.051   0.873  0.1105 -0.2954  0.1376
  451MPD2    C1 6768   2.085   0.944   0.867  0.0259  0.1489 -0.1855
  451MPD2    C2 6769   2.131   0.824   0.821 -0.1969  0.0913 -0.3060
  451MPD2    C3 6770   2.269   0.811   0.801  0.0841 -0.3084  0.1815
  451MPD2    C4 6771   2.353   0.916   0.810  0.1685  0.0743 -0.6367
  451MPD2    C5 6772   2.300   1.043   0.848  0.0999  0.2458 -0.7784
  451MPD2     H 6773   2.064   0.740   0.827  0.8037 -0.6439  0.6273
  451MPD2    H1 6774   2.452   0.899   0.770 -0.4282 -0.6674 -1.7945
  451MPD2    H2 6775   2.126   1.147   0.896 -1.5860 -1.2065  0.6227
  451MPD2    H3 6776   2.365   1.129   0.853 -0.5210  0.5682  1.5939
  451MPD2     N 6777   2.330   0.687   0.762  0.3542  0.1251 -0.6077
  451MPD2    H5 6778   2.427   0.693   0.733 -0.4655 -1.2997 -3.5603
  451MPD2    N1 6779   1.951   0.954   0.900 -0.1229  0.3417  0.2744
  451MPD2    H7 6780   1.892   0.871   0.897 -0.4657  0.6064 -0.3533
  452TMC3    C1 6781   2.357   0.469   0.726 -0.6906  0.6710  0.0661
  452TMC3    C2 6782   2.308   0.342   0.763 -0.3099  0.5899  0.3649
  452TMC3    C3 6783   2.365   0.242   0.701  0.6426 -0.0436  0.1876
  452TMC3    C4 6784   2.467   0.487   0.648 -0.6733  0.1578  0.1131
  452TMC3    C5 6785   2.516   0.381   0.583  0.1052  0.2897 -0.3403
  452TMC3    C6 6786   2.468   0.253   0.612 -0.0165  0.1132 -0.4087
  452TMC3     C 6787   2.267   0.571   0.756  0.3697  0.4401  0.2526
  452TMC3     O 6788   2.150   0.544   0.789 -0.0334  0.3253 -0.3308
  452TMC3     H 6789   2.232   0.335   0.840  2.0159  2.4883  2.8471
  452TMC3    H1 6790   2.504   0.584   0.615 -0.5591 -0.5508 -1.8453
  452TMC3    H2 6791   2.509   0.160   0.575  0.3466  0.0672  0.1051
  452TMC3    C7 6792   2.594   0.395   0.460 -0.6032 -0.4388  0.5126
  452TMC3    C8 6793   2.305   0.105   0.710  0.2449 -0.4613  0.4998
  452TMC3    O1 6794   2.593   0.512   0.412 -0.4128  0.8163 -0.2048
  452TMC3    O2 6795   2.332   0.026   0.618  0.1677  0.1431 -0.3468
  453TMC3    C1 6796   2.929   2.513  11.976  0.6263 -0.0330  0.1891
  453TMC3    C2 6797   2.897   2.382  11.979  0.3290 -0.8674  0.0468
  453TMC3    C3 6798   2.805   2.337  11.890 -0.3053 -0.3873  0.0049
  453TMC3    C4 6799   2.876   2.598  11.884  1.0715 -0.0934  0.1085
  453TMC3    C5 6800   2.801   2.544  11.790 -0.7169 -0.1073 -0.0054
  453TMC3    C6 6801   2.754   2.415  11.792 -0.4387 -0.0859  0.3708
  453TMC3     C 6802   3.047   2.562  12.051  0.7930  0.6642 -0.1697
  453TMC3     O 6803   3.072   2.680  12.038  0.2677 -0.2284 -0.5447
  453TMC3     H 6804   2.939   2.313  12.051 -1.5155 -0.1571  1.8180
  453TMC3    H1 6805   2.937   2.684  11.859 -0.2329  0.6067 -0.6402
  453TMC3    H2 6806   2.685   2.373  11.719 -0.6797  1.4760 -0.3074
  453TMC3    C7 6807   2.776   2.633  11.674  0.5043  0.5175 -0.2505
  453TMC3    C8 6808   2.795   2.196  11.872  0.3113  0.3928  0.2186
  453TMC3    O1 6809   2.792   2.753  11.692 -0.1822  0.4290 -0.1301
  453TMC3    O2 6810   2.746   2.155  11.767 -0.2031  0.0387 -0.3837
  454MPD2     C 6811   2.232   1.642  16.226  0.1038  0.1028  0.0716
  454MPD2    C1 6812   2.164   1.752  16.185  0.3359 -0.3641 -0.9396
  454MPD2    C2 6813   2.129   1.860  16.269  0.3035 -0.0012  0.8079
  454MPD2    C3 6814   2.132   1.836  16.403  0.0794  0.3256 -0.0042
  454MPD2    C4 6815   2.177   1.719  16.456 -0.1312 -0.5368  0.0832
  454MPD2    C5 6816   2.240   1.629  16.363 -0.5244  0.0783 -0.5707
  454MPD2     H 6817   2.083   1.951  16.230  0.7609  0.2688  0.8907
  454MPD2    H1 6818   2.171   1.695  16.561  0.7996  0.0871  0.2761
  454MPD2    H2 6819   2.270   1.561  16.164 -2.4784  1.4501 -3.2645
  454MPD2    H3 6820   2.280   1.536  16.403  3.2995  1.4772 -1.1445
  454MPD2     N 6821   2.064   1.919  16.497  0.4615  0.9091 -0.3546
  454MPD2    H5 6822   2.055   1.897  16.596  2.3910  2.1356  0.0946
  454MPD2    N1 6823   2.111   1.762  16.059 -0.2537  0.1107  0.7682
  454MPD2    H7 6824   2.076   1.854  16.035 -2.2100 -0.1078  2.8238
  455TMC3    C1 6825   1.876   2.039  16.527 -0.2257 -1.1516 -0.1004
  455TMC3    C2 6826   1.862   2.089  16.651  0.0827 -0.1282  0.3478
  455TMC3    C3 6827   1.749   2.047  16.717 -0.1967  0.1397  0.2004
  455TMC3    C4 6828   1.811   1.930  16.482  0.5774 -0.0974  0.0562
  455TMC3    C5 6829   1.707   1.882  16.555 -0.1607  0.3625  0.0463
  455TMC3    C6 6830   1.666   1.950  16.665  0.0898 -0.5608 -0.1120
  455TMC3     C 6831   2.006   2.042  16.466 -0.1643 -0.0652  0.1943
  455TMC3     O 6832   2.034   2.120  16.378  0.5706 -0.7852 -0.2925
  455TMC3     H 6833   1.934   2.163  16.686 -0.7241  0.5618  0.5508
  455TMC3    H1 6834   1.829   1.910  16.377  0.3581  0.2359 -0.0456
  455TMC3    H2 6835   1.575   1.911  16.709  0.6959 -1.0551  0.7116
  455TMC3    C7 6836   1.641   1.760  16.507  0.4952  0.5361  0.8194
  455TMC3    C8 6837   1.688   2.129  16.817 -1.0216  0.1019 -0.2877
  455TMC3    O1 6838   1.523   1.739  16.530 -0.1030 -0.1150  0.6478
  455TMC3    O2 6839   1.566   2.149  16.820  0.9107 -0.1195 -0.1710
  456MPD2     C 6840   4.585   1.756  16.386  0.0954 -0.3096  0.2206
  456MPD2    C1 6841   4.674   1.773  16.490  0.6258 -0.2519  0.2724
  456MPD2    C2 6842   4.638   1.867  16.590 -0.0213  0.2635  0.0933
  456MPD2    C3 6843   4.531   1.938  16.588 -0.7396  0.5556 -0.2039
  456MPD2    C4 6844   4.439   1.910  16.492 -0.0044 -0.4056  0.4246
  456MPD2    C5 6845   4.469   1.825  16.386 -0.3151  0.2085 -0.2204
  456MPD2     H 6846   4.709   1.882  16.671 -2.0565  0.2008  1.8945
  456MPD2    H1 6847   4.348   1.969  16.488  0.2192 -0.1901 -1.6359
  456MPD2    H2 6848   4.596   1.686  16.305 -0.0867 -0.8189  0.6335
  456MPD2    H3 6849   4.402   1.807  16.303  0.9469 -2.4041 -0.6749
  456MPD2     N 6850   4.514   2.020  16.703  0.0600 -0.2245  0.1221
  456MPD2    H5 6851   4.592   2.026  16.767 -0.5711  0.1560  0.8535
  456MPD2    N1 6852   0.049   1.691  16.487 -0.0137  0.4331  0.1898
  456MPD2    H7 6853   0.073   1.635  16.405  1.9291  1.2297  0.2060
  457TMC3    C1 6854   4.423   2.162  16.865 -0.3282 -0.3731 -0.6943
  457TMC3    C2 6855   4.343   2.271  16.889  0.5248  0.5893  0.1495
  457TMC3    C3 6856   4.352   2.324  17.015  0.8160 -0.4115  0.2232
  457TMC3    C4 6857   4.515   2.117  16.957 -0.2192 -0.9810  1.0187
  457TMC3    C5 6858   4.534   2.186  17.077 -0.5595  0.5269  0.2334
  457TMC3    C6 6859   4.452   2.291  17.103  0.6177  0.5732 -0.3720
  457TMC3     C 6860   4.406   2.090  16.740  0.0349 -0.5358  0.9340
  457TMC3     O 6861   4.305   2.111  16.671 -0.0127  0.0548  0.4543
  457TMC3     H 6862   4.273   2.308  16.814 -2.0411  0.1358  2.3317
  457TMC3    H1 6863   4.576   2.028  16.944  1.3419  0.1873  0.3741
  457TMC3    H2 6864   4.452   2.346  17.196  0.1114  1.8495 -1.1308
  457TMC3    C7 6865   4.598   2.121  17.191  0.6773  0.3238 -0.1900
  457TMC3    C8 6866   4.246   2.420  17.068  0.5419  0.0405 -0.5330
  457TMC3    O1 6867   4.634   2.005  17.179 -0.0698 -0.0380  1.0279
  457TMC3    O2 6868   4.276   2.487  17.165 -0.9004 -0.1731 -0.3469
  458MPD2     C 6869   1.997   1.702  12.454  0.0041 -0.2359 -0.0744
  458MPD2    C1 6870   1.966   1.591  12.537  0.0452  0.0525 -0.7512
  458MPD2    C2 6871   1.834   1.550  12.542  0.1414  0.3143  0.2906
  458MPD2    C3 6872   1.738   1.621  12.476  0.4692 -0.5701 -0.5693
  458MPD2    C4 6873   1.768   1.734  12.403  0.0337  0.6273 -0.3239
  458MPD2    C5 6874   1.899   1.768  12.387  0.4336  0.2799  0.2888
  458MPD2     H 6875   1.802   1.467  12.604  1.8679  0.3770  1.2781
  458MPD2    H1 6876   1.691   1.791  12.352 -0.6737 -0.8516 -0.9390
  458MPD2    H2 6877   2.093   1.751  12.444  0.4356 -1.6313 -2.6817
  458MPD2    H3 6878   1.916   1.835  12.304 -0.6602  1.4263  1.0072
  458MPD2     N 6879   1.604   1.569  12.471 -0.2496  0.3479  0.2753
  458MPD2    H5 6880   1.583   1.481  12.517  0.5934 -0.6942 -1.3715
  458MPD2    N1 6881   2.076   1.531  12.604 -0.2464 -0.7073 -1.1032
  458MPD2    H7 6882   2.163   1.580  12.589  0.1896 -1.0263  0.3538
  459TMC3    C1 6883   2.176   1.402  12.775  0.7910 -0.6323 -0.0880
  459TMC3    C2 6884   2.289   1.371  12.706 -0.4992  0.2830 -0.1356
  459TMC3    C3 6885   2.392   1.304  12.760 -0.0487  0.1816  0.5699
  459TMC3    C4 6886   2.166   1.354  12.909  0.5324 -0.6405  0.0870
  459TMC3    C5 6887   2.268   1.277  12.954 -0.9680 -0.8018 -0.5218
  459TMC3    C6 6888   2.383   1.250  12.886 -0.0259  0.3208  0.1377
  459TMC3     C 6889   2.057   1.447  12.709  0.6720 -0.8239 -0.0194
  459TMC3     O 6890   1.954   1.424  12.775  0.2630  0.6860 -0.0594
  459TMC3     H 6891   2.294   1.406  12.603 -4.5755 -2.4949 -1.2505
  459TMC3    H1 6892   2.075   1.371  12.967  0.3735 -0.8694 -0.0966
  459TMC3    H2 6893   2.453   1.176  12.922 -0.5645 -0.9596 -1.4592
  459TMC3    C7 6894   2.245   1.199  13.073 -0.8541 -0.3834  0.3904
  459TMC3    C8 6895   2.526   1.307  12.692 -0.5969  0.6014 -0.4245
  459TMC3    O1 6896   2.344   1.148  13.122  0.8008 -0.0033  0.2950
  459TMC3    O2 6897   2.532   1.386  12.597 -0.1133 -0.5286 -0.0264
  460MPD2     C 6898   1.199   4.315  10.693  0.5176  0.2545 -0.2239
  460MPD2    C1 6899   1.082   4.238  10.684  0.3924  0.7977  0.3197
  460MPD2    C2 6900   0.975   4.286  10.614  0.0867 -0.3443 -0.0262
  460MPD2    C3 6901   0.971   4.409  10.555  0.6024  0.2214  0.1783
  460MPD2    C4 6902   1.078   4.489  10.571  0.2744  0.2347  0.2362
  460MPD2    C5 6903   1.192   4.444  10.639 -0.0231 -0.2025 -0.0866
  460MPD2     H 6904   0.880   4.234  10.609  1.0022 -1.8612 -1.3195
  460MPD2    H1 6905   1.084   4.586  10.523 -1.2050  0.5552  0.6934
  460MPD2    H2 6906   1.289   4.284  10.746 -0.5541 -1.9676  0.3021
  460MPD2    H3 6907   1.287   4.496  10.649 -0.4684  0.7323 -0.6474
  460MPD2     N 6908   0.862   4.427  10.472 -0.0860 -0.0246  0.2322
  460MPD2    H5 6909   0.787   4.358  10.476 -0.0552  0.0657  2.0196
  460MPD2    N1 6910   1.075   4.118  10.767  0.0163 -0.6357  0.4468
  460MPD2    H7 6911   1.151   4.109  10.834  0.0838  3.0223  0.8504
  461TMC3    C1 6912   0.721   4.511  10.312  0.3954 -0.3963  0.3647
  461TMC3    C2 6913   0.668   4.387  10.287  0.1926  0.0653  0.0539
  461TMC3    C3 6914   0.567   4.382  10.195 -0.4306  0.2808  0.2731
  461TMC3    C4 6915   0.663   4.627  10.264  0.7245 -0.5313 -0.1048
  461TMC3    C5 6916   0.557   4.619  10.177  0.0168  0.2220  0.9385
  461TMC3    C6 6917   0.514   4.494  10.136 -0.2087  0.1277 -0.5502
  461TMC3     C 6918   0.845   4.525  10.381  0.5949  0.9419  0.4362
  461TMC3     O 6919   0.914   4.622  10.361  0.3373  0.5866  0.3528
  461TMC3     H 6920   0.711   4.293  10.322  0.3294 -0.5223 -1.7088
  461TMC3    H1 6921   0.708   4.722  10.289 -1.2838 -0.4054  3.1197
  461TMC3    H2 6922   0.425   4.486  10.076 -0.4214  1.9743 -0.4842
  461TMC3    C7 6923   0.497   4.735  10.110  0.0773  0.2594  0.3020
  461TMC3    C8 6924   0.534   4.253  10.147  0.0027  0.0011 -0.0280
  461TMC3    O1 6925   0.439   4.703  10.006  0.2933  0.3502 -0.1279
  461TMC3    O2 6926   0.630   4.171  10.139  0.1909 -0.0157  0.0370
  462TMC3    C1 6927   1.896   0.178   0.674  0.1652 -0.5557  0.3268
  462TMC3    C2 6928   1.985   0.239   0.594 -0.0357 -0.1798 -0.9247
  462TMC3    C3 6929   2.037   0.158   0.496  0.0503  0.2834 -0.3492
  462TMC3    C4 6930   1.850   0.053   0.650  0.6309  0.2976  0.6583
  462TMC3    C5 6931   1.892   4.720   0.541  1.1099  0.0205 -0.5533
  462TMC3    C6 6932   1.990   0.035   0.461 -0.3053 -0.6912  1.0259
  462TMC3     C 6933   1.866   0.237   0.800 -0.0705 -0.4238 -0.1456
  462TMC3     O 6934   1.953   0.299   0.866 -0.0016  0.0972  0.4611
  462TMC3     H 6935   2.021   0.340   0.611 -1.1059 -0.0882  0.8713
  462TMC3    H1 6936   1.793   0.010   0.732 -2.0886  0.2080 -1.2994
  462TMC3    H2 6937   2.000   4.739   0.360 -2.5871  0.4725  0.3747
  462TMC3    C7 6938   1.836   4.583   0.537  0.0991 -0.5100 -0.3077
  462TMC3    C8 6939   2.137   0.219   0.403  0.2498 -0.2557 -0.0976
  462TMC3    O1 6940   1.750   4.550   0.612 -0.3665 -0.7504  0.2296
  462TMC3    O2 6941   2.164   0.336   0.402  0.3394 -0.5940 -0.1212
  463MPD2     C 6942   2.827   3.380   1.946 -1.0018  0.0776  0.0367
  463MPD2    C1 6943   2.700   3.389   1.888  0.8837 -0.2080  0.5421
  463MPD2    C2 6944   2.644   3.515   1.884  0.5123 -0.2496 -0.3834
  463MPD2    C3 6945   2.702   3.623   1.945 -0.6719 -0.0227  0.1617
  463MPD2    C4 6946   2.824   3.609   2.016 -0.3631  0.4646 -0.3859
  463MPD2    C5 6947   2.888   3.486   2.011 -0.0041  0.5277  0.8844
  463MPD2     H 6948   2.552   3.522   1.826  0.7733  0.5928 -0.6858
  463MPD2    H1 6949   2.860   3.700   2.064 -0.4931  0.1414  0.3247
  463MPD2    H2 6950   2.878   3.286   1.965 -0.2293  0.2894 -1.0288
  463MPD2    H3 6951   2.978   3.468   2.069 -0.6180 -1.2686  1.2745
  463MPD2     N 6952   2.641   3.749   1.955 -0.8353  0.2189 -1.3381
  463MPD2    H5 6953   2.700   3.824   1.990  0.9298 -1.2542 -1.1386
  463MPD2    N1 6954   2.640   3.281   1.819 -0.3875 -0.1282  0.3196
  463MPD2    H7 6955   2.565   3.318   1.762 -0.8071  0.2382  1.1008
  464TMC3    C1 6956   2.595   3.059   1.738  0.6506 -0.0530  0.7158
  464TMC3    C2 6957   2.502   3.106   1.656 -0.0548  0.2635 -0.3697
  464TMC3    C3 6958   2.460   3.016   1.565  0.2123 -0.2873  0.6236
  464TMC3    C4 6959   2.640   2.929   1.740 -0.3730 -0.6749 -0.0942
  464TMC3    C5 6960   2.588   2.841   1.649  0.1404 -0.0346 -0.3308
  464TMC3    C6 6961   2.496   2.881   1.562  0.4726 -0.1425 -0.0449
  464TMC3     C 6962   2.687   3.152   1.807 -0.2809 -0.1601  0.1437
  464TMC3     O 6963   2.793   3.106   1.849  0.2540 -0.0074  0.2375
  464TMC3     H 6964   2.470   3.209   1.644  1.2810  1.0207  2.6243
  464TMC3    H1 6965   2.711   2.890   1.813  1.2290  2.1248 -0.1432
  464TMC3    H2 6966   2.445   2.819   1.490 -0.5953  0.9401 -0.2245
  464TMC3    C7 6967   2.648   2.708   1.648  0.4371  0.4052 -0.0943
  464TMC3    C8 6968   2.365   3.067   1.464  0.1956 -0.1857 -0.0778
  464TMC3    O1 6969   2.738   2.679   1.728  0.8973 -0.1664 -0.4225
  464TMC3    O2 6970   2.287   3.147   1.500  0.2439  0.0883  0.1882
  465MPD2     C 6971   3.766   2.144  17.070  0.4585  0.5518  0.1926
  465MPD2    C1 6972   3.651   2.164  17.145 -0.3638 -0.0024 -0.0315
  465MPD2    C2 6973   3.530   2.154  17.085 -0.3760  0.3514 -0.2283
  465MPD2    C3 6974   3.526   2.109  16.948  0.7594 -0.6610  0.3212
  465MPD2    C4 6975   3.644   2.084  16.877 -0.5603  0.1284 -0.2123
  465MPD2    C5 6976   3.756   2.101  16.942 -0.6245  0.4673 -0.0369
  465MPD2     H 6977   3.434   2.168  17.135  1.1526  0.6176  2.6348
  465MPD2    H1 6978   3.642   2.030  16.783  1.4117 -2.3173  1.1286
  465MPD2    H2 6979   3.868   2.157  17.104  1.0647 -2.4236 -0.4840
  465MPD2    H3 6980   3.848   2.075  16.891 -1.5638 -1.9797 -0.4432
  465MPD2     N 6981   3.405   2.105  16.873 -0.4679  0.1648 -0.3810
  465MPD2    H5 6982   3.319   2.109  16.926 -0.1899  1.2800 -0.0134
  465MPD2    N1 6983   3.661   2.210  17.278  0.2669 -0.7800  0.5677
  465MPD2    H7 6984   3.573   2.238  17.322 -0.0869  1.5363 -1.6351
  466TMC3    C1 6985   3.031   2.096  16.739  0.1385  0.0190 -0.1947
  466TMC3    C2 6986   3.010   2.171  16.621  0.8358 -0.1727  0.8155
  466TMC3    C3 6987   3.116   2.202  16.536 -0.3390 -0.5117  0.0022
  466TMC3    C4 6988   3.164   2.057  16.769 -0.1703  0.0481  0.1075
  466TMC3    C5 6989   3.264   2.096  16.682  0.1879 -0.1733  0.6515
  466TMC3    C6 6990   3.247   2.163  16.562 -0.4618  0.1309 -0.9602
  466TMC3     C 6991   2.929   2.084  16.835  0.0236 -0.6512 -1.0934
  466TMC3     O 6992   2.957   2.021  16.935  0.5700  0.7631 -0.2042
  466TMC3     H 6993   2.908   2.197  16.592  1.2775  1.0460  0.3387
  466TMC3    H1 6994   3.190   1.991  16.851 -0.8232 -1.7026 -1.1053
  466TMC3    H2 6995   3.328   2.191  16.495 -0.2744 -1.7661 -1.5335
  466TMC3    C7 6996   3.397   2.099  16.737 -0.6184  0.0671  0.3079
  466TMC3    C8 6997   3.094   2.309  16.436 -0.9641 -0.3203 -0.3959
  466TMC3    O1 6998   3.480   2.136  16.653  0.0693 -0.3099 -0.3651
  466TMC3    O2 6999   3.151   2.295  16.328 -0.5554 -0.0733  0.5346
  467TMC3    C1 7000   4.422   0.376  13.989 -0.2528  0.3465 -0.6336
  467TMC3    C2 7001   4.411   0.443  13.874  0.3580  0.4265  0.1064
  467TMC3    C3 7002   4.290   0.473  13.821 -0.5365  0.2485  0.0460
  467TMC3    C4 7003   4.308   0.350  14.066 -0.3455 -0.5298  0.2768
  467TMC3    C5 7004   4.189   0.394  14.017  0.0069 -0.1680 -0.1934
  467TMC3    C6 7005   4.179   0.446  13.893 -0.4018 -0.2764  0.0189
  467TMC3     C 7006   4.551   0.369  14.056 -0.0099  0.1465 -0.3241
  467TMC3     O 7007   4.562   0.396  14.175 -0.0534  0.2396 -0.2967
  467TMC3     H 7008   4.503   0.459  13.819  1.4672  0.9824  2.1156
  467TMC3    H1 7009   4.315   0.296  14.160  2.2699 -0.1775  0.2940
  467TMC3    H2 7010   4.085   0.480  13.851  0.1748 -2.0407 -2.7081
  467TMC3    C7 7011   4.078   0.311  14.057 -0.3496  0.5940 -0.1703
  467TMC3    C8 7012   4.296   0.541  13.695  0.8283 -0.1457  0.8002
  467TMC3    O1 7013   4.101   0.195  14.096  0.0182 -0.1472  0.3755
  467TMC3    O2 7014   4.410   0.577  13.657 -0.2167 -0.1931 -0.6353
  468MPD2     C 7015   2.300   4.091  10.842 -0.5206 -0.0240 -0.7203
  468MPD2    C1 7016   2.422   4.062  10.891  0.4100  0.5756  0.4168
  468MPD2    C2 7017   2.477   3.939  10.852 -1.0165 -0.5899 -0.0506
  468MPD2    C3 7018   2.408   3.843  10.782 -0.2297 -0.5467 -0.3493
  468MPD2    C4 7019   2.280   3.875  10.739 -0.1776  0.8436  0.2440
  468MPD2    C5 7020   2.232   3.998  10.767 -0.5269  0.1293 -0.2623
  468MPD2     H 7021   2.572   3.911  10.897 -0.0007  1.6735 -0.7770
  468MPD2    H1 7022   2.221   3.809  10.678  0.7988  3.4430 -3.5504
  468MPD2    H2 7023   2.242   4.181  10.861 -1.1948 -0.7055  0.5145
  468MPD2    H3 7024   2.137   4.030  10.725  0.4300  2.8768 -0.3441
  468MPD2     N 7025   2.465   3.721  10.747  0.0948  0.1320  0.1892
  468MPD2    H5 7026   2.398   3.656  10.708  0.1350 -0.3765  0.9591
  468MPD2    N1 7027   2.496   4.161  10.960  0.7217  0.1860  0.5562
  468MPD2    H7 7028   2.596   4.145  10.967  0.6738 -0.8742 -1.0425
  469TMC3    C1 7029   2.546   4.376  11.059  0.5120  0.8170 -0.4093
  469TMC3    C2 7030   2.676   4.337  11.068 -0.3043 -0.2417 -0.1697
  469TMC3    C3 7031   2.761   4.411  11.151 -0.5894  0.1573 -0.3435
  469TMC3    C4 7032   2.499   4.488  11.128 -0.1761  0.9478  0.0312
  469TMC3    C5 7033   2.587   4.560  11.205 -0.3477  0.3984  0.2918
  469TMC3    C6 7034   2.721   4.526  11.214 -0.0807  0.6792  0.5862
  469TMC3     C 7035   2.450   4.285  11.002  0.7477  0.2555 -0.8613
  469TMC3     O 7036   2.333   4.322  11.012  0.6384 -0.2694 -0.0497
  469TMC3     H 7037   2.709   4.256  11.004 -0.8654  0.5019 -1.3901
  469TMC3    H1 7038   2.395   4.517  11.127 -0.4960 -0.1792  2.8462
  469TMC3    H2 7039   2.781   4.590  11.278  0.3896  1.4354 -0.6096
  469TMC3    C7 7040   2.536   4.658  11.293 -0.1175 -0.0519 -0.1728
  469TMC3    C8 7041   2.888   4.348  11.169 -1.0825 -0.3162 -0.1127
  469TMC3    O1 7042   2.434   4.717  11.259 -0.1579 -0.0690  0.0353
  469TMC3    O2 7043   2.912   4.255  11.096  0.5100 -0.1122 -0.4607
  470TMC3    C1 7044   0.779   4.096   0.656 -0.4338  0.1750  1.5895
  470TMC3    C2 7045   0.858   4.190   0.711 -0.6133 -1.0079 -0.3847
  470TMC3    C3 7046   0.801   4.284   0.789  0.2334  0.1086 -0.7059
  470TMC3    C4 7047   0.645   4.086   0.690 -0.0015  1.1721 -0.3017
  470TMC3    C5 7048   0.598   4.183   0.769  0.1170  0.2327 -0.2949
  470TMC3    C6 7049   0.668   4.295   0.811  0.1949  0.2498  0.0119
  470TMC3     C 7050   0.840   3.975   0.614 -0.0894 -0.1302  0.5145
  470TMC3     O 7051   0.933   3.925   0.682 -0.1354 -0.6045  0.3406
  470TMC3     H 7052   0.964   4.175   0.692 -0.1319  2.8379 -0.8423
  470TMC3    H1 7053   0.586   4.001   0.659  2.1886  0.2021 -1.8132
  470TMC3    H2 7054   0.628   4.376   0.871  0.6326  0.8337 -0.4816
  470TMC3    C7 7055   0.452   4.174   0.804  0.1075  0.5126 -0.0752
  470TMC3    C8 7056   0.889   4.382   0.856  0.2263  0.1914 -0.7367
  470TMC3    O1 7057   0.381   4.086   0.752 -0.1274  0.2866 -0.4194
  470TMC3    O2 7058   0.843   4.432   0.957  0.2259  0.8279  0.0498
  471MPD2     C 7059   1.226   0.874  16.684  0.1338 -0.1988 -0.1541
  471MPD2    C1 7060   1.329   0.789  16.642  0.6798 -0.4525 -0.4760
  471MPD2    C2 7061   1.445   0.769  16.712 -1.0181 -0.2898  0.4127
  471MPD2    C3 7062   1.464   0.832  16.836  0.0141 -0.3794 -0.4871
  471MPD2    C4 7063   1.360   0.914  16.883 -0.4720  0.1166 -0.1965
  471MPD2    C5 7064   1.246   0.930  16.810 -0.5173 -0.4514  0.2849
  471MPD2     H 7065   1.521   0.702  16.672 -1.4792  0.3060 -1.4580
  471MPD2    H1 7066   1.387   0.952  16.981 -0.5925  1.9828 -0.8925
  471MPD2    H2 7067   1.132   0.879  16.631  0.2489  4.2256  0.0714
  471MPD2    H3 7068   1.177   0.989  16.868 -2.5674 -2.0674 -0.5249
  471MPD2     N 7069   1.578   0.820  16.925  0.3684 -0.1205  0.1253
  471MPD2    H5 7070   1.571   0.863  17.016  0.1702 -1.8216  0.9166
  471MPD2    N1 7071   1.318   0.710  16.526  0.6609  0.1641 -0.3490
  471MPD2    H7 7072   1.401   0.654  16.508  0.4666 -0.3515  0.3401
  472TMC3    C1 7073   1.236   0.575  16.347 -0.0762  0.2320  0.2219
  472TMC3    C2 7074   1.156   0.588  16.238  0.5021 -0.0669 -0.0634
  472TMC3    C3 7075   1.145   0.473  16.163 -0.0115 -0.7763  0.0276
  472TMC3    C4 7076   1.292   0.457  16.392  0.7973 -0.2867  0.0600
  472TMC3    C5 7077   1.281   0.346  16.310  0.4506 -0.1655 -0.2696
  472TMC3    C6 7078   1.213   0.356  16.192  0.7351 -0.9420 -0.4682
  472TMC3     C 7079   1.217   0.691  16.443  0.2738  0.7277  0.3496
  472TMC3     O 7080   1.112   0.754  16.431 -0.6517 -1.1621  0.1520
  472TMC3     H 7081   1.118   0.682  16.199 -3.4299 -0.1260  3.6526
  472TMC3    H1 7082   1.343   0.457  16.487 -2.7579  1.5217  1.9776
  472TMC3    H2 7083   1.219   0.275  16.121  0.0990 -1.7189  0.3541
  472TMC3    C7 7084   1.240   0.228  16.385 -0.7354 -0.1858  0.0194
  472TMC3    C8 7085   1.008   0.436  16.127 -0.8837 -0.2110 -0.5021
  472TMC3    O1 7086   1.306   0.195  16.480 -0.2439  0.6530  0.0800
  472TMC3    O2 7087   0.984   0.314  16.123 -0.4738  0.8850  0.2755
  473MPD2     C 7088   1.237   2.948  13.810  0.3591 -0.4879  0.7174
  473MPD2    C1 7089   1.123   3.019  13.785 -0.4415  0.4380 -1.2310
  473MPD2    C2 7090   1.092   3.133  13.860  0.1356  0.1149  0.2017
  473MPD2    C3 7091   1.177   3.165  13.962 -0.4478 -0.2317 -0.4845
  473MPD2    C4 7092   1.289   3.081  13.989 -0.5109 -0.5404 -0.5413
  473MPD2    C5 7093   1.327   2.980  13.912 -0.2924  0.4390 -0.7848
  473MPD2     H 7094   0.995   3.180  13.849  0.4987  0.7508 -0.2532
  473MPD2    H1 7095   1.346   3.086  14.081 -0.3542 -0.5287 -0.6396
  473MPD2    H2 7096   1.264   2.860  13.754  0.7743 -0.0233  0.1910
  473MPD2    H3 7097   1.407   2.913  13.942  0.0286  1.0734 -0.2246
  473MPD2     N 7098   1.169   3.272  14.048 -0.0092  0.0041 -0.3712
  473MPD2    H5 7099   1.216   3.261  14.137 -0.8150 -2.1781 -0.1957
  473MPD2    N1 7100   1.021   2.986  13.692 -0.2540 -0.1546  0.1583
  473MPD2    H7 7101   0.952   3.057  13.671 -0.0853 -0.2120 -0.5617
  474TMC3    C1 7102   1.113   3.490  14.141 -0.1535  0.9269 -0.0385
  474TMC3    C2 7103   1.079   3.617  14.102  0.2684  0.6706  0.3457
  474TMC3    C3 7104   1.113   3.712  14.194 -0.3055  0.3244  0.9157
  474TMC3    C4 7105   1.169   3.452  14.262 -0.0841 -0.0604 -0.2163
  474TMC3    C5 7106   1.191   3.549  14.349 -0.9265 -1.0843 -0.4589
  474TMC3    C6 7107   1.174   3.686  14.320 -0.1657 -0.3540  0.0186
  474TMC3     C 7108   1.094   3.386  14.029 -0.2516 -0.1350 -0.3207
  474TMC3     O 7109   1.025   3.408  13.932  0.1352  0.5191  0.4162
  474TMC3     H 7110   1.059   3.635  13.998 -1.7803  1.8665  0.9566
  474TMC3    H1 7111   1.177   3.347  14.289 -0.6446 -0.0158  0.1152
  474TMC3    H2 7112   1.205   3.768  14.385  2.4596 -3.5389  2.8215
  474TMC3    C7 7113   1.295   3.506  14.442 -0.0247  0.8200 -0.3487
  474TMC3    C8 7114   1.084   3.857  14.156 -0.3573 -0.9077  0.1490
  474TMC3    O1 7115   1.361   3.409  14.407 -0.0711 -0.2151 -0.6278
  474TMC3    O2 7116   1.139   3.943  14.229 -0.1906 -0.1007  0.2377
  475MPD2     C 7117   3.637   1.592  11.028 -0.6519  0.0312 -0.2845
  475MPD2    C1 7118   3.617   1.719  11.071 -0.0421  0.1334  0.8730
  475MPD2    C2 7119   3.497   1.783  11.045  0.2767 -0.1716  0.1051
  475MPD2    C3 7120   3.399   1.706  10.982 -0.2210 -0.1617 -0.2275
  475MPD2    C4 7121   3.418   1.579  10.932  0.0894 -0.9302  0.6756
  475MPD2    C5 7122   3.536   1.519  10.959  0.4561 -0.6943  0.2796
  475MPD2     H 7123   3.481   1.889  11.062  1.5496  0.1587 -0.7754
  475MPD2    H1 7124   3.345   1.520  10.877 -2.5241  2.4576  0.5338
  475MPD2    H2 7125   3.732   1.539  11.036 -0.3506  0.7973  1.1968
  475MPD2    H3 7126   3.553   1.415  10.937  0.8208 -0.8230  1.1726
  475MPD2     N 7127   3.272   1.770  10.971  0.0908 -0.7337 -0.8125
  475MPD2    H5 7128   3.270   1.870  10.989  0.5613 -0.8344 -0.1839
  475MPD2    N1 7129   3.725   1.789  11.137 -0.7579 -0.0951  0.1666
  475MPD2    H7 7130   3.813   1.740  11.150  0.6073  1.9421 -1.3417
  476TMC3    C1 7131   3.838   1.937  11.264  0.1203 -0.1598 -0.4205
  476TMC3    C2 7132   3.926   1.972  11.168 -1.1817  0.3298  0.0926
  476TMC3    C3 7133   3.992   2.094  11.177  0.1329  0.1025 -0.5184
  476TMC3    C4 7134   3.817   2.024  11.367 -0.0128 -0.0422 -0.1680
  476TMC3    C5 7135   3.886   2.138  11.378 -0.2166 -0.3539  0.1477
  476TMC3    C6 7136   3.977   2.180  11.279  0.4547 -0.2176  0.5643
  476TMC3     C 7137   3.711   1.900  11.212 -0.3828 -0.4479  0.1878
  476TMC3     O 7138   3.610   1.951  11.258 -1.0231  0.2929  0.4115
  476TMC3     H 7139   3.952   1.910  11.083 -1.4446 -0.2296  0.4199
  476TMC3    H1 7140   3.750   1.990  11.446  0.8392  0.7774  0.9107
  476TMC3    H2 7141   4.031   2.273  11.288 -1.0507  0.5527  1.7104
  476TMC3    C7 7142   3.839   2.227  11.490 -0.1346 -0.4502  0.5817
  476TMC3    C8 7143   4.094   2.129  11.079 -0.2354  0.4696 -0.0361
  476TMC3    O1 7144   3.765   2.175  11.575 -0.6078 -0.3074  0.0346
  476TMC3    O2 7145   4.183   2.209  11.111 -0.3228 -0.2989  0.2929
  477MPD2     C 7146   1.736   3.292  11.758 -0.5153  0.2152 -0.1408
  477MPD2    C1 7147   1.616   3.231  11.734  0.5276 -0.1895  0.5838
  477MPD2    C2 7148   1.582   3.124  11.811  0.5389  0.2223 -0.3714
  477MPD2    C3 7149   1.664   3.085  11.919 -0.3925 -0.0966  0.4287
  477MPD2    C4 7150   1.784   3.153  11.952 -0.1642 -0.2891 -0.7437
  477MPD2    C5 7151   1.821   3.254  11.863 -0.0680 -0.3378 -0.5300
  477MPD2     H 7152   1.492   3.065  11.796  0.9464 -0.4852 -0.0162
  477MPD2    H1 7153   1.857   3.127  12.027  1.7160  0.3812 -2.3372
  477MPD2    H2 7154   1.773   3.378  11.703 -0.2791  1.6738  2.2874
  477MPD2    H3 7155   1.912   3.310  11.881 -0.9253  0.6071  0.8479
  477MPD2     N 7156   1.631   2.975  11.999  0.0352  0.0295  0.9718
  477MPD2    H5 7157   1.557   2.917  11.962 -0.1454 -0.3532  1.9364
  477MPD2    N1 7158   1.532   3.284  11.633 -0.5309  0.4396  0.4508
  477MPD2    H7 7159   1.576   3.360  11.582  0.1255 -0.0888  0.2183
  478TMC3    C1 7160   1.336   3.314  11.508 -0.0330 -0.0465 -0.1693
  478TMC3    C2 7161   1.377   3.440  11.492  0.2473  0.1920 -0.0014
  478TMC3    C3 7162   1.288   3.518  11.420 -0.1924  0.6258  0.0202
  478TMC3    C4 7163   1.249   3.253  11.423  0.1828 -0.3327  0.0646
  478TMC3    C5 7164   1.169   3.332  11.346  0.9998 -0.5534  0.1407
  478TMC3    C6 7165   1.177   3.465  11.350  0.5262  0.0640  0.0291
  478TMC3     C 7166   1.412   3.234  11.596 -0.0937  0.7032  0.6111
  478TMC3     O 7167   1.356   3.131  11.631 -0.1378  0.4967  0.2600
  478TMC3     H 7168   1.446   3.489  11.560  0.9597 -3.5222  1.9997
  478TMC3    H1 7169   1.224   3.148  11.435 -1.2808 -0.0698 -0.7088
  478TMC3    H2 7170   1.101   3.523  11.298 -0.6723  0.1084  1.8328
  478TMC3    C7 7171   1.056   3.268  11.282 -0.1480 -0.2937 -0.0471
  478TMC3    C8 7172   1.320   3.665  11.408 -0.3463  0.7296  0.3389
  478TMC3    O1 7173   1.036   3.154  11.315 -0.0162 -0.2425  0.0660
  478TMC3    O2 7174   1.430   3.710  11.433 -0.2794 -0.1986  1.0669
  479MPD2     C 7175   0.887   0.206  15.456 -0.1788 -0.6074  0.0510
  479MPD2    C1 7176   0.809   0.131  15.536  0.0544  0.0478 -0.0430
  479MPD2    C2 7177   0.849   0.092  15.657  0.3717  0.4867 -0.0397
  479MPD2    C3 7178   0.970   0.133  15.705 -0.0173 -0.0109  0.4561
  479MPD2    C4 7179   1.058   0.205  15.618 -0.0389  0.2137  0.1473
  479MPD2    C5 7180   1.011   0.242  15.494  0.1581  0.4462  0.4623
  479MPD2     H 7181   0.780   0.035  15.717  0.3236  1.1621  0.5485
  479MPD2    H1 7182   1.164   0.218  15.636 -0.0304 -0.3744  0.5179
  479MPD2    H2 7183   0.840   0.233  15.362  0.6044  3.0420  0.7250
  479MPD2    H3 7184   1.068   0.295  15.418 -1.0120 -0.4195 -1.0269
  479MPD2     N 7185   1.017   0.091  15.831  0.1713 -0.1218 -0.1164
  479MPD2    H5 7186   1.118   0.081  15.840  0.3648  0.9077 -1.0505
  479MPD2    N1 7187   0.674   0.108  15.493  0.4645  0.2047 -0.2101
  479MPD2    H7 7188   0.635   0.165  15.419 -0.2228  0.7760  0.5904
  480TMC3    C1 7189   0.592   0.110  16.062 -0.4531 -0.0827 -0.7031
  480TMC3    C2 7190   0.548   0.229  16.008 -0.1552 -0.4202  0.0640
  480TMC3    C3 7191   0.634   0.292  15.919  0.5849 -0.3062  0.0386
  480TMC3    C4 7192   0.710   0.053  16.028  0.1447  0.1517  0.5664
  480TMC3    C5 7193   0.800   0.123  15.954 -0.1713 -0.1191  0.2689
  480TMC3    C6 7194   0.760   0.248  15.899  0.7817 -0.2587 -0.4860
  480TMC3     C 7195   0.492   0.049  16.143 -0.1446  1.0547 -0.9833
  480TMC3     O 7196   0.410   0.119  16.198 -0.4140 -0.1219  0.2427
  480TMC3     H 7197   0.444   0.257  16.011 -0.0400  0.1600 -1.5578
  480TMC3    H1 7198   0.740   4.699  16.072  0.7225  0.7700  1.4885
  480TMC3    H2 7199   0.830   0.294  15.830  0.6519 -1.0926 -1.1779
  480TMC3    C7 7200   0.932   0.058  15.935  0.2073  0.1634 -0.6972
  480TMC3    C8 7201   0.574   0.378  15.819 -0.2122  0.3190 -0.0162
  480TMC3    O1 7202   0.972   4.727  16.026  0.1692 -0.2943 -0.7550
  480TMC3    O2 7203   0.465   0.425  15.849 -0.1380 -0.2858  0.0635
  481MPD2     C 7204   2.594   4.281  13.915  0.2095 -0.5461 -0.6104
  481MPD2    C1 7205   2.508   4.379  13.967 -0.4134  0.5827 -0.0279
  481MPD2    C2 7206   2.459   4.359  14.094 -0.5583 -0.0950  0.9495
  481MPD2    C3 7207   2.475   4.239  14.151  0.2242  0.4593  0.3405
  481MPD2    C4 7208   2.550   4.142  14.096 -0.3707  0.1786  0.1805
  481MPD2    C5 7209   2.608   4.160  13.975  0.6525 -0.0257 -0.4345
  481MPD2     H 7210   2.397   4.432  14.144  1.3154  0.6135  2.2299
  481MPD2    H1 7211   2.566   4.049  14.150 -0.7154 -0.9857 -1.7005
  481MPD2    H2 7212   2.639   4.279  13.817 -1.9683  2.0434 -1.6761
  481MPD2    H3 7213   2.675   4.083  13.937  0.1566 -0.2739 -0.8081
  481MPD2     N 7214   2.435   4.218  14.281  0.8238 -0.5715  0.3959
  481MPD2    H5 7215   2.462   4.127  14.316  2.9072 -0.0836  0.0616
  481MPD2    N1 7216   2.470   4.492  13.888  0.1413 -0.0386  0.2359
  481MPD2    H7 7217   2.538   4.526  13.821  0.5540  1.6164  1.4811
  482TMC3    C1 7218   2.323   4.656  13.801  0.4274 -1.0280  0.9081
  482TMC3    C2 7219   2.197   4.702  13.789  0.0090  0.3076  0.1945
  482TMC3    C3 7220   2.168   0.056  13.685  0.1313 -0.2686 -0.1805
  482TMC3    C4 7221   2.425   4.705  13.714  0.1908  0.4611 -0.4117
  482TMC3    C5 7222   2.390   0.049  13.607 -0.1378 -0.2372  0.4228
  482TMC3    C6 7223   2.257   0.087  13.589 -0.6833 -0.6454 -0.2888
  482TMC3     C 7224   2.361   4.567  13.910 -0.3155  0.0202  0.1571
  482TMC3     O 7225   2.268   4.541  13.985 -0.1806 -0.0287 -0.1054
  482TMC3     H 7226   2.126   4.684  13.869 -1.0414  0.9880 -0.5890
  482TMC3    H1 7227   2.529   4.675  13.726  0.6442  2.8140  1.5590
  482TMC3    H2 7228   2.225   0.152  13.508 -1.8319  0.7624  1.2913
  482TMC3    C7 7229   2.487   0.043  13.492  0.1377 -0.2355  0.1137
  482TMC3    C8 7230   2.031   0.096  13.667  0.2002  0.2945  0.4999
  482TMC3    O1 7231   2.607   0.028  13.520 -0.1676  0.0084 -0.2889
  482TMC3    O2 7232   2.004   0.178  13.584 -0.4261  0.8119  0.6232
  483TMC3    C1 7233   0.754   3.728   1.572 -0.3076 -0.5646 -0.2680
  483TMC3    C2 7234   0.833   3.824   1.510  0.2061 -0.4432 -0.2610
  483TMC3    C3 7235   0.973   3.800   1.515  0.1039 -0.3833 -0.0949
  483TMC3    C4 7236   0.803   3.613   1.635 -0.4840  0.2466 -0.0991
  483TMC3    C5 7237   0.935   3.598   1.633 -0.2869 -0.2419 -0.0596
  483TMC3    C6 7238   1.026   3.689   1.581  0.0487  0.9731  0.2616
  483TMC3     C 7239   0.630   3.700   1.492  0.3174  0.1682 -0.8425
  483TMC3     O 7240   0.557   3.795   1.464  0.0308 -0.1584  0.6108
  483TMC3     H 7241   0.792   3.898   1.442  1.3463  0.4263  0.0002
  483TMC3    H1 7242   0.731   3.538   1.665 -3.0249  2.2051 -1.2901
  483TMC3    H2 7243   1.132   3.666   1.586  0.0969  1.0896 -0.2465
  483TMC3    C7 7244   0.988   3.487   1.705  0.2433  0.0691 -0.2839
  483TMC3    C8 7245   1.051   3.840   1.396 -0.3086 -0.5550  0.4085
  483TMC3    O1 7246   1.102   3.455   1.683 -0.6011  0.0260 -0.0782
  483TMC3    O2 7247   1.132   3.762   1.354  0.1491  0.5743 -0.5279
  484MPD2     C 7248   2.839   1.226  12.853  0.0150 -0.6470 -0.0381
  484MPD2    C1 7249   2.762   1.277  12.757  0.7517  0.6623  0.0093
  484MPD2    C2 7250   2.814   1.349  12.653  1.1477  0.1779 -0.2228
  484MPD2    C3 7251   2.954   1.359  12.640 -0.3526 -0.4542  0.5150
  484MPD2    C4 7252   3.033   1.296  12.735 -0.3475  0.0313 -0.1801
  484MPD2    C5 7253   2.971   1.231  12.847 -0.7741  0.3274  0.0893
  484MPD2     H 7254   2.755   1.378  12.566  2.4589 -0.4394 -1.3235
  484MPD2    H1 7255   3.141   1.304  12.741 -0.3134  1.3636 -2.9171
  484MPD2    H2 7256   2.797   1.183  12.943  0.7065 -0.6781  0.2638
  484MPD2    H3 7257   3.031   1.189  12.926 -0.7307  0.0129 -0.1095
  484MPD2     N 7258   3.026   1.423  12.537 -0.3510 -0.0827  0.2144
  484MPD2    H5 7259   3.127   1.414  12.548 -0.5067 -1.1834  0.6959
  484MPD2    N1 7260   2.623   1.272  12.778 -0.0007 -0.0493 -0.0732
  484MPD2    H7 7261   2.602   1.240  12.872  1.4579  0.2230  0.3446
  485TMC3    C1 7262   3.071   1.546  12.339 -0.2695 -0.7514 -0.5589
  485TMC3    C2 7263   3.200   1.559  12.390  0.7027 -0.0531 -0.0408
  485TMC3    C3 7264   3.277   1.662  12.338  0.1210  0.3093 -0.0424
  485TMC3    C4 7265   3.023   1.620  12.236 -0.1960  0.2877 -0.6937
  485TMC3    C5 7266   3.094   1.728  12.194 -0.1741  0.0157 -0.0630
  485TMC3    C6 7267   3.216   1.750  12.249  0.0142  0.1712  0.3911
  485TMC3     C 7268   2.976   1.486  12.427 -0.0037 -0.6193 -0.1049
  485TMC3     O 7269   2.856   1.503  12.398  1.1081  0.1643  0.1490
  485TMC3     H 7270   3.242   1.504  12.473  0.5998 -2.8787 -1.8834
  485TMC3    H1 7271   2.926   1.601  12.191 -0.3726  2.4204 -1.2574
  485TMC3    H2 7272   3.276   1.828  12.202 -2.3540  0.4552 -2.1562
  485TMC3    C7 7273   3.102   1.699  12.048  0.4166  0.5569 -0.1232
  485TMC3    C8 7274   3.406   1.634  12.289 -0.6652 -1.2096 -0.2707
  485TMC3    O1 7275   3.122   1.581  12.018 -0.0645  0.0596  0.5566
  485TMC3    O2 7276   3.459   1.708  12.209 -0.5414  0.6174 -0.2509
  486MPD2     C 7277   4.451   0.741  13.120  0.1051 -0.0942 -0.1467
  486MPD2    C1 7278   4.561   0.710  13.043  0.0918 -0.0598  0.2464
  486MPD2    C2 7279   4.560   0.764  12.913 -0.6911 -0.2599  0.3199
  486MPD2    C3 7280   4.455   0.843  12.864 -0.1057  0.1275  0.1714
  486MPD2    C4 7281   4.346   0.867  12.946 -0.6637  0.2947 -0.3618
  486MPD2    C5 7282   4.345   0.810  13.066 -0.3869  0.3281 -0.5730
  486MPD2     H 7283   4.647   0.746  12.852 -0.7881  2.2301 -0.5506
  486MPD2    H1 7284   4.269   0.941  12.924 -0.2536  0.1291 -2.3239
  486MPD2    H2 7285   4.437   0.696  13.218  0.6533  1.1541  0.5096
  486MPD2    H3 7286   4.264   0.850  13.128 -0.5639 -3.1585  1.4564
  486MPD2     N 7287   4.464   0.901  12.729 -0.1882  0.3788 -0.0255
  486MPD2    H5 7288   4.557   0.916  12.691 -0.9108  2.0705 -1.1554
  486MPD2    N1 7289   4.661   0.637  13.104 -0.1436  0.5485 -0.2706
  486MPD2    H7 7290   4.640   0.609  13.199  1.1028 -0.7898 -0.3903
  487TMC3    C1 7291   0.116   0.500  13.138 -0.5093  0.4657  0.2383
  487TMC3    C2 7292   0.220   0.421  13.088 -0.2719  0.0107 -0.9042
  487TMC3    C3 7293   0.295   0.345  13.173 -0.5066 -0.2148  0.0089
  487TMC3    C4 7294   0.076   0.486  13.268 -0.3051  0.0376 -0.0004
  487TMC3    C5 7295   0.156   0.411  13.356 -0.0076 -0.3099 -0.0595
  487TMC3    C6 7296   0.276   0.356  13.310  0.0018 -0.1584 -0.4947
  487TMC3     C 7297   0.042   0.592  13.052  0.2300  0.5424  0.1336
  487TMC3     O 7298   0.093   0.615  12.942  0.4550 -0.0890 -0.4500
  487TMC3     H 7299   0.241   0.411  12.982  1.3100  1.2621 -0.7216
  487TMC3    H1 7300   4.723   0.520  13.312 -0.8445 -2.8751  1.1370
  487TMC3    H2 7301   0.332   0.280  13.363  1.6397  0.1284 -1.8399
  487TMC3    C7 7302   0.096   0.336  13.467 -0.8704  0.5879  0.6577
  487TMC3    C8 7303   0.305   0.205  13.142 -0.0885  0.4708  0.6963
  487TMC3    O1 7304   0.175   0.291  13.552  0.6987 -0.1687 -0.3442
  487TMC3    O2 7305   0.397   0.138  13.192  0.4283  0.1999 -0.4711
  488MPD2     C 7306   0.794   2.083  16.732  0.5768  0.2308 -0.3929
  488MPD2    C1 7307   0.800   2.220  16.731 -0.0910 -0.2240  0.0500
  488MPD2    C2 7308   0.727   2.299  16.822  0.0227 -0.1588  0.4398
  488MPD2    C3 7309   0.636   2.244  16.906 -0.6313  0.3537  0.3744
  488MPD2    C4 7310   0.626   2.104  16.903 -0.2996 -0.3596  0.2290
  488MPD2    C5 7311   0.705   2.025  16.817 -0.3461 -0.5370  0.3126
  488MPD2     H 7312   0.726   2.408  16.816  0.8458  0.0453  4.0044
  488MPD2    H1 7313   0.565   2.049  16.974  1.3728  0.3228  2.2101
  488MPD2    H2 7314   0.848   2.022  16.660 -2.5866 -0.6215 -2.0517
  488MPD2    H3 7315   0.696   1.917  16.816 -0.5405 -0.5402  1.7982
  488MPD2     N 7316   0.567   2.332  16.996  0.4441  0.5957 -0.6921
  488MPD2    H5 7317   0.587   2.431  16.986 -1.5767  0.8709 -1.9897
  488MPD2    N1 7318   0.859   2.293  16.631 -0.6082  0.6286  0.2394
  488MPD2    H7 7319   0.847   2.393  16.643  0.8565  0.9019 -0.6448
  489TMC3    C1 7320   0.417   2.405  17.154  0.6115  0.0766  0.3126
  489TMC3    C2 7321   0.507   2.483  17.215 -0.3246  0.5269 -0.3685
  489TMC3    C3 7322   0.453   2.562  17.317  0.0632 -0.1209  0.4182
  489TMC3    C4 7323   0.285   2.422  17.163 -0.9370 -0.3938 -0.7009
  489TMC3    C5 7324   0.237   2.518  17.247 -0.4175  0.3256 -0.1542
  489TMC3    C6 7325   0.318   2.594  17.330 -0.0545  0.4481  0.6016
  489TMC3     C 7326   0.455   2.300  17.063  0.2435 -0.3491  0.6876
  489TMC3     O 7327   0.395   2.191  17.072  0.2139 -0.2910  0.5944
  489TMC3     H 7328   0.613   2.460  17.217 -0.3900  0.3096  0.5810
  489TMC3    H1 7329   0.220   2.352  17.110 -0.9483  0.5190 -1.8742
  489TMC3    H2 7330   0.290   2.669  17.402 -1.8356  1.6421 -1.3517
  489TMC3    C7 7331   0.094   2.550  17.236 -0.2535 -0.0443  0.0157
  489TMC3    C8 7332   0.549   2.639  17.391  0.1568 -0.9902 -0.0743
  489TMC3    O1 7333   0.025   2.457  17.199 -0.4743 -0.5441 -0.3515
  489TMC3    O2 7334   0.662   2.640  17.347 -0.0804 -0.7382 -0.1264
  490MPD2     C 7335   1.079   1.484   0.095 -0.2445  0.8901  0.9817
  490MPD2    C1 7336   1.129   1.439  17.730  1.4007  0.1464 -0.3630
  490MPD2    C2 7337   1.207   1.517  17.648  0.7954  0.1911 -0.2845
  490MPD2    C3 7338   1.256   1.637  17.691 -0.1675 -0.1844  0.3537
  490MPD2    C4 7339   1.205   1.680   0.058  0.0472 -0.5463  0.5563
  490MPD2    C5 7340   1.118   1.610   0.128 -0.5796 -0.2576  0.1240
  490MPD2     H 7341   1.234   1.482  17.549 -0.3561 -0.4319 -0.3820
  490MPD2    H1 7342   1.238   1.777   0.092 -1.9254 -0.1348  1.3033
  490MPD2    H2 7343   1.012   1.432   0.162 -0.3880 -1.0295 -0.6470
  490MPD2    H3 7344   1.086   1.650   0.224 -2.1582 -0.0107 -0.4905
  490MPD2     N 7345   1.367   1.707  17.632  0.2028 -0.0655  0.2687
  490MPD2    H5 7346   1.398   1.796  17.669  0.8702 -0.8052  1.4904
  490MPD2    N1 7347   1.093   1.311  17.686  0.2205  0.9505 -0.1073
  490MPD2    H7 7348   1.111   1.285  17.590 -0.6199  0.0031 -0.0089
  491TMC3    C1 7349   1.025   1.087  17.707  0.6113 -0.0972 -0.0190
  491TMC3    C2 7350   1.063   0.974   0.012 -0.7290  0.3813 -0.1742
  491TMC3    C3 7351   1.085   0.862  17.694 -0.5630 -0.7072  0.1363
  491TMC3    C4 7352   1.002   1.085  17.576 -0.0565  0.7774 -0.5568
  491TMC3    C5 7353   1.013   0.969  17.507 -0.4437 -0.2872 -0.2668
  491TMC3    C6 7354   1.058   0.852  17.563  0.4483 -0.6797  0.0885
  491TMC3     C 7355   1.072   1.206   0.016 -0.0136  0.3498 -0.1343
  491TMC3     O 7356   1.104   1.203   0.135  0.2359  0.3909 -0.7586
  491TMC3     H 7357   1.088   0.976   0.117 -1.5856 -3.6182  0.1071
  491TMC3    H1 7358   0.956   1.173  17.533 -0.3090  0.4000 -1.0678
  491TMC3    H2 7359   1.086   0.765  17.504 -1.8521 -1.2958 -0.1023
  491TMC3    C7 7360   0.982   0.957  17.366 -0.1635  0.0123 -0.1700
  491TMC3    C8 7361   1.114   0.742   0.016  0.4719 -0.9723  0.1042
  491TMC3    O1 7362   0.944   0.845  17.342  0.3781 -0.6177 -0.5880
  491TMC3    O2 7363   1.146   0.773   0.129  0.0269  0.2352 -0.5661
  492MPD2     C 7364   1.224   1.771  11.439 -0.1233  0.0680 -0.3974
  492MPD2    C1 7365   1.112   1.710  11.392 -0.1595  0.5046 -0.3471
  492MPD2    C2 7366   1.069   1.595  11.452  0.3692 -0.0510 -0.2744
  492MPD2    C3 7367   1.127   1.566  11.573  0.7428  0.1100 -0.0949
  492MPD2    C4 7368   1.237   1.630  11.619 -0.4015 -0.3694  0.2552
  492MPD2    C5 7369   1.291   1.730  11.550  0.2138  0.5711 -0.1276
  492MPD2     H 7370   0.988   1.542  11.403 -0.1767 -0.6023  1.2544
  492MPD2    H1 7371   1.297   1.605  11.706  0.5008  1.3280  0.1184
  492MPD2    H2 7372   1.268   1.851  11.381  1.0906 -1.9742 -2.3074
  492MPD2    H3 7373   1.372   1.787  11.592 -0.7324  2.2051 -0.4950
  492MPD2     N 7374   1.077   1.463  11.660  0.4277 -0.0576  0.5862
  492MPD2    H5 7375   1.122   1.457  11.750  1.2028  4.1950  0.4861
  492MPD2    N1 7376   1.055   1.765  11.272  0.2567 -0.4502  0.9632
  492MPD2    H7 7377   1.085   1.857  11.243 -1.5902  0.3404  1.5764
  493TMC3    C1 7378   0.911   1.791  11.080  0.1304  0.4587 -0.6054
  493TMC3    C2 7379   0.919   1.927  11.100 -0.2003 -0.3817 -0.7286
  493TMC3    C3 7380   0.851   2.015  11.016  0.2024  0.5690  0.7213
  493TMC3    C4 7381   0.824   1.737  10.984  0.1787  0.3220 -0.4104
  493TMC3    C5 7382   0.765   1.828  10.905 -0.4779 -0.3127 -0.4239
  493TMC3    C6 7383   0.777   1.964  10.913 -0.2066  1.0360  0.0045
  493TMC3     C 7384   0.965   1.700  11.186  0.4791  0.3884 -0.0887
  493TMC3     O 7385   0.926   1.584  11.187 -0.1623  0.2253  0.0425
  493TMC3     H 7386   0.983   1.971  11.175  0.6608 -1.9535 -0.5326
  493TMC3    H1 7387   0.828   1.632  10.959  2.3945  0.1454  0.7024
  493TMC3    H2 7388   0.743   2.034  10.837 -1.5532  1.8773  1.3835
  493TMC3    C7 7389   0.674   1.776  10.808  0.1741  0.4108 -0.1161
  493TMC3    C8 7390   0.858   2.151  11.057  0.0304  0.7259 -0.0561
  493TMC3    O1 7391   0.658   1.837  10.702 -0.6979  0.1474  0.5210
  493TMC3    O2 7392   0.812   2.178  11.170 -0.3570 -0.0512 -0.7032
  494TMC3    C1 7393   1.939   3.006   0.367 -0.5618  0.0554 -0.5885
  494TMC3    C2 7394   2.028   2.922   0.415  0.0603 -0.3563 -0.3397
  494TMC3    C3 7395   2.157   2.950   0.391  0.8173 -0.2627 -0.0608
  494TMC3    C4 7396   1.966   3.131   0.319  0.4076  0.1887 -0.0521
  494TMC3    C5 7397   2.098   3.157   0.303  0.6200  0.0079 -0.5390
  494TMC3    C6 7398   2.198   3.065   0.338  0.2752  0.5732  0.3161
  494TMC3     C 7399   1.814   3.013   0.438  0.1741  0.7998  0.1613
  494TMC3     O 7400   1.778   3.125   0.474  0.2734 -0.1054  0.4126
  494TMC3     H 7401   2.004   2.832   0.469 -1.0345  1.8999  2.9402
  494TMC3    H1 7402   1.899   3.211   0.287  0.7702  0.9091  0.9934
  494TMC3    H2 7403   2.303   3.089   0.332  0.6468 -1.3523 -0.8675
  494TMC3    C7 7404   2.149   3.259   0.207 -0.3775  0.6221  0.2578
  494TMC3    C8 7405   2.254   2.841   0.409  0.2973  0.1083 -0.6526
  494TMC3    O1 7406   2.265   3.247   0.173  0.2082  0.0979  0.3316
  494TMC3    O2 7407   2.217   2.728   0.394 -0.4635 -0.3768 -0.0257
  495TMC3    C1 7408   1.039   0.305  15.006  0.1725 -0.7061 -0.5880
  495TMC3    C2 7409   0.979   0.340  14.888  0.2113  0.1755  0.3831
  495TMC3    C3 7410   0.897   0.449  14.895 -1.0698 -0.2475  1.0177
  495TMC3    C4 7411   1.004   0.364  15.124  0.1017 -0.5711  0.0730
  495TMC3    C5 7412   0.928   0.479  15.126  0.4983 -0.6810 -0.6829
  495TMC3    C6 7413   0.873   0.520  15.012 -0.1547 -0.9677  0.7187
  495TMC3     C 7414   1.059   0.162  15.018  0.4647  0.4221  0.1067
  495TMC3     O 7415   1.003   0.103  15.109 -0.1521  0.2420 -0.0074
  495TMC3     H 7416   0.965   0.261  14.815  0.9590 -0.0460  0.4794
  495TMC3    H1 7417   1.037   0.321  15.218  0.6079 -2.6910 -1.0978
  495TMC3    H2 7418   0.810   0.607  15.029  2.4141  1.1173 -0.3963
  495TMC3    C7 7419   0.880   0.514  15.255  0.5679  0.3195  0.4209
  495TMC3    C8 7420   0.781   0.460  14.804 -0.1787 -0.7755 -0.0404
  495TMC3    O1 7421   0.954   0.502  15.351  0.0051  0.5336 -0.0217
  495TMC3    O2 7422   0.684   0.520  14.854  0.0959 -0.1327 -0.4744
  496MPD2     C 7423   2.862   0.619  15.587 -0.1539 -0.6947 -0.1076
  496MPD2    C1 7424   2.800   0.513  15.531 -0.5011 -0.0682  0.1996
  496MPD2    C2 7425   2.663   0.500  15.544  0.0616 -0.0897 -0.0896
  496MPD2    C3 7426   2.596   0.588  15.620  0.2894  0.1408  0.0225
  496MPD2    C4 7427   2.661   0.697  15.671 -0.0756 -0.4706  0.5261
  496MPD2    C5 7428   2.792   0.711  15.660 -0.3333  0.8728 -0.3921
  496MPD2     H 7429   2.614   0.421  15.489 -1.1944 -0.0335  0.9573
  496MPD2    H1 7430   2.601   0.778  15.709 -0.3623 -1.0265  1.2647
  496MPD2    H2 7431   2.969   0.637  15.579 -0.9113  2.4301 -3.0855
  496MPD2    H3 7432   2.846   0.798  15.695  0.3942  0.1817  0.2048
  496MPD2     N 7433   2.457   0.566  15.639  0.0654 -0.0233  0.2614
  496MPD2    H5 7434   2.421   0.483  15.593 -1.6918  1.3789 -0.9130
  496MPD2    N1 7435   2.888   0.427  15.460 -0.1427 -0.1632  0.2416
  496MPD2    H7 7436   2.986   0.453  15.466  0.1758 -1.1381 -0.7833
  497TMC3    C1 7437   2.257   0.546  15.770  0.1180 -0.5354  0.0297
  497TMC3    C2 7438   2.194   0.496  15.659  0.0365  0.2764 -0.3248
  497TMC3    C3 7439   2.107   0.388  15.679  0.0669  0.2883 -0.1269
  497TMC3    C4 7440   2.260   0.479  15.888 -0.3888 -0.3923  0.2764
  497TMC3    C5 7441   2.191   0.365  15.896 -0.1482 -0.0455  0.0074
  497TMC3    C6 7442   2.100   0.322  15.799  0.3821 -0.5591 -0.0607
  497TMC3     C 7443   2.387   0.613  15.745 -0.2890 -0.7899  0.6494
  497TMC3     O 7444   2.431   0.671  15.844  0.4176 -0.1175  0.8244
  497TMC3     H 7445   2.185   0.557  15.571  3.7856  2.0724  0.5335
  497TMC3    H1 7446   2.315   0.518  15.973 -1.2538 -0.4923  0.8868
  497TMC3    H2 7447   2.044   0.232  15.822 -0.3218 -0.0833  0.0542
  497TMC3    C7 7448   2.213   0.284  16.019  0.8171  0.0513 -0.0559
  497TMC3    C8 7449   2.057   0.316  15.565  0.6473  0.4293 -0.2376
  497TMC3    O1 7450   2.131   0.192  16.045 -0.3200  0.5831  0.2420
  497TMC3    O2 7451   2.009   0.208  15.597  0.7686  0.3836  0.5630
  498MPD2     C 7452   3.273   1.409   9.712 -0.1926  0.4335  0.0225
  498MPD2    C1 7453   3.244   1.485   9.819 -0.1672  0.8975  0.2137
  498MPD2    C2 7454   3.136   1.454   9.897 -0.4244  0.0834  0.4493
  498MPD2    C3 7455   3.067   1.337   9.876 -1.0717 -0.1169 -0.3726
  498MPD2    C4 7456   3.099   1.256   9.770  0.4643  0.6197 -0.1963
  498MPD2    C5 7457   3.205   1.296   9.691  0.6214  0.2001  0.2006
  498MPD2     H 7458   3.101   1.520   9.975 -0.1185  0.1333  0.5457
  498MPD2    H1 7459   3.063   1.158   9.742 -1.2967  1.2249 -0.1049
  498MPD2    H2 7460   3.344   1.445   9.638  1.1759  1.3046  1.7542
  498MPD2    H3 7461   3.235   1.225   9.615  1.4722 -0.0402  0.7661
  498MPD2     N 7462   2.981   1.293   9.984  0.0250 -0.2621 -0.5545
  498MPD2    H5 7463   2.950   1.366  10.047  0.9966  0.5458 -1.0082
  498MPD2    N1 7464   3.309   1.605   9.848 -0.0882 -0.2967  0.1124
  498MPD2    H7 7465   3.267   1.657   9.924 -2.2370 -0.2506 -1.0883
  499TMC3    C1 7466   3.454   1.782   9.856 -0.6615  0.9628  0.2995
  499TMC3    C2 7467   3.581   1.822   9.850 -0.5418  0.4308 -0.7867
  499TMC3    C3 7468   3.609   1.950   9.888  0.1001  0.7923  0.0449
  499TMC3    C4 7469   3.351   1.871   9.889  0.4286  0.8822 -0.5258
  499TMC3    C5 7470   3.378   1.996   9.928 -0.0688  0.5737 -0.7333
  499TMC3    C6 7471   3.512   2.030   9.938 -0.9632 -0.6571  0.1592
  499TMC3     C 7472   3.419   1.661   9.794 -0.4542 -0.1870 -0.4473
  499TMC3     O 7473   3.503   1.613   9.722  0.1103  0.7152  0.6651
  499TMC3     H 7474   3.659   1.749   9.830  0.3298  1.6525 -1.8155
  499TMC3    H1 7475   3.245   1.847   9.890  0.2543  1.6904  1.6618
  499TMC3    H2 7476   3.538   2.132   9.962 -1.6212 -0.6724  0.9595
  499TMC3    C7 7477   3.288   2.103   9.946 -1.1634  0.3823 -0.4149
  499TMC3    C8 7478   3.752   1.996   9.901 -0.0117 -0.1205 -0.7956
  499TMC3    O1 7479   3.330   2.213   9.940  0.0410  0.1472  0.1650
  499TMC3    O2 7480   3.772   2.088   9.980 -0.2287  0.0092 -0.4717
  500MPD2     C 7481   4.266   2.489  10.751  0.5905  0.4739 -0.6825
  500MPD2    C1 7482   4.302   2.588  10.671  0.5596 -0.1057 -0.0103
  500MPD2    C2 7483   4.210   2.647  10.587  0.5067  0.0550 -0.4371
  500MPD2    C3 7484   4.077   2.602  10.584  0.0240  0.4343  0.0470
  500MPD2    C4 7485   4.038   2.504  10.669  0.9708 -0.2253 -0.0369
  500MPD2    C5 7486   4.128   2.455  10.755 -0.0716 -0.5710  0.3214
  500MPD2     H 7487   4.252   2.717  10.516  1.1060 -0.9099 -1.0332
  500MPD2    H1 7488   3.936   2.468  10.672  0.3199  1.5396 -0.8273
  500MPD2    H2 7489   4.338   2.435  10.811 -2.0226  0.3472  2.3360
  500MPD2    H3 7490   4.092   2.383  10.828  0.2350 -0.5477  0.4973
  500MPD2     N 7491   3.977   2.663  10.506 -0.0306  0.0841  0.5773
  500MPD2    H5 7492   3.883   2.635  10.532 -0.2242 -0.6830 -0.9247
  500MPD2    N1 7493   4.440   2.626  10.663  0.3049 -0.0896 -0.0720
  500MPD2    H7 7494   4.469   2.696  10.595 -0.8764  1.6651  1.2176
  501TMC3    C1 7495   4.664   2.634  10.721  0.1822  0.1549  0.4103
  501TMC3    C2 7496   4.678   2.742  10.639 -0.0055  0.7812 -0.7694
  501TMC3    C3 7497   0.067   2.758  10.581 -0.4627  0.6187  0.0414
  501TMC3    C4 7498   0.034   2.548  10.743  0.6512  0.4606  0.1308
  501TMC3    C5 7499   0.156   2.578  10.700 -0.4256  1.1673  0.5700
  501TMC3    C6 7500   0.179   2.682  10.618 -0.2553  0.6354 -0.2293
  501TMC3     C 7501   4.535   2.578  10.746  0.1831 -0.3833 -0.1880
  501TMC3     O 7502   4.535   2.497  10.838 -0.1800 -0.3922  0.0160
  501TMC3     H 7503   4.608   2.824  10.652 -0.2204  0.7261 -1.5738
  501TMC3    H1 7504   0.019   2.473  10.819 -1.6236  0.5826 -0.1965
  501TMC3    H2 7505   0.275   2.684  10.569  0.9875 -1.3658  2.0943
  501TMC3    C7 7506   0.255   2.567  10.803  0.1902 -0.1393  0.2400
  501TMC3    C8 7507   0.113   2.894  10.561 -0.5800 -0.0401  0.3548
  501TMC3    O1 7508   0.241   2.492  10.899 -0.3826  0.5924  0.1374
  501TMC3    O2 7509   0.230   2.917  10.589 -0.4015  0.0553 -0.5883
  502TMC3    C1 7510   0.147   1.189  14.930 -0.1066 -0.5241  0.5204
  502TMC3    C2 7511   0.067   1.282  14.873  0.4964  0.1210  0.4517
  502TMC3    C3 7512   4.671   1.265  14.877 -0.6042 -0.1032 -0.3656
  502TMC3    C4 7513   0.097   1.067  14.973  0.1688  0.4181 -0.3859
  502TMC3    C5 7514   4.706   1.051  14.971  0.5758 -0.4333 -0.3519
  502TMC3    C6 7515   4.626   1.142  14.915  0.0150  0.3884  0.1071
  502TMC3     C 7516   0.267   1.241  14.996  0.4127 -0.0474 -0.8711
  502TMC3     O 7517   0.325   1.342  14.945 -0.1269 -0.0847  0.1887
  502TMC3     H 7518   0.112   1.377  14.845 -1.7531  0.7618 -0.9516
  502TMC3    H1 7519   0.159   0.991  15.018  0.3508  1.4298  1.0728
  502TMC3    H2 7520   4.521   1.121  14.899  0.2807 -0.2998 -0.7389
  502TMC3    C7 7521   4.642   0.968  15.073 -0.2475 -0.3593  0.4055
  502TMC3    C8 7522   4.600   1.370  14.949  0.0366  0.1934 -0.2488
  502TMC3    O1 7523   4.699   0.866  15.109  0.8935  0.4406  0.3648
  502TMC3    O2 7524   4.527   1.325  15.039 -0.0518 -0.6809 -0.1532
  503MPD2     C 7525   2.307   2.071  16.717  0.0230  0.1460 -0.2373
  503MPD2    C1 7526   2.346   2.111  16.844 -0.1168 -0.0172  0.1147
  503MPD2    C2 7527   2.448   2.045  16.909 -0.1617 -0.4266 -0.1334
  503MPD2    C3 7528   2.481   1.922  16.864 -0.1750 -0.1654 -0.1432
  503MPD2    C4 7529   2.446   1.884  16.737  0.3972 -0.5381 -0.0113
  503MPD2    C5 7530   2.359   1.957  16.661 -0.0370  1.0714 -0.7210
  503MPD2     H 7531   2.493   2.082  17.000  3.4321 -1.7674 -1.3608
  503MPD2    H1 7532   2.498   1.812  16.675  0.3142  0.2013 -0.9499
  503MPD2    H2 7533   2.233   2.125  16.658  0.6804  0.9800 -0.2939
  503MPD2    H3 7534   2.338   1.950  16.555  0.9495 -1.0749 -0.7863
  503MPD2     N 7535   2.580   1.851  16.931 -0.1193  0.5007  0.5585
  503MPD2    H5 7536   2.625   1.895  17.010  1.4939  1.2844 -0.8027
  503MPD2    N1 7537   2.304   2.233  16.904  0.0777 -0.4246 -0.0491
  503MPD2    H7 7538   2.355   2.255  16.989  1.5853 -1.0656 -0.7833
  504TMC3    C1 7539   2.684   1.672  17.031  0.1552 -0.1327  0.3617
  504TMC3    C2 7540   2.643   1.561  17.099  0.4998  0.0600  0.0932
  504TMC3    C3 7541   2.734   1.488  17.174  0.5179  0.5520  0.0144
  504TMC3    C4 7542   2.813   1.724  17.046 -0.0356 -0.8216 -0.2733
  504TMC3    C5 7543   2.895   1.669  17.137  0.0677 -0.2359  0.0686
  504TMC3    C6 7544   2.861   1.548  17.199  0.0231  0.6095 -0.1183
  504TMC3     C 7545   2.601   1.714  16.919  0.8798 -0.2917 -0.1586
  504TMC3     O 7546   2.552   1.631  16.844  0.3006 -0.2295 -0.3350
  504TMC3     H 7547   2.542   1.523  17.087  0.4276 -0.6625  2.9739
  504TMC3    H1 7548   2.829   1.820  16.997 -0.4887 -0.2949  0.6142
  504TMC3    H2 7549   2.940   1.493  17.250 -0.4865  0.0030  0.0060
  504TMC3    C7 7550   3.037   1.703  17.119  0.6241 -0.0329  1.1028
  504TMC3    C8 7551   2.685   1.390  17.267  0.0602 -0.1259 -0.0146
  504TMC3    O1 7552   3.077   1.764  17.014  0.2493  0.3159 -0.9097
  504TMC3    O2 7553   2.571   1.359  17.248  0.1156 -0.2276 -0.7707
  505MPD2     C 7554   2.107   1.247  10.996  0.1697  0.0989  0.4438
  505MPD2    C1 7555   2.176   1.152  11.065 -0.4342  0.2488 -0.2231
  505MPD2    C2 7556   2.293   1.189  11.129 -0.7083 -0.3537 -0.4293
  505MPD2    C3 7557   2.343   1.320  11.122 -0.0955 -0.4452 -0.2878
  505MPD2    C4 7558   2.282   1.406  11.039 -0.7335  0.0598  0.3695
  505MPD2    C5 7559   2.155   1.375  10.980  0.1252  0.4389 -0.7451
  505MPD2     H 7560   2.345   1.106  11.175 -1.4531 -1.9408 -2.4475
  505MPD2    H1 7561   2.323   1.500  11.004 -1.1694 -0.1506 -0.7076
  505MPD2    H2 7562   2.023   1.220  10.933  0.7014 -1.8426  0.5528
  505MPD2    H3 7563   2.106   1.458  10.932  0.2536  0.1604 -1.3650
  505MPD2     N 7564   2.466   1.345  11.183  0.6347 -0.2966  0.2381
  505MPD2    H5 7565   2.503   1.436  11.156 -0.7199  0.2330  0.1331
  505MPD2    N1 7566   2.148   1.016  11.064 -0.1033  0.1432 -0.3992
  505MPD2    H7 7567   2.208   0.960  11.123  0.8361  2.4374  0.8117
  506TMC3    C1 7568   2.085   0.798  10.990 -0.1164 -0.4586  0.5372
  506TMC3    C2 7569   2.086   0.734  10.866 -0.0164  0.3848  0.1916
  506TMC3    C3 7570   2.137   0.610  10.861  0.0112 -0.1997 -0.3787
  506TMC3    C4 7571   2.137   0.743  11.107  0.1635 -0.6528  0.2208
  506TMC3    C5 7572   2.174   0.613  11.101  0.0337  0.0338  0.6633
  506TMC3    C6 7573   2.174   0.548  10.977  0.1866  0.1548  0.7256
  506TMC3     C 7574   2.055   0.942  10.991  0.9025  0.0812  0.2197
  506TMC3     O 7575   1.973   0.986  10.914  0.8693  0.2088  0.0606
  506TMC3     H 7576   2.028   0.778  10.785 -1.0873 -1.9186 -0.2709
  506TMC3    H1 7577   2.128   0.792  11.204  1.2031 -0.7818  0.3799
  506TMC3    H2 7578   2.229   0.456  10.961 -1.6165 -0.8833  0.4918
  506TMC3    C7 7579   2.282   0.573  11.192 -0.1072  0.5692 -0.1873
  506TMC3    C8 7580   2.183   0.564  10.734  0.9384  0.2904  0.5479
  506TMC3    O1 7581   2.306   0.457  11.220  0.4570 -0.3105  0.4749
  506TMC3    O2 7582   2.207   0.445  10.715  0.6244  0.2088  0.3231
  507TMC3    C1 7583   2.701   1.379  15.336 -0.3201 -0.6223 -0.1295
  507TMC3    C2 7584   2.647   1.293  15.239  0.3208 -0.1644 -0.4530
  507TMC3    C3 7585   2.729   1.207  15.161 -0.2097 -0.0932 -0.6615
  507TMC3    C4 7586   2.836   1.385  15.356  0.2656  0.7075 -0.4709
  507TMC3    C5 7587   2.916   1.298  15.288 -0.6235 -0.4748 -0.3466
  507TMC3    C6 7588   2.866   1.218  15.191  0.0568  0.1108 -0.6818
  507TMC3     C 7589   2.629   1.410  15.450 -0.7567  0.0024  0.4084
  507TMC3     O 7590   2.684   1.484  15.531  0.3843 -0.6694  0.0861
  507TMC3     H 7591   2.546   1.305  15.201 -0.1069 -0.7350  0.5089
  507TMC3    H1 7592   2.881   1.439  15.438 -2.7033  1.8394  0.3717
  507TMC3    H2 7593   2.938   1.158  15.136  1.8448  0.5408  1.2092
  507TMC3    C7 7594   3.022   1.374  15.221 -0.2625 -0.2973  0.6457
  507TMC3    C8 7595   2.704   1.202  15.016  0.0648 -0.3803  0.7492
  507TMC3    O1 7596   2.997   1.391  15.103  0.2180 -0.2322 -0.0109
  507TMC3    O2 7597   2.595   1.170  14.961  0.2034  0.2972  0.3362
  508MPD2     C 7598   3.799   3.566  15.956 -0.4641 -0.6825  0.3260
  508MPD2    C1 7599   3.927   3.614  15.970  0.0494 -0.2944  0.1692
  508MPD2    C2 7600   3.970   3.729  15.902 -0.6327  0.3613  0.2238
  508MPD2    C3 7601   3.873   3.809  15.839 -0.1964  1.0521 -0.3632
  508MPD2    C4 7602   3.741   3.766  15.831  0.2598 -0.4145 -0.3732
  508MPD2    C5 7603   3.705   3.646  15.884  0.4741  0.2964 -0.1316
  508MPD2     H 7604   4.072   3.763  15.920 -1.2840  1.3461  2.0508
  508MPD2    H1 7605   3.667   3.820  15.773  0.5983  0.6308  0.1711
  508MPD2    H2 7606   3.761   3.477  16.004 -0.2738 -0.4874  0.8319
  508MPD2    H3 7607   3.603   3.610  15.887  0.3721  0.7017  1.1468
  508MPD2     N 7608   3.917   3.933  15.781 -0.0448  0.1506  0.3815
  508MPD2    H5 7609   4.018   3.943  15.779 -0.0880  0.1848 -1.9828
  508MPD2    N1 7610   4.014   3.527  16.045 -0.1030  0.1357  0.3821
  508MPD2    H7 7611   3.961   3.463  16.102 -0.2806  1.1222  1.3360
  509TMC3    C1 7612   3.893   4.336  15.544 -0.1638 -1.3088  0.6722
  509TMC3    C2 7613   4.017   4.377  15.584 -0.1331 -0.4372 -0.4480
  509TMC3    C3 7614   4.081   4.300  15.678  0.5693 -0.0147 -0.4007
  509TMC3    C4 7615   3.831   4.231  15.596 -0.1000 -0.3685 -0.5701
  509TMC3    C5 7616   3.897   4.148  15.690 -1.1613  0.9274 -0.3837
  509TMC3    C6 7617   4.026   4.182  15.733 -0.4402 -0.1566  0.6036
  509TMC3     C 7618   3.814   4.413  15.446  0.0393 -0.2387 -0.0502
  509TMC3     O 7619   3.698   4.374  15.431  0.1229  0.4467  0.3211
  509TMC3     H 7620   4.073   4.464  15.553 -0.3446  0.6754  2.2994
  509TMC3    H1 7621   3.732   4.199  15.562 -0.1504 -2.3522  1.4547
  509TMC3    H2 7622   4.080   4.118  15.801  0.8559 -1.1318 -1.3201
  509TMC3    C7 7623   3.830   4.030  15.731  0.4477  0.3253 -0.0033
  509TMC3    C8 7624   4.209   4.338  15.730 -0.0786  0.0684  0.2911
  509TMC3    O1 7625   3.707   4.030  15.723 -0.4434 -0.2414 -0.2469
  509TMC3    O2 7626   4.282   4.254  15.778 -0.3346  0.4894 -0.0784
  510MPD2     C 7627   1.803   0.981  14.783  0.1379  0.6531  0.2043
  510MPD2    C1 7628   1.869   0.862  14.813 -0.4408 -0.2702 -0.4215
  510MPD2    C2 7629   1.970   0.817  14.741 -0.3526  0.7181 -0.2943
  510MPD2    C3 7630   2.023   0.892  14.636  0.2019  0.3749  0.1596
  510MPD2    C4 7631   1.973   1.014  14.606 -0.5250 -0.1924  0.3307
  510MPD2    C5 7632   1.867   1.065  14.687 -0.5032  0.1730 -0.0843
  510MPD2     H 7633   1.991   0.711  14.751  2.3157  1.2120 -0.6028
  510MPD2    H1 7634   2.020   1.077  14.531 -0.3317 -1.7679 -0.8627
  510MPD2    H2 7635   1.728   1.029  14.844 -1.0541  1.1413 -1.6612
  510MPD2    H3 7636   1.831   1.161  14.652  1.8791  0.8822 -0.6034
  510MPD2     N 7637   2.135   0.838  14.577 -0.7991  0.3938 -0.1309
  510MPD2    H5 7638   2.177   0.753  14.613 -0.8524  0.8437  1.0053
  510MPD2    N1 7639   1.811   0.789  14.924  0.1381  0.4009 -0.6423
  510MPD2    H7 7640   1.726   0.821  14.970  0.5609 -0.6949  0.9097
  511TMC3    C1 7641   1.798   0.623  15.071 -0.3219  0.9657 -1.3043
  511TMC3    C2 7642   1.755   0.660  15.196  0.4565  0.5312 -0.6959
  511TMC3    C3 7643   1.688   0.563  15.275  0.8025 -0.4912 -0.1422
  511TMC3    C4 7644   1.785   0.491  15.027  0.3051  0.1644 -0.6242
  511TMC3    C5 7645   1.727   0.404  15.112  0.9311  0.3701 -0.3447
  511TMC3    C6 7646   1.686   0.429  15.242  0.0316  0.5111 -0.0159
  511TMC3     C 7647   1.884   0.699  14.990 -0.1608  0.7401  0.0793
  511TMC3     O 7648   1.990   0.651  14.958  0.2980 -0.2227 -0.3955
  511TMC3     H 7649   1.763   0.763  15.229  0.9666  0.3420 -0.2456
  511TMC3    H1 7650   1.829   0.450  14.938  0.8484  0.7089 -0.6060
  511TMC3    H2 7651   1.635   0.357  15.303  0.7478  0.7703  0.8939
  511TMC3    C7 7652   1.685   0.278  15.060 -0.1454  0.5343  0.4301
  511TMC3    C8 7653   1.625   0.618  15.400  0.1485 -0.4266 -0.0070
  511TMC3    O1 7654   1.663   0.277  14.942  0.2046  0.2166 -0.6021
  511TMC3    O2 7655   1.607   0.738  15.404 -0.3548  0.0880 -1.0669
  512TMC3    C1 7656   0.962   0.719  13.222  0.1980 -0.3507  0.8799
  512TMC3    C2 7657   0.978   0.675  13.355 -0.3863  0.1574 -0.0380
  512TMC3    C3 7658   1.015   0.545  13.374 -0.1037 -0.1402 -0.0853
  512TMC3    C4 7659   0.985   0.631  13.119  0.3354 -0.4319 -0.2224
  512TMC3    C5 7660   1.004   0.497  13.145  0.3510 -0.1012 -0.0095
  512TMC3    C6 7661   1.031   0.451  13.271  0.5748  0.2885 -0.2886
  512TMC3     C 7662   0.889   0.840  13.195  1.0216 -0.3077 -0.6140
  512TMC3     O 7663   0.868   0.914  13.291  0.0943 -0.3716 -0.2384
  512TMC3     H 7664   0.941   0.742  13.431  1.6465 -0.5616  1.5837
  512TMC3    H1 7665   0.987   0.663  13.015  0.5097  0.9947  0.2220
  512TMC3    H2 7666   1.061   0.351  13.296 -0.3758 -0.1387 -0.8328
  512TMC3    C7 7667   1.046   0.411  13.032  0.0186  0.1107 -0.3043
  512TMC3    C8 7668   1.050   0.503  13.506 -0.2064 -0.1201 -0.2384
  512TMC3    O1 7669   1.066   0.463  12.925 -0.0503 -0.2428  0.1703
  512TMC3    O2 7670   1.056   0.384  13.531  0.1773  0.4559  0.4641
  513MPD2     C 7671   3.013   4.718  13.026  0.5191  0.0802  0.2031
  513MPD2    C1 7672   3.035   0.104  13.078  0.1530  0.6944 -0.4043
  513MPD2    C2 7673   3.025   0.126  13.216 -0.1469 -0.1134  0.7481
  513MPD2    C3 7674   2.979   0.028  13.299  0.1577 -0.1512  0.5069
  513MPD2    C4 7675   2.933   4.648  13.245 -0.9226  0.3174 -0.0145
  513MPD2    C5 7676   2.964   4.621  13.110 -0.9956  0.2383  0.4212
  513MPD2     H 7677   3.049   0.224  13.257 -1.5730  0.6183 -0.1772
  513MPD2    H1 7678   2.898   4.561  13.300  0.9036  1.0536  2.3373
  513MPD2    H2 7679   3.043   4.683  12.928 -1.3515  1.0656 -0.7261
  513MPD2    H3 7680   2.930   4.524  13.076 -1.6788  1.3556 -2.1518
  513MPD2     N 7681   2.975   0.052  13.439 -0.7541 -0.9986  0.4594
  513MPD2    H5 7682   3.005   0.143  13.474 -1.7502 -1.9071  3.6299
  513MPD2    N1 7683   3.096   0.207  13.003  0.2228  0.2580 -0.1642
  513MPD2    H7 7684   3.133   0.285  13.055  1.9439 -1.3462  1.0402
  514TMC3    C1 7685   3.189   0.316  12.827 -0.0243  0.4349 -0.5017
  514TMC3    C2 7686   3.112   0.405  12.760  0.0608 -0.2435 -0.6922
  514TMC3    C3 7687   3.111   0.533  12.800 -0.0397  0.8509 -0.1346
  514TMC3    C4 7688   3.269   0.363  12.921 -0.0693  0.4095  0.4826
  514TMC3    C5 7689   3.265   0.488  12.969 -0.6256  0.0143  0.0731
  514TMC3    C6 7690   3.185   0.581  12.906  0.0986  0.1504  0.0926
  514TMC3     C 7691   3.119   0.203  12.868 -1.0745  0.3301  0.3392
  514TMC3     O 7692   3.078   0.117  12.788 -0.4795 -0.5405  0.4684
  514TMC3     H 7693   3.049   0.380  12.676 -0.1111 -3.0522  0.2759
  514TMC3    H1 7694   3.335   0.289  12.966  2.0361  1.9894 -0.0378
  514TMC3    H2 7695   3.173   0.682  12.941  2.5897 -0.1589  1.8002
  514TMC3    C7 7696   3.242   0.485  13.111 -0.8153 -0.3430 -0.0011
  514TMC3    C8 7697   2.997   0.616  12.761  0.5290  0.4224 -0.3806
  514TMC3    O1 7698   3.232   0.371  13.161 -0.3841 -0.3166  0.5049
  514TMC3    O2 7699   2.954   0.686  12.849  0.0988 -0.5914 -0.1806
  515MPD2     C 7700   1.192   1.688  15.038 -0.1965  0.5722  0.0904
  515MPD2    C1 7701   1.158   1.784  14.943  0.7197 -0.4233 -0.4526
  515MPD2    C2 7702   1.206   1.910  14.945 -0.5028  0.5788 -0.2038
  515MPD2    C3 7703   1.288   1.939  15.049  0.2306  0.0645 -0.0415
  515MPD2    C4 7704   1.322   1.851  15.150 -0.0740 -0.5964 -0.1033
  515MPD2    C5 7705   1.276   1.721  15.143  0.1198 -0.2790 -0.2441
  515MPD2     H 7706   1.189   1.976  14.861  1.2307 -0.0226 -1.0296
  515MPD2    H1 7707   1.369   1.886  15.241  0.3904 -0.5174 -0.3723
  515MPD2    H2 7708   1.157   1.585  15.034 -0.5066  0.6937 -0.2754
  515MPD2    H3 7709   1.298   1.646  15.218  1.3764 -0.0098 -0.3412
  515MPD2     N 7710   1.357   2.063  15.065 -0.0326  0.3988 -0.4170
  515MPD2    H5 7711   1.413   2.069  15.150  1.3771  3.8244 -1.6252
  515MPD2    N1 7712   1.077   1.750  14.830 -0.0840  0.2732  0.1159
  515MPD2    H7 7713   1.070   1.821  14.759  0.2433  1.1127  0.9210
  516TMC3    C1 7714   0.917   1.624  14.700  0.4657 -0.0301 -0.5547
  516TMC3    C2 7715   0.825   1.726  14.706 -0.0275  0.9200 -0.2548
  516TMC3    C3 7716   0.692   1.691  14.671  0.1583  0.2642  0.6108
  516TMC3    C4 7717   0.888   1.495  14.665  0.0174  0.5745  0.2839
  516TMC3    C5 7718   0.749   1.462  14.634  0.1719  0.0160 -0.3087
  516TMC3    C6 7719   0.657   1.559  14.652 -0.4712 -0.0561 -0.3357
  516TMC3     C 7720   1.022   1.627  14.807  0.6002 -0.3024 -0.1116
  516TMC3     O 7721   1.028   1.520  14.871  0.0273 -0.2002  0.0236
  516TMC3     H 7722   0.858   1.827  14.722  2.7200 -0.2437  1.3167
  516TMC3    H1 7723   0.964   1.418  14.668 -0.3402  0.1566 -1.7003
  516TMC3    H2 7724   0.552   1.532  14.649 -0.3293 -0.5145 -1.2669
  516TMC3    C7 7725   0.715   1.326  14.680 -0.2870  0.4134  0.3334
  516TMC3    C8 7726   0.588   1.796  14.644  0.4736  0.2887 -0.5145
  516TMC3    O1 7727   0.802   1.260  14.741  0.0376  0.3811  0.3341
  516TMC3    O2 7728   0.480   1.752  14.614 -0.0674 -0.1419 -0.3246
  517MPD2     C 7729   1.219   3.179   0.795 -0.1201  0.1100  0.5329
  517MPD2    C1 7730   1.264   3.212   0.673  0.2442  0.5155  0.0490
  517MPD2    C2 7731   1.283   3.348   0.645  0.3024  0.3948  0.1810
  517MPD2    C3 7732   1.236   3.447   0.730 -0.2137 -0.1297 -0.0244
  517MPD2    C4 7733   1.186   3.404   0.849  0.1100  0.0701  0.9674
  517MPD2    C5 7734   1.172   3.272   0.882  0.3835 -0.0974  0.1561
  517MPD2     H 7735   1.321   3.373   0.547 -2.7508 -0.6758 -1.2901
  517MPD2    H1 7736   1.141   3.467   0.924 -0.4292  2.6674 -1.5272
  517MPD2    H2 7737   1.206   3.075   0.822  1.7582 -0.6668 -1.6140
  517MPD2    H3 7738   1.122   3.229   0.968  0.0194  0.3843  0.1830
  517MPD2     N 7739   1.236   3.579   0.696  0.0819 -0.6001 -0.2940
  517MPD2    H5 7740   1.214   3.648   0.767  0.4322  0.1526 -0.9109
  517MPD2    N1 7741   1.303   3.117   0.577 -0.3841 -0.6478  0.1964
  517MPD2    H7 7742   1.334   3.160   0.491  1.2150 -0.8705  0.6624
  518TMC3    C1 7743   1.343   2.928   0.451  0.2226  0.9133 -0.4270
  518TMC3    C2 7744   1.304   2.799   0.417 -0.4882  1.0755  0.2572
  518TMC3    C3 7745   1.344   2.757   0.294  0.0883  0.1896  0.9077
  518TMC3    C4 7746   1.422   3.002   0.372 -0.2637  0.2596 -0.1464
  518TMC3    C5 7747   1.457   2.959   0.248 -0.6474 -0.6240 -0.3215
  518TMC3    C6 7748   1.421   2.836   0.212  0.9031  0.2724 -0.7049
  518TMC3     C 7749   1.293   2.978   0.582 -0.4926  0.7864  0.5485
  518TMC3     O 7750   1.215   2.908   0.653 -0.3467 -0.0247 -0.8839
  518TMC3     H 7751   1.256   2.737   0.492 -1.2336  1.2778 -0.0494
  518TMC3    H1 7752   1.468   3.090   0.416 -0.7609  0.1277  0.6404
  518TMC3    H2 7753   1.444   2.796   0.113 -0.3274  0.5555 -1.0977
  518TMC3    C7 7754   1.584   3.017   0.197 -1.0985  0.3686 -0.2583
  518TMC3    C8 7755   1.284   2.652   0.227 -0.7308 -0.4637 -0.3975
  518TMC3    O1 7756   1.624   3.129   0.231 -0.0218  0.3436  0.0820
  518TMC3    O2 7757   1.352   2.596   0.142 -0.2201 -0.1398  0.3356
  519MPD2     C 7758   2.447   1.582  14.555  0.0745 -0.5446 -0.1509
  519MPD2    C1 7759   2.402   1.626  14.432  0.1701 -0.2290  1.0774
  519MPD2    C2 7760   2.488   1.630  14.321 -0.3996  0.0571 -0.1481
  519MPD2    C3 7761   2.613   1.570  14.327 -0.0201 -0.6598  0.0224
  519MPD2    C4 7762   2.657   1.526  14.447  0.0521 -0.0986  0.1045
  519MPD2    C5 7763   2.573   1.520  14.554  0.1175 -0.3490  0.6626
  519MPD2     H 7764   2.454   1.680  14.231 -2.9735 -1.3462  0.0687
  519MPD2    H1 7765   2.749   1.471  14.464 -0.3054 -0.9151 -0.5918
  519MPD2    H2 7766   2.376   1.573  14.637 -0.7309 -0.0679 -0.7925
  519MPD2    H3 7767   2.617   1.479  14.644 -0.1370  0.1528  1.0185
  519MPD2     N 7768   2.701   1.573  14.212  0.5654 -0.1690 -0.1479
  519MPD2    H5 7769   2.799   1.556  14.230  0.6593  2.9340  2.2291
  519MPD2    N1 7770   2.263   1.662  14.436 -0.6361  0.5907  0.7769
  519MPD2    H7 7771   2.204   1.657  14.519 -0.8800  1.4598  0.6524
  520TMC3    C1 7772   2.763   1.578  13.974 -0.2006  0.1094 -0.4518
  520TMC3    C2 7773   2.720   1.590  13.843  0.2270  0.4715 -0.4467
  520TMC3    C3 7774   2.792   1.533  13.740 -0.0865 -0.1087  0.1923
  520TMC3    C4 7775   2.864   1.494  14.004  0.4755 -0.1869 -0.0377
  520TMC3    C5 7776   2.927   1.439  13.898 -0.0541 -0.1174  0.4469
  520TMC3    C6 7777   2.896   1.455  13.765  0.1091 -0.3671  0.5187
  520TMC3     C 7778   2.657   1.591  14.079  0.2354  0.0180 -0.1857
  520TMC3     O 7779   2.542   1.608  14.036  0.2375  1.0718  0.1347
  520TMC3     H 7780   2.641   1.663  13.831 -2.5328 -2.1652  1.8196
  520TMC3    H1 7781   2.871   1.446  14.100  0.7246 -0.1083 -0.0153
  520TMC3    H2 7782   2.943   1.394  13.688  0.2230  0.6099 -0.1910
  520TMC3    C7 7783   3.024   1.335  13.934 -0.1842 -0.1985  0.2496
  520TMC3    C8 7784   2.725   1.511  13.610 -0.6334 -0.0660 -0.8120
  520TMC3    O1 7785   3.118   1.372  14.010  0.4272 -0.3554 -0.1347
  520TMC3    O2 7786   2.793   1.504  13.511 -0.1378 -0.0283  0.4038
  521MPD2     C 7787   3.386   4.443  17.542  0.5896 -0.3707 -0.2925
  521MPD2    C1 7788   3.347   4.387  17.423 -0.1018  0.2936  0.1178
  521MPD2    C2 7789   3.441   4.328  17.341  0.3206  1.1498 -0.2547
  521MPD2    C3 7790   3.572   4.308  17.379  0.2377 -0.3464 -0.0086
  521MPD2    C4 7791   3.606   4.362  17.502 -0.6393  0.8491  0.4300
  521MPD2    C5 7792   3.514   4.423  17.586 -0.0939  0.7211 -0.0360
  521MPD2     H 7793   3.413   4.296  17.241  0.8883  1.5937 -0.5598
  521MPD2    H1 7794   3.710   4.369  17.532 -0.7254  1.2345  0.6384
  521MPD2    H2 7795   3.316   4.500  17.601 -0.0937  0.7967 -2.2391
  521MPD2    H3 7796   3.553   4.474  17.673  0.6783  1.9999 -1.1323
  521MPD2     N 7797   3.657   4.244  17.290 -0.0043  0.2570  0.9159
  521MPD2    H5 7798   3.614   4.226  17.200  2.9329  1.3156 -0.7146
  521MPD2    N1 7799   3.210   4.394  17.399  0.2512 -0.6176  0.2291
  521MPD2    H7 7800   3.150   4.426  17.475 -0.2640  0.5844 -0.6839
  522TMC3    C1 7801   3.851   4.146  17.195 -0.0764 -0.5391  0.4404
  522TMC3    C2 7802   3.914   4.028  17.205  0.4233  0.5308  0.0243
  522TMC3    C3 7803   3.995   3.984  17.108  0.5484 -0.2830  0.3956
  522TMC3    C4 7804   3.854   4.220  17.082  0.3070  0.1591 -0.1884
  522TMC3    C5 7805   3.947   4.181  16.988  0.3267 -0.3957 -0.0392
  522TMC3    C6 7806   4.027   4.063  16.998  0.0620  0.0660 -0.3376
  522TMC3     C 7807   3.779   4.184  17.317 -0.4123  0.3878 -0.7622
  522TMC3     O 7808   3.852   4.193  17.418  0.2395 -0.8345  0.4763
  522TMC3     H 7809   3.896   3.964  17.290 -2.4800 -0.9086 -1.6631
  522TMC3    H1 7810   3.795   4.311  17.077  0.2945  0.0726 -1.5132
  522TMC3    H2 7811   4.084   4.017  16.918 -1.1362 -0.4346 -0.8982
  522TMC3    C7 7812   3.949   4.252  16.865 -0.1057  0.2874 -0.4883
  522TMC3    C8 7813   4.043   3.848  17.110  0.4890 -0.5655  0.0833
  522TMC3    O1 7814   4.057   4.280  16.812  0.4147 -0.4674 -0.8721
  522TMC3    O2 7815   4.061   3.807  17.225 -0.1108  0.0967 -0.3025
  523MPD2     C 7816   0.492   0.360  10.208 -0.0587 -0.6052  1.1757
  523MPD2    C1 7817   0.460   0.246  10.132 -0.4646 -0.7015 -1.0152
  523MPD2    C2 7818   0.373   0.270  10.022  0.2046  0.4451 -0.3684
  523MPD2    C3 7819   0.329   0.397   9.986  0.3492 -0.1725  0.7391
  523MPD2    C4 7820   0.363   0.503  10.071 -0.2016 -0.4878  0.3288
  523MPD2    C5 7821   0.428   0.475  10.190 -0.5503  0.7288 -0.3289
  523MPD2     H 7822   0.330   0.186   9.969 -0.2818  0.1537  0.4994
  523MPD2    H1 7823   0.312   0.597  10.054  1.7573  0.5263  0.1377
  523MPD2    H2 7824   0.552   0.353  10.299  0.8165 -0.0723  0.6337
  523MPD2    H3 7825   0.462   0.556  10.254 -1.7284  2.6467 -2.1410
  523MPD2     N 7826   0.256   0.424   9.864  0.5321 -0.2781 -0.1340
  523MPD2    H5 7827   0.221   0.519   9.866  0.5453 -0.2763 -0.0056
  523MPD2    N1 7828   0.511   0.123  10.177  0.1311 -0.2336  0.2510
  523MPD2    H7 7829   0.570   0.131  10.259 -2.5056  2.5957  1.8372
  524TMC3    C1 7830   0.141   0.387   9.658  1.1343  0.4248 -0.7859
  524TMC3    C2 7831   0.178   0.351   9.527  0.0426 -0.4724  0.1793
  524TMC3    C3 7832   0.105   0.412   9.424 -0.2439 -0.0491  0.2312
  524TMC3    C4 7833   0.053   0.492   9.676 -0.8571  0.4735  0.2979
  524TMC3    C5 7834   4.718   0.539   9.574 -0.3098  0.2931 -0.0442
  524TMC3    C6 7835   0.005   0.501   9.443 -0.1378  0.2267 -0.6738
  524TMC3     C 7836   0.222   0.333   9.768  0.3997  0.7364 -0.3403
  524TMC3     O 7837   0.275   0.226   9.749 -0.3566  0.1862 -0.6803
  524TMC3     H 7838   0.248   0.270   9.514 -1.3787 -1.5444 -0.8667
  524TMC3    H1 7839   0.025   0.518   9.777 -0.0336 -1.1741  0.9630
  524TMC3    H2 7840   4.706   0.554   9.357 -2.2817  2.4866  1.6584
  524TMC3    C7 7841   4.667   0.675   9.596 -0.3540  0.2109  0.2644
  524TMC3    C8 7842   0.115   0.339   9.297 -0.5520 -0.3756  0.0257
  524TMC3    O1 7843   4.660   0.708   9.711  0.4571  0.4323 -0.3451
  524TMC3    O2 7844   0.209   0.263   9.293  0.4372  0.6864  0.4381
  525MPD2     C 7845   3.795   1.272  14.585  0.6986  0.2067 -0.1297
  525MPD2    C1 7846   3.904   1.294  14.668 -0.5476 -0.4298 -0.6422
  525MPD2    C2 7847   3.963   1.423  14.663  0.6939  0.9052 -0.8046
  525MPD2    C3 7848   3.918   1.527  14.583  0.6975  0.3189 -0.1875
  525MPD2    C4 7849   3.812   1.498  14.501  0.8946 -0.2547  0.5245
  525MPD2    C5 7850   3.754   1.371  14.502 -0.1232 -0.9653 -0.0490
  525MPD2     H 7851   4.051   1.443  14.724 -0.4174  2.0280  0.4401
  525MPD2    H1 7852   3.760   1.579  14.451  0.8650  0.2439  1.3583
  525MPD2    H2 7853   3.736   1.181  14.584 -0.0506  0.6620  2.3568
  525MPD2    H3 7854   3.675   1.341  14.434 -1.0631  0.8679  0.2534
  525MPD2     N 7855   3.957   1.659  14.591  0.5499  0.0367  0.1627
  525MPD2    H5 7856   3.910   1.724  14.530 -0.0064  0.3346  0.9097
  525MPD2    N1 7857   3.965   1.197  14.757  0.2702 -0.5073  0.7645
  525MPD2    H7 7858   4.046   1.225  14.812 -0.2612  1.0134  0.7821
  526TMC3    C1 7859   3.973   0.996  14.884 -0.3269  0.0768 -0.0108
  526TMC3    C2 7860   3.900   0.913  14.965  0.4182  0.4038 -0.0795
  526TMC3    C3 7861   3.975   0.845  15.054 -0.4405  0.0544  0.3672
  526TMC3    C4 7862   4.110   0.989  14.865 -0.3860 -0.3141  0.4781
  526TMC3    C5 7863   4.175   0.903  14.949 -0.3370  0.0298 -0.4668
  526TMC3    C6 7864   4.111   0.827  15.039  0.3255  0.7322 -0.1088
  526TMC3     C 7865   3.905   1.079  14.788 -0.6318  0.2041  0.3521
  526TMC3     O 7866   3.790   1.052  14.766 -0.3165 -0.4170  0.1328
  526TMC3     H 7867   3.792   0.903  14.965  0.6146 -1.6010  2.3511
  526TMC3    H1 7868   4.163   1.042  14.787 -0.3342 -0.7439  0.2197
  526TMC3    H2 7869   4.158   0.754  15.105  1.7235  1.0496 -0.7487
  526TMC3    C7 7870   4.315   0.857  14.924  0.2677  0.5870 -0.5381
  526TMC3    C8 7871   3.913   0.733  15.128 -0.0942 -0.2881 -0.5646
  526TMC3    O1 7872   4.361   0.762  14.987 -0.5536  0.0151  0.0186
  526TMC3    O2 7873   3.976   0.629  15.140 -0.1274  0.1976 -0.4591
  527MPD2     C 7874   1.707   3.705   1.634  0.2910  0.3728  0.1421
  527MPD2    C1 7875   1.702   3.718   1.493 -0.0279  0.7602  0.3602
  527MPD2    C2 7876   1.816   3.677   1.417  0.4420  0.5133 -0.1858
  527MPD2    C3 7877   1.928   3.624   1.479  0.2155  0.2114 -0.4613
  527MPD2    C4 7878   1.925   3.604   1.613 -0.0263 -0.1994  0.6735
  527MPD2    C5 7879   1.822   3.648   1.692 -0.5533 -1.0456  0.0069
  527MPD2     H 7880   1.816   3.696   1.310 -3.8936 -1.2228 -0.4793
  527MPD2    H1 7881   2.012   3.574   1.671  0.4574 -0.2105 -0.0647
  527MPD2    H2 7882   1.614   3.712   1.690  0.5070 -0.4102  0.6067
  527MPD2    H3 7883   1.814   3.612   1.794 -0.6996 -0.4242  0.2104
  527MPD2     N 7884   2.030   3.588   1.392  0.4079  0.2379  0.6366
  527MPD2    H5 7885   2.011   3.587   1.292  0.7459  0.0249  0.5754
  527MPD2    N1 7886   1.605   3.794   1.426 -0.3348  0.7870 -0.2667
  527MPD2    H7 7887   1.622   3.805   1.327  0.8445  0.9358 -0.0515
  528TMC3    C1 7888   1.438   3.941   1.373  0.1227  0.3565  0.0945
  528TMC3    C2 7889   1.469   3.915   1.241 -0.0150 -0.6641 -0.2240
  528TMC3    C3 7890   1.461   4.020   1.152 -0.8043  0.5241  0.3106
  528TMC3    C4 7891   1.383   4.058   1.407  0.4911 -0.7626  0.1015
  528TMC3    C5 7892   1.387   4.166   1.318 -0.6799  0.2176  0.1346
  528TMC3    C6 7893   1.432   4.147   1.187  0.0132  0.1144  0.5077
  528TMC3     C 7894   1.492   3.856   1.473  0.3301 -0.0075 -0.0110
  528TMC3     O 7895   1.455   3.873   1.587 -0.2527 -0.4168 -0.1696
  528TMC3     H 7896   1.486   3.814   1.205 -0.7204 -1.2935  1.2457
  528TMC3    H1 7897   1.354   4.070   1.511 -0.9898 -1.6857 -0.2057
  528TMC3    H2 7898   1.430   4.220   1.107  1.3039 -0.5188 -0.1199
  528TMC3    C7 7899   1.436   4.291   1.371 -0.0945  0.4380 -0.2605
  528TMC3    C8 7900   1.515   3.999   1.016 -0.5294 -0.0682 -0.8712
  528TMC3    O1 7901   1.450   4.293   1.493  0.3914 -0.2989 -0.4225
  528TMC3    O2 7902   1.556   4.097   0.954  0.0041 -0.1729 -0.0717
  529MPD2     C 7903   4.016   2.106   0.945 -0.6265 -0.5672 -0.1556
  529MPD2    C1 7904   4.128   2.159   1.004 -0.0700  0.2253 -0.1406
  529MPD2    C2 7905   4.142   2.299   1.012 -0.0226 -0.0523 -0.0257
  529MPD2    C3 7906   4.054   2.380   0.944 -0.6693 -0.2164  0.0344
  529MPD2    C4 7907   3.944   2.325   0.882 -0.1544  0.2042 -0.2060
  529MPD2    C5 7908   3.932   2.190   0.883 -0.0595  0.3273  0.2962
  529MPD2     H 7909   4.201   2.352   1.085 -1.6184  1.1357  0.3985
  529MPD2    H1 7910   3.865   2.388   0.843 -0.9126 -0.3745  0.4011
  529MPD2    H2 7911   3.992   2.000   0.942 -0.9891 -0.5418  2.2678
  529MPD2    H3 7912   3.841   2.143   0.847 -0.4403  0.5022  1.0339
  529MPD2     N 7913   4.070   2.520   0.930  0.0608 -0.1845 -0.4055
  529MPD2    H5 7914   3.999   2.563   0.872 -1.3955 -0.0575  1.4956
  529MPD2    N1 7915   4.227   2.090   1.074  0.3334  0.6542 -0.2858
  529MPD2    H7 7916   4.287   2.154   1.124  1.7397  0.2717 -1.4785
  530TMC3    C1 7917   4.367   1.927   1.154 -0.0328  0.7434 -0.2503
  530TMC3    C2 7918   4.465   2.025   1.164 -0.8146  0.4991 -0.2300
  530TMC3    C3 7919   4.584   1.983   1.216  0.6711  0.7659 -0.4779
  530TMC3    C4 7920   4.383   1.802   1.192  0.4146  0.3528  0.6662
  530TMC3    C5 7921   4.502   1.768   1.243 -0.0072 -1.1201  0.1414
  530TMC3    C6 7922   4.609   1.852   1.260 -0.0898  0.1051 -0.6182
  530TMC3     C 7923   4.246   1.952   1.073 -0.0078 -1.1451 -0.6022
  530TMC3     O 7924   4.179   1.856   1.040 -0.4988  0.0305 -0.6041
  530TMC3     H 7925   4.458   2.122   1.115  0.1432  0.5317 -0.3102
  530TMC3    H1 7926   4.313   1.727   1.156 -2.0145  2.5735  0.7648
  530TMC3    H2 7927   4.701   1.830   1.312  0.2143  0.8637 -0.8354
  530TMC3    C7 7928   4.541   1.632   1.266 -0.1122 -0.0006  0.0953
  530TMC3    C8 7929   4.681   2.086   1.231  0.3434  0.3788 -0.1435
  530TMC3    O1 7930   4.657   1.594   1.269  0.0805 -0.2547  0.0322
  530TMC3    O2 7931   4.641   2.197   1.197  0.6994 -0.1270 -0.8073
  531MPD2     C 7932   3.303   0.641  13.593  0.2310  0.2209 -0.1738
  531MPD2    C1 7933   3.245   0.528  13.538  0.2169 -0.5897 -0.3928
  531MPD2    C2 7934   3.238   0.516  13.402  0.2436 -0.1293  0.1339
  531MPD2    C3 7935   3.293   0.606  13.316 -0.4573  0.3044  0.5558
  531MPD2    C4 7936   3.350   0.719  13.367  0.0252 -0.0472 -0.6001
  531MPD2    C5 7937   3.351   0.733  13.506  0.4726  0.0706 -0.3312
  531MPD2     H 7938   3.170   0.441  13.364  0.7052 -0.2439 -0.4713
  531MPD2    H1 7939   3.387   0.793  13.296  1.5570  0.4564  0.7151
  531MPD2    H2 7940   3.318   0.656  13.699 -2.9202  0.3562  0.2639
  531MPD2    H3 7941   3.391   0.830  13.533  0.6686 -0.6970  2.0936
  531MPD2     N 7942   3.287   0.598  13.175 -0.0230 -0.3203  0.2956
  531MPD2    H5 7943   3.327   0.677  13.125  2.5187 -0.5385  1.9783
  531MPD2    N1 7944   3.205   0.432  13.632 -0.1575  0.0390  0.2399
  531MPD2    H7 7945   3.226   0.455  13.728 -1.2966 -1.5906  0.8809
  532TMC3    C1 7946   3.079   0.229  13.705 -0.3315 -0.5350  0.3250
  532TMC3    C2 7947   2.976   0.158  13.656  0.0579  0.1883  0.1993
  532TMC3    C3 7948   2.985   0.021  13.661  0.7711  0.1620 -0.4857
  532TMC3    C4 7949   3.177   0.183  13.783  0.5592 -0.9452  0.2460
  532TMC3    C5 7950   3.175   0.047  13.793  0.2740 -0.0087  0.0057
  532TMC3    C6 7951   3.079   4.705  13.738 -0.3280 -0.4097 -0.0024
  532TMC3     C 7952   3.128   0.319  13.603 -0.3413  0.1131 -0.0070
  532TMC3     O 7953   3.085   0.284  13.495  0.0836  0.1713 -0.2471
  532TMC3     H 7954   2.892   0.206  13.608  1.7590  2.2531 -0.6944
  532TMC3    H1 7955   3.262   0.242  13.815  1.7812 -0.9886 -2.9216
  532TMC3    H2 7956   3.088   4.597  13.733 -0.5946 -0.5061  1.4087
  532TMC3    C7 7957   3.294   4.729  13.850  0.0558 -0.1095  0.6174
  532TMC3    C8 7958   2.956   4.695  13.533  0.0898  0.1702  1.5355
  532TMC3    O1 7959   3.344   0.058  13.937 -0.1665 -0.0087 -0.4018
  532TMC3    O2 7960   2.930   4.576  13.528  0.1949  0.2727 -0.5194
  533TMC3    C1 7961   4.078   1.841  14.677 -0.1560 -0.0769  0.4201
  533TMC3    C2 7962   4.197   1.903  14.669  0.4236 -0.3665  0.2709
  533TMC3    C3 7963   4.211   2.034  14.705  0.1126 -0.2403 -0.0002
  533TMC3    C4 7964   3.992   1.891  14.767  0.4614 -0.6469 -0.2014
  533TMC3    C5 7965   4.012   2.014  14.830 -0.0234  0.4146 -0.5674
  533TMC3    C6 7966   4.120   2.092  14.798 -0.5670  0.5652  0.6686
  533TMC3     C 7967   4.071   1.700  14.656  0.5209 -0.5628 -0.6167
  533TMC3     O 7968   4.167   1.633  14.691 -0.1057  0.0710 -0.5467
  533TMC3     H 7969   4.282   1.853  14.624 -1.2012 -0.2224 -2.9670
  533TMC3    H1 7970   3.898   1.837  14.776  0.7928 -0.4722  4.2202
  533TMC3    H2 7971   4.131   2.185  14.853 -1.0410  1.0685 -0.0727
  533TMC3    C7 7972   3.960   2.036  14.966  0.0027  0.8352  0.0800
  533TMC3    C8 7973   4.352   2.082  14.706 -0.2928 -0.1959 -0.1731
  533TMC3    O1 7974   3.949   2.149  15.015 -0.1065 -0.5093 -1.1611
  533TMC3    O2 7975   4.448   2.001  14.692  0.0297  0.0841 -0.1007
  534MPD2     C 7976   2.735   2.442   1.558 -0.2618  1.0962  0.9833
  534MPD2    C1 7977   2.613   2.498   1.535 -1.0986 -0.4984  0.1495
  534MPD2    C2 7978   2.513   2.425   1.469  0.6181 -0.4450  0.2899
  534MPD2    C3 7979   2.539   2.286   1.446 -0.0589  0.4814 -0.3184
  534MPD2    C4 7980   2.668   2.236   1.461 -0.0743  0.2708 -0.3046
  534MPD2    C5 7981   2.762   2.312   1.518 -0.2383  0.4852 -0.4335
  534MPD2     H 7982   2.426   2.478   1.433  2.0880  0.8666 -1.3776
  534MPD2    H1 7983   2.688   2.134   1.433 -2.8630 -0.5146  0.5750
  534MPD2    H2 7984   2.818   2.504   1.591 -0.3367  0.9148  1.5117
  534MPD2    H3 7985   2.858   2.269   1.544 -1.1130 -0.0929  1.8397
  534MPD2     N 7986   2.445   2.209   1.376 -0.1009 -0.6469 -0.1350
  534MPD2    H5 7987   2.474   2.127   1.323  0.4027 -2.2909  2.6832
  534MPD2    N1 7988   2.576   2.628   1.569 -0.1842 -0.6712 -0.5154
  534MPD2    H7 7989   2.484   2.661   1.544 -0.1930  0.2611  0.7159
  535TMC3    C1 7990   2.236   2.179   1.299 -0.5710 -0.1532 -0.1882
  535TMC3    C2 7991   2.107   2.156   1.335 -0.2024  0.7529  0.2333
  535TMC3    C3 7992   2.017   2.131   1.239  0.2307 -0.8052 -0.3368
  535TMC3    C4 7993   2.277   2.156   1.173  0.5631  0.4388 -0.7151
  535TMC3    C5 7994   2.184   2.114   1.074  0.0273 -0.0519  0.6470
  535TMC3    C6 7995   2.049   2.107   1.105  0.2939 -0.9422  0.4661
  535TMC3     C 7996   2.312   2.245   1.397 -0.2411 -0.3037 -0.1540
  535TMC3     O 7997   2.264   2.295   1.501 -0.2282  0.1176  0.0224
  535TMC3     H 7998   2.066   2.170   1.434  4.0823 -0.9994  2.2460
  535TMC3    H1 7999   2.375   2.188   1.141  0.3804 -1.4093 -3.0318
  535TMC3    H2 8000   1.979   2.087   1.024  0.3303  0.3663  0.1141
  535TMC3    C7 8001   2.212   2.134   0.935 -0.1689  0.0983  0.2259
  535TMC3    C8 8002   1.878   2.133   1.254  0.3189  0.3742 -0.1990
  535TMC3    O1 8003   2.157   2.053   0.860  0.4939  0.1071  0.0371
  535TMC3    O2 8004   1.822   2.082   1.161  0.4037 -0.0727  0.2953
  536MPD2     C 8005   0.963   0.995  16.224 -0.2061 -0.0136  0.2115
  536MPD2    C1 8006   0.841   0.952  16.260  0.4755  0.2016 -0.1303
  536MPD2    C2 8007   0.736   0.984  16.177 -0.1637  0.2631  0.4648
  536MPD2    C3 8008   0.743   1.067  16.071  0.5453 -0.1742 -0.4975
  536MPD2    C4 8009   0.865   1.118  16.036 -0.1353  0.3263 -0.4464
  536MPD2    C5 8010   0.975   1.081  16.115  0.2136  0.1102  0.7265
  536MPD2     H 8011   0.641   0.943  16.206  0.2440  0.0411  1.4800
  536MPD2    H1 8012   0.872   1.198  15.962 -0.0701 -0.6405 -1.4891
  536MPD2    H2 8013   1.046   0.982  16.291 -0.4920  0.6877  0.7059
  536MPD2    H3 8014   1.070   1.125  16.087 -0.6930  2.2812  1.0747
  536MPD2     N 8015   0.632   1.125  16.011 -0.8172  0.2905  0.0799
  536MPD2    H5 8016   0.634   1.170  15.920 -0.6066 -0.4932 -0.3045
  536MPD2    N1 8017   0.839   0.864  16.370 -0.4077  0.3889  0.3611
  536MPD2    H7 8018   0.931   0.843  16.408  0.2293 -0.3628 -1.6284
  537TMC3    C1 8019   0.749   0.729  16.541  0.1896 -0.1314 -0.4146
  537TMC3    C2 8020   0.830   0.777  16.639  0.3777  0.0754 -0.0945
  537TMC3    C3 8021   0.814   0.719  16.759 -0.1214  0.1725  0.1572
  537TMC3    C4 8022   0.642   0.650  16.562  0.3819  0.1546  0.4940
  537TMC3    C5 8023   0.631   0.595  16.688 -0.4580  0.8760 -0.1382
  537TMC3    C6 8024   0.713   0.635  16.787  0.2679 -0.0216 -0.7084
  537TMC3     C 8025   0.727   0.812  16.423 -0.4840  0.3215 -0.7768
  537TMC3     O 8026   0.616   0.857  16.421 -0.1413  0.3913  0.5074
  537TMC3     H 8027   0.914   0.840  16.613  0.3556  0.5715  1.0547
  537TMC3    H1 8028   0.573   0.630  16.481  0.6870  0.8884  0.0430
  537TMC3    H2 8029   0.692   0.606  16.889  0.1123  1.9778 -0.1803
  537TMC3    C7 8030   0.530   0.499  16.707  0.4381  0.4959 -0.1049
  537TMC3    C8 8031   0.851   0.803  16.877  0.2840 -0.5054 -0.3228
  537TMC3    O1 8032   0.455   0.484  16.613  0.5549 -0.6857  0.1087
  537TMC3    O2 8033   0.850   0.742  16.985 -0.1279 -0.0439 -0.2773
  538TMC3    C1 8034   1.248   4.575  11.211 -0.4239 -0.0802  0.4781
  538TMC3    C2 8035   1.348   4.508  11.146  0.6711 -0.4256  0.3945
  538TMC3    C3 8036   1.359   4.529  11.016  0.2884  0.5366  0.3562
  538TMC3    C4 8037   1.154   4.651  11.145 -0.2818 -0.2752 -0.1072
  538TMC3    C5 8038   1.178   4.673  11.008 -0.8224  0.1156  0.2437
  538TMC3    C6 8039   1.280   4.614  10.945  0.1425 -0.4312  0.1545
  538TMC3     C 8040   1.187   4.516  11.324 -0.0910  0.1433 -0.3543
  538TMC3     O 8041   1.068   4.518  11.326 -0.5880 -0.1937  0.2691
  538TMC3     H 8042   1.404   4.430  11.196  1.7062  1.5769  2.3682
  538TMC3    H1 8043   1.079   4.710  11.195 -2.0856 -2.0530 -0.7180
  538TMC3    H2 8044   1.276   4.617  10.837  2.9908 -1.2722  0.0233
  538TMC3    C7 8045   1.072   4.739  10.937 -0.8798 -0.6335 -0.4635
  538TMC3    C8 8046   1.475   4.467  10.955 -0.6111 -0.7414  0.0681
  538TMC3    O1 8047   0.966   0.001  10.994  0.6037  0.1222 -0.4183
  538TMC3    O2 8048   1.505   4.355  10.994 -0.6967 -0.4593  0.2281
  539MPD2     C 8049   1.350   3.947  11.323  0.6027  0.5058  0.1035
  539MPD2    C1 8050   1.226   3.883  11.331  0.3420 -0.4994  0.3354
  539MPD2    C2 8051   1.111   3.950  11.295  0.7982 -0.4530 -0.0665
  539MPD2    C3 8052   1.120   4.076  11.234  0.0021 -0.4156 -0.4438
  539MPD2    C4 8053   1.236   4.143  11.237 -0.3657 -0.4891 -0.2917
  539MPD2    C5 8054   1.347   4.079  11.286  0.1077  0.6657  0.0321
  539MPD2     H 8055   1.016   3.899  11.305  2.1230 -3.5460 -3.1858
  539MPD2    H1 8056   1.243   4.241  11.191 -0.6763 -0.7731 -0.9351
  539MPD2    H2 8057   1.449   3.904  11.337 -1.3625 -3.1231  2.6432
  539MPD2    H3 8058   1.442   4.132  11.289  1.2845 -1.4111 -0.5381
  539MPD2     N 8059   1.007   4.139  11.184  0.6564  0.4269  0.3082
  539MPD2    H5 8060   0.919   4.115  11.228  1.0840  0.2476  1.0644
  539MPD2    N1 8061   1.214   3.741  11.363 -0.0588  0.2583 -0.1890
  539MPD2    H7 8062   1.125   3.695  11.346  0.9832 -2.1665  0.9165
  540TMC3    C1 8063   0.862   4.301  11.085 -0.8819 -0.0284 -0.5026
  540TMC3    C2 8064   0.846   4.377  10.975 -0.3386 -0.7198  0.0704
  540TMC3    C3 8065   0.752   4.474  10.980  0.1015 -0.6729  0.8135
  540TMC3    C4 8066   0.803   4.322  11.205 -1.3906  0.4680  0.0454
  540TMC3    C5 8067   0.712   4.427  11.205  0.4847  0.0599  0.2305
  540TMC3    C6 8068   0.685   4.501  11.095 -1.0524 -0.1248  0.3149
  540TMC3     C 8069   1.002   4.244  11.095  0.4251  0.3840 -0.3853
  540TMC3     O 8070   1.090   4.281  11.017 -0.0661  0.0779 -0.2398
  540TMC3     H 8071   0.919   4.363  10.895 -0.7042 -0.4532 -0.3108
  540TMC3    H1 8072   0.836   4.273  11.295 -4.2664  1.2142  1.5025
  540TMC3    H2 8073   0.601   4.569  11.096 -0.7626  0.1981  1.8345
  540TMC3    C7 8074   0.662   4.466  11.333 -0.2407  0.5137 -0.0606
  540TMC3    C8 8075   0.678   4.491  10.863 -0.6920  0.8059 -0.3603
  540TMC3    O1 8076   0.665   4.383  11.425 -0.2015 -0.6822  0.1041
  540TMC3    O2 8077   0.616   4.592  10.842  0.4980 -0.2099  0.5692
  541MPD2     C 8078   4.005   0.279  13.413 -0.1533 -1.0875  0.2821
  541MPD2    C1 8079   4.108   0.232  13.329 -0.1647 -0.2983 -0.5423
  541MPD2    C2 8080   4.157   0.316  13.235  0.1249 -0.2715  0.0653
  541MPD2    C3 8081   4.095   0.437  13.207  0.4599 -0.4140  0.2582
  541MPD2    C4 8082   3.991   0.474  13.284  0.1183 -0.2508 -0.4118
  541MPD2    C5 8083   3.949   0.405  13.392 -0.0927  0.0547  0.0265
  541MPD2     H 8084   4.234   0.280  13.167 -1.0695 -2.3524 -0.2043
  541MPD2    H1 8085   3.950   0.574  13.274 -1.7297 -1.1280 -1.6053
  541MPD2    H2 8086   3.979   0.225  13.503  0.8825 -1.7793  0.1505
  541MPD2    H3 8087   3.870   0.438  13.458 -0.9459  1.5970 -1.7965
  541MPD2     N 8088   4.121   0.510  13.092  1.2359  0.1816 -0.3121
  541MPD2    H5 8089   4.057   0.587  13.076 -0.8571 -1.1811  1.5000
  541MPD2    N1 8090   4.191   0.117  13.348 -0.8891 -0.0028 -0.1956
  541MPD2    H7 8091   4.271   0.100  13.288 -1.4830  0.6207 -1.1554
  542TMC3    C1 8092   4.214   0.557  12.878  0.8529  0.6268 -0.5535
  542TMC3    C2 8093   4.318   0.539  12.795 -0.2878 -0.0479  0.2475
  542TMC3    C3 8094   4.300   0.576  12.665  0.5393 -0.6386 -0.0582
  542TMC3    C4 8095   4.090   0.606  12.836  1.0200 -0.3687 -0.2854
  542TMC3    C5 8096   4.075   0.639  12.709 -0.0354 -0.1439  0.1064
  542TMC3    C6 8097   4.177   0.621  12.621 -0.2388  0.3303 -0.1938
  542TMC3     C 8098   4.228   0.490  13.010  0.0257 -0.4834  0.6480
  542TMC3     O 8099   4.328   0.422  13.023 -0.3868  0.4487 -0.2612
  542TMC3     H 8100   4.415   0.499  12.821  0.8276  2.5308  0.0139
  542TMC3    H1 8101   4.006   0.619  12.903  1.0979 -1.5180  0.0283
  542TMC3    H2 8102   4.163   0.655  12.520  0.9122 -0.0602 -0.4856
  542TMC3    C7 8103   3.956   0.701  12.664  0.3065 -0.0830 -0.2388
  542TMC3    C8 8104   4.389   0.561  12.554 -0.6112  0.4638 -0.7701
  542TMC3    O1 8105   3.880   0.743  12.750 -0.0759 -0.0293  0.0250
  542TMC3    O2 8106   4.374   0.630  12.456 -0.0596 -0.2986  0.1098
  543TMC3    C1 8107   4.393   1.922  17.561 -0.1859  0.4365  0.4291
  543TMC3    C2 8108   4.418   1.814  17.642 -0.0484 -0.1066 -0.0530
  543TMC3    C3 8109   4.442   1.835   0.018  0.3802 -0.6447  0.0190
  543TMC3    C4 8110   4.422   2.052  17.609  0.6994 -0.5061 -0.2228
  543TMC3    C5 8111   4.456   2.067  17.740 -0.0873  0.1048  0.1151
  543TMC3    C6 8112   4.459   1.959   0.068 -0.1222  0.6421  0.9757
  543TMC3     C 8113   4.388   1.889  17.418 -0.1923  0.8797  0.4476
  543TMC3     O 8114   4.470   1.813  17.373 -0.1462  0.3791  0.6535
  543TMC3     H 8115   4.390   1.718  17.600 -1.5489  0.0950  0.4870
  543TMC3    H1 8116   4.430   2.136  17.541  0.5164  0.7919  1.3485
  543TMC3    H2 8117   4.491   1.979   0.169  0.1808 -0.7810  1.1702
  543TMC3    C7 8118   4.468   2.201   0.043  0.2567  0.0032 -0.0193
  543TMC3    C8 8119   4.387   1.728   0.103  0.5475  0.2806  0.0942
  543TMC3    O1 8120   4.520   2.215   0.155  0.2740 -0.7785 -0.0980
  543TMC3    O2 8121   4.319   1.639   0.053 -0.3040 -0.1973  0.1617
  544MPD2     C 8122   4.336   1.464   0.541 -0.1437 -0.8284  0.1272
  544MPD2    C1 8123   4.325   1.419   0.415 -0.3801  0.2889  0.3719
  544MPD2    C2 8124   4.357   1.507   0.308 -0.2055 -0.1374 -0.2069
  544MPD2    C3 8125   4.387   1.638   0.330 -0.1641  0.4490  0.2417
  544MPD2    C4 8126   4.403   1.683   0.465 -0.0831  0.0183  0.4596
  544MPD2    C5 8127   4.375   1.598   0.568  0.4472  0.2295 -0.5554
  544MPD2     H 8128   4.355   1.467   0.207  1.3113 -1.2456  0.2027
  544MPD2    H1 8129   4.445   1.780   0.489  0.5444 -0.7098  2.3042
  544MPD2    H2 8130   4.320   1.409   0.632 -1.2769  2.2529  1.7888
  544MPD2    H3 8131   4.384   1.633   0.670  1.2470 -0.9044 -0.2401
  544MPD2     N 8132   4.415   1.737   0.233  0.0636  0.0950  0.6009
  544MPD2    H5 8133   4.457   1.822   0.268  1.4117 -0.9626  1.5563
  544MPD2    N1 8134   4.298   1.283   0.411 -0.4297  0.0955  0.4176
  544MPD2    H7 8135   4.285   1.245   0.504  1.4078  1.8136  1.3916
  545TMC3    C1 8136   4.304   1.062   0.326  0.7479  0.2454  0.0005
  545TMC3    C2 8137   4.267   0.970   0.227  0.0476  0.4407 -1.0341
  545TMC3    C3 8138   4.296   0.835   0.235 -0.0681 -0.4191  0.5448
  545TMC3    C4 8139   4.373   1.020   0.434  0.4072 -0.2911 -0.2247
  545TMC3    C5 8140   4.396   0.884   0.444  0.2026 -0.0736 -0.0824
  545TMC3    C6 8141   4.363   0.792   0.349 -0.5068 -0.4638 -0.3208
  545TMC3     C 8142   4.290   1.205   0.300  0.8705  0.3909 -0.2221
  545TMC3     O 8143   4.253   1.247   0.192  0.3343  0.2295  0.2061
  545TMC3     H 8144   4.236   1.024   0.138  1.6490  1.2701 -1.0898
  545TMC3    H1 8145   4.408   1.085   0.513 -0.6033  0.5618 -0.4957
  545TMC3    H2 8146   4.351   0.689   0.382  2.3166 -0.6458  0.1125
  545TMC3    C7 8147   4.490   0.839   0.546  0.3963 -0.4451 -0.5680
  545TMC3    C8 8148   4.218   0.735   0.171 -0.2598  0.1580  0.8188
  545TMC3    O1 8149   4.509   0.920   0.638  0.1982 -0.3090 -0.6836
  545TMC3    O2 8150   4.266   0.621   0.183  0.2992 -0.3895  0.2962
  546MPD2     C 8151   0.652   1.325  17.612 -0.3645 -0.8171  0.1594
  546MPD2    C1 8152   0.706   1.340  17.487  0.4411  0.4005  0.1710
  546MPD2    C2 8153   0.797   1.448  17.460  0.0786 -0.1490  0.3450
  546MPD2    C3 8154   0.824   1.535  17.564  0.3278 -0.2402  0.3411
  546MPD2    C4 8155   0.779   1.513  17.695 -0.2660 -0.6047  0.1596
  546MPD2    C5 8156   0.696   1.402  17.717  0.1551  0.3516 -0.0770
  546MPD2     H 8157   0.844   1.466  17.363 -2.2277  0.0820 -0.7206
  546MPD2    H1 8158   0.803   1.578   0.021  0.7927  0.1452 -0.7374
  546MPD2    H2 8159   0.577   1.250  17.633 -0.3698 -0.8461  0.0379
  546MPD2    H3 8160   0.656   1.395   0.060  3.3958  0.8057  1.2492
  546MPD2     N 8161   0.906   1.651  17.568 -0.0851  0.2296 -0.3366
  546MPD2    H5 8162   0.926   1.699  17.655 -1.0283  1.7040 -0.9214
  546MPD2    N1 8163   0.672   1.234  17.394 -0.2600  0.1909  0.0147
  546MPD2    H7 8164   0.606   1.163  17.421 -0.1361 -1.0551 -2.9486
  547TMC3    C1 8165   0.633   1.152  17.177  0.1413  0.4056 -0.5066
  547TMC3    C2 8166   0.599   1.176  17.054  0.8195 -0.3036 -0.1646
  547TMC3    C3 8167   0.578   1.066  16.974  0.2578  0.2581  0.4755
  547TMC3    C4 8168   0.640   1.023  17.224  0.5121 -0.6183 -0.0331
  547TMC3    C5 8169   0.607   0.918  17.147 -0.1987  0.3667 -0.2610
  547TMC3    C6 8170   0.582   0.935  17.013  0.5320  0.2396 -0.1875
  547TMC3     C 8171   0.682   1.257  17.262  0.9496  0.4693  0.7845
  547TMC3     O 8172   0.701   1.364  17.206 -0.7037 -0.1892 -0.4611
  547TMC3     H 8173   0.613   1.273  17.008 -0.4009  0.2550  0.6364
  547TMC3    H1 8174   0.669   1.005  17.327 -0.9497  0.0146  0.4970
  547TMC3    H2 8175   0.575   0.852  16.945  0.1431 -1.0941  1.4637
  547TMC3    C7 8176   0.552   0.803  17.217  0.4057  0.0164  0.4189
  547TMC3    C8 8177   0.519   1.084  16.843 -0.0385 -0.7504  0.1867
  547TMC3    O1 8178   0.568   0.798  17.340 -0.0592  0.3913 -0.1330
  547TMC3    O2 8179   0.533   0.996  16.760  0.3031 -0.0627 -0.8172
  548MPD2     C 8180   0.074   2.156  12.843 -0.6822 -0.4717 -0.1688
  548MPD2    C1 8181   0.013   2.048  12.774  0.2362 -0.1908  0.1778
  548MPD2    C2 8182   0.084   1.938  12.747 -0.0715 -0.3266 -0.4587
  548MPD2    C3 8183   0.221   1.941  12.767  0.5304  0.3324  0.0633
  548MPD2    C4 8184   0.284   2.055  12.818  0.1038 -0.2138 -0.6639
  548MPD2    C5 8185   0.208   2.161  12.861 -0.1564  1.4482  0.2662
  548MPD2     H 8186   0.041   1.851  12.698  0.2102  1.3929 -3.7934
  548MPD2    H1 8187   0.391   2.069  12.823  0.1605 -0.5251 -1.0228
  548MPD2    H2 8188   0.011   2.239  12.869 -1.1400 -0.4455 -1.3696
  548MPD2    H3 8189   0.252   2.251  12.902 -0.0929  0.4389  2.3907
  548MPD2     N 8190   0.292   1.834  12.708  0.4277 -0.0948 -0.4558
  548MPD2    H5 8191   0.240   1.752  12.679 -1.2061  1.0517 -0.8041
  548MPD2    N1 8192   4.613   2.058  12.765  0.3573 -0.0178 -0.5497
  548MPD2    H7 8193   4.565   2.144  12.789 -1.1985 -1.3548  1.0228
  549TMC3    C1 8194   4.407   2.022  12.668  0.3016 -0.1969 -0.0304
  549TMC3    C2 8195   4.404   2.161  12.631 -0.0186 -0.2162  0.0121
  549TMC3    C3 8196   4.288   2.204  12.573 -0.2895  1.4838  0.0571
  549TMC3    C4 8197   4.314   1.931  12.623 -0.1422 -0.0646 -0.1892
  549TMC3    C5 8198   4.211   1.984  12.551  0.1281  0.0707  0.3394
  549TMC3    C6 8199   4.189   2.114  12.537 -0.4350 -0.5917 -0.6860
  549TMC3     C 8200   4.534   1.962  12.716 -0.2287 -0.5982 -0.3287
  549TMC3     O 8201   4.555   1.838  12.708  0.0748 -0.5723  0.2130
  549TMC3     H 8202   4.485   2.232  12.641 -1.0101  0.7692  1.0579
  549TMC3    H1 8203   4.304   1.824  12.634  2.4542 -0.1913  0.8560
  549TMC3    H2 8204   4.095   2.154  12.499  1.2834  0.9123 -3.2980
  549TMC3    C7 8205   4.095   1.897  12.518 -0.4907 -0.1948  0.0421
  549TMC3    C8 8206   4.246   2.346  12.554 -0.3874 -0.2451 -0.6071
  549TMC3    O1 8207   3.985   1.956  12.516  0.2917 -0.4942  0.0580
  549TMC3    O2 8208   4.136   2.357  12.506 -0.1665 -0.4829 -0.1126
  550TMC3    C1 8209   3.777   0.115  11.993  0.3649  0.5381 -0.3521
  550TMC3    C2 8210   3.805   0.143  12.123  0.3074  0.4081  0.2669
  550TMC3    C3 8211   3.807   0.276  12.162 -0.4907  0.0922 -0.3812
  550TMC3    C4 8212   3.743   0.212  11.903  0.5653 -0.3208  0.6955
  550TMC3    C5 8213   3.739   0.337  11.947  0.1862 -0.3347 -0.0511
  550TMC3    C6 8214   3.770   0.372  12.074  0.0575  0.7471 -0.4712
  550TMC3     C 8215   3.785   4.719  11.938 -0.5930  0.0521 -0.1855
  550TMC3     O 8216   3.871   4.642  11.982  0.2903  0.4039 -0.1125
  550TMC3     H 8217   3.843   0.070  12.195  0.1404  1.7455  1.7091
  550TMC3    H1 8218   3.753   0.193  11.797 -1.4660  2.4316  0.0028
  550TMC3    H2 8219   3.777   0.477  12.101  3.8187 -0.0916  1.7512
  550TMC3    C7 8220   3.655   0.432  11.872 -0.6891 -0.5571  0.1526
  550TMC3    C8 8221   3.774   0.301  12.301 -0.5958  0.0827  0.6769
  550TMC3    O1 8222   3.613   0.520  11.943 -0.2361  0.4005  0.2773
  550TMC3    O2 8223   3.835   0.228  12.377 -0.1524  0.0693 -0.2138
  551TMC3    C1 8224   1.191   2.578  13.302  0.8577 -0.5898 -0.3073
  551TMC3    C2 8225   1.292   2.559  13.207  0.5082 -0.0492 -0.5233
  551TMC3    C3 8226   1.426   2.571  13.256 -0.1428 -0.3935 -0.1859
  551TMC3    C4 8227   1.204   2.604  13.432  0.6993 -0.4771  0.7283
  551TMC3    C5 8228   1.335   2.606  13.471 -0.1514 -0.5143 -0.0297
  551TMC3    C6 8229   1.441   2.603  13.385 -0.7497  0.4695  0.2876
  551TMC3     C 8230   1.051   2.571  13.256  0.0483  0.0022  0.5838
  551TMC3     O 8231   0.973   2.652  13.304 -0.4314  0.0119  0.3055
  551TMC3     H 8232   1.263   2.563  13.103 -1.2873  0.8278 -0.0010
  551TMC3    H1 8233   1.120   2.605  13.501  0.0029 -3.0931 -0.1073
  551TMC3    H2 8234   1.540   2.592  13.426 -0.9926 -0.4324  0.6341
  551TMC3    C7 8235   1.371   2.644  13.605 -0.3806  0.5038 -0.3935
  551TMC3    C8 8236   1.507   2.649  13.159 -0.3669 -0.5244  0.2266
  551TMC3    O1 8237   1.483   2.689  13.628 -0.0874 -0.7870 -0.1268
  551TMC3    O2 8238   1.526   2.594  13.053  0.0569 -0.3572  0.1507
  552MPD2     C 8239   3.329   4.629  14.312  0.6965  0.0373 -0.0219
  552MPD2    C1 8240   3.332   4.510  14.378 -0.4192 -0.1506  1.3435
  552MPD2    C2 8241   3.394   4.501  14.503 -0.2262 -0.1286 -0.0665
  552MPD2    C3 8242   3.463   4.610  14.555  0.2713 -0.9391 -1.0685
  552MPD2    C4 8243   3.463   4.729  14.490 -0.5151 -0.9933  0.6040
  552MPD2    C5 8244   3.399   4.733  14.366  0.0174  0.7633 -0.2802
  552MPD2     H 8245   3.401   4.410  14.562  1.4055 -0.1948 -0.3813
  552MPD2    H1 8246   3.510   0.083  14.519 -3.9328  0.9256 -0.0558
  552MPD2    H2 8247   3.287   4.643  14.213 -1.3243 -0.3937  0.7830
  552MPD2    H3 8248   3.400   0.085  14.309  2.9972  1.2841  0.5988
  552MPD2     N 8249   3.544   4.588  14.673 -0.3723 -0.0039 -0.5220
  552MPD2    H5 8250   3.552   4.498  14.718 -2.2014  0.4556  0.7063
  552MPD2    N1 8251   3.289   4.392  14.315 -0.6024 -0.5827  0.0344
  552MPD2    H7 8252   3.291   4.305  14.366  1.4718 -0.8409 -0.4920
  553TMC3    C1 8253   3.291   4.242  14.139 -0.8411 -0.1079  0.0492
  553TMC3    C2 8254   3.254   4.214  14.010  0.4372  0.0598 -0.7506
  553TMC3    C3 8255   3.316   4.113  13.943 -0.6950  0.5291  0.2834
  553TMC3    C4 8256   3.395   4.182  14.197  0.6791  0.5470  0.5574
  553TMC3    C5 8257   3.451   4.075  14.132 -0.7184 -0.0441 -0.1285
  553TMC3    C6 8258   3.402   4.030  14.011 -0.2957 -0.4557  0.3189
  553TMC3     C 8259   3.254   4.377  14.183  0.3330 -1.2143  0.6196
  553TMC3     O 8260   3.232   4.466  14.100  0.1140 -0.5007 -0.4314
  553TMC3     H 8261   3.177   4.280  13.971  0.7287  1.1319  0.5052
  553TMC3    H1 8262   3.434   4.200  14.297  0.5740  0.5870  0.5915
  553TMC3    H2 8263   3.440   3.945  13.955 -1.0294  0.4216 -1.5119
  553TMC3    C7 8264   3.533   3.984  14.214  0.0933 -0.4850 -0.0040
  553TMC3    C8 8265   3.285   4.081  13.808 -0.2861 -0.2400 -0.2167
  553TMC3    O1 8266   3.524   3.867  14.176 -0.0160  0.1471  0.8196
  553TMC3    O2 8267   3.364   4.008  13.749  0.3087 -0.2840 -0.2581
  554TMC3    C1 8268   4.582   3.841  11.195 -0.3025 -0.4812 -0.3416
  554TMC3    C2 8269   4.506   3.821  11.080  0.0038 -0.6199 -0.3105
  554TMC3    C3 8270   4.562   3.858  10.962  0.9424  0.3134 -0.8058
  554TMC3    C4 8271   4.709   3.896  11.195 -0.3142 -0.2560 -0.3059
  554TMC3    C5 8272   0.029   3.924  11.074 -0.4282  0.5788  0.3984
  554TMC3    C6 8273   4.693   3.901  10.959 -0.8801  0.0870 -0.6585
  554TMC3     C 8274   4.509   3.830  11.319  0.4989  0.1659 -0.2978
  554TMC3     O 8275   4.389   3.856  11.321  1.0283  0.2576 -0.2900
  554TMC3     H 8276   4.405   3.785  11.098 -0.9491  1.1027 -2.2006
  554TMC3    H1 8277   0.010   3.921  11.293  2.5302 -0.5993 -1.4151
  554TMC3    H2 8278   4.735   3.927  10.863 -0.4344 -1.2350 -0.8221
  554TMC3    C7 8279   0.140   4.015  11.062  0.2963 -0.4652 -0.2180
  554TMC3    C8 8280   4.473   3.918  10.860 -0.8750 -0.6369 -1.5277
  554TMC3    O1 8281   0.187   4.027  10.948 -0.0595 -0.5403 -0.2918
  554TMC3    O2 8282   4.524   4.002  10.787  0.1651 -0.4832  0.4384
  555TMC3    C1 8283   4.133   2.938  15.050  0.2276  0.1220 -0.8236
  555TMC3    C2 8284   4.062   3.032  15.123  0.5462  0.1793  0.2999
  555TMC3    C3 8285   4.030   3.001  15.249  0.0946 -0.5078 -0.6636
  555TMC3    C4 8286   4.191   2.828  15.105 -0.0908 -0.0466  0.3426
  555TMC3    C5 8287   4.157   2.800  15.232  0.4634  0.3755 -0.5747
  555TMC3    C6 8288   4.069   2.881  15.305  0.1536 -0.1499  0.5737
  555TMC3     C 8289   4.155   2.976  14.916  0.4857  0.4691  0.1824
  555TMC3     O 8290   4.270   2.960  14.888 -0.6407 -0.4918 -0.1371
  555TMC3     H 8291   4.021   3.126  15.088 -0.5050 -1.5140 -2.9061
  555TMC3    H1 8292   4.252   2.766  15.041 -1.4016  0.7295 -1.6553
  555TMC3    H2 8293   4.021   2.844  15.396 -1.2749  1.7770  0.6171
  555TMC3    C7 8294   4.174   2.668  15.277 -0.5696  0.0603  0.2171
  555TMC3    C8 8295   4.006   3.106  15.345  0.8257 -0.0594 -0.1487
  555TMC3    O1 8296   4.087   2.635  15.355 -0.6207  0.0387 -0.0870
  555TMC3    O2 8297   3.965   3.214  15.313 -0.2161  0.1493 -0.5952
  556MPD2     C 8298   1.426   0.768  10.363 -0.5703  0.7974  0.1426
  556MPD2    C1 8299   1.500   0.685  10.449  0.4861 -0.1103  0.5050
  556MPD2    C2 8300   1.545   0.566  10.403 -0.1333  1.5111 -0.3948
  556MPD2    C3 8301   1.511   0.519  10.275  0.3925  0.4715  0.4185
  556MPD2    C4 8302   1.434   0.598  10.198  0.4262  0.8033 -0.1101
  556MPD2    C5 8303   1.397   0.724  10.237 -0.0050 -1.0175 -0.6330
  556MPD2     H 8304   1.596   0.502  10.474 -1.1709  0.1365 -0.8937
  556MPD2    H1 8305   1.424   0.567  10.095  1.5848  3.6890 -1.0963
  556MPD2    H2 8306   1.395   0.869  10.389 -0.4119  1.1736 -1.1262
  556MPD2    H3 8307   1.344   0.792  10.171  1.3643  1.0271  0.3908
  556MPD2     N 8308   1.561   0.399  10.231  0.1104 -0.1686  0.0827
  556MPD2    H5 8309   1.627   0.360  10.297 -0.8846  2.5692  2.6750
  556MPD2    N1 8310   1.537   0.723  10.576 -0.8231 -0.5168 -0.2855
  556MPD2    H7 8311   1.593   0.660  10.634 -0.9337 -0.6704 -0.3453
  557TMC3    C1 8312   1.572   0.195  10.119 -0.2940  0.9519  0.4571
  557TMC3    C2 8313   1.521   0.112  10.028 -0.1903 -0.0686 -0.2500
  557TMC3    C3 8314   1.525   4.716  10.055  0.1868  0.5975 -0.0106
  557TMC3    C4 8315   1.645   0.154  10.226 -0.2853  0.1375 -0.8386
  557TMC3    C5 8316   1.658   0.019  10.242 -0.4345  0.2494 -0.0536
  557TMC3    C6 8317   1.599   4.666  10.161 -0.2949 -0.3923 -0.3908
  557TMC3     C 8318   1.509   0.329  10.121 -0.4421 -0.7246 -0.5439
  557TMC3     O 8319   1.415   0.345  10.048  0.1394 -0.0197  0.3788
  557TMC3     H 8320   1.469   0.144   9.939 -0.7514 -0.5316 -0.0839
  557TMC3    H1 8321   1.707   0.223  10.282 -3.2652  0.7923  1.6937
  557TMC3    H2 8322   1.617   4.561  10.181 -0.5007 -0.2918  0.3233
  557TMC3    C7 8323   1.667   4.730  10.384  0.2280 -0.4607  0.4616
  557TMC3    C8 8324   1.435   4.626   9.977  0.5924 -0.0358  0.4212
  557TMC3    O1 8325   1.651   0.083  10.467 -0.3041  0.3897 -0.7504
  557TMC3    O2 8326   1.351   4.683   9.914 -0.1023 -0.1300  0.5165
  558TMC3    C1 8327   3.864   2.819  10.377 -0.1336  0.1461  0.8348
  558TMC3    C2 8328   3.755   2.815  10.453  0.1242 -0.6740 -0.8881
  558TMC3    C3 8329   3.638   2.839  10.393  0.4088 -0.5413  0.3678
  558TMC3    C4 8330   3.855   2.850  10.246 -0.2819  0.2315  0.6688
  558TMC3    C5 8331   3.729   2.871  10.191  0.6447  0.2487 -0.7659
  558TMC3    C6 8332   3.617   2.855  10.264 -0.3207  1.3825  0.2475
  558TMC3     C 8333   3.995   2.770  10.418  0.2387  0.0704  0.8351
  558TMC3     O 8334   4.097   2.804  10.353 -0.0737 -0.7656  0.5434
  558TMC3     H 8335   3.762   2.791  10.558 -2.0389 -1.2357 -0.8738
  558TMC3    H1 8336   3.947   2.858  10.189 -0.3816  0.1597  0.4954
  558TMC3    H2 8337   3.515   2.857  10.227  0.1622 -0.3404 -1.1666
  558TMC3    C7 8338   3.721   2.897  10.048  0.2787  0.7772 -0.2247
  558TMC3    C8 8339   3.523   2.862  10.485 -0.1737 -0.1195 -0.6920
  558TMC3    O1 8340   3.821   2.944   9.991  0.4522  0.0122 -0.0269
  558TMC3    O2 8341   3.415   2.840  10.435  0.2961 -0.1630  0.2445
  559MPD2     C 8342   4.206   3.933  10.210  0.1263  0.0276 -0.0642
  559MPD2    C1 8343   4.142   3.839  10.282 -0.0116  0.6666 -0.6118
  559MPD2    C2 8344   4.215   3.769  10.370  0.1304  0.1032 -0.1240
  559MPD2    C3 8345   4.353   3.784  10.393  0.2312 -0.4292  0.1549
  559MPD2    C4 8346   4.417   3.885  10.321 -0.6504 -0.3546  0.1468
  559MPD2    C5 8347   4.338   3.950  10.222  0.3449 -0.3754  0.0552
  559MPD2     H 8348   4.156   3.708  10.437 -0.8391  1.2886  0.0992
  559MPD2    H1 8349   4.525   3.898  10.328 -0.4556 -1.1290 -1.4689
  559MPD2    H2 8350   4.146   3.991  10.141 -0.1822 -0.9001 -0.5680
  559MPD2    H3 8351   4.381   4.024  10.154 -0.3399  0.0536  0.0895
  559MPD2     N 8352   4.410   3.695  10.494 -0.1204 -0.6076  0.0808
  559MPD2    H5 8353   4.350   3.626  10.538 -1.2861  0.7534  0.5913
  559MPD2    N1 8354   3.998   3.837  10.286  0.2069  0.2333 -0.2441
  559MPD2    H7 8355   3.948   3.911  10.237 -0.1351  0.0232 -0.2146
  560TMC3    C1 8356   4.562   3.599  10.636  0.4955  0.0005  0.3614
  560TMC3    C2 8357   4.471   3.502  10.675 -0.4154  0.1118  0.2874
  560TMC3    C3 8358   4.504   3.405  10.764 -0.3509 -0.5604  0.6294
  560TMC3    C4 8359   4.688   3.601  10.697  0.5611 -0.0198  0.4275
  560TMC3    C5 8360   4.706   3.508  10.795 -0.0147  0.1129 -0.2199
  560TMC3    C6 8361   4.624   3.410  10.831 -0.3259 -0.3355 -1.3567
  560TMC3     C 8362   4.538   3.699  10.534  0.1641 -0.3479 -0.0278
  560TMC3     O 8363   4.621   3.778  10.493 -1.3289 -0.1435  0.1349
  560TMC3     H 8364   4.373   3.487  10.630 -0.6372 -1.4663  1.2934
  560TMC3    H1 8365   0.033   3.657  10.660 -1.4088  1.4788 -1.7623
  560TMC3    H2 8366   4.654   3.348  10.914  0.5010  0.4950 -1.0393
  560TMC3    C7 8367   0.100   3.478  10.826  1.1391 -0.7452  0.6532
  560TMC3    C8 8368   4.396   3.328  10.829 -0.0250  0.1937 -0.7229
  560TMC3    O1 8369   0.120   3.363  10.858 -0.1537 -0.1826  0.1862
  560TMC3    O2 8370   4.282   3.372  10.810 -0.0928  0.1023 -0.2968
  561TMC3    C1 8371   2.172   2.489  11.130 -0.3327 -0.3540 -0.2868
  561TMC3    C2 8372   2.165   2.408  11.235  0.5594  0.5523 -0.4794
  561TMC3    C3 8373   2.168   2.464  11.360 -0.5618 -0.7232  0.2204
  561TMC3    C4 8374   2.191   2.625  11.131  0.1744  0.3502 -0.3475
  561TMC3    C5 8375   2.194   2.678  11.258  0.2961  0.6090 -0.4900
  561TMC3    C6 8376   2.184   2.602  11.371 -0.2479  0.7747  0.5528
  561TMC3     C 8377   2.179   2.412  11.007  0.2093 -0.8438  0.1114
  561TMC3     O 8378   2.170   2.292  11.018  0.8334  0.0234 -0.7597
  561TMC3     H 8379   2.157   2.300  11.239  0.9477  0.5813  0.8851
  561TMC3    H1 8380   2.213   2.682  11.041  1.4052 -1.7200 -1.3491
  561TMC3    H2 8381   2.196   2.652  11.466 -1.1918  3.0281 -0.5185
  561TMC3    C7 8382   2.167   2.816  11.274  0.6622 -0.0290  0.1075
  561TMC3    C8 8383   2.099   2.388  11.465  0.3219 -0.0586 -0.1505
  561TMC3    O1 8384   2.092   2.835  11.370 -0.3890  0.3216  0.1290
  561TMC3    O2 8385   2.101   2.264  11.447  0.1490 -0.0979 -0.1140
  562TMC3    C1 8386   3.726   3.626  16.801  0.0773  0.1015  0.0514
  562TMC3    C2 8387   3.689   3.730  16.723  0.3232 -0.0066 -0.1486
  562TMC3    C3 8388   3.699   3.715  16.587  0.3839  0.0754  0.2672
  562TMC3    C4 8389   3.759   3.505  16.756 -0.0058 -0.3059 -0.5140
  562TMC3    C5 8390   3.752   3.495  16.620 -0.7037 -0.4028  0.0699
  562TMC3    C6 8391   3.723   3.595  16.529  0.3641  0.3334 -0.0224
  562TMC3     C 8392   3.697   3.637  16.945 -0.5610  0.6472  0.2753
  562TMC3     O 8393   3.729   3.544  17.015  0.4735  0.1302  0.0766
  562TMC3     H 8394   3.666   3.829  16.762 -0.0045 -0.9518  2.0527
  562TMC3    H1 8395   3.766   3.419  16.822 -0.8218  0.4077  0.4996
  562TMC3    H2 8396   3.720   3.590  16.421  0.6447  2.5816 -0.1296
  562TMC3    C7 8397   3.807   3.372  16.559 -0.1855 -0.0164 -0.5629
  562TMC3    C8 8398   3.682   3.837  16.513  0.4159  0.6524  0.0050
  562TMC3    O1 8399   3.809   3.346  16.441  0.0934  0.6304  0.4941
  562TMC3    O2 8400   3.714   3.938  16.570  0.3741  0.4389 -0.1867
  563MPD2     C 8401   1.582   0.008  15.718  0.1859 -0.2219 -0.2418
  563MPD2    C1 8402   1.605   0.093  15.826  0.3373 -0.5546  0.6688
  563MPD2    C2 8403   1.734   0.115  15.865  0.3180 -0.2322  0.2808
  563MPD2    C3 8404   1.837   0.027  15.824  0.3638  0.1303 -0.5385
  563MPD2    C4 8405   1.816   4.686  15.712  0.1632 -0.2555 -0.0901
  563MPD2    C5 8406   1.688   4.685  15.658 -0.5194  0.1642  0.1463
  563MPD2     H 8407   1.759   0.183  15.945 -2.3972  0.4887  0.4999
  563MPD2    H1 8408   1.893   4.636  15.653  1.0404  0.7754  0.1770
  563MPD2    H2 8409   1.485   4.723  15.678 -0.2799  1.9899 -0.5079
  563MPD2    H3 8410   1.678   4.627  15.567  1.7962  0.1984 -0.1123
  563MPD2     N 8411   1.949   0.014  15.906  0.0986  0.2605 -0.4204
  563MPD2    H5 8412   1.972   0.083  15.977 -0.6852 -1.1352  1.1900
  563MPD2    N1 8413   1.507   0.128  15.918 -0.2041  0.8200 -0.5074
  563MPD2    H7 8414   1.538   0.162  16.008  0.7481  0.6877 -0.7908
  564TMC3    C1 8415   1.357   0.039  16.069 -0.6091  0.0675 -0.0277
  564TMC3    C2 8416   1.272   4.673  16.092  0.1604  0.3896 -0.4968
  564TMC3    C3 8417   1.298   4.594  16.203 -0.2427  0.8349 -0.0102
  564TMC3    C4 8418   1.451   0.066  16.158  0.5392 -0.6444 -0.3112
  564TMC3    C5 8419   1.484   4.723  16.255 -0.1765  0.6713 -0.0585
  564TMC3    C6 8420   1.413   4.607  16.276  0.5454  0.2848 -0.4695
  564TMC3     C 8421   1.388   0.063  15.929  0.4879 -0.9134 -0.2141
  564TMC3     O 8422   1.314   0.028  15.841 -0.1057 -0.3195  0.0847
  564TMC3     H 8423   1.202   4.649  16.013 -0.0990 -1.4707  0.2949
  564TMC3    H1 8424   1.496   0.164  16.161 -1.1977  0.1247  0.9007
  564TMC3    H2 8425   1.441   4.537  16.353 -0.9043  1.0311  0.7301
  564TMC3    C7 8426   1.625   4.700  16.239  0.2235 -0.5963  0.6356
  564TMC3    C8 8427   1.188   4.511  16.256 -0.8666  0.1917  0.1505
  564TMC3    O1 8428   1.692   0.030  16.164 -0.1551 -0.1009  0.2500
  564TMC3    O2 8429   1.210   4.452  16.358 -0.2697 -0.0183 -0.2619
  565TMC3    C1 8430   1.492   1.494  10.214  0.1496  0.9314  0.0818
  565TMC3    C2 8431   1.393   1.440  10.133  0.2780  0.7847 -0.2872
  565TMC3    C3 8432   1.385   1.306  10.130  0.0573  0.4497 -0.1151
  565TMC3    C4 8433   1.582   1.421  10.284 -0.3165 -0.6641 -0.1241
  565TMC3    C5 8434   1.575   1.284  10.275 -0.2407  0.4663  0.0881
  565TMC3    C6 8435   1.481   1.225  10.193 -0.2019 -0.3603 -0.7725
  565TMC3     C 8436   1.491   1.639  10.215  0.1574  0.0821  0.8396
  565TMC3     O 8437   1.407   1.696  10.150 -0.5652  0.7924  0.7130
  565TMC3     H 8438   1.326   1.503  10.076  1.0095  0.9704 -0.9552
  565TMC3    H1 8439   1.658   1.462  10.349 -3.0337 -1.4641  3.5727
  565TMC3    H2 8440   1.453   1.121  10.206  0.6540 -0.6337 -1.1415
  565TMC3    C7 8441   1.671   1.198  10.340 -0.0360 -0.1115 -0.0518
  565TMC3    C8 8442   1.266   1.251  10.078  0.2443  0.2666  0.1256
  565TMC3    O1 8443   1.725   1.244  10.439  0.3089  0.5409 -0.0495
  565TMC3    O2 8444   1.167   1.322  10.075  0.2518 -0.7331 -0.0385
  566MPD2     C 8445   3.472   2.630  14.286 -0.6943 -0.6768  0.2455
  566MPD2    C1 8446   3.501   2.749  14.226  0.0466  0.2771  0.4186
  566MPD2    C2 8447   3.452   2.769  14.099  0.7090  0.3280  0.3998
  566MPD2    C3 8448   3.387   2.667  14.035 -1.5911 -0.7576  0.4296
  566MPD2    C4 8449   3.353   2.553  14.098  0.1366  0.3614  0.8320
  566MPD2    C5 8450   3.401   2.537  14.224 -0.3876  0.1778 -0.0884
  566MPD2     H 8451   3.472   2.861  14.046 -1.4087  1.1672  1.0264
  566MPD2    H1 8452   3.307   2.468  14.049  2.5279 -0.5017  0.1111
  566MPD2    H2 8453   3.511   2.609  14.386 -0.6650 -1.5850  0.0371
  566MPD2    H3 8454   3.396   2.442  14.275 -0.2060  0.1899 -0.0480
  566MPD2     N 8455   3.373   2.683  13.903 -0.2822  0.2299 -0.1163
  566MPD2    H5 8456   3.389   2.776  13.866 -2.2749  0.4618 -0.4101
  566MPD2    N1 8457   3.584   2.842  14.296 -0.1770 -0.3305 -0.3268
  566MPD2    H7 8458   3.641   2.813  14.375  0.3393 -0.9878 -0.9275
  567TMC3    C1 8459   3.738   3.025  14.292  0.0498  0.1583  0.2876
  567TMC3    C2 8460   3.797   3.103  14.197  0.0597 -0.1530 -0.4835
  567TMC3    C3 8461   3.935   3.101  14.170 -0.7210 -0.4585 -0.1701
  567TMC3    C4 8462   3.822   2.947  14.361 -0.3143 -0.0438 -0.4814
  567TMC3    C5 8463   3.952   2.947  14.342  0.2221 -1.0972  0.7413
  567TMC3    C6 8464   4.015   3.028  14.250 -0.2185  0.8585  0.0735
  567TMC3     C 8465   3.613   2.970  14.248 -0.5573  0.7108 -0.4435
  567TMC3     O 8466   3.526   3.032  14.188 -0.4404 -0.6105 -0.1282
  567TMC3     H 8467   3.732   3.161  14.134 -0.8439  0.1219  0.7143
  567TMC3    H1 8468   3.777   2.888  14.441 -0.4270 -1.5357 -1.6564
  567TMC3    H2 8469   4.120   3.030  14.221  0.1810 -2.6888  1.3274
  567TMC3    C7 8470   4.053   2.862  14.416 -0.2771 -0.1899  0.1999
  567TMC3    C8 8471   3.983   3.190  14.072  0.3337  1.2519  0.1902
  567TMC3    O1 8472   4.171   2.891  14.413 -0.3051 -0.4642 -0.1494
  567TMC3    O2 8473   3.901   3.271  14.027  0.2145  0.1540 -0.2950
  568MPD2     C 8474   0.940   3.337  16.570  0.2489 -0.2134 -0.0984
  568MPD2    C1 8475   1.008   3.408  16.667 -0.0566 -0.8867 -0.6213
  568MPD2    C2 8476   0.948   3.523  16.708  0.3877 -0.5315  0.5033
  568MPD2    C3 8477   0.821   3.561  16.668  0.8184 -0.2258  0.4796
  568MPD2    C4 8478   0.751   3.472  16.579  0.4275 -0.1416  0.8477
  568MPD2    C5 8479   0.819   3.366  16.529 -0.0987  0.0014  0.5013
  568MPD2     H 8480   1.002   3.593  16.770  0.7119 -0.9919  0.7380
  568MPD2    H1 8481   0.657   3.501  16.534  1.1731 -0.7574 -1.1282
  568MPD2    H2 8482   0.983   3.244  16.535 -0.6022 -0.2097 -1.1663
  568MPD2    H3 8483   0.774   3.295  16.460  1.4014 -0.5355  0.0845
  568MPD2     N 8484   0.767   3.677  16.715  0.3290  0.6579  0.3281
  568MPD2    H5 8485   0.826   3.723  16.784  2.1957 -1.9759  0.4653
  568MPD2    N1 8486   1.120   3.346  16.722 -0.4122  0.2969 -0.3557
  568MPD2    H7 8487   1.146   3.253  16.692  1.4741  0.7764 -0.2196
  569TMC3    C1 8488   0.645   3.871  16.721 -0.0023  0.0970 -0.2809
  569TMC3    C2 8489   0.747   3.892  16.813  0.5881 -0.8193  0.4206
  569TMC3    C3 8490   0.842   3.979  16.781 -0.1503 -0.2201  0.3336
  569TMC3    C4 8491   0.634   3.946  16.606  0.2165 -1.5964  0.0696
  569TMC3    C5 8492   0.735   4.033  16.583  0.1118 -0.0010 -0.4130
  569TMC3    C6 8493   0.846   4.053  16.664 -0.0437 -0.4351 -0.1261
  569TMC3     C 8494   0.645   3.730  16.683 -0.5616  0.0418  0.7609
  569TMC3     O 8495   0.550   3.695  16.617  0.4643 -0.4033 -0.0945
  569TMC3     H 8496   0.746   3.838  16.907 -0.5167  0.2842  1.0508
  569TMC3    H1 8497   0.563   3.917  16.530  1.8578  0.1954 -2.1465
  569TMC3    H2 8498   0.895   4.149  16.658  0.9467 -0.9399 -0.0436
  569TMC3    C7 8499   0.733   4.081  16.444  0.5888 -0.6085 -0.6368
  569TMC3    C8 8500   0.968   3.929  16.828  0.3688 -0.0235  0.1486
  569TMC3    O1 8501   0.629   4.061  16.384  0.3725  0.3288 -0.0763
  569TMC3    O2 8502   0.954   3.817  16.871 -0.2097 -0.5045  0.6082
  570TMC3    C1 8503   0.962   2.368  16.446 -0.6652  0.4005 -0.6432
  570TMC3    C2 8504   1.050   2.350  16.339 -0.0097 -0.3969  0.0048
  570TMC3    C3 8505   1.060   2.452  16.248 -0.4348 -0.3242 -0.8404
  570TMC3    C4 8506   0.888   2.483  16.467 -0.0849  0.6239 -0.2697
  570TMC3    C5 8507   0.899   2.581  16.383  0.0158  0.4208  0.9236
  570TMC3    C6 8508   0.980   2.566  16.274 -0.6485 -0.9617  0.1318
  570TMC3     C 8509   0.941   2.256  16.530 -0.6144  0.4684 -0.7683
  570TMC3     O 8510   0.992   2.145  16.507 -0.8058  0.1049 -0.0648
  570TMC3     H 8511   1.094   2.252  16.326  2.1736  0.5633  0.1642
  570TMC3    H1 8512   0.804   2.497  16.534 -1.1192 -2.3187 -0.9516
  570TMC3    H2 8513   0.996   2.652  16.210 -2.7522  0.2534  1.2358
  570TMC3    C7 8514   0.822   2.702  16.404  0.7655 -0.7845 -0.1680
  570TMC3    C8 8515   1.175   2.480  16.163 -0.4053  0.5130  0.1888
  570TMC3    O1 8516   0.776   2.750  16.299 -0.2047  0.5279 -0.7131
  570TMC3    O2 8517   1.193   2.596  16.130 -0.0144  0.2127 -0.1257
  571MPD2     C 8518   2.819   4.052   0.145 -0.2785 -0.2307  0.4152
  571MPD2    C1 8519   2.924   4.079   0.068  0.3668  0.0206 -0.4402
  571MPD2    C2 8520   3.002   4.192   0.088 -0.5608 -0.5798 -0.0136
  571MPD2    C3 8521   2.968   4.269   0.205 -0.2117 -0.3080 -0.1386
  571MPD2    C4 8522   2.854   4.240   0.278  0.2229 -0.2740 -0.3756
  571MPD2    C5 8523   2.789   4.123   0.249 -0.1385 -0.1703  0.5081
  571MPD2     H 8524   3.101   4.207   0.045 -0.2029  0.9298  1.3514
  571MPD2    H1 8525   2.813   4.307   0.353 -1.4001 -1.0140 -0.5985
  571MPD2    H2 8526   2.759   3.963   0.132 -0.9313  0.4616 -1.3166
  571MPD2    H3 8527   2.698   4.100   0.303  0.4932  0.4512  1.8368
  571MPD2     N 8528   3.055   4.371   0.258  0.1238  0.1981 -0.8363
  571MPD2    H5 8529   3.025   4.397   0.351 -0.5890  1.8201 -1.5284
  571MPD2    N1 8530   2.949   3.980  17.727  0.3556  0.1033 -0.6077
  571MPD2    H7 8531   2.885   3.901  17.727  0.2920  0.1529 -1.9663
  572TMC3    C1 8532   3.256   4.488   0.274  0.2007 -0.2163 -0.0107
  572TMC3    C2 8533   3.267   4.450   0.403  0.3297  0.4829 -0.0281
  572TMC3    C3 8534   3.382   4.475   0.464 -0.5566 -0.0578  0.3757
  572TMC3    C4 8535   3.359   4.565   0.216 -0.2193 -0.4088  0.3884
  572TMC3    C5 8536   3.483   4.586   0.282  0.2841  0.5239  0.3044
  572TMC3    C6 8537   3.492   4.544   0.412 -0.0141  0.3994  0.1231
  572TMC3     C 8538   3.149   4.439   0.189  0.1881 -0.9621 -0.2917
  572TMC3     O 8539   3.176   4.442   0.071 -0.2486 -0.0577  0.1310
  572TMC3     H 8540   3.210   4.367   0.444 -0.1733  0.3477 -0.9907
  572TMC3    H1 8541   3.335   4.603   0.118 -0.1530 -0.8165  0.2157
  572TMC3    H2 8542   3.591   4.543   0.455  0.2510  0.2019 -0.4985
  572TMC3    C7 8543   3.596   4.625   0.195 -0.1825  0.3305 -0.2295
  572TMC3    C8 8544   3.386   4.464   0.607 -0.4853 -1.4949 -0.1816
  572TMC3    O1 8545   3.701   4.569   0.215  0.2508 -0.0651  0.2423
  572TMC3    O2 8546   3.490   4.487   0.665  0.3073 -0.1266  0.4738
  573MPD2     C 8547   4.461   4.431   0.102  0.4026  0.1627 -0.5073
  573MPD2    C1 8548   4.482   4.436   0.242  0.0388 -0.1287  0.1654
  573MPD2    C2 8549   4.598   4.493   0.301  0.4271 -0.3036  0.4385
  573MPD2    C3 8550   4.699   4.548   0.214  0.7210 -0.5568  1.3170
  573MPD2    C4 8551   4.680   4.535   0.079 -0.5333  0.2437 -0.7893
  573MPD2    C5 8552   4.563   4.485   0.035 -0.4380 -0.2735  0.1849
  573MPD2     H 8553   4.624   4.501   0.406  0.6403  0.0555  0.3587
  573MPD2    H1 8554   0.004   4.585   0.007  0.2353 -1.3849 -1.2345
  573MPD2    H2 8555   4.375   4.387   0.053  0.0576  0.5985 -0.3006
  573MPD2    H3 8556   4.553   4.480  17.685 -1.0045  1.8674  0.1408
  573MPD2     N 8557   0.075   4.621   0.262 -0.4575  0.5390  0.1333
  573MPD2    H5 8558   0.152   4.645   0.200 -2.5661  4.9992 -0.8152
  573MPD2    N1 8559   4.381   4.382   0.321  0.0175  0.6354 -0.5459
  573MPD2    H7 8560   4.300   4.343   0.273  0.7255 -1.2824 -0.1887
  574TMC3    C1 8561   0.203   0.023   0.397 -0.4058 -0.0159 -0.2568
  574TMC3    C2 8562   0.190   0.136   0.472  0.8917 -0.1218 -0.1777
  574TMC3    C3 8563   0.295   0.220   0.482  0.7234  0.3834 -0.4290
  574TMC3    C4 8564   0.319   4.716   0.345 -0.2081 -0.4687  0.3169
  574TMC3    C5 8565   0.423   0.068   0.354 -0.8358  0.0814  0.0358
  574TMC3    C6 8566   0.415   0.178   0.435  0.4564  0.4549  0.5383
  574TMC3     C 8567   0.080   4.678   0.386 -0.0028  0.4033 -0.2782
  574TMC3     O 8568   4.728   4.689   0.467  0.4059  0.3734 -0.0953
  574TMC3     H 8569   0.102   0.154   0.533  1.4712 -1.9300  1.2185
  574TMC3    H1 8570   0.330   4.622   0.292  2.1381 -1.1517  2.0126
  574TMC3    H2 8571   0.496   0.251   0.435  1.0228 -0.1812  2.6095
  574TMC3    C7 8572   0.555   0.046   0.288  0.2404  0.4729 -0.8408
  574TMC3    C8 8573   0.274   0.339   0.561 -0.2655 -0.2780 -0.4076
  574TMC3    O1 8574   0.643   0.124   0.328 -0.1533  0.0478 -0.4839
  574TMC3    O2 8575   0.364   0.375   0.637 -0.3336  0.5315  0.4456
  575TMC3    C1 8576   0.426   0.931  10.225 -0.2000 -0.8794  0.0600
  575TMC3    C2 8577   0.336   1.024  10.185  0.6737  0.4442  0.0665
  575TMC3    C3 8578   0.385   1.150  10.163  0.3338 -0.0955 -0.0450
  575TMC3    C4 8579   0.566   0.952  10.216  0.4628  0.2770 -0.2204
  575TMC3    C5 8580   0.614   1.072  10.177  0.7004  0.7066 -0.1315
  575TMC3    C6 8581   0.526   1.180  10.163  0.2718 -0.1022  0.3024
  575TMC3     C 8582   0.384   0.821  10.304  0.3368 -0.2161  0.4139
  575TMC3     O 8583   0.264   0.785  10.296  0.9212  0.2419 -0.3411
  575TMC3     H 8584   0.231   1.003  10.200  0.3180 -0.7370 -3.9161
  575TMC3    H1 8585   0.632   0.868  10.237  1.3481  1.1653  0.5676
  575TMC3    H2 8586   0.560   1.274  10.123  0.2486 -1.0763 -1.9678
  575TMC3    C7 8587   0.757   1.086  10.143 -0.1895  0.6654  0.3403
  575TMC3    C8 8588   0.286   1.244  10.114 -0.1263  0.4036  0.0286
  575TMC3    O1 8589   0.799   1.197  10.142  0.1011 -0.0742  0.2665
  575TMC3    O2 8590   0.185   1.197  10.061  0.2088  0.4224  0.6031
  576MPD2     C 8591   1.336   2.681  12.713  0.2067 -0.0387 -0.4133
  576MPD2    C1 8592   1.418   2.780  12.668 -0.2259  0.1433 -0.1748
  576MPD2    C2 8593   1.430   2.896  12.750  0.7322  0.3093 -0.2853
  576MPD2    C3 8594   1.366   2.919  12.871 -0.6195 -0.3701  0.7594
  576MPD2    C4 8595   1.285   2.812  12.916  0.0042 -0.0361  0.5674
  576MPD2    C5 8596   1.270   2.697  12.835 -0.0953 -0.0544  0.2916
  576MPD2     H 8597   1.495   2.971  12.707 -0.8852  1.0389 -1.4477
  576MPD2    H1 8598   1.222   2.814  13.004 -3.6624  0.7245 -2.0891
  576MPD2    H2 8599   1.321   2.586  12.662 -1.8035  0.1775 -0.2341
  576MPD2    H3 8600   1.205   2.622  12.878  0.0849 -1.3111 -1.6200
  576MPD2     N 8601   1.368   3.042  12.940  0.0519  0.2200  0.5185
  576MPD2    H5 8602   1.406   3.119  12.886 -1.9517  1.1828  0.5187
  576MPD2    N1 8603   1.473   2.770  12.537 -0.5075  0.1198 -0.7684
  576MPD2    H7 8604   1.519   2.852  12.497  0.8666 -0.0673  0.3856
  577TMC3    C1 8605   1.528   2.680  12.325 -0.3884  0.5529 -0.0580
  577TMC3    C2 8606   1.568   2.570  12.253  0.6253  0.3684 -0.3837
  577TMC3    C3 8607   1.628   2.589  12.134  0.3232  0.1849 -0.4779
  577TMC3    C4 8608   1.558   2.809  12.281  0.9521  1.0655  0.4094
  577TMC3    C5 8609   1.625   2.819  12.164  0.1731  0.8252  0.6782
  577TMC3    C6 8610   1.655   2.712  12.090  0.0585 -0.5712 -0.5489
  577TMC3     C 8611   1.483   2.655  12.465  0.5444  0.1589  0.1098
  577TMC3     O 8612   1.472   2.541  12.502  0.2529  0.2320  0.1640
  577TMC3     H 8613   1.565   2.467  12.287  0.7849 -0.0344 -1.5874
  577TMC3    H1 8614   1.507   2.896  12.320 -0.1254  0.8877 -0.6085
  577TMC3    H2 8615   1.718   2.728  12.004 -0.4124 -0.0860 -0.8011
  577TMC3    C7 8616   1.689   2.944  12.122 -0.1897 -0.3767  0.4137
  577TMC3    C8 8617   1.694   2.476  12.077 -0.0804 -0.1701  0.5236
  577TMC3    O1 8618   1.745   3.013  12.203  0.0722 -0.1415  0.5753
  577TMC3    O2 8619   1.740   2.392  12.152  0.2057  0.3830  0.2362
  578MPD2     C 8620   0.678   2.743   1.158  0.0218  0.0191  0.5312
  578MPD2    C1 8621   0.797   2.760   1.088 -0.3502 -1.0794 -0.0078
  578MPD2    C2 8622   0.871   2.641   1.083  0.1085  0.4803 -0.0663
  578MPD2    C3 8623   0.839   2.529   1.153  0.3387 -0.2955 -0.9696
  578MPD2    C4 8624   0.730   2.534   1.241  0.6486  0.1712 -0.1050
  578MPD2    C5 8625   0.644   2.637   1.231  1.3398 -0.0290  0.1699
  578MPD2     H 8626   0.951   2.628   1.011  1.4449  2.3819  1.0685
  578MPD2    H1 8627   0.715   2.443   1.298 -0.7299 -0.9100 -2.1878
  578MPD2    H2 8628   0.606   2.822   1.174 -0.0455 -0.4150  2.3816
  578MPD2    H3 8629   0.551   2.637   1.286  1.1190  0.8229 -0.1989
  578MPD2     N 8630   0.916   2.413   1.125 -0.5928  0.5056  0.6373
  578MPD2    H5 8631   1.002   2.421   1.071 -0.9484 -2.6780 -0.3987
  578MPD2    N1 8632   0.812   2.872   1.004  0.2413 -0.3433  0.6297
  578MPD2    H7 8633   0.736   2.939   0.998  0.8881  0.2413 -1.2467
  579TMC3    C1 8634   0.985   2.202   1.092 -0.0391  0.3080 -0.2524
  579TMC3    C2 8635   1.116   2.209   1.135 -0.7251 -0.4555  0.5728
  579TMC3    C3 8636   1.199   2.100   1.102 -0.1317  0.3017 -0.1077
  579TMC3    C4 8637   0.940   2.094   1.032  0.0381 -0.2255  0.3718
  579TMC3    C5 8638   1.031   1.992   0.997  0.7300 -0.6039  0.1563
  579TMC3    C6 8639   1.160   1.992   1.026  0.4951  0.2712  0.1990
  579TMC3     C 8640   0.890   2.290   1.161  0.5544  0.1606  0.4322
  579TMC3     O 8641   0.792   2.237   1.216 -0.3045  0.2681 -0.1972
  579TMC3     H 8642   1.154   2.303   1.176  0.3831 -0.8278  0.4085
  579TMC3    H1 8643   0.833   2.078   1.034 -0.0683  0.5195  0.6816
  579TMC3    H2 8644   1.234   1.918   0.998 -2.2043 -2.4397  0.2193
  579TMC3    C7 8645   0.984   1.865   0.948 -0.3364  0.2307  0.2698
  579TMC3    C8 8646   1.335   2.099   1.163  0.3089 -0.0967 -0.0554
  579TMC3    O1 8647   1.056   1.769   0.977 -0.3490 -0.6015  0.1017
  579TMC3    O2 8648   1.416   2.020   1.118 -0.0206 -0.1482  0.4301
  580TMC3    C1 8649   4.703   2.146  12.407 -0.2081  0.4262  0.3928
  580TMC3    C2 8650   0.080   2.190  12.452 -0.8034 -0.2164 -0.5382
  580TMC3    C3 8651   0.185   2.103  12.442  0.8860 -0.2315  0.0161
  580TMC3    C4 8652   4.684   2.018  12.362 -0.1397  0.5590  0.6989
  580TMC3    C5 8653   0.055   1.931  12.358 -0.2409 -0.3196 -0.0100
  580TMC3    C6 8654   0.178   1.977  12.384 -0.4216 -0.1350  0.2584
  580TMC3     C 8655   4.603   2.240  12.369  0.0415 -0.2460  0.5981
  580TMC3     O 8656   4.514   2.193  12.302  0.3540  0.4827  0.4317
  580TMC3     H 8657   0.093   2.277  12.515 -0.6914  0.5710 -1.6429
  580TMC3    H1 8658   4.597   1.978  12.312 -0.9357  0.0970  2.4515
  580TMC3    H2 8659   0.263   1.910  12.383 -0.7782 -0.5910  0.4434
  580TMC3    C7 8660   0.025   1.789  12.335 -0.6506 -0.4533  0.1163
  580TMC3    C8 8661   0.299   2.171  12.403 -0.4515 -0.3263  0.3601
  580TMC3    O1 8662   4.650   1.760  12.352  0.0416 -0.0109 -0.3585
  580TMC3    O2 8663   0.323   2.273  12.466  0.0519 -0.0865  0.2370
  581MPD2     C 8664   2.393   1.171  14.674  0.7999  0.2589 -0.4773
  581MPD2    C1 8665   2.310   1.134  14.783 -0.3444 -0.3862 -0.0872
  581MPD2    C2 8666   2.207   1.221  14.808 -0.0172  0.2370 -0.7267
  581MPD2    C3 8667   2.184   1.339  14.739 -0.5534  0.6983  0.0256
  581MPD2    C4 8668   2.253   1.356  14.625 -0.1941  0.4926 -0.6499
  581MPD2    C5 8669   2.354   1.277  14.597  0.7136 -0.1221 -0.5121
  581MPD2     H 8670   2.137   1.206  14.889 -0.2573 -2.9956 -1.5422
  581MPD2    H1 8671   2.219   1.431  14.554  0.4974  0.7450 -0.7133
  581MPD2    H2 8672   2.487   1.120  14.654  0.4647 -1.0116  1.1458
  581MPD2    H3 8673   2.420   1.291  14.513 -1.0046  1.2470 -1.6401
  581MPD2     N 8674   2.076   1.423  14.774 -0.7693 -0.2105 -0.5421
  581MPD2    H5 8675   2.004   1.396  14.839  0.2573 -0.1239  0.6276
  581MPD2    N1 8676   2.350   1.025  14.872 -0.4946 -0.2179  0.2934
  581MPD2    H7 8677   2.435   0.971  14.862 -0.7694 -0.7395  0.8036
  582TMC3    C1 8678   2.345   0.865  15.050 -0.1886  0.5479 -0.9659
  582TMC3    C2 8679   2.470   0.884  15.110 -0.7019 -0.3357 -0.2116
  582TMC3    C3 8680   2.493   0.832  15.234 -0.4535  0.2855 -0.2812
  582TMC3    C4 8681   2.251   0.784  15.108  0.1483  0.0491  0.2463
  582TMC3    C5 8682   2.283   0.730  15.224 -0.3698 -0.4470  0.2071
  582TMC3    C6 8683   2.399   0.753  15.297  0.2802  0.2154  0.4258
  582TMC3     C 8684   2.288   0.980  14.982 -0.5360 -0.2304  0.6237
  582TMC3     O 8685   2.169   0.999  15.008 -0.7002 -0.0220 -0.7590
  582TMC3     H 8686   2.526   0.967  15.069 -0.2205  0.2393  1.6141
  582TMC3    H1 8687   2.148   0.779  15.076  0.0974 -0.8103  0.5311
  582TMC3    H2 8688   2.416   0.689  15.383  4.7744  0.6948 -0.1149
  582TMC3    C7 8689   2.172   0.744  15.309 -0.6592  0.6318 -0.0441
  582TMC3    C8 8690   2.544   0.929  15.326 -0.0677 -0.0756  0.4298
  582TMC3    O1 8691   2.123   0.649  15.367 -0.0417  0.0502 -0.5899
  582TMC3    O2 8692   2.456   1.008  15.367  0.5711  0.9391 -0.0388
  583MPD2     C 8693   2.596   2.724  16.756  0.6308 -0.5727 -0.6630
  583MPD2    C1 8694   2.520   2.807  16.685 -0.1343 -0.7380  0.6499
  583MPD2    C2 8695   2.443   2.897  16.761 -0.3340 -0.2400  0.9321
  583MPD2    C3 8696   2.437   2.903  16.897 -0.8216 -0.1569  0.0899
  583MPD2    C4 8697   2.527   2.820  16.970 -0.0391 -0.1034  0.1064
  583MPD2    C5 8698   2.595   2.728  16.889  0.1918  0.3517  0.3205
  583MPD2     H 8699   2.391   2.977  16.711  0.2352 -1.2951 -1.3740
  583MPD2    H1 8700   2.538   2.808  17.077  2.3143  0.6449 -0.0496
  583MPD2    H2 8701   2.655   2.646  16.708 -1.6298 -3.1053  0.6980
  583MPD2    H3 8702   2.662   2.655  16.933  1.9224  1.4322 -0.5249
  583MPD2     N 8703   2.362   3.011  16.957  0.2817 -0.2335  0.2863
  583MPD2    H5 8704   2.331   3.084  16.893  0.4404 -0.2378  0.2035
  583MPD2    N1 8705   2.533   2.825  16.541  0.4634  0.1472 -0.3037
  583MPD2    H7 8706   2.484   2.908  16.509  0.2257  0.0144 -0.2877
  584TMC3    C1 8707   2.321   3.150  17.139 -1.3774 -0.2325  0.2527
  584TMC3    C2 8708   2.348   3.259  17.052 -0.1476 -0.2025 -0.0465
  584TMC3    C3 8709   2.349   3.385  17.109 -1.0987  0.5887 -0.1091
  584TMC3    C4 8710   2.302   3.174  17.272  0.6520 -0.1700  0.1750
  584TMC3    C5 8711   2.309   3.297  17.315  0.0770  0.1346  0.9368
  584TMC3    C6 8712   2.327   3.412  17.241  0.3160  0.1085  0.7979
  584TMC3     C 8713   2.348   3.013  17.095 -0.8103  0.0476  0.1305
  584TMC3     O 8714   2.368   2.929  17.181  0.6860  0.0461  0.1161
  584TMC3     H 8715   2.358   3.247  16.945 -3.9733 -2.5764 -0.1535
  584TMC3    H1 8716   2.289   3.092  17.342 -0.1754 -0.1167  0.0847
  584TMC3    H2 8717   2.365   3.502  17.288  1.3835 -0.0536  0.2600
  584TMC3    C7 8718   2.278   3.311  17.452 -1.0021  0.0761  0.6766
  584TMC3    C8 8719   2.414   3.493  17.029  0.1250  0.0010  0.7053
  584TMC3    O1 8720   2.316   3.224  17.532  0.1827 -0.0658  0.0254
  584TMC3    O2 8721   2.475   3.446  16.936 -0.3254 -0.8678 -0.1052
  585MPD2     C 8722   2.014   1.688   0.383  0.1391 -0.3334 -0.0835
  585MPD2    C1 8723   2.079   1.713   0.265 -0.1067 -0.3264 -0.4074
  585MPD2    C2 8724   2.029   1.668   0.146  0.5912  0.6726 -0.7462
  585MPD2    C3 8725   1.896   1.620   0.142  0.0046  0.2457 -0.3110
  585MPD2    C4 8726   1.831   1.593   0.261 -0.0017  0.2167 -0.1610
  585MPD2    C5 8727   1.891   1.626   0.382  0.3591 -0.2303 -0.4016
  585MPD2     H 8728   2.058   1.713   0.052 -0.2396  1.8685 -0.4356
  585MPD2    H1 8729   1.744   1.527   0.261  0.3564 -0.2614  1.0732
  585MPD2    H2 8730   2.059   1.733   0.470 -1.7213 -0.5817  1.0142
  585MPD2    H3 8731   1.839   1.613   0.476  1.9378  1.4905  0.7050
  585MPD2     N 8732   1.829   1.609   0.017  0.3957  0.0300 -0.3080
  585MPD2    H5 8733   1.733   1.577   0.017  0.3488  0.1630  0.3168
  585MPD2    N1 8734   2.202   1.786   0.265 -0.3956  0.5508 -0.3713
  585MPD2    H7 8735   2.229   1.830   0.352  2.3117  2.2629 -2.0734
  586TMC3    C1 8736   1.772   1.648  17.555  0.0332 -0.3494  0.5407
  586TMC3    C2 8737   1.816   1.630  17.432 -0.2742 -0.8798  0.6548
  586TMC3    C3 8738   1.726   1.655  17.338  0.0056  0.4487 -0.0398
  586TMC3    C4 8739   1.646   1.696  17.588 -0.4776 -0.3186 -0.8363
  586TMC3    C5 8740   1.552   1.716  17.489  0.9852  0.4019  0.3939
  586TMC3    C6 8741   1.592   1.685  17.363 -0.6224 -0.2509 -0.4968
  586TMC3     C 8742   1.879   1.633  17.648 -0.1679  0.5158  0.5831
  586TMC3     O 8743   1.995   1.662  17.608  0.4933 -0.4388 -0.8225
  586TMC3     H 8744   1.911   1.581  17.415 -0.8876 -1.1659 -1.9295
  586TMC3    H1 8745   1.616   1.702  17.692  1.5294 -0.2301 -0.2463
  586TMC3    H2 8746   1.518   1.696  17.284  0.1945  0.6057 -1.1520
  586TMC3    C7 8747   1.421   1.664  17.514  0.7494  0.4570 -0.4084
  586TMC3    C8 8748   1.744   1.554  17.229  0.4045 -0.1526  0.5501
  586TMC3    O1 8749   1.377   1.586  17.433  0.2966  0.2038 -0.0805
  586TMC3    O2 8750   1.851   1.521  17.179 -0.6798 -0.1676 -0.3836
  587TMC3    C1 8751   3.911   0.761  16.421  0.6105  0.0241  0.2992
  587TMC3    C2 8752   3.953   0.886  16.451  0.1874 -0.4680  0.1018
  587TMC3    C3 8753   4.090   0.902  16.468  0.6101 -0.1916  0.3858
  587TMC3    C4 8754   3.999   0.652  16.416 -0.5498 -0.6615  0.3237
  587TMC3    C5 8755   4.132   0.683  16.441 -0.4281 -0.3706  0.1530
  587TMC3    C6 8756   4.183   0.805  16.462  0.6345  0.2945  0.4015
  587TMC3     C 8757   3.781   0.757  16.364 -0.2355 -0.6629 -0.0039
  587TMC3     O 8758   3.736   0.862  16.324  0.0440 -0.0755 -0.1309
  587TMC3     H 8759   3.878   0.962  16.468  0.2378 -0.4809  0.3837
  587TMC3    H1 8760   3.962   0.553  16.392 -0.6385 -0.0115 -2.2109
  587TMC3    H2 8761   4.283   0.826  16.498  1.7613 -2.3071 -1.2247
  587TMC3    C7 8762   4.225   0.569  16.430 -0.5594  0.3226 -0.2623
  587TMC3    C8 8763   4.095   1.021  16.547  0.0156  0.4442  0.4654
  587TMC3    O1 8764   4.175   0.458  16.450 -0.3576  0.2900 -0.2098
  587TMC3    O2 8765   4.033   1.115  16.496  0.8898 -0.5699  0.8532
  588TMC3    C1 8766   0.958   3.827   9.956  0.0276  0.0917  1.0465
  588TMC3    C2 8767   0.914   3.694   9.961 -0.1402 -0.1649  0.4080
  588TMC3    C3 8768   0.984   3.610  10.037 -0.5785 -0.6124  0.1050
  588TMC3    C4 8769   1.067   3.873  10.027  0.0255  0.3426 -0.3872
  588TMC3    C5 8770   1.129   3.781  10.111 -0.5071  0.7898 -0.3146
  588TMC3    C6 8771   1.100   3.646  10.105  0.1732 -0.5499  0.0342
  588TMC3     C 8772   0.883   3.927   9.881  0.3138 -0.6743 -0.4244
  588TMC3     O 8773   0.821   3.883   9.789  0.1342  0.1935 -0.1275
  588TMC3     H 8774   0.823   3.671   9.908  0.5993 -0.6705 -0.6331
  588TMC3    H1 8775   1.100   3.976  10.017 -0.2057  0.2552 -1.9393
  588TMC3    H2 8776   1.166   3.577  10.156  1.7754  0.5995 -0.5098
  588TMC3    C7 8777   1.225   3.833  10.213 -0.7321 -0.8600  0.4329
  588TMC3    C8 8778   0.924   3.480  10.050  0.0060 -0.3718 -0.2324
  588TMC3    O1 8779   1.318   3.766  10.246 -0.8669 -0.3884 -0.1485
  588TMC3    O2 8780   0.806   3.476  10.013  0.1572  0.8705 -0.0706
  589TMC3    C1 8781   0.727   0.417   1.145 -0.0188  0.0978  0.3513
  589TMC3    C2 8782   0.799   0.434   1.262 -0.0603 -0.0918 -0.4994
  589TMC3    C3 8783   0.917   0.367   1.283 -0.4557 -0.1150  0.0599
  589TMC3    C4 8784   0.764   0.316   1.054  0.3196  0.0747 -0.4073
  589TMC3    C5 8785   0.889   0.262   1.072 -0.3057 -0.8145  0.1909
  589TMC3    C6 8786   0.968   0.292   1.183  0.5639 -0.0854  0.9533
  589TMC3     C 8787   0.624   0.511   1.105  0.1638 -0.5851 -0.5175
  589TMC3     O 8788   0.555   0.470   1.013 -0.2339  0.1957  0.7437
  589TMC3     H 8789   0.764   0.511   1.330  1.0365  0.0884 -0.1415
  589TMC3    H1 8790   0.703   0.298   0.967 -0.4155  0.1655  0.0897
  589TMC3    H2 8791   1.059   0.236   1.204  0.4738  0.3083  2.3608
  589TMC3    C7 8792   0.918   0.135   1.013 -0.5963 -0.1648  0.3233
  589TMC3    C8 8793   1.002   0.426   1.382  0.5069  0.2955 -0.3663
  589TMC3    O1 8794   0.822   0.067   0.983  0.3968 -0.3612  0.1869
  589TMC3    O2 8795   0.947   0.470   1.484 -0.0843  0.0786 -0.5400
  590MPD2     C 8796   0.076   3.366  16.524 -0.2499  0.9215  0.0591
  590MPD2    C1 8797   0.015   3.414  16.414  0.2576 -1.0031 -0.0352
  590MPD2    C2 8798   0.094   3.490  16.332 -0.0623 -0.0572  0.6801
  590MPD2    C3 8799   0.226   3.513  16.358  0.3228 -0.2045 -0.7789
  590MPD2    C4 8800   0.289   3.455  16.465  0.8555  0.2139  0.1607
  590MPD2    C5 8801   0.210   3.380  16.549  0.5333  0.1206  0.1252
  590MPD2     H 8802   0.051   3.533  16.242  4.1602  1.2598 -0.6900
  590MPD2    H1 8803   0.396   3.466  16.482  1.0006  0.2700 -0.7961
  590MPD2    H2 8804   0.026   3.318  16.607 -0.8530 -1.6222 -1.7621
  590MPD2    H3 8805   0.254   3.335  16.638 -2.0973 -0.4512  1.1408
  590MPD2     N 8806   0.293   3.606  16.270  0.6046 -0.1093 -0.5434
  590MPD2    H5 8807   0.239   3.662  16.204  0.0465  0.8909  0.7587
  590MPD2    N1 8808   4.613   3.405  16.393 -0.3846 -0.5152 -0.3892
  590MPD2    H7 8809   4.556   3.360  16.463  0.1548 -0.1233  0.2966
  591TMC3    C1 8810   0.467   3.752  16.198 -0.0522  1.1081  0.3555
  591TMC3    C2 8811   0.568   3.754  16.110  0.1196 -0.2682 -0.1103
  591TMC3    C3 8812   0.600   3.861  16.036  0.1494  0.1975 -0.0048
  591TMC3    C4 8813   0.390   3.860  16.216 -0.2429 -0.2136 -0.5190
  591TMC3    C5 8814   0.413   3.967  16.130  0.3994  0.0809 -0.4262
  591TMC3    C6 8815   0.518   3.972  16.037  0.6070 -0.4794 -0.0541
  591TMC3     C 8816   0.425   3.628  16.262 -0.4211 -0.0353 -0.1358
  591TMC3     O 8817   0.521   3.572  16.316 -0.3286  0.4178  0.0173
  591TMC3     H 8818   0.618   3.660  16.090 -0.4949 -0.8240  0.9634
  591TMC3    H1 8819   0.311   3.860  16.289 -0.8616 -2.0781 -1.1755
  591TMC3    H2 8820   0.521   4.057  15.969 -1.8423  0.2020  0.6590
  591TMC3    C7 8821   0.342   4.084  16.176  0.6261 -0.5054 -0.1070
  591TMC3    C8 8822   0.685   3.836  15.921 -0.0835 -0.5396  0.2547
  591TMC3    O1 8823   0.246   4.065  16.252  0.0090  0.1141  0.4060
  591TMC3    O2 8824   0.760   3.742  15.936  0.3164 -0.4264 -0.1747
  592MPD2     C 8825   0.392   1.147  11.727  0.2181 -0.3056 -0.8476
  592MPD2    C1 8826   0.370   1.207  11.854  0.1154 -0.0656 -0.1453
  592MPD2    C2 8827   0.314   1.128  11.955  0.8101 -0.1943 -0.4536
  592MPD2    C3 8828   0.292   0.991  11.938  0.0246 -0.3958  0.0108
  592MPD2    C4 8829   0.315   0.937  11.809 -0.5431  0.1112  0.0730
  592MPD2    C5 8830   0.361   1.017  11.707 -0.7192  0.1155  0.0335
  592MPD2     H 8831   0.280   1.176  12.046  0.4340 -0.7640 -0.2945
  592MPD2    H1 8832   0.292   0.837  11.774 -0.0240  0.2041 -0.5322
  592MPD2    H2 8833   0.440   1.207  11.651 -0.6660  2.7819  1.0433
  592MPD2    H3 8834   0.359   0.964  11.613  1.0303  1.0314 -0.5285
  592MPD2     N 8835   0.240   0.910  12.042  0.0359 -0.2988 -0.4122
  592MPD2    H5 8836   0.220   0.948  12.134 -0.3696  0.6184 -0.8846
  592MPD2    N1 8837   0.409   1.340  11.858 -0.4224 -0.9054 -0.0669
  592MPD2    H7 8838   0.443   1.387  11.775  0.0787 -3.1541 -1.1254
  593TMC3    C1 8839   0.459   1.544  11.979  0.0364 -0.2424  0.1897
  593TMC3    C2 8840   0.502   1.600  12.096  0.0285  0.3282 -0.3797
  593TMC3    C3 8841   0.530   1.735  12.091  0.4272 -0.4672 -0.0642
  593TMC3    C4 8842   0.413   1.617  11.867  0.1643 -0.4331  0.2824
  593TMC3    C5 8843   0.434   1.750  11.874  0.2012  0.3981  0.6593
  593TMC3    C6 8844   0.493   1.813  11.978 -1.0668 -0.4955  0.3653
  593TMC3     C 8845   0.433   1.400  11.985 -0.2212 -0.5482  0.7554
  593TMC3     O 8846   0.447   1.348  12.093 -0.1946  0.6573 -0.8375
  593TMC3     H 8847   0.521   1.541  12.185 -2.4623  0.9120  0.5444
  593TMC3    H1 8848   0.362   1.573  11.783 -0.9553 -1.0021  1.2496
  593TMC3    H2 8849   0.516   1.919  11.974 -0.1708 -0.6642  0.9519
  593TMC3    C7 8850   0.422   1.835  11.755 -1.2968  0.3890  0.7540
  593TMC3    C8 8851   0.545   1.812  12.210 -0.1220 -0.1319  0.2329
  593TMC3    O1 8852   0.400   1.958  11.771  0.0231 -0.0808  0.4754
  593TMC3    O2 8853   0.472   1.777  12.302  0.4466  0.1974  0.2910
  594MPD2     C 8854   4.293   4.547  15.232 -0.2284  1.5829 -0.3721
  594MPD2    C1 8855   4.240   4.605  15.123  0.2964  0.3924 -0.1353
  594MPD2    C2 8856   4.314   4.696  15.058 -0.5378 -0.5942  0.2804
  594MPD2    C3 8857   4.434   0.013  15.107 -0.2285 -0.1380 -0.7610
  594MPD2    C4 8858   4.484   4.695  15.225 -0.7487  0.1127  0.1395
  594MPD2    C5 8859   4.411   4.595  15.284  0.5041 -0.2155 -0.3939
  594MPD2     H 8860   4.270   4.739  14.969 -1.3132  0.3830  1.1405
  594MPD2    H1 8861   4.574   4.738  15.266 -0.9127 -1.5673  2.2501
  594MPD2    H2 8862   4.225   4.498  15.301  0.3569  1.7832  0.3533
  594MPD2    H3 8863   4.442   4.557  15.380 -0.6176  0.7279  0.3412
  594MPD2     N 8864   4.514   0.089  15.025  0.0567 -0.2901  0.1368
  594MPD2    H5 8865   4.459   0.118  14.945 -0.2397 -1.1104  0.0473
  594MPD2    N1 8866   4.112   4.560  15.086 -1.2057 -0.3460 -0.3145
  594MPD2    H7 8867   4.069   4.483  15.135 -1.5929 -0.9557 -1.5953
  595TMC3    C1 8868   0.151   0.259  14.808  0.4339 -0.0880  0.0171
  595TMC3    C2 8869   0.097   0.195  14.915  0.2304  0.0667 -0.0071
  595TMC3    C3 8870   4.707   0.206  14.944  0.0695 -0.2542 -0.2879
  595TMC3    C4 8871   0.080   0.342  14.728 -0.9562  0.6376  0.4695
  595TMC3    C5 8872   4.692   0.353  14.768 -0.3927 -1.0201  0.1361
  595TMC3    C6 8873   4.627   0.284  14.864  0.0828 -1.0246 -0.6297
  595TMC3     C 8874   0.287   0.226  14.789  0.2973 -0.5233  0.8925
  595TMC3     O 8875   0.352   0.230  14.892 -0.1466  0.3338  0.0085
  595TMC3     H 8876   0.156   0.121  14.970 -0.8244  0.4060  1.5832
  595TMC3    H1 8877   0.131   0.402  14.655 -0.3791 -2.4293 -1.6173
  595TMC3    H2 8878   4.525   0.308  14.890  0.7530  0.8104  0.2851
  595TMC3    C7 8879   4.622   0.473  14.735  0.6902  0.5252 -0.1608
  595TMC3    C8 8880   4.650   0.123  15.046  0.1542  0.4071 -0.2346
  595TMC3    O1 8881   4.497   0.460  14.731 -0.0687 -0.3459 -0.0192
  595TMC3    O2 8882   4.725   0.079  15.126  0.4230  0.0266  0.1203
  596MPD2     C 8883   3.283   2.884  16.757 -0.1608  0.6773 -0.2614
  596MPD2    C1 8884   3.242   2.990  16.676  0.2043  0.4615 -0.2168
  596MPD2    C2 8885   3.267   2.986  16.539 -0.5358 -0.0781 -0.0533
  596MPD2    C3 8886   3.321   2.871  16.476 -0.0160 -0.6591 -0.5150
  596MPD2    C4 8887   3.363   2.767  16.560 -0.3994  0.2328  0.0122
  596MPD2    C5 8888   3.351   2.776  16.694 -0.0867 -0.1787 -0.9334
  596MPD2     H 8889   3.236   3.071  16.480 -4.4271 -3.1035 -2.3560
  596MPD2    H1 8890   3.409   2.676  16.522  0.6416  0.6401  0.2935
  596MPD2    H2 8891   3.277   2.865  16.864 -1.9025  0.2805 -0.4310
  596MPD2    H3 8892   3.379   2.691  16.755 -1.1915 -1.2203 -1.8820
  596MPD2     N 8893   3.327   2.845  16.339  0.6086 -0.0534 -0.6330
  596MPD2    H5 8894   3.382   2.767  16.306 -0.5255 -0.9690 -0.3857
  596MPD2    N1 8895   3.191   3.115  16.728  0.5763 -0.5485  0.0548
  596MPD2    H7 8896   3.178   3.192  16.663 -2.8946 -1.1907 -0.0432
  597TMC3    C1 8897   3.088   3.271  16.870  0.3430  0.4292  0.0105
  597TMC3    C2 8898   3.018   3.324  16.765  0.4937  0.2895 -0.0012
  597TMC3    C3 8899   2.928   3.424  16.796  0.4466 -0.0269  0.4388
  597TMC3    C4 8900   3.069   3.310  16.996 -0.7969  0.1453  0.4480
  597TMC3    C5 8901   2.972   3.409  17.020  0.4283 -0.1953 -0.4396
  597TMC3    C6 8902   2.907   3.468  16.921  0.2114 -0.0560  0.5284
  597TMC3     C 8903   3.164   3.145  16.856  0.0389  0.3746 -0.8840
  597TMC3     O 8904   3.188   3.078  16.957  0.2748  0.4030  0.4678
  597TMC3     H 8905   3.027   3.292  16.662  0.0481 -0.0603  0.0665
  597TMC3    H1 8906   3.104   3.259  17.085 -0.7954  1.8031  1.3965
  597TMC3    H2 8907   2.817   3.525  16.943 -1.3474 -2.8828  1.4292
  597TMC3    C7 8908   2.930   3.437  17.153 -0.3180 -0.1237 -0.4718
  597TMC3    C8 8909   2.867   3.491  16.687 -0.1888  0.8175 -0.1869
  597TMC3    O1 8910   2.946   3.352  17.239  0.2311  0.2041  0.4534
  597TMC3    O2 8911   2.831   3.440  16.582  0.1618 -0.4007 -0.4058
  598TMC3    C1 8912   1.857   4.194  15.584  0.4718  0.0412 -0.2345
  598TMC3    C2 8913   1.795   4.145  15.690  0.5846  0.0599  0.3883
  598TMC3    C3 8914   1.659   4.160  15.695 -0.5900 -0.4894  0.0984
  598TMC3    C4 8915   1.795   4.275  15.496  0.6905  0.2435 -0.3016
  598TMC3    C5 8916   1.657   4.281  15.498  0.3635  0.5203  0.1223
  598TMC3    C6 8917   1.589   4.224  15.598 -0.2349  0.1182 -0.2274
  598TMC3     C 8918   2.003   4.194  15.602 -0.1240 -0.0278  0.0895
  598TMC3     O 8919   2.045   4.122  15.690  0.2751  0.1148  0.1972
  598TMC3     H 8920   1.835   4.070  15.758  1.2985 -0.6307 -0.7855
  598TMC3    H1 8921   1.846   4.298  15.403 -1.7484  0.8153 -1.5029
  598TMC3    H2 8922   1.484   4.246  15.615 -0.2634  0.0414 -0.3057
  598TMC3    C7 8923   1.588   4.359  15.389 -0.9057  0.8890  0.4183
  598TMC3    C8 8924   1.587   4.090  15.802 -0.3500 -0.1656 -0.3987
  598TMC3    O1 8925   1.473   4.322  15.368 -0.1106 -0.0659 -0.0146
  598TMC3    O2 8926   1.647   4.063  15.903 -0.3349 -0.1187  0.3110
  599MPD2     C 8927   1.721   2.180  16.177 -0.2882 -0.2240  0.4601
  599MPD2    C1 8928   1.657   2.065  16.206 -0.2260 -0.4210 -0.4035
  599MPD2    C2 8929   1.557   2.057  16.302 -0.0110  0.0932 -0.0860
  599MPD2    C3 8930   1.523   2.172  16.370  0.3522  0.3342  0.0947
  599MPD2    C4 8931   1.594   2.289  16.341 -0.2456  0.7524 -0.4681
  599MPD2    C5 8932   1.687   2.291  16.237  0.0395 -0.2503  0.1541
  599MPD2     H 8933   1.506   1.965  16.327  2.4904 -0.8624  1.4792
  599MPD2    H1 8934   1.568   2.382  16.390  1.9543  0.5252  1.1025
  599MPD2    H2 8935   1.796   2.193  16.100  0.5064  3.1326  1.8215
  599MPD2    H3 8936   1.731   2.384  16.204 -1.1893 -0.1764 -1.2995
  599MPD2     N 8937   1.423   2.173  16.478 -0.1035 -1.1061  0.7452
  599MPD2    H5 8938   1.414   2.260  16.530  0.7202  0.1829 -1.2907
  599MPD2    N1 8939   1.699   1.957  16.126 -0.3039  0.4237  0.2844
  599MPD2    H7 8940   1.771   1.975  16.057 -0.2445 -2.9607 -0.5683
  600TMC3    C1 8941   1.282   2.075  16.646 -0.0450 -0.0565  0.1647
  600TMC3    C2 8942   1.270   1.965  16.726  0.0341  0.2203  0.2290
  600TMC3    C3 8943   1.239   1.975  16.856 -0.3783 -0.3012 -1.0782
  600TMC3    C4 8944   1.253   2.199  16.702  0.2527 -0.0912 -0.5744
  600TMC3    C5 8945   1.242   2.208  16.834  0.5271  0.0513  0.3614
  600TMC3    C6 8946   1.238   2.101  16.917 -0.6395 -0.0628 -0.0781
  600TMC3     C 8947   1.346   2.066  16.519 -0.0664 -0.2331  0.1686
  600TMC3     O 8948   1.332   1.954  16.472  0.0086  0.4362 -0.2841
  600TMC3     H 8949   1.284   1.865  16.687  1.9962  0.0650  1.3080
  600TMC3    H1 8950   1.250   2.284  16.635  1.9909  0.4519  0.0238
  600TMC3    H2 8951   1.207   2.107  17.020  0.0275 -0.6618  0.1588
  600TMC3    C7 8952   1.248   2.341  16.899 -0.7667 -0.1436 -0.3481
  600TMC3    C8 8953   1.163   1.869  16.919  0.1902 -0.1783 -0.0069
  600TMC3    O1 8954   1.203   2.442  16.839 -0.1991  0.1141 -0.0762
  600TMC3    O2 8955   1.174   1.868  17.041  0.0512 -0.4101 -0.6517
  601MPD2     C 8956   3.791   0.180  17.567  0.6492 -0.0439 -0.0659
  601MPD2    C1 8957   3.654   0.216  17.577  0.3634 -0.0048 -0.7500
  601MPD2    C2 8958   3.578   0.142  17.670 -0.4698  0.2398 -0.0975
  601MPD2    C3 8959   3.632   0.038  17.747 -0.3657  0.1670 -0.3601
  601MPD2    C4 8960   3.767   0.008  17.736 -0.0148  0.5510 -0.3987
  601MPD2    C5 8961   3.843   0.080  17.648 -0.1870  0.5530 -0.0585
  601MPD2     H 8962   3.476   0.177  17.676 -0.8974 -1.0902  0.3457
  601MPD2    H1 8963   3.818   4.667   0.029  1.3598  3.0730  2.3154
  601MPD2    H2 8964   3.857   0.240  17.505 -2.7505  3.0007 -0.8034
  601MPD2    H3 8965   3.950   0.066  17.649 -0.0762  1.1585 -2.4767
  601MPD2     N 8966   3.552   4.713   0.086  0.0207  0.0192  0.9349
  601MPD2    H5 8967   3.455   0.003   0.089  0.1200  0.0147  5.0317
  601MPD2    N1 8968   3.596   0.321  17.508 -0.5464  0.9370  0.2530
  601MPD2    H7 8969   3.498   0.339  17.530 -0.6058  1.3062 -0.2901
  602TMC3    C1 8970   3.557   0.489  17.353  0.1069 -0.4200 -0.2614
  602TMC3    C2 8971   3.616   0.606  17.309 -0.0775 -0.2647 -0.5788
  602TMC3    C3 8972   3.537   0.702  17.253 -0.1380  0.1867  0.2019
  602TMC3    C4 8973   3.422   0.471  17.354 -0.3022 -0.1291  0.6136
  602TMC3    C5 8974   3.351   0.579  17.299  0.0975  0.6110  0.0729
  602TMC3    C6 8975   3.402   0.693  17.249  0.3442  0.8607  0.1595
  602TMC3     C 8976   3.652   0.385  17.401  0.5282 -0.0281  0.3956
  602TMC3     O 8977   3.765   0.370  17.351  0.3814 -0.0810 -0.5478
  602TMC3     H 8978   3.724   0.613  17.301 -0.1716  1.1791 -0.6746
  602TMC3    H1 8979   3.371   0.380  17.386 -3.0484  0.7921 -1.1964
  602TMC3    H2 8980   3.335   0.777  17.259  1.2042  1.3718  1.5767
  602TMC3    C7 8981   3.206   0.550  17.270  0.0709 -0.2395 -0.4244
  602TMC3    C8 8982   3.592   0.821  17.197  0.3401  0.3608  0.2195
  602TMC3    O1 8983   3.149   0.461  17.326  0.5594 -0.1168  0.0703
  602TMC3    O2 8984   3.709   0.854  17.212 -0.0360 -0.1478  0.1890
  603TMC3    C1 8985   1.345   1.195  11.116  0.3950 -0.2381 -0.6076
  603TMC3    C2 8986   1.337   1.170  11.248  0.4816 -0.1386 -0.3005
  603TMC3    C3 8987   1.331   1.281  11.336  0.1547 -0.2954  0.4035
  603TMC3    C4 8988   1.361   1.323  11.063  0.2655 -0.7896 -0.2643
  603TMC3    C5 8989   1.354   1.426  11.153 -0.2894  0.3611 -0.1075
  603TMC3    C6 8990   1.342   1.409  11.288 -0.2474 -0.4659  0.3994
  603TMC3     C 8991   1.314   1.095  11.014 -0.7586  0.1365 -0.3692
  603TMC3     O 8992   1.324   1.135  10.898 -0.2764 -0.0950 -0.3426
  603TMC3     H 8993   1.324   1.069  11.286  1.4312  0.2507  1.0808
  603TMC3    H1 8994   1.382   1.337  10.958 -1.4844 -0.6379 -0.5854
  603TMC3    H2 8995   1.288   1.487  11.340 -1.2780 -0.5041 -0.6121
  603TMC3    C7 8996   1.339   1.559  11.096  0.3929 -0.2749 -0.7027
  603TMC3    C8 8997   1.322   1.238  11.478  0.9556  0.1682  0.0488
  603TMC3    O1 8998   1.382   1.652  11.164 -0.2504 -0.2202  0.7555
  603TMC3    O2 8999   1.264   1.133  11.492  0.7164 -0.7770  0.2261
  604MPD2     C 9000   2.217   3.748  15.759  0.1755  0.5371  0.0243
  604MPD2    C1 9001   2.313   3.841  15.794 -0.3076 -0.0515 -0.1075
  604MPD2    C2 9002   2.410   3.879  15.703  0.2613 -0.6348 -0.0759
  604MPD2    C3 9003   2.410   3.810  15.578 -0.3689  0.2681  0.0757
  604MPD2    C4 9004   2.326   3.707  15.546  0.5830 -0.3469  0.5125
  604MPD2    C5 9005   2.230   3.679  15.642 -0.1335 -0.5527  0.2358
  604MPD2     H 9006   2.472   3.966  15.718  0.8410 -0.4748 -3.3213
  604MPD2    H1 9007   2.332   3.650  15.453  2.9446  0.9495 -0.1308
  604MPD2    H2 9008   2.130   3.720  15.817 -0.6562  1.2872 -0.8636
  604MPD2    H3 9009   2.161   3.598  15.620  0.0094 -0.7081  0.3547
  604MPD2     N 9010   2.506   3.854  15.486  0.2273 -0.0257 -0.0259
  604MPD2    H5 9011   2.547   3.944  15.511  0.0091  0.7626 -2.4873
  604MPD2    N1 9012   2.290   3.901  15.926  0.3724 -0.1040  0.4887
  604MPD2    H7 9013   2.200   3.875  15.965 -0.5460  1.3370 -0.6968
  605TMC3    C1 9014   2.327   4.020  16.128  0.0594 -0.0987  0.7993
  605TMC3    C2 9015   2.418   4.030  16.226  0.0392  0.3118 -0.8792
  605TMC3    C3 9016   2.371   4.062  16.353  0.1315 -0.3810 -0.6790
  605TMC3    C4 9017   2.192   4.040  16.149 -0.8667  0.0867 -0.4549
  605TMC3    C5 9018   2.158   4.086  16.275  0.7435 -0.2406 -0.1420
  605TMC3    C6 9019   2.240   4.091  16.381 -0.1133  0.0405  0.4740
  605TMC3     C 9020   2.384   3.972  15.999  0.3235  0.2543 -0.1757
  605TMC3     O 9021   2.502   3.980  15.984  0.3983 -0.0699 -0.4485
  605TMC3     H 9022   2.523   4.024  16.201  0.1112 -2.0454  0.0573
  605TMC3    H1 9023   2.124   4.042  16.064 -2.1542  0.6323  0.5822
  605TMC3    H2 9024   2.206   4.131  16.475  1.1217 -2.9558  2.1783
  605TMC3    C7 9025   2.041   4.174  16.287  0.1786 -0.3049  0.4412
  605TMC3    C8 9026   2.471   4.131  16.430  0.3450 -0.0585 -0.0847
  605TMC3    O1 9027   1.971   4.170  16.388 -0.1905 -0.3010  0.4670
  605TMC3    O2 9028   2.564   4.181  16.365  0.2937 -0.0128 -0.1571
  606TMC3    C1 9029   3.081   3.126   0.585 -0.0829  0.8015 -0.4308
  606TMC3    C2 9030   3.203   3.135   0.652  0.5127  0.9963  0.1299
  606TMC3    C3 9031   3.316   3.065   0.608 -0.5715 -0.5020 -0.6939
  606TMC3    C4 9032   3.070   3.044   0.472  0.2174 -0.4417 -0.3385
  606TMC3    C5 9033   3.181   2.975   0.442 -0.4830  0.5418 -0.3836
  606TMC3    C6 9034   3.307   2.988   0.495 -0.0942  0.0526 -0.3511
  606TMC3     C 9035   2.957   3.163   0.651 -0.0916  0.4723 -0.2443
  606TMC3     O 9036   2.852   3.120   0.602  0.4866  0.4232  0.5029
  606TMC3     H 9037   3.205   3.200   0.739 -1.8683  0.1058  0.8523
  606TMC3    H1 9038   2.976   3.044   0.419  0.1006  1.8598 -0.1560
  606TMC3    H2 9039   3.391   2.925   0.466  0.0274  1.5550 -3.2496
  606TMC3    C7 9040   3.159   2.881   0.341  0.9226 -0.1238  0.0446
  606TMC3    C8 9041   3.441   3.074   0.680 -0.0846  0.0538 -0.7862
  606TMC3    O1 9042   3.050   2.883   0.289  0.1292 -0.5838  0.2158
  606TMC3    O2 9043   3.520   2.984   0.656 -0.2715 -0.3288  0.1891
  607MPD2     C 9044   0.581   0.718  11.806  0.3080  0.0766 -0.4912
  607MPD2    C1 9045   0.613   0.810  11.903  0.0279 -0.3914  0.1113
  607MPD2    C2 9046   0.586   0.783  12.041  0.3381 -0.2247  0.6653
  607MPD2    C3 9047   0.539   0.658  12.082 -0.4880  0.3229  0.5582
  607MPD2    C4 9048   0.524   0.562  11.984 -0.2644  0.2967  0.0488
  607MPD2    C5 9049   0.537   0.596  11.851 -0.1019 -0.6671 -0.0141
  607MPD2     H 9050   0.608   0.860  12.114 -0.5594  0.1884  0.5040
  607MPD2    H1 9051   0.493   0.462  12.011  0.2049 -0.3268 -1.7419
  607MPD2    H2 9052   0.580   0.729  11.698 -3.8533  0.0850 -0.4760
  607MPD2    H3 9053   0.507   0.524  11.776  1.1852 -1.0113 -0.1860
  607MPD2     N 9054   0.532   0.634  12.222 -0.1941  0.7624  0.5018
  607MPD2    H5 9055   0.571   0.710  12.277 -0.9722  0.3271  1.6605
  607MPD2    N1 9056   0.661   0.939  11.874 -0.0747 -0.4493 -1.3971
  607MPD2    H7 9057   0.658   0.995  11.959 -0.8085 -1.7803 -0.5400
  608TMC3    C1 9058   0.796   1.117  11.801 -0.1981 -0.0517 -0.5725
  608TMC3    C2 9059   0.830   1.132  11.932  0.4321  0.4777 -0.1346
  608TMC3    C3 9060   0.904   1.242  11.968  0.3786  0.0205  0.4700
  608TMC3    C4 9061   0.835   1.203  11.706  0.4961  0.3239  0.4759
  608TMC3    C5 9062   0.902   1.316  11.741 -0.7244  0.2988  0.2098
  608TMC3    C6 9063   0.942   1.332  11.870 -0.5143 -0.0851  0.0806
  608TMC3     C 9064   0.723   0.991  11.760  0.1703 -0.1820  0.2470
  608TMC3     O 9065   0.727   0.944  11.645  0.3242 -0.1171 -0.2277
  608TMC3     H 9066   0.830   1.049  12.001 -0.3051  0.7557  0.2009
  608TMC3    H1 9067   0.806   1.176  11.605 -1.2446  0.8388  0.8391
  608TMC3    H2 9068   0.983   1.428  11.900  1.3959 -0.9934  0.3965
  608TMC3    C7 9069   0.950   1.407  11.640 -0.1869 -0.2970  0.1700
  608TMC3    C8 9070   0.938   1.271  12.107  0.5524 -0.6434 -0.2792
  608TMC3    O1 9071   0.882   1.398  11.539 -0.2323  0.0210 -0.2012
  608TMC3    O2 9072   1.013   1.362  12.129  0.3667 -0.5370 -0.5698
  609TMC3    C1 9073   3.737   0.462   8.654 -0.0849 -1.2490  1.1726
  609TMC3    C2 9074   3.748   0.463   8.515 -0.0425  0.8548 -0.9099
  609TMC3    C3 9075   3.857   0.412   8.455 -0.1689 -1.7071  1.0952
  609TMC3    C4 9076   3.827   0.392   8.732  0.0309  0.4410  0.2909
  609TMC3    C5 9077   3.942   0.356   8.668 -1.2634 -0.4320 -0.6728
  609TMC3    C6 9078   3.957   0.361   8.530  0.0236  0.0217 -0.2459
  609TMC3     C 9079   3.605   0.479   8.704  0.3666  0.2581 -0.0809
  609TMC3     O 9080   3.549   0.404   8.781  0.5563  0.0371 -0.3193
  609TMC3     H 9081   3.673   0.513   8.456 -1.1246 -0.0566 -0.3182
  609TMC3    H1 9082   3.812   0.375   8.838  0.4074 -0.8302  0.1372
  609TMC3    H2 9083   4.057   0.350   8.490 -0.1113  0.1868 -0.6322
  609TMC3    C7 9084   4.038   0.285   8.753 -0.0781 -0.6496  0.7097
  609TMC3    C8 9085   3.858   0.421   8.309  0.4360 -0.3892 -0.7945
  609TMC3    O1 9086   4.021   0.280   8.875 -0.5067 -0.8451  0.6560
  609TMC3    O2 9087   3.749   0.406   8.253  0.3092 -0.4322 -0.0120
  610TMC3    C1 9088   1.255   0.840  12.812 -0.2397 -0.2786  0.8007
  610TMC3    C2 9089   1.210   0.899  12.696 -0.4470  0.4450 -0.7102
  610TMC3    C3 9090   1.173   0.809  12.596 -0.1915 -0.0343  0.1035
  610TMC3    C4 9091   1.302   0.707  12.820  0.3139 -0.1446 -0.5915
  610TMC3    C5 9092   1.283   0.627  12.713 -0.6321 -1.0285  0.4697
  610TMC3    C6 9093   1.205   0.675  12.607 -0.2905  0.5022  0.3243
  610TMC3     C 9094   1.235   0.913  12.941  0.3979 -0.1000 -0.6234
  610TMC3     O 9095   1.267   0.852  13.043  0.0992  0.0946 -0.1145
  610TMC3     H 9096   1.185   1.004  12.685 -3.0412  0.1601  2.2589
  610TMC3    H1 9097   1.348   0.661  12.907 -0.4639 -0.0216 -0.1065
  610TMC3    H2 9098   1.196   0.616  12.517 -1.0770  1.7724 -0.4240
  610TMC3    C7 9099   1.383   0.521  12.689 -0.2234 -0.1525  0.4501
  610TMC3    C8 9100   1.149   0.866  12.464 -0.0979 -0.3492 -0.0018
  610TMC3    O1 9101   1.475   0.513  12.766  0.5381 -0.5843  0.1561
  610TMC3    O2 9102   1.211   0.968  12.442  0.0354  0.6603 -0.0258
  611MPD2     C 9103   0.512   1.078  10.688  0.1952  0.0694  0.7478
  611MPD2    C1 9104   0.428   1.137  10.590 -0.0927  0.5137 -0.3427
  611MPD2    C2 9105   0.464   1.253  10.518 -0.3631 -0.5803 -0.2868
  611MPD2    C3 9106   0.590   1.306  10.541 -0.1606 -0.5546  0.4013
  611MPD2    C4 9107   0.656   1.264  10.658  0.5332 -0.4594 -0.2187
  611MPD2    C5 9108   0.618   1.156  10.730  0.1742 -1.4620  0.1593
  611MPD2     H 9109   0.393   1.293  10.446 -1.0881 -1.4677 -0.0686
  611MPD2    H1 9110   0.746   1.311  10.697 -0.3447  0.5889  0.5227
  611MPD2    H2 9111   0.488   0.996  10.755 -0.5816  0.1092  0.5125
  611MPD2    H3 9112   0.686   1.124  10.808  2.0177 -2.1168 -1.7187
  611MPD2     N 9113   0.646   1.420  10.483 -0.3658  0.5270 -0.2081
  611MPD2    H5 9114   0.720   1.464  10.537  1.0792 -1.9568 -0.1943
  611MPD2    N1 9115   0.310   1.067  10.564 -1.3463  0.9295 -0.1766
  611MPD2    H7 9116   0.288   0.982  10.615 -0.6963  0.5882 -0.4669
  612TMC3    C1 9117   0.680   1.619  10.375 -0.8926  0.0309 -0.3869
  612TMC3    C2 9118   0.777   1.648  10.462 -0.2019 -0.6485  0.2358
  612TMC3    C3 9119   0.842   1.766  10.450 -0.0824 -0.0333  0.3983
  612TMC3    C4 9120   0.659   1.691  10.264  0.1285  0.3077 -0.4673
  612TMC3    C5 9121   0.738   1.799  10.238 -1.0139 -0.0274 -0.1869
  612TMC3    C6 9122   0.829   1.843  10.332 -0.3659 -0.1805 -0.3397
  612TMC3     C 9123   0.603   1.498  10.384  0.4429 -0.0519 -0.5238
  612TMC3     O 9124   0.521   1.473  10.294 -0.1583 -0.1896 -0.2816
  612TMC3     H 9125   0.792   1.603  10.559 -2.3973  0.3193  1.0305
  612TMC3    H1 9126   0.598   1.651  10.185  2.2867 -1.5231 -1.2112
  612TMC3    H2 9127   0.894   1.929  10.317 -1.3422  0.1557 -2.6352
  612TMC3    C7 9128   0.696   1.877  10.119 -0.4928 -0.1124 -0.1620
  612TMC3    C8 9129   0.914   1.830  10.561 -0.2356 -0.1541 -0.3046
  612TMC3    O1 9130   0.641   1.813  10.029  0.2892  0.1118  0.2658
  612TMC3    O2 9131   0.931   1.950  10.552 -0.0267  0.0351  0.0332
  613MPD2     C 9132   0.105   2.945  16.424 -0.4041  0.2467 -0.0645
  613MPD2    C1 9133   4.722   2.999  16.441 -0.3329 -0.3701 -0.2885
  613MPD2    C2 9134   4.679   3.020  16.572 -0.1583  0.1072 -0.1713
  613MPD2    C3 9135   0.025   3.000  16.683 -0.3648 -0.6277  0.5395
  613MPD2    C4 9136   0.151   2.948  16.653  0.0813  0.7119 -0.7826
  613MPD2    C5 9137   0.185   2.934  16.530 -0.9639 -0.3195  0.1755
  613MPD2     H 9138   4.573   3.036  16.587 -0.6927 -1.3041 -2.4534
  613MPD2    H1 9139   0.231   2.931  16.725  0.0688  0.5395 -0.8110
  613MPD2    H2 9140   0.141   2.931  16.323 -1.0103 -2.0859  0.0598
  613MPD2    H3 9141   0.283   2.898  16.500 -2.1428 -0.7261 -3.2576
  613MPD2     N 9142   4.719   2.996  16.815 -0.8030 -0.6048  0.6067
  613MPD2    H5 9143   0.038   2.956  16.888 -1.2306 -1.6208  0.4038
  613MPD2    N1 9144   4.644   3.011  16.322  0.1969 -0.3682 -0.1215
  613MPD2    H7 9145   4.684   2.965  16.241 -0.0366  0.2630 -0.6005
  614TMC3    C1 9146   4.436   3.009  16.208  0.2119  0.2124 -0.5301
  614TMC3    C2 9147   4.441   2.869  16.193 -0.0889  0.1392  0.4425
  614TMC3    C3 9148   4.320   2.807  16.170  0.2230 -0.3522  0.1333
  614TMC3    C4 9149   4.317   3.075  16.196 -0.0095  0.0342 -0.2303
  614TMC3    C5 9150   4.206   3.008  16.153  0.5373 -0.6841 -0.8053
  614TMC3    C6 9151   4.201   2.872  16.138 -0.6940 -0.6410 -0.0093
  614TMC3     C 9152   4.517   3.066  16.312 -0.0466 -0.1872  0.4007
  614TMC3     O 9153   4.459   3.143  16.383  0.2879 -0.3603  0.0684
  614TMC3     H 9154   4.530   2.816  16.224  0.0750 -0.4345 -1.0041
  614TMC3    H1 9155   4.309   3.183  16.197  0.4289  0.0674 -0.2496
  614TMC3    H2 9156   4.108   2.819  16.118 -1.1642 -0.3990  1.5093
  614TMC3    C7 9157   4.113   3.092  16.076  0.3991 -0.2945 -0.0195
  614TMC3    C8 9158   4.302   2.712  16.279 -0.5071 -0.8462 -0.3527
  614TMC3    O1 9159   4.074   3.190  16.138 -0.1646 -0.0143  0.1087
  614TMC3    O2 9160   4.202   2.715  16.348 -0.1290 -0.4006 -0.4642
  615MPD2     C 9161   4.013   3.912  16.340  0.9136 -0.0462  1.1210
  615MPD2    C1 9162   4.051   4.046  16.341  0.6224 -0.3764 -0.7257
  615MPD2    C2 9163   3.988   4.132  16.255 -0.5371 -0.6983  0.3198
  615MPD2    C3 9164   3.893   4.085  16.162  0.1015  0.6512  0.0505
  615MPD2    C4 9165   3.862   3.949  16.162  0.2671 -0.5327  0.3605
  615MPD2    C5 9166   3.919   3.867  16.255  0.3689 -0.2752  0.0001
  615MPD2     H 9167   4.012   4.238  16.257  1.4012 -1.1257  0.1930
  615MPD2    H1 9168   3.782   3.914  16.098  1.3528 -2.6109  0.1043
  615MPD2    H2 9169   4.056   3.837  16.406 -0.4829 -2.0432 -0.2511
  615MPD2    H3 9170   3.905   3.760  16.262  1.9031 -0.5472 -0.9995
  615MPD2     N 9171   3.822   4.172  16.082  0.0329 -0.3849  0.6963
  615MPD2    H5 9172   3.752   4.133  16.020 -0.2899  1.9317 -0.4208
  615MPD2    N1 9173   4.136   4.108  16.437  0.4691 -0.3044  0.1783
  615MPD2    H7 9174   4.166   4.202  16.415 -1.7463  0.0957 -1.0663
  616TMC3    C1 9175   4.272   4.146  16.632 -0.2097 -0.6213  0.1972
  616TMC3    C2 9176   4.305   4.276  16.588 -0.2047 -0.1274  0.2245
  616TMC3    C3 9177   4.416   4.324  16.650 -0.2841 -0.3362  0.4196
  616TMC3    C4 9178   4.344   4.074  16.721  0.4219 -1.0072 -0.0214
  616TMC3    C5 9179   4.456   4.128  16.772  0.1429  0.5305  0.1610
  616TMC3    C6 9180   4.493   4.249  16.728  0.1388 -0.6475  0.3131
  616TMC3     C 9181   4.183   4.059  16.554 -1.0138 -0.0706 -0.1199
  616TMC3     O 9182   4.147   3.954  16.606 -0.2024  0.1507 -0.2231
  616TMC3     H 9183   4.243   4.335  16.521 -1.3309  0.0134  1.4001
  616TMC3    H1 9184   4.304   3.981  16.760  1.7681 -1.8409 -0.6306
  616TMC3    H2 9185   4.591   4.289  16.753 -0.4220  0.0056  1.4590
  616TMC3    C7 9186   4.514   4.079  16.898 -0.3794 -0.2069  0.2764
  616TMC3    C8 9187   4.447   4.464  16.604 -0.3498  0.7516  0.1158
  616TMC3    O1 9188   4.596   4.152  16.953  0.6919 -0.8065 -0.2367
  616TMC3    O2 9189   4.347   4.529  16.568 -0.5705  0.6559  0.2441
  617MPD2     C 9190   1.998   2.821  13.381  0.4374  0.4416  0.5471
  617MPD2    C1 9191   2.064   2.743  13.477 -0.3683  0.5244  0.0878
  617MPD2    C2 9192   1.991   2.665  13.567 -0.4118 -0.0070  0.4199
  617MPD2    C3 9193   1.855   2.671  13.564 -0.1911 -0.0781  0.1958
  617MPD2    C4 9194   1.793   2.763  13.479 -0.1449 -0.2393 -0.0298
  617MPD2    C5 9195   1.866   2.834  13.388  0.1677 -0.2699  0.1629
  617MPD2     H 9196   2.049   2.596  13.627  0.7174  0.2281 -0.4104
  617MPD2    H1 9197   1.688   2.787  13.479  0.4644  2.5348 -0.6333
  617MPD2    H2 9198   2.048   2.866  13.296  1.0000  1.3739  1.3713
  617MPD2    H3 9199   1.810   2.908  13.333  0.3417 -0.6389 -0.5020
  617MPD2     N 9200   1.778   2.605  13.660 -0.5794 -0.6663  0.1230
  617MPD2    H5 9201   1.679   2.621  13.647 -1.0558 -4.5219 -1.1589
  617MPD2    N1 9202   2.204   2.750  13.480 -0.0730 -0.0234 -0.2081
  617MPD2    H7 9203   2.261   2.810  13.421  3.1744 -0.5964  2.3813
  618TMC3    C1 9204   2.418   2.716  13.569 -0.2832 -0.5361 -0.6947
  618TMC3    C2 9205   2.494   2.696  13.676  0.0729 -0.4213  0.2662
  618TMC3    C3 9206   2.620   2.647  13.664 -0.2482 -0.2967 -0.4578
  618TMC3    C4 9207   2.477   2.689  13.442  0.5762 -0.1454 -0.2989
  618TMC3    C5 9208   2.610   2.642  13.438  0.2064  0.0420 -0.8285
  618TMC3    C6 9209   2.687   2.621  13.551 -0.6368 -0.0098  0.7997
  618TMC3     C 9210   2.281   2.694  13.578 -0.2906 -0.5707  0.0424
  618TMC3     O 9211   2.248   2.624  13.675 -0.0973  0.9974 -0.0444
  618TMC3     H 9212   2.448   2.716  13.772  0.0405  2.5482 -0.3767
  618TMC3    H1 9213   2.415   2.695  13.353 -1.5539  0.6118  1.2353
  618TMC3    H2 9214   2.790   2.588  13.553 -0.7820 -0.7145 -2.7144
  618TMC3    C7 9215   2.600   2.522  13.362 -0.2504  0.1538  0.9579
  618TMC3    C8 9216   2.684   2.620  13.789 -0.5545 -0.6757  0.1850
  618TMC3    O1 9217   2.493   2.484  13.318 -1.1570 -0.3783  0.0990
  618TMC3    O2 9218   2.640   2.673  13.893 -0.1397 -0.1209 -0.2068
  619MPD2     C 9219   3.454   3.530  13.758  0.1827  0.0209 -0.4028
  619MPD2    C1 9220   3.419   3.660  13.772 -0.5360 -0.1388  0.4231
  619MPD2    C2 9221   3.287   3.686  13.819 -0.4188  0.0922  0.3306
  619MPD2    C3 9222   3.203   3.580  13.837  0.6732 -0.7927  0.4653
  619MPD2    C4 9223   3.243   3.453  13.818 -0.3917  0.3404 -0.1940
  619MPD2    C5 9224   3.369   3.425  13.776 -0.4507  0.5411 -0.1434
  619MPD2     H 9225   3.261   3.790  13.832 -0.4166 -0.2919  3.3772
  619MPD2    H1 9226   3.181   3.363  13.813 -0.1961  0.1201  1.5021
  619MPD2    H2 9227   3.556   3.512  13.727  1.2761  2.2852  1.8778
  619MPD2    H3 9228   3.409   3.327  13.755  1.3887  1.1308  0.6616
  619MPD2     N 9229   3.063   3.598  13.857 -0.0497  0.2954  0.6475
  619MPD2    H5 9230   3.002   3.517  13.862  0.3546  0.0972  2.2630
  619MPD2    N1 9231   3.496   3.769  13.728 -0.6180  0.1674 -0.6000
  619MPD2    H7 9232   3.438   3.852  13.716  0.2243  0.9267  0.5805
  620TMC3    C1 9233   3.602   3.860  13.549 -0.2692 -0.1073  0.4394
  620TMC3    C2 9234   3.502   3.838  13.460  0.0129  0.0288  0.8107
  620TMC3    C3 9235   3.450   3.944  13.394 -0.1321  0.1103  0.1715
  620TMC3    C4 9236   3.640   3.983  13.579 -0.2484 -0.1461 -0.4379
  620TMC3    C5 9237   3.584   4.085  13.509 -0.7254  0.1072 -0.3714
  620TMC3    C6 9238   3.496   4.072  13.405  0.3432  0.2816  0.3908
  620TMC3     C 9239   3.611   3.765  13.661 -0.4685 -0.9727  0.1239
  620TMC3     O 9240   3.699   3.685  13.664  0.4093  0.2967 -0.1039
  620TMC3     H 9241   3.466   3.737  13.447  0.7958 -0.0144 -1.0173
  620TMC3    H1 9242   3.724   3.999  13.647 -1.9456 -0.1004  1.6626
  620TMC3    H2 9243   3.451   4.152  13.348 -0.3483  0.6595  1.4788
  620TMC3    C7 9244   3.571   4.211  13.568  0.0204  0.0662 -0.3133
  620TMC3    C8 9245   3.335   3.913  13.303  0.7557  0.4864  0.0433
  620TMC3    O1 9246   3.539   4.298  13.488  0.2535  0.0373 -0.6556
  620TMC3    O2 9247   3.363   3.808  13.246 -0.5295 -0.0581 -0.4038
  621MPD2     C 9248   3.103   0.621   9.920  0.4852  0.4927 -0.0799
  621MPD2    C1 9249   3.140   0.496   9.869 -0.2600  0.3129 -0.6511
  621MPD2    C2 9250   3.214   0.501   9.749 -0.0535  0.9379  0.2970
  621MPD2    C3 9251   3.264   0.622   9.700 -0.6485 -0.3278 -0.0770
  621MPD2    C4 9252   3.224   0.741   9.750  0.1703  0.5363  0.3328
  621MPD2    C5 9253   3.135   0.740   9.855  0.5749 -0.0227  0.3468
  621MPD2     H 9254   3.236   0.406   9.702 -0.2249  0.4566  1.1993
  621MPD2    H1 9255   3.248   0.836   9.704 -1.7047  1.6155  1.5671
  621MPD2    H2 9256   3.032   0.639   9.999 -0.5520 -0.2623 -0.8418
  621MPD2    H3 9257   3.095   0.833   9.893  3.5374  1.7082 -0.7548
  621MPD2     N 9258   3.352   0.610   9.586 -0.3047 -0.1921  0.2012
  621MPD2    H5 9259   3.363   0.516   9.552  2.0266 -1.0619  3.4081
  621MPD2    N1 9260   3.097   0.376   9.939  0.1533  0.2911  0.3176
  621MPD2    H7 9261   3.020   0.377  10.005 -1.3226  2.4023 -1.4427
  622TMC3    C1 9262   3.088   0.145   9.999  0.3754 -0.4938  0.3376
  622TMC3    C2 9263   3.034   0.192  10.117 -0.6186  0.5550  0.3982
  622TMC3    C3 9264   3.013   0.093  10.214 -0.5918 -0.0210  0.3273
  622TMC3    C4 9265   3.126   0.016   9.978  0.2457 -0.3702 -0.1664
  622TMC3    C5 9266   3.088   4.661  10.070 -0.0358  0.4015 -0.1611
  622TMC3    C6 9267   3.051   4.706  10.191 -1.3263 -0.6452  0.9042
  622TMC3     C 9268   3.147   0.253   9.909  0.2796 -0.7431  0.7718
  622TMC3     O 9269   3.224   0.225   9.822  0.0812 -0.0950  0.0575
  622TMC3     H 9270   2.988   0.288  10.135 -2.0443  0.1651 -1.1148
  622TMC3    H1 9271   3.160   4.720   9.882 -0.2221 -0.9016 -0.1356
  622TMC3    H2 9272   3.023   4.628  10.260  1.0383 -1.3873  1.0309
  622TMC3    C7 9273   3.042   4.528  10.035  0.0558 -0.1441 -0.1068
  622TMC3    C8 9274   2.897   0.107  10.301 -0.2236  0.4556 -0.3237
  622TMC3    O1 9275   3.008   4.454  10.124  0.4412 -0.3086 -0.2192
  622TMC3    O2 9276   2.899   0.055  10.411 -0.0104 -0.0349  0.2933
  623MPD2     C 9277   2.699   0.092  16.034 -0.3827 -0.4639  0.3333
  623MPD2    C1 9278   2.651   4.726  16.109  0.2920 -0.4096  0.1248
  623MPD2    C2 9279   2.738   4.666  16.196  0.1947 -0.1935  0.4620
  623MPD2    C3 9280   2.871   4.713  16.218 -0.5238 -0.1185 -0.2174
  623MPD2    C4 9281   2.909   0.084  16.151 -0.3889  0.2291 -0.5136
  623MPD2    C5 9282   2.819   0.141  16.064  0.3474 -0.6164  0.5770
  623MPD2     H 9283   2.709   4.574  16.247  0.2044 -0.5253 -0.1375
  623MPD2    H1 9284   3.005   0.132  16.162 -0.5679  0.7980 -1.5115
  623MPD2    H2 9285   2.637   0.132  15.953 -0.0351 -1.7852 -0.5845
  623MPD2    H3 9286   2.848   0.229  16.008 -3.4787  0.0338 -0.3496
  623MPD2     N 9287   2.949   4.646  16.318  0.6825 -0.3645 -0.0236
  623MPD2    H5 9288   2.901   4.568  16.363 -0.8289  0.5610 -0.0046
  623MPD2    N1 9289   2.520   4.679  16.085 -0.4789  0.4768 -0.1576
  623MPD2    H7 9290   2.472   4.706  16.000  0.4064 -0.2378 -0.8923
  624TMC3    C1 9291   3.244   4.425  16.556 -0.7579 -0.3520  0.4981
  624TMC3    C2 9292   3.141   4.389  16.638 -0.1811 -0.3475 -0.1061
  624TMC3    C3 9293   3.024   4.467  16.635 -0.4374 -0.0330 -0.5288
  624TMC3    C4 9294   3.243   4.532  16.466  0.0678 -0.4702 -0.4637
  624TMC3    C5 9295   3.131   4.606  16.467 -0.1398  0.5476  0.7360
  624TMC3    C6 9296   3.024   4.580  16.551 -0.0693  0.5069  0.2452
  624TMC3     C 9297   3.371   4.367  16.592  0.4620 -0.3968 -0.6603
  624TMC3     O 9298   3.379   4.297  16.692  0.1126  0.0969  0.2577
  624TMC3     H 9299   3.145   4.308  16.710  1.9504  1.3125  1.6346
  624TMC3    H1 9300   3.329   4.556  16.405 -0.6155 -1.2339 -1.7385
  624TMC3    H2 9301   2.939   4.646  16.555 -0.5071 -0.1059  1.0849
  624TMC3    C7 9302   3.084   4.676  16.353  0.5289  0.1534 -0.4682
  624TMC3    C8 9303   2.904   4.390  16.614  0.7382  0.1912  0.5484
  624TMC3    O1 9304   3.159   0.019  16.300 -0.5836 -0.1944  0.0727
  624TMC3    O2 9305   2.858   4.387  16.497 -0.0658 -0.4944  0.0772
  625MPD2     C 9306   3.778   1.078   0.244 -0.1410  0.0075 -0.0696
  625MPD2    C1 9307   3.689   1.094   0.345  0.1252 -0.4455 -0.2693
  625MPD2    C2 9308   3.728   1.135   0.467 -0.3012  0.3768  0.1604
  625MPD2    C3 9309   3.862   1.138   0.499 -0.2805 -0.3105  0.4475
  625MPD2    C4 9310   3.957   1.126   0.391  0.3795  0.0893 -0.5724
  625MPD2    C5 9311   3.908   1.092   0.269 -0.8000  0.3354  0.9808
  625MPD2     H 9312   3.653   1.174   0.536 -0.3763 -0.4461  0.5413
  625MPD2    H1 9313   4.063   1.142   0.403  0.5119 -1.9400  0.9623
  625MPD2    H2 9314   3.751   1.061   0.140  0.1925  0.3425 -0.2104
  625MPD2    H3 9315   3.977   1.098   0.186 -1.0425  2.4533  0.9206
  625MPD2     N 9316   3.909   1.173   0.628  0.0807  0.0453  0.2873
  625MPD2    H5 9317   3.843   1.181   0.704 -1.4798  0.5368 -1.1353
  625MPD2    N1 9318   3.547   1.088   0.325  0.3121  0.2072 -0.5243
  625MPD2    H7 9319   3.493   1.115   0.407 -0.4666 -0.3300 -0.8568
  626TMC3    C1 9320   3.340   1.093   0.214 -0.1041 -0.4562  0.0429
  626TMC3    C2 9321   3.280   1.087   0.096 -0.1355 -0.1089  0.5542
  626TMC3    C3 9322   3.142   1.096   0.095 -0.1091  0.2340  0.0150
  626TMC3    C4 9323   3.277   1.133   0.331 -0.0187  0.0375  0.6447
  626TMC3    C5 9324   3.143   1.162   0.319 -0.1681 -0.4719 -0.7067
  626TMC3    C6 9325   3.068   1.135   0.206 -0.3250 -0.1251 -0.6092
  626TMC3     C 9326   3.481   1.049   0.213 -0.2231 -0.0131  0.5883
  626TMC3     O 9327   3.516   0.993   0.114 -0.1871 -0.0048  0.1540
  626TMC3     H 9328   3.335   1.065   0.005 -0.5001 -0.2621  0.3699
  626TMC3    H1 9329   3.318   1.109   0.428 -1.3482 -3.2794  0.3689
  626TMC3    H2 9330   2.969   1.173   0.187 -1.6536 -3.1312  0.4291
  626TMC3    C7 9331   3.066   1.205   0.435  0.2725 -0.2827 -0.0560
  626TMC3    C8 9332   3.081   1.142  17.729 -0.9542  0.8556 -0.3605
  626TMC3    O1 9333   3.127   1.236   0.536  0.2210  0.0153 -0.5574
  626TMC3    O2 9334   3.130   1.241  17.677 -0.0640  0.3220  0.2096
  627MPD2     C 9335   1.336   1.540  14.557  0.0698  0.4308 -0.0831
  627MPD2    C1 9336   1.435   1.468  14.628 -0.1166 -0.1300  0.4523
  627MPD2    C2 9337   1.418   1.332  14.655  0.1245 -0.1513  0.1967
  627MPD2    C3 9338   1.297   1.270  14.614 -0.3278 -0.0611 -0.0542
  627MPD2    C4 9339   1.197   1.339  14.552 -0.0886  0.0343  0.4068
  627MPD2    C5 9340   1.218   1.471  14.514 -0.2167  0.1410  0.1103
  627MPD2     H 9341   1.481   1.278  14.725  0.9205  0.4702 -0.0392
  627MPD2    H1 9342   1.097   1.300  14.536 -0.0775  0.0018  0.4163
  627MPD2    H2 9343   1.346   1.645  14.532 -1.1556  0.6885  0.5369
  627MPD2    H3 9344   1.134   1.524  14.470 -1.0095 -0.4852  0.8677
  627MPD2     N 9345   1.273   1.138  14.660  0.3924 -0.6627 -0.4659
  627MPD2    H5 9346   1.336   1.099  14.730 -0.5278 -0.5020  0.4580
  627MPD2    N1 9347   1.563   1.522  14.663 -0.0765  0.3553  0.5703
  627MPD2    H7 9348   1.624   1.467  14.723  0.8031 -0.0467 -0.6883
  628TMC3    C1 9349   1.740   1.671  14.652  0.2572  0.6127  0.0007
  628TMC3    C2 9350   1.831   1.578  14.710 -0.0823 -0.1207 -0.0984
  628TMC3    C3 9351   1.939   1.620  14.788 -0.0461  0.2632 -0.6318
  628TMC3    C4 9352   1.769   1.804  14.657 -0.2585 -0.1270  0.2732
  628TMC3    C5 9353   1.874   1.840  14.741  1.2120 -0.2601 -0.6894
  628TMC3    C6 9354   1.956   1.750  14.807 -0.5641  0.3993 -0.1389
  628TMC3     C 9355   1.612   1.634  14.599 -0.5034 -0.3055  0.7780
  628TMC3     O 9356   1.570   1.703  14.508 -0.0928  0.0491 -0.2494
  628TMC3     H 9357   1.827   1.476  14.674  0.8732 -0.7123  1.4868
  628TMC3    H1 9358   1.697   1.878  14.626 -0.1254  0.5804  1.6835
  628TMC3    H2 9359   2.054   1.782  14.840  0.7277 -1.1650 -2.4529
  628TMC3    C7 9360   1.932   1.971  14.710 -0.8015  1.1040  0.0489
  628TMC3    C8 9361   2.060   1.550  14.735  0.0322  0.2145  0.7688
  628TMC3    O1 9362   2.046   1.992  14.755 -0.5478  0.0401 -0.6140
  628TMC3    O2 9363   2.132   1.615  14.663  0.0974  0.3817  0.2419
  629MPD2     C 9364   0.034   0.115  16.569 -0.3494  0.2397  0.0879
  629MPD2    C1 9365   0.109   0.004  16.584  0.0418 -0.1801  0.2503
  629MPD2    C2 9366   0.049   4.620  16.603 -0.5096 -0.4429 -0.2899
  629MPD2    C3 9367   4.654   4.612  16.601  0.1657  0.4112  0.6699
  629MPD2    C4 9368   4.577   4.722  16.571 -0.3138 -0.2140  1.1373
  629MPD2    C5 9369   4.635   0.105  16.565 -0.1614 -0.1043 -0.1298
  629MPD2     H 9370   0.114   4.534  16.613  0.4140 -0.0937 -3.3647
  629MPD2    H1 9371   4.469   4.718  16.562 -0.4707  3.8332  1.1704
  629MPD2    H2 9372   0.087   0.209  16.565 -0.2237  0.1657  0.0116
  629MPD2    H3 9373   4.577   0.195  16.548 -2.6536 -1.3893  1.6434
  629MPD2     N 9374   4.585   4.491  16.616  0.0511 -0.3318 -0.3105
  629MPD2    H5 9375   4.650   4.413  16.618 -1.9422 -2.0575 -2.6037
  629MPD2    N1 9376   0.248   0.019  16.593 -0.0052  0.2881 -0.0028
  629MPD2    H7 9377   0.288   0.110  16.576  1.0643 -0.1809  0.0401
  630TMC3    C1 9378   0.475   4.706  16.608 -0.5841 -0.3189  0.3308
  630TMC3    C2 9379   0.496   0.080  16.544  0.4954  1.3233  0.3585
  630TMC3    C3 9380   0.610   0.148  16.568 -0.5919  0.1610 -0.1773
  630TMC3    C4 9381   0.561   4.648  16.699  0.3530 -0.0910 -0.1919
  630TMC3    C5 9382   0.671   4.723  16.731  0.8449 -0.4302 -0.0106
  630TMC3    C6 9383   0.699   0.108  16.671  0.2892 -0.2940 -0.1506
  630TMC3     C 9384   0.339   4.664  16.625 -0.1353 -0.7781 -0.4219
  630TMC3     O 9385   0.322   4.549  16.668 -0.5171 -0.6441 -0.3694
  630TMC3     H 9386   0.444   0.103  16.451  0.8928  1.7719  0.2520
  630TMC3    H1 9387   0.535   4.562  16.759  1.9278  0.6981  1.6148
  630TMC3    H2 9388   0.797   0.153  16.679 -0.6283  1.4605  1.2900
  630TMC3    C7 9389   0.737   4.682  16.851 -0.4767 -0.4632  0.0910
  630TMC3    C8 9390   0.671   0.231  16.466  0.0920  0.4039 -0.0274
  630TMC3    O1 9391   0.690   4.596  16.921  0.2274  0.2928  0.3742
  630TMC3    O2 9392   0.783   0.270  16.503  0.2740  0.8096 -0.2170
  631MPD2     C 9393   2.990   4.411  15.606  0.1267 -0.1583  0.3151
  631MPD2    C1 9394   3.084   4.501  15.559 -0.8824  0.7579 -0.4011
  631MPD2    C2 9395   3.216   4.495  15.601 -0.2763 -0.4303 -0.3659
  631MPD2    C3 9396   3.253   4.396  15.694  0.6157 -0.0255  0.1472
  631MPD2    C4 9397   3.159   4.310  15.751 -0.0736  0.3827  0.5662
  631MPD2    C5 9398   3.031   4.318  15.699  0.4919 -0.2782 -0.0869
  631MPD2     H 9399   3.293   4.560  15.559 -0.2172 -1.2756 -1.5869
  631MPD2    H1 9400   3.175   4.229  15.821 -0.4183 -0.6923 -0.5924
  631MPD2    H2 9401   2.890   4.417  15.565 -0.0793 -2.7406  0.4256
  631MPD2    H3 9402   2.956   4.242  15.717  0.9272 -0.1675  2.1858
  631MPD2     N 9403   3.391   4.391  15.711  0.4709 -0.1216  0.3775
  631MPD2    H5 9404   3.442   4.474  15.684  0.2079  0.5662  1.9461
  631MPD2    N1 9405   3.040   4.608  15.473 -0.5805 -0.4804  0.2062
  631MPD2    H7 9406   2.940   4.614  15.459 -0.2403 -0.2447 -2.0730
  632TMC3    C1 9407   3.071   0.050  15.313 -0.6052  0.7509 -0.2496
  632TMC3    C2 9408   2.963   0.112  15.354  0.9005  0.0556 -0.3227
  632TMC3    C3 9409   2.963   0.247  15.343  0.7177 -0.3586  0.8366
  632TMC3    C4 9410   3.176   0.116  15.252 -0.2661 -0.2963 -1.2108
  632TMC3    C5 9411   3.178   0.252  15.250  0.5236  0.4222 -0.7152
  632TMC3    C6 9412   3.070   0.320  15.298 -0.3159  0.2923 -0.3996
  632TMC3     C 9413   3.123   4.677  15.389 -0.6765 -0.2233  0.2366
  632TMC3     O 9414   3.240   4.643  15.365  0.5568  0.4106 -0.0270
  632TMC3     H 9415   2.873   0.055  15.375  1.1035 -0.4614 -0.8703
  632TMC3    H1 9416   3.272   0.074  15.225  1.4816  0.9149  3.0394
  632TMC3    H2 9417   3.073   0.428  15.287  1.8554  0.4876  2.0323
  632TMC3    C7 9418   3.254   0.332  15.154 -0.2639  0.6243 -0.0172
  632TMC3    C8 9419   2.848   0.316  15.393  0.2729 -0.5626  0.6932
  632TMC3    O1 9420   3.303   0.274  15.056  0.3371  0.2323 -0.1517
  632TMC3    O2 9421   2.740   0.260  15.380  0.0760 -0.1174 -0.4700
  633MPD2     C 9422   2.742   3.119  17.331  0.2320 -0.8707 -0.5492
  633MPD2    C1 9423   2.747   3.015  17.239  0.4186  0.3682  0.1025
  633MPD2    C2 9424   2.769   2.888  17.293  0.4003 -0.3385 -0.5685
  633MPD2    C3 9425   2.783   2.873  17.435 -0.9015 -0.0930  0.5818
  633MPD2    C4 9426   2.795   2.978  17.514 -0.0121  1.0363 -0.1037
  633MPD2    C5 9427   2.774   3.098  17.465  0.4690  1.2646 -0.0906
  633MPD2     H 9428   2.758   2.797  17.235  0.9517 -0.0955 -1.0503
  633MPD2    H1 9429   2.807   2.971  17.621  0.8001 -2.3165 -0.4185
  633MPD2    H2 9430   2.725   3.223  17.308 -0.0252 -1.2939 -2.2616
  633MPD2    H3 9431   2.765   3.176  17.539  1.2754 -0.6784  2.0872
  633MPD2     N 9432   2.789   2.749  17.507 -0.8913  0.0395 -0.0145
  633MPD2    H5 9433   2.812   2.753  17.606  1.7611 -1.9164 -0.5452
  633MPD2    N1 9434   2.731   3.023  17.094  0.0414 -0.0312 -0.0643
  633MPD2    H7 9435   2.756   2.942  17.038  0.3143  1.8059 -2.5934
  634TMC3    C1 9436   2.715   3.120  16.887  0.5452 -0.2004  0.5756
  634TMC3    C2 9437   2.807   3.026  16.848 -0.3053 -0.6637 -0.2653
  634TMC3    C3 9438   2.837   3.022  16.713  0.3930  0.0546  0.2768
  634TMC3    C4 9439   2.646   3.210  16.807  0.4012  0.4341  0.2251
  634TMC3    C5 9440   2.675   3.196  16.673 -0.0218 -0.1308  0.4925
  634TMC3    C6 9441   2.768   3.106  16.629  0.0788  0.4059  0.2512
  634TMC3     C 9442   2.695   3.136  17.030 -0.4978  0.7349  1.0276
  634TMC3     O 9443   2.658   3.248  17.070  0.0246 -0.6798  0.1876
  634TMC3     H 9444   2.864   2.962  16.914 -0.4480  0.5214  1.0178
  634TMC3    H1 9445   2.573   3.273  16.855  0.1288 -0.0703  0.4739
  634TMC3    H2 9446   2.773   3.105  16.521 -2.0023 -0.5178  0.1669
  634TMC3    C7 9447   2.577   3.252  16.578  0.0761  0.1247 -0.7339
  634TMC3    C8 9448   2.885   2.887  16.670  1.1962 -0.4418  0.4395
  634TMC3    O1 9449   2.584   3.224  16.461  0.0970 -0.8047 -0.4428
  634TMC3    O2 9450   2.874   2.797  16.753 -0.5762  0.4222 -0.1976
  635TMC3    C1 9451   3.075   3.868  17.566  0.3315  0.0733  0.9128
  635TMC3    C2 9452   3.110   3.877  17.435 -0.4765  0.4054  0.2346
  635TMC3    C3 9453   3.131   3.767  17.363  0.8067 -0.3586  0.1192
  635TMC3    C4 9454   3.046   3.749  17.624  0.0969  0.1660  0.4745
  635TMC3    C5 9455   3.073   3.639  17.546  0.4294 -0.0580  0.2741
  635TMC3    C6 9456   3.121   3.644  17.414  0.5349 -0.1432 -0.1477
  635TMC3     C 9457   3.046   3.987  17.632 -0.0044  0.3149 -0.4372
  635TMC3     O 9458   3.107   4.089  17.601  0.0768  0.0244 -0.5826
  635TMC3     H 9459   3.148   3.972  17.398  1.1368 -0.6454 -0.7996
  635TMC3    H1 9460   3.019   3.737  17.728 -2.6591  1.1729 -0.1234
  635TMC3    H2 9461   3.108   3.555  17.354  1.5230 -1.7876  2.0830
  635TMC3    C7 9462   3.047   3.510  17.608 -0.5559 -0.6541  0.0665
  635TMC3    C8 9463   3.166   3.783  17.223 -0.1966  0.0018 -0.0851
  635TMC3    O1 9464   3.084   3.413  17.545  0.3724  0.0650  0.2683
  635TMC3    O2 9465   3.152   3.893  17.176  0.5708 -0.0506  0.5344
  636MPD2     C 9466   3.944   3.111  16.510  0.9569  0.4170  0.4389
  636MPD2    C1 9467   3.956   3.189  16.626  0.0126  0.0281  0.1909
  636MPD2    C2 9468   4.024   3.139  16.737 -0.3313  0.0687  0.2647
  636MPD2    C3 9469   4.082   3.020  16.734 -0.2775 -0.0825 -0.0451
  636MPD2    C4 9470   4.069   2.947  16.614  0.0683 -0.0297  0.3289
  636MPD2    C5 9471   4.001   2.988  16.503  0.3593 -0.2148  0.1191
  636MPD2     H 9472   4.018   3.188  16.834 -0.3061 -0.6938  0.6514
  636MPD2    H1 9473   4.125   2.856  16.598 -2.0314 -0.7496 -2.9345
  636MPD2    H2 9474   3.896   3.141  16.417  0.9617  0.4513  0.4476
  636MPD2    H3 9475   3.996   2.932  16.410  1.1036  0.8385 -0.5529
  636MPD2     N 9476   4.162   2.975  16.850  0.4347  0.1142 -0.3866
  636MPD2    H5 9477   4.173   3.045  16.922  0.4316 -0.6196  0.3217
  636MPD2    N1 9478   3.884   3.309  16.649  0.6852  0.3063 -0.3243
  636MPD2    H7 9479   3.890   3.350  16.742  1.8237 -2.4276  0.8149
  637TMC3    C1 9480   4.325   2.854  16.964  0.0034  0.3655  0.2649
  637TMC3    C2 9481   4.406   2.958  16.973 -0.0383  0.1089 -0.8665
  637TMC3    C3 9482   4.538   2.935  16.951 -0.5369  0.7320 -0.7897
  637TMC3    C4 9483   4.377   2.731  16.966 -0.4455  0.2944 -0.2190
  637TMC3    C5 9484   4.509   2.709  16.974 -0.2088  0.2884 -0.0293
  637TMC3    C6 9485   4.593   2.812  16.964 -0.5311  0.1753  0.4429
  637TMC3     C 9486   4.222   2.855  16.865 -0.3306  0.5617  0.2638
  637TMC3     O 9487   4.213   2.751  16.799 -0.1600  0.3865  0.0603
  637TMC3     H 9488   4.363   3.057  16.970  0.2772  0.3045  0.7958
  637TMC3    H1 9489   4.311   2.648  16.987  0.2032 -0.1262  0.1638
  637TMC3    H2 9490   4.691   2.782  16.931 -0.7231 -0.3857  0.3758
  637TMC3    C7 9491   4.545   2.605  16.874 -0.0561  0.3183  0.4926
  637TMC3    C8 9492   4.591   3.030  16.855 -0.1033 -0.2349  0.6906
  637TMC3    O1 9493   4.659   2.555  16.860 -0.3719 -0.3274  0.0140
  637TMC3    O2 9494   4.526   3.125  16.809 -0.0499 -0.5432  0.1071
  638MPD2     C 9495   3.834   1.974  15.223  0.1174 -0.3646 -0.5201
  638MPD2    C1 9496   3.896   1.879  15.146  0.0739  0.2758  0.1799
  638MPD2    C2 9497   3.901   1.751  15.192  0.1527 -0.5141 -0.3236
  638MPD2    C3 9498   3.849   1.711  15.319 -1.2398  0.7232 -0.2695
  638MPD2    C4 9499   3.785   1.812  15.386 -0.1005 -0.0856 -0.2067
  638MPD2    C5 9500   3.780   1.942  15.345  0.4970 -0.3578  0.1723
  638MPD2     H 9501   3.947   1.674  15.132 -1.4528 -0.0184 -2.1780
  638MPD2    H1 9502   3.742   1.787  15.482 -1.4343 -0.5398 -0.9187
  638MPD2    H2 9503   3.817   2.073  15.183  1.0400 -0.1459 -0.3547
  638MPD2    H3 9504   3.725   2.020  15.397 -0.1908 -1.3718  0.9933
  638MPD2     N 9505   3.858   1.569  15.343 -0.0379 -0.2543 -0.0130
  638MPD2    H5 9506   3.887   1.501  15.274  2.2258 -0.1819  0.8707
  638MPD2    N1 9507   3.954   1.914  15.023 -0.5082  0.3054 -0.5036
  638MPD2    H7 9508   3.990   1.837  14.968  1.4889  0.9447 -0.0695
  639TMC3    C1 9509   3.808   1.369  15.439 -0.0885  0.2981  0.7846
  639TMC3    C2 9510   3.704   1.293  15.388  0.1882 -0.1964  0.5667
  639TMC3    C3 9511   3.724   1.162  15.362  0.2705 -0.7667 -0.0878
  639TMC3    C4 9512   3.937   1.327  15.430  0.4441 -0.3113  0.5537
  639TMC3    C5 9513   3.954   1.198  15.390  0.0121  0.4027  1.1695
  639TMC3    C6 9514   3.847   1.110  15.380  0.0103  0.3255 -0.0840
  639TMC3     C 9515   3.787   1.511  15.447 -0.8562  0.1984 -0.2214
  639TMC3     O 9516   3.719   1.559  15.540  0.1490  0.0963  0.5708
  639TMC3     H 9517   3.603   1.332  15.388  0.4700  0.4955 -1.1290
  639TMC3    H1 9518   4.029   1.381  15.448 -0.1409  0.5432  0.9576
  639TMC3    H2 9519   3.860   1.003  15.364 -0.3738  0.2284  0.2382
  639TMC3    C7 9520   4.069   1.168  15.319 -0.8316 -0.1829  0.0272
  639TMC3    C8 9521   3.660   1.112  15.239  0.1225  1.0129 -0.0626
  639TMC3    O1 9522   4.116   1.253  15.246 -0.3333  0.1742  0.8790
  639TMC3    O2 9523   3.720   1.027  15.172 -0.0276  0.3678 -0.4640
  640MPD2     C 9524   4.458   1.262   9.886  0.0592 -0.2448 -0.6580
  640MPD2    C1 9525   4.326   1.278   9.850  0.4552 -0.0038  0.4392
  640MPD2    C2 9526   4.267   1.394   9.887 -0.3222  0.2668 -0.2306
  640MPD2    C3 9527   4.328   1.478   9.972 -0.2941 -0.0424 -0.0986
  640MPD2    C4 9528   4.463   1.456  10.006 -0.2307 -0.1577  0.5684
  640MPD2    C5 9529   4.530   1.354   9.962  0.0072 -0.0023  0.0257
  640MPD2     H 9530   4.166   1.418   9.855 -0.4472 -0.9792 -0.7648
  640MPD2    H1 9531   4.520   1.533  10.056  0.7931 -0.8005  0.3721
  640MPD2    H2 9532   4.510   1.178   9.842 -0.6397 -1.2401  0.3980
  640MPD2    H3 9533   4.638   1.343   9.961 -0.1238 -0.8257 -4.1537
  640MPD2     N 9534   4.269   1.597  10.024  0.7571 -0.3438 -0.2875
  640MPD2    H5 9535   4.325   1.643  10.095  0.2331 -1.5456  0.9166
  640MPD2    N1 9536   4.256   1.176   9.775 -0.1394 -0.6298  0.5173
  640MPD2    H7 9537   4.305   1.087   9.769 -1.1228 -1.2250  1.5077
  641TMC3    C1 9538   4.096   1.049   9.664 -0.2510 -0.3392  0.3275
  641TMC3    C2 9539   4.182   0.943   9.663  0.2076  0.1391  0.2598
  641TMC3    C3 9540   4.155   0.844   9.574 -0.0019  0.3057 -0.5427
  641TMC3    C4 9541   3.988   1.057   9.585 -0.7100 -0.3627 -0.1695
  641TMC3    C5 9542   3.957   0.956   9.496  0.4123 -0.3634 -0.0488
  641TMC3    C6 9543   4.049   0.849   9.484 -0.0919  0.2341  0.4972
  641TMC3     C 9544   4.129   1.178   9.725  0.5740  0.6166  0.4222
  641TMC3     O 9545   4.062   1.278   9.709  0.3329  0.5301  0.2255
  641TMC3     H 9546   4.257   0.929   9.739 -0.5054 -2.2847  0.5165
  641TMC3    H1 9547   3.919   1.140   9.600 -0.6965 -0.3063 -0.4115
  641TMC3    H2 9548   4.020   0.762   9.426  1.0963 -0.7576  1.3930
  641TMC3    C7 9549   3.855   0.977   9.394 -0.4277  0.1387  0.1283
  641TMC3    C8 9550   4.215   0.713   9.586  0.3762 -0.6887 -0.2047
  641TMC3    O1 9551   3.786   1.078   9.414  0.4365  0.2269 -0.5648
  641TMC3    O2 9552   4.223   0.660   9.475  0.2512  0.0230 -1.1254
  642TMC3    C1 9553   0.485   1.708  12.639 -0.8683  0.1025  0.0834
  642TMC3    C2 9554   0.605   1.723  12.574 -0.7107 -0.1621  0.0635
  642TMC3    C3 9555   0.656   1.613  12.509 -0.2734  0.0658 -0.2201
  642TMC3    C4 9556   0.419   1.588  12.655  0.0534  0.4843  0.0594
  642TMC3    C5 9557   0.476   1.484  12.586 -0.6129  0.4438 -0.1582
  642TMC3    C6 9558   0.585   1.498  12.505 -0.5182 -0.0155 -0.1461
  642TMC3     C 9559   0.428   1.829  12.698  0.4064 -0.0974 -0.1181
  642TMC3     O 9560   0.513   1.915  12.728 -0.4810 -0.5776  0.9079
  642TMC3     H 9561   0.663   1.814  12.577  0.1609 -0.7188  0.3543
  642TMC3    H1 9562   0.325   1.587  12.710 -0.6992 -0.4780 -1.2337
  642TMC3    H2 9563   0.630   1.418  12.447  0.7624  1.4936 -1.2548
  642TMC3    C7 9564   0.418   1.345  12.597 -0.3726 -0.2913 -0.0949
  642TMC3    C8 9565   0.771   1.627  12.424  0.3525 -0.6775  0.1932
  642TMC3    O1 9566   0.473   1.256  12.535  0.1042  0.3174  0.2790
  642TMC3    O2 9567   0.778   1.543  12.337  0.2965 -0.0959 -0.1372
  643TMC3    C1 9568   0.111   0.714   0.174  0.6862  0.1429  0.6763
  643TMC3    C2 9569   4.715   0.693   0.169  0.0250  0.0696 -0.2795
  643TMC3    C3 9570   4.668   0.649   0.050  0.3758  0.2785  0.3275
  643TMC3    C4 9571   0.193   0.667   0.075  0.1508  0.1358  0.1213
  643TMC3    C5 9572   0.142   0.613  17.715 -0.0080 -0.4973 -0.0896
  643TMC3    C6 9573   0.005   0.596  17.704 -0.6138  0.1234 -0.9123
  643TMC3     C 9574   0.146   0.831   0.251  0.4489 -0.0186 -0.4193
  643TMC3     O 9575   0.071   0.926   0.224 -0.9789 -0.4990 -0.2743
  643TMC3     H 9576   4.651   0.733   0.247  0.7656 -0.0095  0.3698
  643TMC3    H1 9577   0.297   0.695   0.080  0.5378 -1.1959 -0.4221
  643TMC3    H2 9578   4.701   0.566  17.609  1.5529 -0.9520 -1.5657
  643TMC3    C7 9579   0.227   0.620  17.593  0.2259 -0.7792  0.8117
  643TMC3    C8 9580   4.574   0.746  17.756 -0.2074  0.1031  0.7567
  643TMC3    O1 9581   0.341   0.667  17.599 -0.4432 -0.2595  0.1404
  643TMC3    O2 9582   4.493   0.712  17.672  0.0438  0.3763  0.9699
  644MPD2     C 9583   3.424   1.245   8.992 -0.5809 -0.8335 -0.0118
  644MPD2    C1 9584   3.522   1.289   9.074  0.3181  0.1524 -0.2159
  644MPD2    C2 9585   3.487   1.382   9.173  0.8691 -0.3940  0.3458
  644MPD2    C3 9586   3.354   1.402   9.206 -0.7367 -0.5494  0.2772
  644MPD2    C4 9587   3.255   1.351   9.122 -0.0971 -0.5140  1.3151
  644MPD2    C5 9588   3.288   1.266   9.022  0.0389  0.0186 -0.4321
  644MPD2     H 9589   3.558   1.439   9.232 -2.2744  2.3124  1.4359
  644MPD2    H1 9590   3.149   1.362   9.141 -0.4887 -1.0003 -0.5185
  644MPD2    H2 9591   3.441   1.180   8.907  0.1092 -1.6150  0.7164
  644MPD2    H3 9592   3.217   1.220   8.955 -1.8531 -0.1890  1.7403
  644MPD2     N 9593   3.322   1.497   9.306  0.0967  0.1438 -0.2182
  644MPD2    H5 9594   3.399   1.529   9.364  1.1263 -0.9316 -1.0106
  644MPD2    N1 9595   3.661   1.253   9.044  0.3836  0.3858 -0.3626
  644MPD2    H7 9596   3.677   1.187   8.968 -1.5137 -1.0255  0.4686
  645TMC3    C1 9597   3.192   1.620   9.451  0.3979  0.1646 -0.0053
  645TMC3    C2 9598   3.078   1.631   9.528  0.1346  0.8570  0.3803
  645TMC3    C3 9599   3.058   1.744   9.607 -0.1567  0.4774  0.5041
  645TMC3    C4 9600   3.281   1.719   9.438 -0.1744  0.3427 -1.0836
  645TMC3    C5 9601   3.260   1.826   9.526 -0.7519 -0.5008 -0.0405
  645TMC3    C6 9602   3.152   1.840   9.611 -0.2335 -0.0910 -0.3043
  645TMC3     C 9603   3.198   1.521   9.353  0.1543  0.3631  0.4489
  645TMC3     O 9604   3.091   1.477   9.319 -0.1596 -0.5463  0.1845
  645TMC3     H 9605   3.000   1.556   9.526  0.9954 -0.0728  1.7367
  645TMC3    H1 9606   3.362   1.722   9.366  0.9167 -1.8532  0.0564
  645TMC3    H2 9607   3.145   1.916   9.688 -0.8767 -0.7702  0.3094
  645TMC3    C7 9608   3.365   1.919   9.539 -0.0915  0.1620  0.2761
  645TMC3    C8 9609   2.966   1.748   9.724  0.2959  0.7480  0.0099
  645TMC3    O1 9610   3.480   1.891   9.507  0.5370 -0.3895 -0.5097
  645TMC3    O2 9611   2.969   1.845   9.799 -0.0053 -0.2695  0.1943
  646MPD2     C 9612   4.280   0.665  14.554 -0.4336  0.6969  0.0754
  646MPD2    C1 9613   4.186   0.633  14.642  0.4281  1.0582  0.5502
  646MPD2    C2 9614   4.065   0.700  14.635  0.0004 -0.1789 -0.3643
  646MPD2    C3 9615   4.033   0.776  14.527 -0.1670 -0.5449  0.9078
  646MPD2    C4 9616   4.130   0.798  14.431  0.2995  0.1726 -0.2565
  646MPD2    C5 9617   4.255   0.744  14.448 -0.2008  0.1656  0.1443
  646MPD2     H 9618   3.982   0.681  14.701  0.4589 -1.7912 -0.2627
  646MPD2    H1 9619   4.121   0.851  14.337 -2.1265 -0.9330 -0.6518
  646MPD2    H2 9620   4.375   0.616  14.571  0.0226  2.4948  2.8022
  646MPD2    H3 9621   4.332   0.752  14.373  0.8938  1.4653  1.3985
  646MPD2     N 9622   3.895   0.810  14.515 -0.1925 -0.6057  0.2949
  646MPD2    H5 9623   3.830   0.784  14.588 -0.4831 -3.5722 -1.0240
  646MPD2    N1 9624   4.219   0.538  14.745  0.5247  0.2050  0.1247
  646MPD2    H7 9625   4.316   0.510  14.751  0.2664 -0.7337 -0.2132
  647TMC3    C1 9626   4.195   0.405  14.936 -0.2380  0.2281  0.7040
  647TMC3    C2 9627   4.115   0.332  15.015  0.3084 -0.5685  0.5826
  647TMC3    C3 9628   4.141   0.317  15.145  0.1194 -0.2856  0.4608
  647TMC3    C4 9629   4.308   0.452  14.994  0.3867 -0.3677  0.3792
  647TMC3    C5 9630   4.340   0.424  15.125 -0.0267 -0.2168  0.2470
  647TMC3    C6 9631   4.251   0.363  15.198 -0.4863 -0.5038 -0.5107
  647TMC3     C 9632   4.129   0.491  14.844  0.0725  0.1952 -0.6691
  647TMC3     O 9633   4.008   0.492  14.847  0.1916 -0.2659  0.4006
  647TMC3     H 9634   4.026   0.285  14.976  0.0173  0.6203 -0.2169
  647TMC3    H1 9635   4.381   0.513  14.942  1.5821 -1.6651  0.5421
  647TMC3    H2 9636   4.274   0.366  15.304 -0.2909  0.0284 -0.5650
  647TMC3    C7 9637   4.476   0.411  15.175  0.2020 -0.2018  0.2167
  647TMC3    C8 9638   4.057   0.218  15.221 -0.0778 -0.1630  0.3505
  647TMC3    O1 9639   4.491   0.341  15.273  0.4889  0.0771  0.0465
  647TMC3    O2 9640   4.103   0.179  15.327  0.2335  0.1816  0.2846
  648TMC3    C1 9641   3.282   2.871  16.112 -0.7990  1.1809  0.5007
  648TMC3    C2 9642   3.370   2.766  16.089 -0.3470  0.3543 -0.6536
  648TMC3    C3 9643   3.348   2.683  15.981  0.5469 -0.5428  0.3333
  648TMC3    C4 9644   3.182   2.904  16.025  0.7593  0.5108 -0.2367
  648TMC3    C5 9645   3.166   2.815  15.924  0.0721 -0.0396 -0.1006
  648TMC3    C6 9646   3.248   2.711  15.893  0.8460  0.2432 -0.1885
  648TMC3     C 9647   3.270   2.926  16.241 -0.2202 -0.9185  0.0684
  648TMC3     O 9648   3.224   3.039  16.253 -0.0630 -0.7407 -0.0436
  648TMC3     H 9649   3.448   2.735  16.157 -0.4428 -2.7253 -1.9483
  648TMC3    H1 9650   3.116   2.989  16.041  0.9814  0.7031 -0.3467
  648TMC3    H2 9651   3.224   2.646  15.810  1.7536  1.3622 -1.3278
  648TMC3    C7 9652   3.057   2.832  15.832  1.2506 -0.1340 -0.0191
  648TMC3    C8 9653   3.418   2.558  15.970  0.1968 -0.1952  0.5498
  648TMC3    O1 9654   3.028   2.735  15.764  0.6626  1.1113 -0.7143
  648TMC3    O2 9655   3.532   2.553  16.016  0.1857 -0.0046 -0.3837
  649TMC3    C1 9656   2.403   3.947  13.163 -0.0892 -0.0009  0.0665
  649TMC3    C2 9657   2.495   3.863  13.214  0.1333 -0.1770 -0.0548
  649TMC3    C3 9658   2.455   3.762  13.297  0.5019  0.1448 -0.0493
  649TMC3    C4 9659   2.278   3.942  13.206  0.0416 -0.0283 -0.0258
  649TMC3    C5 9660   2.246   3.849  13.302  0.0176  0.4340 -0.0803
  649TMC3    C6 9661   2.334   3.755  13.356 -0.2269  0.1014  0.6479
  649TMC3     C 9662   2.420   4.018  13.033 -0.3047  0.6096  0.1292
  649TMC3     O 9663   2.340   4.100  12.989  0.1374  0.2204  0.1116
  649TMC3     H 9664   2.595   3.871  13.173  0.2846  2.1451  0.7966
  649TMC3    H1 9665   2.207   4.016  13.171  0.1371 -0.0409 -0.2488
  649TMC3    H2 9666   2.310   3.680  13.431 -0.6281  0.9833  1.3883
  649TMC3    C7 9667   2.113   3.862  13.354 -0.0781  0.3643  0.0001
  649TMC3    C8 9668   2.549   3.663  13.344 -0.1659 -0.0845 -0.8021
  649TMC3    O1 9669   2.065   3.975  13.365 -0.5826 -0.2878  0.0517
  649TMC3    O2 9670   2.500   3.563  13.400 -0.5147 -1.1829 -0.1006
  650TMC3    C1 9671   4.390   1.031  12.546 -0.0184  0.5578  0.6659
  650TMC3    C2 9672   4.289   1.116  12.512 -0.0864 -0.3380  0.0869
  650TMC3    C3 9673   4.306   1.191  12.398 -0.1326 -0.1316  0.3425
  650TMC3    C4 9674   4.498   1.001  12.465 -0.5166  0.7409  0.1397
  650TMC3    C5 9675   4.507   1.081  12.358  0.5508 -0.6181  0.3383
  650TMC3    C6 9676   4.418   1.175  12.323 -0.6393 -0.2998 -0.0672
  650TMC3     C 9677   4.355   0.949  12.662  0.5555  0.7959  0.0616
  650TMC3     O 9678   4.236   0.922  12.679 -0.2095 -0.3270  0.0317
  650TMC3     H 9679   4.203   1.126  12.578  0.0541 -3.1991  0.7256
  650TMC3    H1 9680   4.574   0.926  12.480 -1.3782 -0.4823 -1.5515
  650TMC3    H2 9681   4.434   1.237  12.235  0.7084  0.1749  0.5147
  650TMC3    C7 9682   4.637   1.139  12.341 -0.4531  0.5840  0.1872
  650TMC3    C8 9683   4.227   1.305  12.369 -0.0416  0.1892  0.4010
  650TMC3    O1 9684   4.727   1.056  12.332  0.0665 -0.3749 -0.6809
  650TMC3    O2 9685   4.271   1.388  12.290  0.4597 -0.3544 -0.3150
  651MPD2     C 9686   3.128   3.212  10.549 -0.0630  0.2026 -0.1570
  651MPD2    C1 9687   3.089   3.344  10.551  0.5715 -0.4397 -0.7346
  651MPD2    C2 9688   3.177   3.447  10.526  0.8539 -0.3485 -0.3483
  651MPD2    C3 9689   3.305   3.414  10.490 -0.4589  0.2274 -0.4297
  651MPD2    C4 9690   3.343   3.283  10.481 -0.0087  0.2324 -0.4128
  651MPD2    C5 9691   3.254   3.178  10.504 -0.2005  0.9864  0.3848
  651MPD2     H 9692   3.158   3.554  10.527  1.2242 -0.2806 -0.6546
  651MPD2    H1 9693   3.435   3.251  10.434  1.0428  0.2376  1.6099
  651MPD2    H2 9694   3.066   3.128  10.578 -0.7797  0.1088 -1.9753
  651MPD2    H3 9695   3.280   3.073  10.504 -1.9161  0.5613  1.0358
  651MPD2     N 9696   3.393   3.523  10.456  0.5037  0.2705  0.2929
  651MPD2    H5 9697   3.363   3.620  10.461 -3.0845 -0.7557 -1.1454
  651MPD2    N1 9698   2.957   3.382  10.592 -0.1043 -0.0881  0.0913
  651MPD2    H7 9699   2.941   3.482  10.582  0.6705  0.1152  0.8169
  652TMC3    C1 9700   3.775   3.758  10.359  0.5402 -0.8990  0.8441
  652TMC3    C2 9701   3.712   3.648  10.414 -0.2013 -0.0938 -0.1809
  652TMC3    C3 9702   3.577   3.644  10.415 -0.1433 -0.5248  0.2889
  652TMC3    C4 9703   3.699   3.852  10.295 -0.4541 -0.7238  0.3486
  652TMC3    C5 9704   3.565   3.842  10.297 -0.6671 -0.7412  0.0126
  652TMC3    C6 9705   3.504   3.729  10.335 -0.1289  0.5396  0.6458
  652TMC3     C 9706   3.918   3.743  10.348  0.8293  0.3994  0.5380
  652TMC3     O 9707   3.956   3.645  10.407 -0.0195 -0.2218 -0.4054
  652TMC3     H 9708   3.760   3.569  10.470  0.8159  0.9311  0.3753
  652TMC3    H1 9709   3.736   3.947  10.256 -0.8835 -1.2911 -1.4423
  652TMC3    H2 9710   3.407   3.700  10.297 -0.2875  1.3772  0.4158
  652TMC3    C7 9711   3.483   3.938  10.227  0.3696  0.5645 -0.4252
  652TMC3    C8 9712   3.526   3.515  10.433 -0.8469  0.6762 -0.5950
  652TMC3    O1 9713   3.367   3.945  10.260 -0.2552  0.6147  0.7200
  652TMC3    O2 9714   3.604   3.416  10.432 -0.6145  0.5069  0.7313
  653MPD2     C 9715   2.508   2.752  17.718  0.9914 -0.6798 -0.5440
  653MPD2    C1 9716   2.488   2.858  17.628 -0.4290 -0.1440 -0.0237
  653MPD2    C2 9717   2.437   2.837  17.503 -0.8949  0.2580 -0.3558
  653MPD2    C3 9718   2.415   2.706  17.457  0.4492  0.2942 -0.1162
  653MPD2    C4 9719   2.422   2.603  17.550  0.4417 -0.0029 -0.2220
  653MPD2    C5 9720   2.468   2.631  17.675  0.3320  0.6515 -0.7885
  653MPD2     H 9721   2.425   2.920  17.435  1.9377  2.5128  1.9135
  653MPD2    H1 9722   2.392   2.502  17.527  1.3809 -0.2581 -0.3198
  653MPD2    H2 9723   2.541   2.764   0.063 -0.7449  2.6286 -0.3905
  653MPD2    H3 9724   2.481   2.544  17.739 -0.6093  1.3307  0.3247
  653MPD2     N 9725   2.365   2.687  17.325 -0.8621  0.1109  0.5101
  653MPD2    H5 9726   2.351   2.770  17.268  2.2919  0.8496  0.8025
  653MPD2    N1 9727   2.510   2.997  17.669 -0.5545  0.4260 -0.0636
  653MPD2    H7 9728   2.461   3.070  17.618 -0.6669  0.6921  0.4274
  654TMC3    C1 9729   2.292   2.559  17.131  0.2363 -0.0932  0.3381
  654TMC3    C2 9730   2.220   2.671  17.088 -0.0736 -0.2682 -0.3821
  654TMC3    C3 9731   2.162   2.665  16.966  0.5553 -0.1228 -0.3328
  654TMC3    C4 9732   2.290   2.443  17.056  0.2697  0.5202 -0.1503
  654TMC3    C5 9733   2.235   2.447  16.929  0.3835  0.1968  0.0844
  654TMC3    C6 9734   2.172   2.557  16.874 -0.4039 -0.1782  0.4023
  654TMC3     C 9735   2.353   2.567  17.264 -0.1731  0.2440 -0.2510
  654TMC3     O 9736   2.374   2.461  17.314  0.2773 -0.6022 -0.4765
  654TMC3     H 9737   2.218   2.756  17.157 -2.3902  1.7392 -2.9225
  654TMC3    H1 9738   2.316   2.354  17.111 -0.8893  0.7357  0.7451
  654TMC3    H2 9739   2.119   2.556  16.779 -1.2894  3.8755  0.8450
  654TMC3    C7 9740   2.216   2.323  16.853  0.3514  0.2947 -1.5516
  654TMC3    C8 9741   2.073   2.772  16.927  0.0331 -0.5824 -0.2217
  654TMC3    O1 9742   2.151   2.318  16.749  0.3446 -0.3373  0.1012
  654TMC3    O2 9743   2.027   2.834  17.023  0.4186  0.5000  0.1220
  655MPD2     C 9744   3.774   2.838  15.783 -0.2212 -0.4294  0.5878
  655MPD2    C1 9745   3.701   2.904  15.687  0.8118 -0.2112  0.2242
  655MPD2    C2 9746   3.702   2.862  15.555  0.7434 -0.1091  0.1849
  655MPD2    C3 9747   3.741   2.728  15.527  0.0919  0.4383 -0.0223
  655MPD2    C4 9748   3.818   2.660  15.629  0.8378  0.5576  0.6611
  655MPD2    C5 9749   3.834   2.721  15.751  0.1641 -0.1676  0.2128
  655MPD2     H 9750   3.668   2.937  15.484 -1.6563 -1.3486  0.0293
  655MPD2    H1 9751   3.860   2.562  15.611 -1.5729 -0.6139  1.4488
  655MPD2    H2 9752   3.782   2.865  15.888  1.7992 -2.5905  0.9624
  655MPD2    H3 9753   3.879   2.669  15.835 -0.1496  0.3829  0.7247
  655MPD2     N 9754   3.725   2.675  15.395 -0.0412 -0.8166  0.3787
  655MPD2    H5 9755   3.767   2.589  15.362  1.0228 -0.0291 -0.3301
  655MPD2    N1 9756   3.626   3.020  15.716  0.4399  0.1769  0.5695
  655MPD2    H7 9757   3.589   3.071  15.636 -3.3374 -0.8059  1.6781
  656TMC3    C1 9758   3.501   3.174  15.840 -0.2194 -0.1448  0.4536
  656TMC3    C2 9759   3.408   3.193  15.938 -0.1436 -0.5145 -0.2863
  656TMC3    C3 9760   3.333   3.312  15.934  0.4850  0.4078 -0.5826
  656TMC3    C4 9761   3.535   3.273  15.749 -0.0731  0.5448  0.1784
  656TMC3    C5 9762   3.453   3.380  15.741 -0.8882  0.2035 -0.5840
  656TMC3    C6 9763   3.346   3.404  15.831  0.5429  0.4578  0.4925
  656TMC3     C 9764   3.580   3.049  15.844 -0.6639 -0.3162 -0.3814
  656TMC3     O 9765   3.601   2.993  15.951 -0.0934  0.3903  0.4610
  656TMC3     H 9766   3.391   3.125  16.020  0.6684  1.5305  1.5942
  656TMC3    H1 9767   3.607   3.258  15.670 -1.4649  0.0544 -0.9948
  656TMC3    H2 9768   3.291   3.497  15.826 -1.1095 -0.5019  0.9599
  656TMC3    C7 9769   3.463   3.459  15.623  0.0863 -0.3957  0.2926
  656TMC3    C8 9770   3.199   3.287  15.971  0.0810  0.3777 -0.6182
  656TMC3    O1 9771   3.570   3.463  15.570  0.4383  0.3649  0.4681
  656TMC3    O2 9772   3.138   3.208  15.902 -1.0180  0.2994 -0.1478
  657TMC3    C1 9773   2.773   2.536  14.828 -0.0791  0.3598 -0.0102
  657TMC3    C2 9774   2.731   2.542  14.964  0.3125 -0.0513  0.5010
  657TMC3    C3 9775   2.619   2.618  14.993 -0.2185 -0.2182 -1.0789
  657TMC3    C4 9776   2.697   2.605  14.735  0.1903 -0.6987  0.5488
  657TMC3    C5 9777   2.608   2.695  14.778 -0.0279  0.2682 -0.9882
  657TMC3    C6 9778   2.561   2.700  14.902  0.5479 -0.0558 -0.0537
  657TMC3     C 9779   2.852   2.431  14.782 -1.0529 -0.2444  0.5147
  657TMC3     O 9780   2.850   2.402  14.664 -0.5527 -0.3650 -0.1412
  657TMC3     H 9781   2.771   2.472  15.037  2.3951 -0.0641 -0.6304
  657TMC3    H1 9782   2.721   2.595  14.630 -1.9584 -0.5520  0.0508
  657TMC3    H2 9783   2.466   2.746  14.928  0.9008 -0.5126  2.0241
  657TMC3    C7 9784   2.559   2.781  14.673  0.0856  0.7366  0.2508
  657TMC3    C8 9785   2.566   2.630  15.134  0.7763  0.0294  0.4040
  657TMC3    O1 9786   2.593   2.762  14.557 -1.0289  0.1409  0.1296
  657TMC3    O2 9787   2.601   2.533  15.198  0.8886 -0.7296 -0.1266
  658MPD2     C 9788   4.079   2.594  14.856  0.2347 -0.6630  0.2721
  658MPD2    C1 9789   3.952   2.591  14.812  0.1211 -0.9834  0.4438
  658MPD2    C2 9790   3.932   2.646  14.688 -0.1897  0.9284 -0.5640
  658MPD2    C3 9791   4.027   2.720  14.617  0.4470  0.2210  0.0062
  658MPD2    C4 9792   4.153   2.727  14.677  0.3117 -0.2967 -0.3497
  658MPD2    C5 9793   4.179   2.662  14.793 -0.3400 -0.7382 -0.0739
  658MPD2     H 9794   3.838   2.653  14.635  0.4556 -0.3562 -1.8810
  658MPD2    H1 9795   4.235   2.777  14.627  0.2537 -1.1093 -1.2541
  658MPD2    H2 9796   4.109   2.542  14.946 -1.0702 -0.4393  0.8186
  658MPD2    H3 9797   4.277   2.649  14.837 -0.8654  0.9051  1.5942
  658MPD2     N 9798   3.984   2.783  14.503  0.0504 -0.6759 -0.1700
  658MPD2    H5 9799   3.893   2.754  14.466  0.1526 -0.8449 -0.2917
  658MPD2    N1 9800   3.853   2.545  14.900  0.1550  0.5939  0.4956
  658MPD2    H7 9801   3.879   2.520  14.995  0.1694 -0.1326  0.2957
  659TMC3    C1 9802   3.644   2.538  14.995 -0.5646 -0.4263  0.2140
  659TMC3    C2 9803   3.693   2.591  15.113 -0.1277  0.4103 -0.7425
  659TMC3    C3 9804   3.593   2.616  15.213 -0.0786  0.3258 -0.0396
  659TMC3    C4 9805   3.507   2.518  14.967 -0.1430  0.2344  0.0987
  659TMC3    C5 9806   3.415   2.559  15.066 -0.5624 -0.1291 -0.5596
  659TMC3    C6 9807   3.464   2.613  15.182  0.2568  0.5772  0.0055
  659TMC3     C 9808   3.720   2.555  14.878  0.3623 -0.2648  0.0652
  659TMC3     O 9809   3.658   2.570  14.773 -0.3635 -0.0034  0.6992
  659TMC3     H 9810   3.791   2.632  15.133 -0.5454 -0.1374  2.4739
  659TMC3    H1 9811   3.480   2.465  14.877 -1.3802  0.0420  0.5799
  659TMC3    H2 9812   3.403   2.657  15.260  0.6010 -1.6731  1.5442
  659TMC3    C7 9813   3.285   2.609  15.026  0.3392 -0.0469 -0.6662
  659TMC3    C8 9814   3.617   2.715  15.315  0.3511 -0.9281  0.6609
  659TMC3    O1 9815   3.230   2.676  15.109  0.2433 -0.0915  0.5039
  659TMC3    O2 9816   3.546   2.812  15.316 -0.0632 -0.4255 -0.0160
  660MPD2     C 9817   1.516   1.849  12.664  0.2775 -0.0720 -0.4824
  660MPD2    C1 9818   1.424   1.946  12.696  0.2824 -0.1174 -0.5213
  660MPD2    C2 9819   1.353   1.932  12.816 -0.5483  0.4149  0.0165
  660MPD2    C3 9820   1.360   1.823  12.895 -0.5312  0.9998 -0.5315
  660MPD2    C4 9821   1.461   1.732  12.872  0.6836  0.3946 -0.2134
  660MPD2    C5 9822   1.539   1.747  12.761 -0.0492  0.4912  0.0871
  660MPD2     H 9823   1.282   2.010  12.843 -1.8422 -0.6607 -0.2634
  660MPD2    H1 9824   1.474   1.652  12.944 -0.2885  0.1162 -0.3431
  660MPD2    H2 9825   1.583   1.859  12.579  0.5839  0.0588 -0.2225
  660MPD2    H3 9826   1.620   1.678  12.742 -0.9134  0.0619 -2.0916
  660MPD2     N 9827   1.293   1.813  13.020  0.1697 -0.2609  0.3793
  660MPD2    H5 9828   1.317   1.734  13.079 -0.4100  0.6024  1.7909
  660MPD2    N1 9829   1.414   2.056  12.596  0.4923 -0.4256  0.0085
  660MPD2    H7 9830   1.465   2.049  12.509  1.4509 -0.4214  0.5728
  661TMC3    C1 9831   1.310   2.241  12.492  0.0293  0.0186 -0.2395
  661TMC3    C2 9832   1.375   2.214  12.373  0.9549 -0.2962 -0.8524
  661TMC3    C3 9833   1.314   2.267  12.256  0.6515  0.4377  0.0774
  661TMC3    C4 9834   1.196   2.326  12.494  0.1998 -0.1353 -0.4350
  661TMC3    C5 9835   1.136   2.359  12.378 -0.1969 -0.1113  0.3963
  661TMC3    C6 9836   1.191   2.328  12.254 -0.6939  0.7273  0.2694
  661TMC3     C 9837   1.341   2.170  12.613  1.1467 -0.1957 -1.0248
  661TMC3     O 9838   1.280   2.208  12.709 -0.0591 -0.4018  0.0315
  661TMC3     H 9839   1.470   2.163  12.366  1.1498  0.1518 -1.4628
  661TMC3    H1 9840   1.150   2.352  12.589  0.6997  1.7152 -0.6973
  661TMC3    H2 9841   1.141   2.364  12.165  0.3635  1.1241 -0.1724
  661TMC3    C7 9842   0.990   2.357  12.392 -0.1240  0.4149 -0.7846
  661TMC3    C8 9843   1.394   2.255  12.136  0.2904 -0.3204 -0.5678
  661TMC3    O1 9844   0.953   2.397  12.501  0.3824 -0.2124 -0.3432
  661TMC3    O2 9845   1.483   2.169  12.128  0.0067  0.1260 -0.1638
  662MPD2     C 9846   1.593   1.199  16.891 -0.1895 -0.6185 -0.5866
  662MPD2    C1 9847   1.709   1.229  16.955 -0.1032 -0.1226  0.6357
  662MPD2    C2 9848   1.721   1.322  17.052 -0.0397 -0.0257 -0.1768
  662MPD2    C3 9849   1.615   1.393  17.092  0.3083 -0.3988 -0.2314
  662MPD2    C4 9850   1.497   1.359  17.039 -1.1443  0.0210  0.3087
  662MPD2    C5 9851   1.485   1.268  16.937  0.5990 -0.4389 -0.3903
  662MPD2     H 9852   1.819   1.327  17.097  0.0736  0.2106 -0.4475
  662MPD2    H1 9853   1.401   1.398  17.070 -1.9562 -1.1927 -0.6263
  662MPD2    H2 9854   1.582   1.118  16.820 -1.4417 -0.5151 -0.4969
  662MPD2    H3 9855   1.391   1.250  16.887  0.8504 -1.0977 -0.6220
  662MPD2     N 9856   1.627   1.492  17.194 -0.0376 -0.1376 -0.5218
  662MPD2    H5 9857   1.547   1.527  17.246  1.2915  0.9991  0.7242
  662MPD2    N1 9858   1.834   1.163  16.929  0.2790 -0.4028  0.7948
  662MPD2    H7 9859   1.901   1.161  17.006  0.6464 -2.3809  0.4245
  663TMC3    C1 9860   1.958   0.985  16.884  0.2164 -0.4871  0.2694
  663TMC3    C2 9861   1.960   0.964  17.019 -0.6441  0.0286 -0.5219
  663TMC3    C3 9862   2.080   0.919  17.066  0.0594  0.2792  0.5957
  663TMC3    C4 9863   2.060   0.951  16.796  0.4062 -0.0242 -0.1606
  663TMC3    C5 9864   2.173   0.899  16.849 -0.1709 -0.0796  0.5785
  663TMC3    C6 9865   2.178   0.872  16.985 -0.6043  0.2737  0.1862
  663TMC3     C 9866   1.845   1.062  16.838 -0.0446 -0.5460 -0.3879
  663TMC3     O 9867   1.779   1.029  16.737 -0.1165  0.3290 -0.7878
  663TMC3     H 9868   1.861   0.961  17.064 -0.4891  0.5318 -0.1537
  663TMC3    H1 9869   2.052   0.976  16.691  0.9461 -0.4152 -0.2959
  663TMC3    H2 9870   2.270   0.853  17.037 -0.0625  1.4688 -0.3483
  663TMC3    C7 9871   2.216   0.789  16.774  0.5833 -0.4396 -0.7365
  663TMC3    C8 9872   2.066   0.849  17.189  0.4294  0.4219 -0.0832
  663TMC3    O1 9873   2.208   0.801  16.654 -0.4196  0.1178  0.4887
  663TMC3    O2 9874   2.099   0.734  17.182 -0.9505  0.3867  0.0386
  664MPD2     C 9875   0.191   4.236  17.359 -0.1142 -0.0534 -0.1907
  664MPD2    C1 9876   0.305   4.275  17.429 -0.1261 -0.6499 -0.4464
  664MPD2    C2 9877   0.307   4.255  17.562  0.1150 -0.3773  0.4582
  664MPD2    C3 9878   0.196   4.206  17.631 -0.1064 -0.3753  0.3051
  664MPD2    C4 9879   0.085   4.190  17.562 -0.2230  0.7664 -0.4028
  664MPD2    C5 9880   0.080   4.192  17.428 -0.1024  0.2457  0.5658
  664MPD2     H 9881   0.390   4.288  17.623  0.7447 -2.9096  0.9590
  664MPD2    H1 9882   0.000   4.150  17.617 -0.5628  1.2420 -0.5794
  664MPD2    H2 9883   0.186   4.250  17.251  1.5680  1.3305 -0.0952
  664MPD2    H3 9884   4.729   4.163  17.377 -0.4712  1.8570  0.3135
  664MPD2     N 9885   0.209   4.194   0.016  0.0861  0.0095  0.2529
  664MPD2    H5 9886   0.303   4.193   0.054  0.5727  0.8862 -0.9469
  664MPD2    N1 9887   0.392   4.349  17.364 -0.4586  0.0302 -0.3316
  664MPD2    H7 9888   0.390   4.363  17.264  0.8214  0.7729 -0.2568
  665TMC3    C1 9889   0.158   4.170   0.238  0.2211 -0.1327 -0.2629
  665TMC3    C2 9890   0.057   4.129   0.326 -0.4073 -0.1233  0.1916
  665TMC3    C3 9891   0.060   4.185   0.446  0.3642  0.3420  1.2180
  665TMC3    C4 9892   0.247   4.272   0.275 -0.1215  0.0522 -0.9106
  665TMC3    C5 9893   0.237   4.332   0.394  0.1757 -0.3072  0.0310
  665TMC3    C6 9894   0.145   4.289   0.485  0.5162 -0.0899  0.3236
  665TMC3     C 9895   0.115   4.156   0.101  0.3021 -0.0987  0.2885
  665TMC3     O 9896   4.733   4.139   0.091 -0.7842 -0.6786  0.1919
  665TMC3     H 9897   0.003   4.036   0.313 -0.4375  0.3176 -2.6480
  665TMC3    H1 9898   0.311   4.322   0.204 -0.5333 -2.7591 -3.2418
  665TMC3    H2 9899   0.152   4.312   0.591  1.6022  0.9893  0.0266
  665TMC3    C7 9900   0.367   4.383   0.432  0.2853  0.4928 -0.5102
  665TMC3    C8 9901   4.690   4.161   0.538  0.3482 -0.2691  0.5513
  665TMC3    O1 9902   0.453   4.362   0.349  0.2019 -0.2474  0.0999
  665TMC3    O2 9903   4.701   4.196   0.653 -0.3520  0.2182 -0.0840
  666TMC3    C1 9904   3.508   0.679   9.428 -1.0343  1.1366  0.2630
  666TMC3    C2 9905   3.455   0.582   9.343 -0.5899 -0.2984 -0.2805
  666TMC3    C3 9906   3.534   0.521   9.250 -0.7471 -0.5415  0.3071
  666TMC3    C4 9907   3.646   0.681   9.437 -0.2139 -0.2243 -0.2111
  666TMC3    C5 9908   3.718   0.595   9.366  0.3193  0.5309  0.3335
  666TMC3    C6 9909   3.668   0.526   9.258  0.1290  0.2735  0.1571
  666TMC3     C 9910   3.443   0.712   9.552 -0.0248  0.3825 -0.1775
  666TMC3     O 9911   3.485   0.798   9.627  0.0830  0.4078 -0.3051
  666TMC3     H 9912   3.348   0.569   9.339 -0.4507 -1.0937 -1.2288
  666TMC3    H1 9913   3.685   0.739   9.520 -1.2894  0.0613  0.1027
  666TMC3    H2 9914   3.736   0.491   9.181 -2.8285 -2.1083 -1.3633
  666TMC3    C7 9915   3.837   0.551   9.432  0.1433 -0.0090  0.1578
  666TMC3    C8 9916   3.468   0.463   9.138 -0.0688 -1.0038  0.5057
  666TMC3    O1 9917   3.872   0.607   9.535 -0.4676  0.0358 -0.8332
  666TMC3    O2 9918   3.364   0.509   9.099  0.1119 -0.1979  0.3722
  667MPD2     C 9919   1.011   4.165  15.112 -0.5532 -0.7781  0.1720
  667MPD2    C1 9920   0.913   4.255  15.153  0.0144  0.7216  0.4536
  667MPD2    C2 9921   0.781   4.218  15.154 -0.1794  0.3022  0.2866
  667MPD2    C3 9922   0.744   4.096  15.110  0.4677 -0.3084  0.2116
  667MPD2    C4 9923   0.840   4.003  15.089  0.0753  0.2052  0.0560
  667MPD2    C5 9924   0.971   4.038  15.088  0.0653 -0.2851 -0.0046
  667MPD2     H 9925   0.712   4.288  15.201  0.5014  0.3713  1.1717
  667MPD2    H1 9926   0.821   3.901  15.057  2.1575  0.2514 -1.3143
  667MPD2    H2 9927   1.116   4.188  15.112 -1.2049  2.1884  0.3533
  667MPD2    H3 9928   1.053   3.966  15.089  0.7879  0.5088 -1.7328
  667MPD2     N 9929   0.606   4.058  15.114  0.1206 -0.4571 -0.1919
  667MPD2    H5 9930   0.581   3.961  15.096 -1.5052 -0.3255  1.3623
  667MPD2    N1 9931   0.945   4.392  15.194 -0.5481  0.0895 -0.6903
  667MPD2    H7 9932   0.871   4.457  15.220 -0.4908 -0.6803  1.3759
  668TMC3    C1 9933   1.082   4.552  15.294 -0.6485 -0.1899  1.1392
  668TMC3    C2 9934   1.207   4.625  15.281 -1.0361  0.2634 -0.3607
  668TMC3    C3 9935   1.254   4.686  15.395  0.4996  0.4195 -0.4454
  668TMC3    C4 9936   1.032   4.537  15.424  0.6778 -0.0405  0.2294
  668TMC3    C5 9937   1.110   4.569  15.532  0.3322  0.4207  0.8238
  668TMC3    C6 9938   1.216   4.650  15.517  0.4718 -0.3193  0.3496
  668TMC3     C 9939   1.072   4.436  15.208  0.6727 -0.4875  0.2509
  668TMC3     O 9940   1.179   4.402  15.161 -0.5739  0.2087 -0.3238
  668TMC3     H 9941   1.258   4.648  15.188 -1.6837  0.8708 -0.5629
  668TMC3    H1 9942   0.940   4.482  15.438 -0.3582  1.4975 -0.5296
  668TMC3    H2 9943   1.258   4.693  15.606 -1.2088  0.3332  0.8362
  668TMC3    C7 9944   1.071   4.517  15.656  0.0903 -0.0767 -0.0076
  668TMC3    C8 9945   1.314   0.080  15.388  0.3972  0.0485 -0.7329
  668TMC3    O1 9946   0.966   4.455  15.663 -0.4842 -0.4725 -0.4444
  668TMC3    O2 9947   1.362   0.127  15.491 -0.4167  0.1332  0.0090
  669TMC3    C1 9948   3.719   4.440  14.997 -0.3124 -0.2958  0.6369
  669TMC3    C2 9949   3.649   4.501  14.900 -0.2058 -1.1692  1.6255
  669TMC3    C3 9950   3.708   4.610  14.837  0.2538 -0.3906 -0.1215
  669TMC3    C4 9951   3.856   4.466  15.014  0.2553 -0.2053  0.1191
  669TMC3    C5 9952   3.912   4.563  14.939 -0.3893  0.6164  0.2480
  669TMC3    C6 9953   3.841   4.631  14.845  0.9504 -0.3876 -0.2452
  669TMC3     C 9954   3.664   4.333  15.079  0.2488  0.4239  0.1998
  669TMC3     O 9955   3.542   4.322  15.080 -0.4250  0.4642 -0.1442
  669TMC3     H 9956   3.542   4.484  14.903 -0.4220 -0.0389 -0.0145
  669TMC3    H1 9957   3.903   4.459  15.112  1.2948  0.4264 -0.3390
  669TMC3    H2 9958   3.886   4.703  14.778  2.2474 -0.2987  0.7232
  669TMC3    C7 9959   4.035   4.623  14.988  0.3740 -0.0072 -0.0338
  669TMC3    C8 9960   3.634   4.677  14.731  0.2253 -0.8939  0.1284
  669TMC3    O1 9961   4.059   4.728  14.933 -0.1652 -0.2267  0.9398
  669TMC3    O2 9962   3.676   0.045  14.687  0.5742 -0.1251  0.2986
  670MPD2     C 9963   1.871   2.009  13.634  0.0834 -0.1494 -0.8868
  670MPD2    C1 9964   1.987   1.942  13.666  0.5143  0.1764 -0.1960
  670MPD2    C2 9965   2.016   1.925  13.805 -0.4185  0.2042  0.6724
  670MPD2    C3 9966   1.930   1.978  13.902 -0.9865  0.0326  0.4507
  670MPD2    C4 9967   1.836   2.067  13.862  0.1433 -0.2825  0.2586
  670MPD2    C5 9968   1.806   2.079  13.727 -0.2761  0.1624 -0.7400
  670MPD2     H 9969   2.102   1.871  13.842  1.0334  1.8039 -0.3446
  670MPD2    H1 9970   1.776   2.128  13.930  0.9158  2.1390 -1.2252
  670MPD2    H2 9971   1.850   2.018  13.528 -0.0585  0.0512 -0.8421
  670MPD2    H3 9972   1.717   2.134  13.697 -1.0363 -0.8408 -0.3429
  670MPD2     N 9973   1.959   1.955  14.038  0.4934 -0.1493  0.4799
  670MPD2    H5 9974   2.027   1.881  14.053  0.2911 -0.8270 -1.9635
  670MPD2    N1 9975   2.063   1.868  13.573  0.2156 -0.8331  0.4956
  670MPD2    H7 9976   2.144   1.821  13.612 -1.0113 -2.3311  1.2046
  671TMC3    C1 9977   1.906   1.902  14.256 -0.2342  0.2475 -0.1599
  671TMC3    C2 9978   2.030   1.883  14.292  0.6012 -0.0852 -0.1903
  671TMC3    C3 9979   2.071   1.773  14.349 -0.1493 -0.1639 -0.4873
  671TMC3    C4 9980   1.810   1.810  14.286  0.1476 -0.2466 -0.0856
  671TMC3    C5 9981   1.852   1.694  14.342 -0.3892  0.2713  0.0519
  671TMC3    C6 9982   1.984   1.678  14.378  0.4934  0.4664  0.0260
  671TMC3     C 9983   1.876   1.990  14.142 -0.0576 -0.2790 -0.5978
  671TMC3     O 9984   1.766   2.038  14.146  0.2236  0.6006  0.4040
  671TMC3     H 9985   2.108   1.951  14.260 -0.1057  0.3440 -0.9709
  671TMC3    H1 9986   1.716   1.818  14.231 -0.2087  0.3735  0.6096
  671TMC3    H2 9987   2.023   1.582  14.408  0.0598  0.7175  1.4219
  671TMC3    C7 9988   1.800   1.586  14.266  0.4733 -0.5258  0.2177
  671TMC3    C8 9989   2.205   1.731  14.333  0.8193  0.2144 -0.0436
  671TMC3    O1 9990   1.874   1.536  14.181  0.0868 -0.1181 -0.5536
  671TMC3    O2 9991   2.257   1.790  14.240 -0.3889  0.1131 -0.3483
  672MPD2     C 9992   2.546   2.027   0.812 -0.3269  0.1829  0.3287
  672MPD2    C1 9993   2.577   2.152   0.763 -0.9596 -0.0878  0.7829
  672MPD2    C2 9994   2.604   2.252   0.848  0.0246 -0.4558 -0.1104
  672MPD2    C3 9995   2.608   2.226   0.982 -0.5328 -0.2134  0.6064
  672MPD2    C4 9996   2.580   2.100   1.028  0.4229 -0.0350  0.7473
  672MPD2    C5 9997   2.551   1.997   0.941  0.2582  0.3118  0.2168
  672MPD2     H 9998   2.640   2.346   0.808 -0.6740 -0.0952  0.1065
  672MPD2    H1 9999   2.571   2.079   1.134  0.1110  0.0930  0.7463
  672MPD2    H210000   2.516   1.945   0.747  1.1926  0.1487 -0.3308
  672MPD2    H310001   2.520   1.900   0.978 -2.3019  0.8749 -0.4861
  672MPD2     N10002   2.667   2.316   1.071  0.2309  0.4140 -0.4887
  672MPD2    H510003   2.689   2.281   1.164  0.2011 -2.9162 -1.7293
  672MPD2    N110004   2.591   2.172   0.622 -0.3631 -0.2553 -0.1527
  672MPD2    H710005   2.630   2.262   0.598 -1.5542 -0.1485 -1.6491
  673TMC3    C110006   2.674   2.111   0.406 -0.1158  0.6313 -0.3386
  673TMC3    C210007   2.765   2.027   0.356 -0.2444 -0.3314  0.0423
  673TMC3    C310008   2.844   2.074   0.253 -0.2181 -0.3442  0.7101
  673TMC3    C410009   2.661   2.240   0.367 -0.1348 -0.5300  0.2605
  673TMC3    C510010   2.725   2.283   0.254  0.2977  0.4392 -0.8468
  673TMC3    C610011   2.825   2.207   0.207  0.1656 -0.7308  0.5667
  673TMC3     C10012   2.607   2.067   0.526  0.4542  1.3924  0.6610
  673TMC3     O10013   2.583   1.945   0.537 -0.0207  0.1083  0.5098
  673TMC3     H10014   2.762   1.924   0.387 -1.9196 -0.2443  0.1750
  673TMC3    H110015   2.569   2.291   0.396  1.0179  0.3187  2.3741
  673TMC3    H210016   2.909   2.249   0.153 -0.9487 -0.4383 -0.9290
  673TMC3    C710017   2.745   2.427   0.248  1.1296  0.8446  0.5987
  673TMC3    C810018   2.976   2.027   0.244 -0.9328 -0.4177  0.0011
  673TMC3    O110019   2.854   2.463   0.205 -0.0480 -0.4502  0.9547
  673TMC3    O210020   3.043   2.039   0.142  0.1630  0.1507  0.1492
  674MPD2     C10021   2.279   1.974  17.192 -0.2308 -0.1182  0.1916
  674MPD2    C110022   2.310   1.862  17.258  0.4292 -0.7990 -0.4799
  674MPD2    C210023   2.365   1.861  17.385  0.6190 -0.5385  0.5768
  674MPD2    C310024   2.415   1.977  17.441 -0.5296 -0.3059 -0.6054
  674MPD2    C410025   2.409   2.095  17.364 -0.3400 -0.4665  0.1050
  674MPD2    C510026   2.334   2.090  17.246 -0.0938 -0.2616 -0.4674
  674MPD2     H10027   2.374   1.772  17.445 -1.1548 -1.5958 -0.7040
  674MPD2    H110028   2.447   2.191  17.398  0.1278 -0.6606  0.1446
  674MPD2    H210029   2.208   1.972  17.110 -1.7766  1.3046  1.4907
  674MPD2    H310030   2.294   2.181  17.204 -1.8096 -0.2483  1.2066
  674MPD2     N10031   2.471   1.978  17.570 -0.2163  0.2459 -0.1517
  674MPD2    H510032   2.467   1.886  17.613 -2.0521  0.6077  0.4400
  674MPD2    N110033   2.263   1.741  17.205 -0.0706  0.4569 -0.3904
  674MPD2    H710034   2.284   1.656  17.257  0.7170  1.0923  0.3075
  675TMC3    C110035   2.225   1.575  17.040 -0.2288 -0.1362 -0.3575
  675TMC3    C210036   2.172   1.501  17.137  0.2489  0.2035 -0.0865
  675TMC3    C310037   2.155   1.371  17.108  0.1445 -0.5453  0.1728
  675TMC3    C410038   2.274   1.534  16.920 -0.4622 -0.3971  0.1613
  675TMC3    C510039   2.251   1.399  16.896 -0.5100 -0.1636  0.3026
  675TMC3    C610040   2.195   1.312  16.987 -0.2750  0.0170 -0.4349
  675TMC3     C10041   2.235   1.717  17.071 -0.0909  0.2804  0.8319
  675TMC3     O10042   2.233   1.794  16.975 -0.3376  0.4070 -0.1314
  675TMC3     H10043   2.103   1.545  17.208  2.4802  0.4059  1.9466
  675TMC3    H110044   2.300   1.611  16.849 -2.5490 -0.7245 -0.9710
  675TMC3    H210045   2.166   1.209  16.971 -0.8336  0.2193 -0.7045
  675TMC3    C710046   2.313   1.327  16.785  0.5631 -0.4341 -0.1550
  675TMC3    C810047   2.073   1.299  17.204 -0.0915  0.3919 -0.4483
  675TMC3    O110048   2.287   1.213  16.764 -0.6643  0.0549  0.4037
  675TMC3    O210049   2.010   1.203  17.163 -0.1068  0.2476  0.0884
  676MPD2     C10050   4.279   1.058  11.105 -0.4860 -0.2500  0.1644
  676MPD2    C110051   4.264   0.989  11.225  0.4402 -0.1150 -0.0817
  676MPD2    C210052   4.250   0.854  11.230  0.1010 -0.6474 -0.3147
  676MPD2    C310053   4.252   0.784  11.116  0.6405 -0.0425  0.7040
  676MPD2    C410054   4.285   0.853  11.003 -0.5013  0.1498 -0.0178
  676MPD2    C510055   4.300   0.986  10.997 -0.2530  0.0422  0.0668
  676MPD2     H10056   4.215   0.816  11.326 -2.6273  0.6171 -0.8100
  676MPD2    H110057   4.274   0.799  10.910  0.1271  0.4460 -0.2621
  676MPD2    H210058   4.290   1.165  11.095 -1.2074 -0.1576  0.3737
  676MPD2    H310059   4.327   1.038  10.906 -1.5057 -0.2914 -0.5028
  676MPD2     N10060   4.230   0.642  11.105  0.0690 -0.0476 -0.2828
  676MPD2    H510061   4.254   0.603  11.014 -1.6049  0.3339 -0.8950
  676MPD2    N110062   4.264   1.060  11.351  0.5994 -0.4298 -0.0054
  676MPD2    H710063   4.284   1.002  11.432 -0.7878  1.8419  1.9692
  677TMC3    C110064   4.292   1.226  11.502 -0.4318 -0.5521 -0.0115
  677TMC3    C210065   4.263   1.134  11.600 -0.8161 -0.0204 -0.0094
  677TMC3    C310066   4.262   1.183  11.729 -0.3888  0.0206 -0.5239
  677TMC3    C410067   4.338   1.352  11.533 -0.0389 -0.0024 -0.2800
  677TMC3    C510068   4.354   1.386  11.662  0.4038 -0.3439  0.1204
  677TMC3    C610069   4.312   1.309  11.763 -0.2728 -0.0405  0.7002
  677TMC3     C10070   4.277   1.194  11.364 -0.6502 -0.3670 -0.0952
  677TMC3     O10071   4.282   1.281  11.283 -0.3839 -0.3249 -0.0542
  677TMC3     H10072   4.221   1.035  11.582  2.4664 -1.6854  1.5206
  677TMC3    H110073   4.356   1.429  11.459 -1.0519 -0.1009 -0.6205
  677TMC3    H210074   4.311   1.348  11.864 -2.4957  1.5561  0.0480
  677TMC3    C710075   4.344   1.525  11.700 -0.7253 -0.1512  0.1555
  677TMC3    C810076   4.254   1.082  11.831 -0.1551  0.2168 -0.3637
  677TMC3    O110077   4.272   1.552  11.793 -0.1587 -0.1521 -0.0596
  677TMC3    O210078   4.272   0.964  11.797  0.1967 -0.3565 -0.2470
  678MPD2     C10079   1.412   0.727   1.480 -0.0814 -0.3513 -0.0939
  678MPD2    C110080   1.419   0.688   1.352  0.5555 -0.4098  0.3908
  678MPD2    C210081   1.322   0.600   1.298 -0.4259 -0.3915  0.7291
  678MPD2    C310082   1.217   0.556   1.375 -0.1989  0.1187 -0.1449
  678MPD2    C410083   1.212   0.602   1.504 -0.2783 -0.2140  0.6275
  678MPD2    C510084   1.313   0.670   1.557  0.3484 -0.2236 -0.3401
  678MPD2     H10085   1.340   0.567   1.197  1.5854 -2.2314  1.6892
  678MPD2    H110086   1.137   0.567   1.573  1.4709 -0.8781  2.1864
  678MPD2    H210087   1.496   0.769   1.534 -0.7175 -0.7566  1.2209
  678MPD2    H310088   1.301   0.696   1.662 -1.5770 -1.4328 -0.2697
  678MPD2     N10089   1.124   0.458   1.326 -0.6333  0.0947 -0.5810
  678MPD2    H510090   1.131   0.449   1.225 -0.7649  1.3576 -0.6962
  678MPD2    N110091   1.519   0.731   1.264  0.0343 -0.7495  0.6162
  678MPD2    H710092   1.518   0.685   1.173 -0.5598  0.7332 -0.1395
  679TMC3    C110093   1.762   1.019   0.997 -0.0864  0.1919  0.2383
  679TMC3    C210094   1.729   0.969   1.122 -0.3597 -0.2685  0.2234
  679TMC3    C310095   1.626   0.879   1.135 -0.0942 -0.2833  0.2157
  679TMC3    C410096   1.701   0.984   0.889  0.1720  0.4059  0.6007
  679TMC3    C510097   1.602   0.896   0.906 -0.2480  0.3701  0.1642
  679TMC3    C610098   1.553   0.840   1.022 -0.3802  0.4201  0.2784
  679TMC3     C10099   1.901   1.040   0.985  0.5970 -0.3264  0.2436
  679TMC3     O10100   1.957   1.106   1.073 -0.2767  0.3285 -0.4107
  679TMC3     H10101   1.795   0.986   1.206 -1.9249  2.1482  0.9803
  679TMC3    H110102   1.731   1.024   0.792  0.0384 -0.1380  0.3346
  679TMC3    H210103   1.478   0.762   1.030  0.5319 -0.2858  1.9554
  679TMC3    C710104   1.526   0.894   0.783  0.2594 -0.4473 -0.5844
  679TMC3    C810105   1.586   0.849   1.267  0.0930  0.2646 -0.1499
  679TMC3    O110106   1.590   0.859   0.686 -0.0360 -0.3070  0.1419
  679TMC3    O210107   1.590   0.933   1.351  0.7769  0.0146 -0.5894
  680MPD2     C10108   1.553   0.017  13.703  0.6198 -0.0236 -0.0109
  680MPD2    C110109   1.614   4.637  13.733 -0.1449  0.2024 -0.1814
  680MPD2    C210110   1.749   4.643  13.756 -0.0734  0.3212 -0.3214
  680MPD2    C310111   1.810   0.020  13.735  0.0909  0.4740  0.3833
  680MPD2    C410112   1.750   0.141  13.706 -0.5143 -0.0899  0.0345
  680MPD2    C510113   1.615   0.136  13.684  0.9398  0.0336  0.2431
  680MPD2     H10114   1.795   4.552  13.793 -0.8557 -0.4070 -1.1492
  680MPD2    H110115   1.801   0.236  13.693  1.1578 -0.7522  1.7411
  680MPD2    H210116   1.446   0.015  13.688  0.7279  1.4273 -0.9612
  680MPD2    H310117   1.554   0.222  13.661  2.0676  0.9421  0.6814
  680MPD2     N10118   1.948   0.015  13.739  0.0764 -0.1143 -0.2341
  680MPD2    H510119   1.992   4.673  13.781  3.2508  0.7363 -1.9379
  680MPD2    N110120   1.540   4.509  13.737  0.1290  0.7237 -0.1908
  680MPD2    H710121   1.439   4.514  13.741  0.1991  0.2966  1.8392
  681TMC3    C110122   1.522   4.275  13.737  0.8575  0.0626 -0.6581
  681TMC3    C210123   1.412   4.290  13.820 -0.6664  0.0823 -1.2829
  681TMC3    C310124   1.367   4.179  13.887  0.5968 -0.1993  0.2956
  681TMC3    C410125   1.580   4.155  13.727  0.0684  0.5538 -0.3828
  681TMC3    C510126   1.523   4.045  13.777  0.4399 -0.4475  0.0348
  681TMC3    C610127   1.421   4.051  13.865  0.6314  0.4948 -0.1354
  681TMC3     C10128   1.607   4.386  13.728  0.0813 -0.3972  0.0538
  681TMC3     O10129   1.721   4.369  13.683 -0.0138 -0.1235  0.4854
  681TMC3     H10130   1.363   4.385  13.839 -1.4278 -0.5672 -0.0335
  681TMC3    H110131   1.666   4.149  13.661  0.7845 -2.7386  0.8964
  681TMC3    H210132   1.376   3.960  13.904 -1.5780  2.9088  2.9011
  681TMC3    C710133   1.582   3.912  13.749  0.0294 -0.1031  0.1777
  681TMC3    C810134   1.332   4.207  14.023 -0.0510  0.5437  0.5936
  681TMC3    O110135   1.557   3.820  13.830  0.3260  0.3945  0.2929
  681TMC3    O210136   1.267   4.308  14.046 -0.0723 -0.4148 -0.3704
  682MPD2     C10137   4.069   0.826  10.266  0.0906 -0.8953 -0.5083
  682MPD2    C110138   3.968   0.729  10.282  0.4876  0.0253 -0.2325
  682MPD2    C210139   3.851   0.765  10.350 -0.5393 -0.4439  0.7022
  682MPD2    C310140   3.831   0.888  10.404  0.2155 -0.6462 -0.6961
  682MPD2    C410141   3.928   0.984  10.375 -0.4221  0.1305 -0.4580
  682MPD2    C510142   4.041   0.952  10.307 -0.5860 -0.4270 -0.2884
  682MPD2     H10143   3.785   0.681  10.368  0.5521 -1.5231 -0.3573
  682MPD2    H110144   3.920   1.085  10.413 -1.2147  0.5313 -1.6912
  682MPD2    H210145   4.167   0.823  10.222  0.2296  0.8368 -0.3208
  682MPD2    H310146   4.112   1.034  10.294 -0.2359 -0.5400  0.8819
  682MPD2     N10147   3.715   0.918  10.482 -0.7917  0.5509 -0.2812
  682MPD2    H510148   3.720   1.001  10.540  1.5042 -1.2668  2.1888
  682MPD2    N110149   3.987   0.596  10.239  0.1155 -0.5420  0.9673
  682MPD2    H710150   3.925   0.520  10.264  1.5235 -1.6496  1.1217
  683TMC3    C110151   3.469   0.870  10.821 -0.3280  0.0004  0.4156
  683TMC3    C210152   3.352   0.818  10.806 -0.0938  0.1763 -0.1056
  683TMC3    C310153   3.310   0.797  10.675 -0.1511  0.2333 -0.0402
  683TMC3    C410154   3.559   0.899  10.724  0.2061  0.4552 -0.8790
  683TMC3    C510155   3.516   0.867  10.599 -0.2299  0.1726 -0.0290
  683TMC3    C610156   3.387   0.827  10.567  0.1595 -0.0751  0.1129
  683TMC3     C10157   3.493   0.920  10.959  0.0041  0.1778  0.2210
  683TMC3     O10158   3.537   1.038  10.966 -0.2417  0.3536  0.0043
  683TMC3     H10159   3.276   0.832  10.882 -1.2470 -0.4208 -1.1416
  683TMC3    H110160   3.662   0.927  10.742  0.3000  0.2731 -1.1270
  683TMC3    H210161   3.352   0.810  10.466 -1.4272 -0.7721  0.7869
  683TMC3    C710162   3.612   0.831  10.499  0.0299  0.1339  0.2198
  683TMC3    C810163   3.206   0.701  10.646 -0.3608 -0.3371 -0.6227
  683TMC3    O110164   3.573   0.736  10.438  1.0377  0.5493  0.2220
  683TMC3    O210165   3.171   0.697  10.527 -0.5655  0.5487 -0.7963
  684MPD2     C10166   1.991   0.105  16.564  0.2416 -0.0528  0.3011
  684MPD2    C110167   1.967   0.108  16.429  1.1167  0.1172 -0.0308
  684MPD2    C210168   1.934   0.231  16.366  1.0745 -0.0573 -0.4299
  684MPD2    C310169   1.950   0.346  16.435  0.0898  0.0058 -0.2017
  684MPD2    C410170   1.988   0.344  16.567  0.3223 -0.5616 -1.1536
  684MPD2    C510171   2.013   0.225  16.630 -0.5310  0.3335  0.3246
  684MPD2     H10172   1.930   0.227  16.257 -1.9832  1.4308 -0.3992
  684MPD2    H110173   2.006   0.436  16.621 -1.6167 -2.0420  2.0321
  684MPD2    H210174   2.037   0.015  16.604 -0.0588  0.0538  0.8808
  684MPD2    H310175   2.045   0.225  16.734 -1.0035 -1.3834  0.4745
  684MPD2     N10176   1.959   0.466  16.374  0.2154  0.1807 -0.3527
  684MPD2    H510177   1.991   0.542  16.434 -2.9029  0.9432  0.3619
  684MPD2    N110178   1.974   4.735  16.352  0.2559 -0.7557  0.0447
  684MPD2    H710179   1.935   0.019  16.261  0.7426 -0.9072 -0.2031
  685TMC3    C110180   2.109   4.586  16.244 -0.2104 -0.3667  0.3666
  685TMC3    C210181   2.044   4.627  16.129  0.1277  0.5064 -0.1746
  685TMC3    C310182   2.119   4.638  16.022 -0.2878 -0.2177 -0.5690
  685TMC3    C410183   2.245   4.559  16.243  0.8363  0.3117  0.0657
  685TMC3    C510184   2.316   4.571  16.126  0.4620  0.2500 -0.4569
  685TMC3    C610185   2.254   4.624  16.012 -0.5302  0.4749 -0.0337
  685TMC3     C10186   2.058   4.627  16.369 -0.2135  0.2979 -0.4277
  685TMC3     O10187   2.118   4.593  16.470 -0.6137  0.0227 -0.6278
  685TMC3     H10188   1.936   4.641  16.122 -0.0791 -0.1583  1.8722
  685TMC3    H110189   2.304   4.556  16.334  0.4644 -2.6018  0.1927
  685TMC3    H210190   2.303   4.629  15.915 -2.5556 -2.3080 -1.2113
  685TMC3    C710191   2.462   4.575  16.152  0.1751  0.7612 -0.5627
  685TMC3    C810192   2.036   4.652  15.898 -0.5480 -0.1841 -0.2318
  685TMC3    O110193   2.508   4.497  16.237  0.2401  0.2162 -0.2628
  685TMC3    O210194   2.046   4.561  15.813  0.0461 -0.2293  0.0861
  686MPD2     C10195   3.344   0.107  15.634 -0.4069  0.6682 -0.1995
  686MPD2    C110196   3.386   0.042  15.747  1.1533  0.3619  0.3689
  686MPD2    C210197   3.520   0.001  15.762 -0.5005  0.2061 -0.0106
  686MPD2    C310198   3.608   0.031  15.661 -0.0898  0.4896  0.3902
  686MPD2    C410199   3.566   0.100  15.547 -0.7194  0.8120  0.1599
  686MPD2    C510200   3.438   0.141  15.538 -0.4531 -0.3364  0.6166
  686MPD2     H10201   3.546   4.680  15.848 -2.5974  1.9903  1.8796
  686MPD2    H110202   3.624   0.109  15.456  2.3786  0.2902  2.0712
  686MPD2    H210203   3.240   0.126  15.612 -1.1316  0.1020  2.7700
  686MPD2    H310204   3.404   0.188  15.446 -1.5313  1.0139  1.7011
  686MPD2     N10205   3.747   4.722  15.659  0.3743 -0.2483  0.2422
  686MPD2    H510206   3.801   0.032  15.588  1.4014 -0.5300  0.8346
  686MPD2    N110207   3.277   0.001  15.831  0.1654 -0.4455  0.1523
  686MPD2    H710208   3.187   0.041  15.805  0.5248  0.3014  0.0565
  687TMC3    C110209   3.746   4.525  15.802 -0.7451 -0.9697 -0.3823
  687TMC3    C210210   3.633   4.469  15.746  0.5127 -0.2417 -0.0345
  687TMC3    C310211   3.597   4.343  15.794  0.0410 -0.1795 -0.6309
  687TMC3    C410212   3.814   4.476  15.908 -0.4416  0.2351  0.0026
  687TMC3    C510213   3.766   4.354  15.953 -0.3555  0.3920 -0.3226
  687TMC3    C610214   3.664   4.288  15.899  0.1242 -0.6910  0.6478
  687TMC3     C10215   3.816   4.639  15.745 -0.2699 -0.1830 -0.0957
  687TMC3     O10216   3.936   4.620  15.753 -0.3152  0.3315  0.0983
  687TMC3     H10217   3.598   4.506  15.650  0.5935 -0.6674 -0.2331
  687TMC3    H110218   3.894   4.537  15.949  0.9324 -0.7933 -1.1823
  687TMC3    H210219   3.623   4.197  15.942  0.8677 -0.6957  1.3375
  687TMC3    C710220   3.852   4.305  16.062 -0.6495 -0.4195  0.6609
  687TMC3    C810221   3.465   4.291  15.762  0.2840  0.0409  0.0452
  687TMC3    O110222   3.936   4.378  16.115 -0.4172 -0.4050  0.4619
  687TMC3    O210223   3.430   4.179  15.804 -0.0374  0.1785 -0.1822
  688MPD2     C10224   2.648   3.707  17.484  0.1072  0.8082 -0.3427
  688MPD2    C110225   2.684   3.573  17.485  0.1716  0.0332  0.4985
  688MPD2    C210226   2.759   3.525  17.382 -0.0942  0.0204 -0.0403
  688MPD2    C310227   2.813   3.609  17.285 -0.2300  0.3438 -0.1017
  688MPD2    C410228   2.773   3.745  17.288 -0.6884 -0.4842 -0.5660
  688MPD2    C510229   2.685   3.789  17.382  0.1163 -0.0032  0.1055
  688MPD2     H10230   2.786   3.421  17.369  2.2083  0.7918 -1.5077
  688MPD2    H110231   2.808   3.812  17.210  4.2580  0.5961  2.5625
  688MPD2    H210232   2.591   3.750  17.566  1.2752  0.5085  0.6439
  688MPD2    H310233   2.653   3.892  17.374  0.3639  0.1025  0.4543
  688MPD2     N10234   2.884   3.565  17.171  0.4605 -0.0014  0.3753
  688MPD2    H510235   2.902   3.636  17.101 -0.6850  0.5948  0.6942
  688MPD2    N110236   2.644   3.485  17.584  0.0196  0.5434 -0.5667
  688MPD2    H710237   2.668   3.389  17.563 -1.4700 -0.3317  1.7618
  689TMC3    C110238   2.568   3.396   0.027  0.1294  0.0292  0.4632
  689TMC3    C210239   2.555   3.419   0.167 -0.0494 -0.2416  0.6449
  689TMC3    C310240   2.544   3.305   0.246 -0.7142  0.3732 -0.0393
  689TMC3    C410241   2.572   3.270  17.732  0.3399 -0.0194  0.0909
  689TMC3    C510242   2.563   3.164   0.067 -0.5271 -0.1701 -0.0052
  689TMC3    C610243   2.570   3.179   0.201  0.8717 -0.0781  1.1172
  689TMC3     C10244   2.579   3.515  17.699 -0.1744  0.0685  0.1649
  689TMC3     O10245   2.544   3.620  17.749 -0.4591 -0.2246  0.0848
  689TMC3     H10246   2.551   3.519   0.209 -2.1792 -0.7923  1.7790
  689TMC3    H110247   2.586   3.241  17.629 -2.2552 -2.5906  0.4783
  689TMC3    H210248   2.566   3.090   0.263  4.3718 -0.6314  0.5699
  689TMC3    C710249   2.583   3.026   0.023 -0.2069 -0.6766 -0.3036
  689TMC3    C810250   2.500   3.319   0.382  0.5516  0.2977  0.1852
  689TMC3    O110251   2.673   2.965   0.085  0.2720  0.3097 -0.0668
  689TMC3    O210252   2.516   3.228   0.464  0.1281 -0.0327  0.7323
  690MPD2     C10253   0.250   0.756  15.961  0.1351 -0.4717  0.0076
  690MPD2    C110254   0.188   0.725  15.843  0.0806  0.8069 -0.9036
  690MPD2    C210255   0.241   0.750  15.715 -0.2394 -1.0504  0.2655
  690MPD2    C310256   0.367   0.820  15.717  0.0831 -0.3431  0.1264
  690MPD2    C410257   0.431   0.860  15.833  1.2769  0.2446 -0.1974
  690MPD2    C510258   0.371   0.824  15.953 -0.0242 -0.8087 -0.1949
  690MPD2     H10259   0.185   0.723  15.626 -0.0836  1.8341 -0.7317
  690MPD2    H110260   0.528   0.909  15.839 -0.2261  3.0579  0.8795
  690MPD2    H210261   0.205   0.726  16.055 -0.7480 -0.2956 -0.3614
  690MPD2    H310262   0.420   0.847  16.047  1.0580  1.9864 -1.4449
  690MPD2     N10263   0.423   0.846  15.591 -0.2073  0.4993 -0.0220
  690MPD2    H510264   0.367   0.814  15.512  0.4187  0.3459 -0.4002
  690MPD2    N110265   0.053   0.663  15.844  0.6530 -0.2947  0.0129
  690MPD2    H710266   0.018   0.620  15.759  0.0031  1.0443 -0.3842
  691TMC3    C110267   4.606   0.556  15.948 -1.2810  0.0666 -0.8527
  691TMC3    C210268   4.493   0.584  16.011 -0.0432 -0.6100  0.1717
  691TMC3    C310269   4.389   0.497  16.015 -0.1526  0.3162 -0.4330
  691TMC3    C410270   4.617   0.452  15.864  0.4380 -0.5211 -0.4268
  691TMC3    C510271   4.519   0.359  15.882  0.4406 -0.3768  0.0422
  691TMC3    C610272   4.405   0.373  15.956 -0.2273  0.1282  1.0332
  691TMC3     C10273   4.715   0.656  15.956 -0.2588 -0.3077  0.0009
  691TMC3     O10274   4.711   0.735  16.048  0.1619  0.5775 -0.1579
  691TMC3     H10275   4.486   0.677  16.066 -0.7215 -1.9303  2.3431
  691TMC3    H110276   4.705   0.439  15.802  1.0871 -1.8096  0.7721
  691TMC3    H210277   4.327   0.298  15.948  0.9846 -0.9793 -0.3726
  691TMC3    C710278   4.554   0.228  15.839 -0.5453 -0.0703  0.2351
  691TMC3    C810279   4.260   0.537  16.044 -0.0405 -0.3121  0.4313
  691TMC3    O110280   4.657   0.220  15.774 -0.1806  0.4588 -0.4114
  691TMC3    O210281   4.233   0.653  16.051  0.1874  0.5662  0.0863
  692TMC3    C110282   1.718   1.748  16.040 -0.5251  0.4040 -0.2643
  692TMC3    C210283   1.855   1.763  16.030 -0.3739  1.1636  0.2816
  692TMC3    C310284   1.932   1.682  15.950  0.0119 -0.6022  0.2349
  692TMC3    C410285   1.650   1.652  15.973 -0.3494  0.3580  0.1439
  692TMC3    C510286   1.733   1.559  15.913 -0.1976 -0.1095 -0.4432
  692TMC3    C610287   1.868   1.572  15.891  0.0878  0.2925  0.0192
  692TMC3     C10288   1.646   1.833  16.128  0.0939 -0.4618  0.6001
  692TMC3     O10289   1.555   1.792  16.198  0.1612 -0.4277 -0.4045
  692TMC3     H10290   1.900   1.834  16.099 -0.5006 -0.2839  1.8519
  692TMC3    H110291   1.550   1.627  16.004 -0.7002  0.4767 -0.8828
  692TMC3    H210292   1.933   1.490  15.863  1.1475  1.2301 -0.2701
  692TMC3    C710293   1.676   1.434  15.867  0.6961  0.3276 -0.0028
  692TMC3    C810294   2.065   1.651  15.998 -0.4002 -0.6653 -0.3935
  692TMC3    O110295   1.562   1.434  15.826 -0.1152  0.4922  0.1569
  692TMC3    O210296   2.087   1.536  16.012  0.1440 -0.6363 -0.5009
  693MPD2     C10297   0.825   0.203  10.545 -0.2114 -0.4105 -0.6316
  693MPD2    C110298   0.785   0.123  10.644 -0.6191 -0.1064 -0.0530
  693MPD2    C210299   0.875   0.063  10.722  0.3957 -0.1586 -0.6094
  693MPD2    C310300   1.012   0.094  10.720  0.1528 -0.6224  0.1130
  693MPD2    C410301   1.050   0.185  10.625  1.0664 -0.4226 -0.1588
  693MPD2    C510302   0.961   0.231  10.532  0.1684 -0.2361  0.1202
  693MPD2     H10303   0.836   4.733  10.796 -1.7074  1.1292 -0.4926
  693MPD2    H110304   1.150   0.219  10.602  1.1876  0.0847  1.0718
  693MPD2    H210305   0.750   0.259  10.489  0.8605  1.5950 -0.0696
  693MPD2    H310306   0.989   0.303  10.456 -0.9606  2.0288  1.8705
  693MPD2     N10307   1.104   0.057  10.819  0.5478 -0.4607 -0.2503
  693MPD2    H510308   1.199   0.069  10.788  0.7721 -1.7997 -0.0735
  693MPD2    N110309   0.649   0.094  10.661  0.4584 -0.1816  0.4954
  693MPD2    H710310   0.617   0.029  10.732 -3.5915 -0.2067 -1.3398
  694TMC3    C110311   0.423   0.048  10.609  0.3068  0.4125 -0.5703
  694TMC3    C210312   0.328   0.023  10.510  0.0871 -0.2797 -0.0994
  694TMC3    C310313   0.227   4.675  10.556 -0.5990 -0.8100 -0.4739
  694TMC3    C410314   0.415   0.004  10.738  0.5681  0.0491  0.4585
  694TMC3    C510315   0.309   4.674  10.777  0.0195  0.2633  0.4183
  694TMC3    C610316   0.223   4.626  10.682 -0.1065 -0.6127  0.4602
  694TMC3     C10317   0.556   0.110  10.568 -0.1558  0.2775 -0.4796
  694TMC3     O10318   0.566   0.149  10.453 -0.3675  0.1906 -0.2790
  694TMC3     H10319   0.336   0.074  10.415 -1.7512  0.5098  0.1750
  694TMC3    H110320   0.482   0.040  10.815  2.6335 -0.9682 -0.8572
  694TMC3    H210321   0.142   4.557  10.703  0.3087 -0.5968  2.1118
  694TMC3    C710322   0.319   4.620  10.918 -0.1842 -0.5323  0.1473
  694TMC3    C810323   0.120   4.628  10.462  1.0591  0.1345 -0.0109
  694TMC3    O110324   0.376   4.686  11.005  0.5718 -0.2634  0.2139
  694TMC3    O210325   0.049   4.535  10.494 -0.7257 -1.1267 -0.0352
  695MPD2     C10326   2.538   1.483  13.383 -0.2094  0.3868  0.1216
  695MPD2    C110327   2.497   1.518  13.509 -0.6788 -0.2505 -0.1030
  695MPD2    C210328   2.366   1.535  13.542 -0.0371  0.4093  0.5981
  695MPD2    C310329   2.266   1.502  13.448 -0.9299 -0.0084 -0.0780
  695MPD2    C410330   2.306   1.459  13.318 -0.3823  0.5489  0.6034
  695MPD2    C510331   2.439   1.441  13.291  0.0762  0.0293  0.0015
  695MPD2     H10332   2.341   1.563  13.643 -1.9276  2.3983 -0.4351
  695MPD2    H110333   2.240   1.420  13.241 -1.6092  0.8415  1.5186
  695MPD2    H210334   2.643   1.475  13.361 -0.6207  0.9034 -2.0275
  695MPD2    H310335   2.472   1.403  13.195 -0.4925 -0.5458  0.0324
  695MPD2     N10336   2.132   1.507  13.481 -0.3799 -0.0803 -0.8000
  695MPD2    H510337   2.110   1.524  13.579  0.8509 -1.4383 -0.2792
  695MPD2    N110338   2.588   1.535  13.615 -0.1035 -0.3441 -0.1212
  695MPD2    H710339   2.547   1.537  13.708 -0.9729  1.1206 -0.5298
  696TMC3    C110340   1.891   1.532  13.451 -0.7575 -0.5854 -0.4803
  696TMC3    C210341   1.856   1.486  13.576 -0.0398  0.4003 -0.1249
  696TMC3    C310342   1.729   1.516  13.622  0.4830  0.0950 -1.2169
  696TMC3    C410343   1.806   1.615  13.382 -0.2777 -0.0074  0.6221
  696TMC3    C510344   1.695   1.658  13.452 -0.6359 -0.5909  0.1666
  696TMC3    C610345   1.643   1.604  13.562 -0.3721  0.2241 -0.3891
  696TMC3     C10346   2.027   1.511  13.398 -0.2076 -0.1177 -0.4027
  696TMC3     O10347   2.040   1.538  13.283 -0.5644  0.8460  0.1726
  696TMC3     H10348   1.917   1.415  13.631 -0.7672  0.4948  0.8134
  696TMC3    H110349   1.838   1.676  13.299  0.9633 -2.1558 -0.4710
  696TMC3    H210350   1.554   1.647  13.605 -0.6961 -1.3246  0.4936
  696TMC3    C710351   1.627   1.778  13.400 -0.1398 -0.0180 -0.0047
  696TMC3    C810352   1.703   1.480  13.759  0.1411  0.4154  0.4075
  696TMC3    O110353   1.636   1.777  13.278  0.1790 -0.3893  0.3153
  696TMC3    O210354   1.796   1.428  13.815  0.2281  0.9506 -0.3297
  697MPD2     C10355   1.603   3.491  15.849 -0.3952 -0.1700  0.4549
  697MPD2    C110356   1.623   3.423  15.730 -0.0674 -0.4602 -0.3378
  697MPD2    C210357   1.617   3.487  15.607 -0.4585  0.7057 -0.1763
  697MPD2    C310358   1.595   3.624  15.615 -0.4114 -0.4154  0.2017
  697MPD2    C410359   1.565   3.694  15.728  1.0584 -0.1405  0.5627
  697MPD2    C510360   1.578   3.623  15.846 -0.0976  0.2147  0.5458
  697MPD2     H10361   1.626   3.432  15.514 -1.1313 -1.2800  0.9381
  697MPD2    H110362   1.532   3.797  15.726  0.4308 -0.3032  2.9926
  697MPD2    H210363   1.619   3.450  15.948  3.9053 -0.0561 -0.1841
  697MPD2    H310364   1.575   3.665  15.946  3.0259 -1.6647  1.4438
  697MPD2     N10365   1.582   3.685  15.486 -0.4449 -0.0552 -0.6024
  697MPD2    H510366   1.588   3.621  15.407 -0.0523 -1.1708  0.3207
  697MPD2    N110367   1.650   3.283  15.728  0.5543 -0.0006  0.1198
  697MPD2    H710368   1.659   3.242  15.636 -0.0100  0.4773 -0.1476
  698TMC3    C110369   1.580   3.865  15.326 -0.0471  0.6229 -0.0046
  698TMC3    C210370   1.632   3.991  15.289  0.6628 -0.5900  0.5734
  698TMC3    C310371   1.574   4.054  15.181  0.3295 -0.4454  0.1271
  698TMC3    C410372   1.478   3.805  15.259  0.9613 -0.3525 -0.3420
  698TMC3    C510373   1.430   3.877  15.149 -0.5981  0.2876  0.5567
  698TMC3    C610374   1.467   4.003  15.118 -1.3138  0.1650 -0.4128
  698TMC3     C10375   1.602   3.819  15.462 -0.7211 -0.2502  0.4521
  698TMC3     O10376   1.655   3.898  15.536 -0.0369  0.2590  0.2866
  698TMC3     H10377   1.710   4.033  15.351 -0.0775  0.0855  1.0425
  698TMC3    H110378   1.438   3.707  15.285  0.1887  0.5612  1.8825
  698TMC3    H210379   1.416   4.035  15.027 -2.3915 -2.5766 -0.7735
  698TMC3    C710380   1.380   3.799  15.037  0.6888  0.0866 -0.6027
  698TMC3    C810381   1.667   4.143  15.109  0.3505  0.7782  0.2573
  698TMC3    O110382   1.308   3.851  14.954  0.3652 -0.3532  0.2104
  698TMC3    O210383   1.776   4.174  15.160 -0.1885  0.1142  0.5892
  699TMC3    C110384   1.172   1.862  13.219 -0.2480  0.4046 -0.6571
  699TMC3    C210385   1.251   1.775  13.292  0.6733 -0.5041 -0.4826
  699TMC3    C310386   1.230   1.764  13.427 -0.1026 -0.0771 -1.0225
  699TMC3    C410387   1.068   1.933  13.281 -0.2859 -0.1885 -0.3026
  699TMC3    C510388   1.049   1.916  13.416 -0.1244 -0.5540 -0.7335
  699TMC3    C610389   1.129   1.831  13.486  0.2936  0.4391 -0.0545
  699TMC3     C10390   1.204   1.902  13.081  0.0528 -0.2636 -0.0314
  699TMC3     O10391   1.173   2.013  13.043  0.5882 -0.1919 -0.5009
  699TMC3     H10392   1.348   1.737  13.259  1.8331 -0.1294  2.4818
  699TMC3    H110393   1.020   2.008  13.219 -0.3593  0.6626  0.7970
  699TMC3    H210394   1.112   1.834  13.593 -0.4227  0.1428 -0.1597
  699TMC3    C710395   0.962   2.008  13.488 -0.2231 -0.7781 -0.4755
  699TMC3    C810396   1.276   1.653  13.507 -0.1047  0.4491  0.2236
  699TMC3    O110397   0.999   2.041  13.601  0.7749  0.0616 -0.1561
  699TMC3    O210398   1.243   1.654  13.623 -0.4594  0.5665 -0.4937
  700TMC3    C110399   0.854   3.827  17.714 -0.4749 -0.1055  0.3605
  700TMC3    C210400   0.916   3.737  17.641  0.3702  0.3888  0.6129
  700TMC3    C310401   1.015   3.665  17.701  0.2005  0.9768 -0.6309
  700TMC3    C410402   0.910   3.880   0.071 -0.0529 -0.8801  0.4940
  700TMC3    C510403   1.025   3.822   0.127  0.0044  0.0758 -0.2668
  700TMC3    C610404   1.079   3.714   0.062  1.1584 -0.1163 -1.0151
  700TMC3     C10405   0.780   3.920  17.631  0.2915 -0.7426  0.2081
  700TMC3     O10406   0.683   3.974  17.682 -0.5560 -0.1375  0.1053
  700TMC3     H10407   0.870   3.694  17.553 -2.0644  2.7949  0.6994
  700TMC3    H110408   0.861   3.961   0.123  1.4201  0.9712 -1.0096
  700TMC3    H210409   1.157   3.658   0.111  1.3259 -0.3412 -1.5336
  700TMC3    C710410   1.115   3.929   0.164 -0.1039 -0.7105 -0.5702
  700TMC3    C810411   1.095   3.585  17.606 -0.6861  0.0697  0.1881
  700TMC3    O110412   1.232   3.916   0.132 -0.6625  0.1221 -0.1753
  700TMC3    O210413   1.083   3.589  17.486 -0.3605 -0.5544 -0.4289
  701TMC3    C110414   1.183   2.380  15.642 -0.9559 -0.5737  0.2054
  701TMC3    C210415   1.170   2.360  15.505  0.2902  0.2084 -0.2477
  701TMC3    C310416   1.233   2.448  15.422 -0.0468 -0.0919 -0.1302
  701TMC3    C410417   1.235   2.498  15.691 -0.2224 -0.2074 -0.0829
  701TMC3    C510418   1.273   2.588  15.598 -0.4820  0.5043  0.2833
  701TMC3    C610419   1.292   2.558  15.469 -0.0186 -0.2093  0.0511
  701TMC3     C10420   1.108   2.297  15.727 -0.9571 -0.5369  0.5024
  701TMC3     O10421   1.087   2.341  15.840 -0.7646 -0.6054  1.1224
  701TMC3     H10422   1.119   2.276  15.460  1.4758 -0.8752  0.4102
  701TMC3    H110423   1.244   2.511  15.798  0.7580 -0.5180 -0.1240
  701TMC3    H210424   1.321   2.626  15.390  1.0662 -1.1797 -0.3899
  701TMC3    C710425   1.306   2.732  15.630  0.1326  0.6590 -0.1000
  701TMC3    C810426   1.186   2.456  15.281 -0.2176  0.1421 -0.2325
  701TMC3    O110427   1.377   2.787  15.551 -0.3235  0.1397  0.9504
  701TMC3    O210428   1.256   2.526  15.205  0.3974  0.3413 -0.3868
  702MPD2     C10429   4.575   0.192  10.694 -0.1986 -0.2183 -0.8752
  702MPD2    C110430   4.547   0.307  10.771  0.0752  0.4846  0.3814
  702MPD2    C210431   4.603   0.427  10.730 -0.3321  0.0757  0.3038
  702MPD2    C310432   4.674   0.444  10.604 -0.1512 -0.7303 -0.1957
  702MPD2    C410433   4.687   0.326  10.529  0.1147 -0.8195 -0.1393
  702MPD2    C510434   4.652   0.202  10.577  0.1639 -0.2669  0.1076
  702MPD2     H10435   4.584   0.521  10.781 -1.3855  1.1375 -2.0354
  702MPD2    H110436   4.734   0.333  10.431  0.2559 -2.0066 -0.1604
  702MPD2    H210437   4.552   0.089  10.720  1.7605 -0.3817  0.1744
  702MPD2    H310438   4.668   0.118  10.511 -0.3392 -0.8765  0.7702
  702MPD2     N10439   4.706   0.570  10.543  1.0416  0.0077 -0.2143
  702MPD2    H510440   4.700   0.584  10.443  1.2178 -1.7822 -0.4641
  702MPD2    N110441   4.457   0.314  10.884  0.1096  0.2150  0.1365
  702MPD2    H710442   4.450   0.408  10.921 -1.4968  0.3891 -0.5864
  703TMC3    C110443   4.738   0.804  10.544 -0.5444  0.6202  0.3099
  703TMC3    C210444   4.619   0.830  10.486  0.2747 -0.0305 -0.3253
  703TMC3    C310445   4.609   0.956  10.423 -0.4178  0.2324  0.5220
  703TMC3    C410446   0.115   0.883  10.552  0.3179  0.7859 -0.2561
  703TMC3    C510447   0.101   1.000  10.477  0.2265 -0.4196  0.2023
  703TMC3    C610448   4.725   1.033  10.418 -0.7639 -0.1019 -0.4280
  703TMC3     C10449   4.737   0.681  10.621 -0.0037 -0.0233 -0.1225
  703TMC3     O10450   0.036   0.692  10.736 -0.3167  0.1265 -0.1240
  703TMC3     H10451   4.533   0.767  10.509  1.3114 -1.4879 -0.4619
  703TMC3    H110452   0.200   0.842  10.606 -0.8392 -1.1393  0.0880
  703TMC3    H210453   4.713   1.133  10.378 -1.9602 -0.5442 -1.1665
  703TMC3    C710454   0.208   1.097  10.470 -0.5324 -0.3864  0.6289
  703TMC3    C810455   4.477   1.013  10.413 -0.3809  0.1156 -0.3995
  703TMC3    O110456   0.198   1.194  10.397 -0.1613 -0.6359 -0.4838
  703TMC3    O210457   4.461   1.092  10.322  0.1315 -0.2635  0.1494
  704TMC3    C110458   2.524   2.890  13.020 -0.4401  0.6140 -0.2478
  704TMC3    C210459   2.632   2.970  12.975  0.4392  0.3899 -0.8710
  704TMC3    C310460   2.756   2.910  12.980  0.0960 -0.1799 -0.0213
  704TMC3    C410461   2.545   2.763  13.072 -0.0333  0.6512  0.0332
  704TMC3    C510462   2.665   2.706  13.045 -0.5417 -0.2465 -0.0414
  704TMC3    C610463   2.776   2.779  13.017 -0.0519 -0.2922 -0.4331
  704TMC3     C10464   2.386   2.946  13.019 -0.4361 -0.1424 -0.2634
  704TMC3     O10465   2.304   2.894  13.095 -0.1420 -0.5709 -0.1837
  704TMC3     H10466   2.622   3.070  12.935 -0.1975  0.3495 -0.8055
  704TMC3    H110467   2.456   2.701  13.083  0.1588  0.5476  1.0022
  704TMC3    H210468   2.874   2.734  13.001  0.8529  1.0049  1.4452
  704TMC3    C710469   2.666   2.566  12.995  0.0109 -0.0098 -0.0951
  704TMC3    C810470   2.848   2.953  12.874  0.2914 -0.2223 -0.4070
  704TMC3    O110471   2.754   2.538  12.916  0.8229  0.0036  0.6232
  704TMC3    O210472   2.789   2.990  12.770 -0.2508 -0.6678  0.0484
  705MPD2     C10473   2.099   1.077  16.238 -0.0574 -0.2156  0.5075
  705MPD2    C110474   2.168   1.186  16.295 -0.1210 -0.9317  0.1933
  705MPD2    C210475   2.132   1.230  16.419  0.4917  0.7197  0.3534
  705MPD2    C310476   2.016   1.176  16.477 -0.1123  0.2664  0.4619
  705MPD2    C410477   1.949   1.071  16.415  0.2063  0.0467 -0.5265
  705MPD2    C510478   1.994   1.018  16.296  0.1389 -0.6177 -0.4958
  705MPD2     H10479   2.194   1.300  16.474 -0.2340  2.0002 -0.4624
  705MPD2    H110480   1.853   1.038  16.453  1.0924 -0.0875  1.5714
  705MPD2    H210481   2.119   1.047  16.136 -1.3986  2.2150 -0.4847
  705MPD2    H310482   1.934   0.950  16.238 -0.6294 -1.1912  0.9735
  705MPD2     N10483   1.961   1.228  16.594 -0.1354  0.2699 -0.5663
  705MPD2    H510484   1.877   1.184  16.629 -0.3266  0.0381 -1.3074
  705MPD2    N110485   2.294   1.236  16.248 -0.1396  0.3984 -0.1892
  705MPD2    H710486   2.345   1.302  16.304 -1.8464  0.8428  0.8294
  706TMC3    C110487   2.653   1.317  15.940 -0.0473  0.1318 -1.3054
  706TMC3    C210488   2.671   1.438  15.991  0.0655  0.5999 -0.0466
  706TMC3    C310489   2.597   1.476  16.100 -0.1946  0.0312  0.0533
  706TMC3    C410490   2.557   1.236  15.998 -0.1204 -0.1791 -0.7863
  706TMC3    C510491   2.491   1.277  16.111 -0.0570 -0.6561  0.2177
  706TMC3    C610492   2.503   1.400  16.174 -0.5135  0.5627 -0.0110
  706TMC3     C10493   2.748   1.257  15.843  0.3897 -0.3230  0.1736
  706TMC3     O10494   2.860   1.310  15.836 -0.8967 -0.4315  0.1214
  706TMC3     H10495   2.738   1.505  15.939  1.0346 -1.2129 -1.1131
  706TMC3    H110496   2.521   1.144  15.952  0.0609 -1.5243  1.7399
  706TMC3    H210497   2.431   1.436  16.246 -0.2571 -2.3162  1.6696
  706TMC3    C710498   2.361   1.196  16.133 -0.2215  0.0806 -0.0633
  706TMC3    C810499   2.567   1.614  16.117 -0.0624 -0.1056 -1.6927
  706TMC3    O110500   2.331   1.116  16.050 -0.1733  0.0981  0.5495
  706TMC3    O210501   2.566   1.687  16.020 -0.0741 -0.0960 -0.0484
  707TMC3    C110502   3.229   4.055   0.760 -0.8590 -0.7273  0.0871
  707TMC3    C210503   3.263   3.981   0.870 -0.1020 -0.0404  0.3808
  707TMC3    C310504   3.182   3.993   0.982  0.0809 -0.0571 -0.4677
  707TMC3    C410505   3.118   4.132   0.752  0.5870  0.3396  0.3827
  707TMC3    C510506   3.040   4.131   0.864  0.0191  0.1321  0.3437
  707TMC3    C610507   3.067   4.060   0.983  0.5872  0.7576  0.1040
  707TMC3     C10508   3.355   4.086   0.684 -0.8328  0.0078  0.6098
  707TMC3     O10509   3.458   4.083   0.750 -0.6295 -0.6155 -0.5601
  707TMC3     H10510   3.355   3.925   0.866 -0.2362 -0.1220 -1.2783
  707TMC3    H110511   3.090   4.191   0.666  1.8146 -0.3882 -0.5124
  707TMC3    H210512   3.007   4.069   1.073 -0.8593  3.6697 -1.1456
  707TMC3    C710513   2.906   4.174   0.829 -0.1640 -0.1138 -0.4107
  707TMC3    C810514   3.244   3.977   1.107  0.0804  0.3493 -0.4393
  707TMC3    O110515   2.884   4.226   0.723  0.2721 -0.0716 -0.2103
  707TMC3    O210516   3.171   3.960   1.202 -0.4774 -0.0759 -0.8819
  708MPD2     C10517   0.461   4.342  14.055  0.0977  0.0229 -0.7076
  708MPD2    C110518   0.404   4.441  14.137  0.3058 -0.0637  0.1525
  708MPD2    C210519   0.414   4.424  14.279  0.3957  0.2505  0.0909
  708MPD2    C310520   0.483   4.323  14.335 -0.0206 -0.4201 -0.4572
  708MPD2    C410521   0.538   4.226  14.255  0.1783 -0.3324  0.2900
  708MPD2    C510522   0.533   4.241  14.119  0.7727  0.7629  0.4979
  708MPD2     H10523   0.377   4.499  14.348 -1.8217 -2.3963  1.7812
  708MPD2    H110524   0.597   4.143  14.290 -1.1364 -2.3220 -2.2090
  708MPD2    H210525   0.457   4.341  13.947  1.3052  1.3789 -0.7539
  708MPD2    H310526   0.573   4.161  14.058 -0.8145  0.0961  0.3450
  708MPD2     N10527   0.477   4.312  14.478 -0.9927 -0.3508 -0.3430
  708MPD2    H510528   0.433   4.388  14.528  0.9739 -0.3287  1.3346
  708MPD2    N110529   0.321   4.544  14.084  0.3561 -0.2065 -0.3170
  708MPD2    H710530   0.296   4.535  13.986 -0.2735  1.0132 -0.2659
  709TMC3    C110531   0.211   0.016  14.086 -0.1589 -0.0343 -0.2440
  709TMC3    C210532   0.106   4.686  14.038  0.4718 -0.1077 -0.4483
  709TMC3    C310533   4.717   4.706  14.079 -0.1003 -0.4328  0.0298
  709TMC3    C410534   0.184   0.107  14.186 -0.2038  0.0200 -0.0359
  709TMC3    C510535   0.059   0.102  14.252 -0.6771 -1.0675  0.0868
  709TMC3    C610536   4.695   0.038  14.195  0.4394 -0.5929  0.7181
  709TMC3     C10537   0.313   4.665  14.151 -0.4076 -0.4621 -0.6821
  709TMC3     O10538   0.375   4.697  14.253  0.4334 -0.3428  0.0933
  709TMC3     H10539   0.118   4.609  13.962 -0.3294 -1.7119  1.0503
  709TMC3    H110540   0.266   0.157  14.236  1.0786 -0.3501 -1.7465
  709TMC3    H210541   4.595   0.041  14.238 -0.4798 -2.6722 -1.2354
  709TMC3    C710542   0.080   0.100  14.394 -0.5096 -0.3867  0.1063
  709TMC3    C810543   4.620   4.733  13.975 -0.0339  0.3513 -0.1393
  709TMC3    O110544   0.181   0.140  14.446 -0.1594  0.1024 -0.7190
  709TMC3    O210545   4.507   0.018  14.012  0.0313  0.1640 -0.8922
  710TMC3    C110546   1.449   1.267   0.057 -0.0398 -0.2528 -0.0574
  710TMC3    C210547   1.484   1.202  17.698  0.1039  0.4866 -0.2627
  710TMC3    C310548   1.501   1.065  17.701 -0.4884 -0.7734 -0.1265
  710TMC3    C410549   1.397   1.187   0.161  0.1200 -0.7773  0.3246
  710TMC3    C510550   1.401   1.051   0.156  0.1260 -0.1908 -0.4625
  710TMC3    C610551   1.466   0.987   0.053  0.0665  0.0503 -0.0169
  710TMC3     C10552   1.495   1.404   0.083 -0.0445  0.2496  0.6599
  710TMC3     O10553   1.579   1.465   0.017  0.3323 -0.6557  0.0424
  710TMC3     H10554   1.519   1.260  17.613  0.6679  0.1486 -0.2575
  710TMC3    H110555   1.359   1.231   0.253 -0.5578  2.7792 -1.6547
  710TMC3    H210556   1.464   0.880   0.039  1.6195  0.0988 -0.5494
  710TMC3    C710557   1.369   0.975   0.276  0.0550 -0.6793  0.0430
  710TMC3    C810558   1.580   1.012  17.592 -0.4117 -0.3293  0.5474
  710TMC3    O110559   1.445   0.879   0.297 -0.1567  0.5143 -0.0285
  710TMC3    O210560   1.577   1.062  17.479 -0.2417  0.1856 -0.0061
  711TMC3    C110561   1.437   2.277  15.017 -0.4190  0.0713  0.0166
  711TMC3    C210562   1.456   2.285  15.151 -0.3787 -0.1060  0.0104
  711TMC3    C310563   1.581   2.311  15.209  0.4052 -0.4288 -0.0435
  711TMC3    C410564   1.550   2.304  14.950  0.5650  0.1357 -0.3596
  711TMC3    C510565   1.671   2.323  15.003  0.7943 -0.9227 -0.4684
  711TMC3    C610566   1.693   2.332  15.134  0.1077 -0.0183 -0.1885
  711TMC3     C10567   1.360   2.168  14.974 -0.0543  0.7774 -0.4154
  711TMC3     O10568   1.289   2.189  14.879 -0.2403  0.7000  0.2350
  711TMC3     H10569   1.373   2.268  15.220 -0.1125  3.8366  1.3114
  711TMC3    H110570   1.546   2.289  14.842  0.8359 -4.4689  0.2527
  711TMC3    H210571   1.797   2.334  15.166  0.3738  0.3929 -1.0582
  711TMC3    C710572   1.756   2.212  14.961 -0.6614  0.1109  0.5261
  711TMC3    C810573   1.602   2.237  15.328 -0.3033  1.0124  0.6122
  711TMC3    O110574   1.874   2.214  14.999  0.4175  0.1231 -0.5258
  711TMC3    O210575   1.505   2.174  15.372 -0.3230 -0.1456  0.0872
  712MPD2     C10576   2.510   3.008  13.832  0.6725 -0.0356  0.3441
  712MPD2    C110577   2.424   3.108  13.801  0.1818  0.7100  0.0888
  712MPD2    C210578   2.459   3.232  13.779 -0.1206 -0.1794  0.5645
  712MPD2    C310579   2.588   3.257  13.802  0.5084  1.1154 -0.2771
  712MPD2    C410580   2.686   3.157  13.832 -1.0486  0.0089  0.2493
  712MPD2    C510581   2.639   3.032  13.845  0.8010  0.2071 -0.0766
  712MPD2     H10582   2.383   3.303  13.748 -0.8444 -1.1878  0.0542
  712MPD2    H110583   2.792   3.178  13.831 -1.2662  1.1192  0.1189
  712MPD2    H210584   2.482   2.905  13.849  1.3629 -0.2177  0.3781
  712MPD2    H310585   2.708   2.953  13.875  0.8254  0.7654  1.3037
  712MPD2     N10586   2.641   3.382  13.782 -0.4951 -0.6285  0.1757
  712MPD2    H510587   2.741   3.396  13.792 -0.2416 -1.5789 -1.0295
  712MPD2    N110588   2.289   3.095  13.781  0.0283  0.3985  0.3029
  712MPD2    H710589   2.243   3.176  13.742  0.7019 -0.0265 -1.3919
  713TMC3    C110590   2.659   3.617  13.767  0.4229  0.0791 -0.0228
  713TMC3    C210591   2.782   3.609  13.834 -0.0497 -0.9993 -0.4965
  713TMC3    C310592   2.856   3.724  13.830  0.1661 -0.4313  0.5999
  713TMC3    C410593   2.607   3.732  13.713 -0.1599 -0.0451 -0.3055
  713TMC3    C510594   2.678   3.847  13.732 -0.2292  0.6659  0.4965
  713TMC3    C610595   2.797   3.844  13.798  0.8881 -0.2534  0.1362
  713TMC3     C10596   2.568   3.500  13.760 -0.3716  0.1437  0.1577
  713TMC3     O10597   2.451   3.525  13.733 -0.1225  0.3068 -0.4179
  713TMC3     H10598   2.818   3.515  13.874 -1.9811 -1.4872  0.1084
  713TMC3    H110599   2.535   3.731  13.631 -1.7027 -0.5387  1.0411
  713TMC3    H210600   2.849   3.939  13.808 -1.2926  1.0111 -0.6556
  713TMC3    C710601   2.650   3.972  13.656  0.0993  0.2735 -0.5588
  713TMC3    C810602   3.001   3.727  13.868  0.5472 -0.2487  0.5618
  713TMC3    O110603   2.752   4.032  13.622 -0.0626  0.9917 -0.1710
  713TMC3    O210604   3.046   3.842  13.891 -0.1177 -0.0363  0.6150
  714MPD2     C10605   0.401   2.277   1.207 -0.0634  0.7259 -0.1280
  714MPD2    C110606   0.410   2.139   1.203  0.9558 -0.1856 -0.1917
  714MPD2    C210607   0.300   2.064   1.218 -0.4563 -0.3800 -0.1397
  714MPD2    C310608   0.180   2.117   1.243  0.1788 -0.0855  0.0596
  714MPD2    C410609   0.174   2.255   1.263 -0.5451  0.5817  0.3495
  714MPD2    C510610   0.287   2.331   1.248  0.2455  0.7525  0.3443
  714MPD2     H10611   0.308   1.956   1.228  1.7563 -0.3306 -1.2056
  714MPD2    H110612   0.079   2.297   1.294 -1.0018 -0.5130  0.4585
  714MPD2    H210613   0.488   2.342   1.203  0.1899  0.3939 -0.0746
  714MPD2    H310614   0.278   2.438   1.259 -1.8168  0.3410  2.7167
  714MPD2     N10615   0.064   2.036   1.244  0.4135 -0.2703 -0.1604
  714MPD2    H510616   0.072   1.936   1.231  0.2626 -0.0661 -1.8132
  714MPD2    N110617   0.535   2.071   1.194  0.0737 -0.1436  0.1261
  714MPD2    H710618   0.618   2.127   1.211  0.4695 -1.0592  1.2363
  715TMC3    C110619   0.684   1.889   1.222  0.1822  0.0915 -0.1240
  715TMC3    C210620   0.720   1.760   1.193 -0.1649  0.0423  0.5776
  715TMC3    C310621   0.825   1.706   1.258  0.4133 -0.4931  0.2014
  715TMC3    C410622   0.753   1.964   1.317 -0.6057  0.2674 -0.3692
  715TMC3    C510623   0.869   1.914   1.366 -0.3086  0.4609 -0.7985
  715TMC3    C610624   0.901   1.786   1.340  0.4813  0.2608 -0.3274
  715TMC3     C10625   0.557   1.937   1.175  0.6152  0.4710  0.1635
  715TMC3     O10626   0.478   1.848   1.164  0.0422 -0.1861  0.2067
  715TMC3     H10627   0.661   1.707   1.119 -0.4351  1.3192 -0.1254
  715TMC3    H110628   0.716   2.053   1.366 -0.8971 -1.1878  2.0497
  715TMC3    H210629   0.990   1.742   1.383 -0.2578 -1.1661 -0.2650
  715TMC3    C710630   0.978   1.994   1.418  0.2720 -0.2457 -0.2771
  715TMC3    C810631   0.844   1.559   1.248 -0.3866 -0.3374  0.2368
  715TMC3    O110632   1.091   1.944   1.431  0.3543 -0.1175 -0.6862
  715TMC3    O210633   0.795   1.518   1.147  0.4885 -0.9739  0.2554
  716MPD2     C10634   4.390   0.542   9.860  0.2258 -0.5629  0.2045
  716MPD2    C110635   4.335   0.557   9.730  0.1816  0.4514 -0.4327
  716MPD2    C210636   4.363   0.462   9.631 -0.2119 -0.1097  0.4853
  716MPD2    C310637   4.450   0.358   9.658 -0.4478 -0.2076 -0.5608
  716MPD2    C410638   4.493   0.340   9.789 -0.0129  0.2444 -0.6849
  716MPD2    C510639   4.461   0.430   9.890  0.1501 -0.0751 -0.0728
  716MPD2     H10640   4.340   0.484   9.528 -1.4691  1.1912  1.0455
  716MPD2    H110641   4.539   0.249   9.826 -0.6333  0.0322 -0.4349
  716MPD2    H210642   4.371   0.618   9.936  1.1113  0.2899 -0.4359
  716MPD2    H310643   4.501   0.411   9.989 -0.7683 -1.8241 -0.0321
  716MPD2     N10644   4.494   0.274   9.556  0.6575 -0.4533  0.2554
  716MPD2    H510645   4.465   0.281   9.459  0.7562  0.7147  0.3113
  716MPD2    N110646   4.256   0.673   9.707 -0.0362  0.4523  0.3242
  716MPD2    H710647   4.237   0.733   9.787  0.4329  0.9732  0.0459
  717TMC3    C110648   4.593   0.097   9.435  0.4574 -0.6026  0.1454
  717TMC3    C210649   4.504   0.129   9.333  0.1149  0.1989  0.1303
  717TMC3    C310650   4.536   0.074   9.212 -0.0048 -0.3611 -0.1079
  717TMC3    C410651   4.708   0.024   9.426 -0.5003 -0.2961  0.2005
  717TMC3    C510652   0.003   4.734   9.291  1.2873 -0.2849  0.2681
  717TMC3    C610653   4.655   0.011   9.185  0.0706 -0.5531 -0.4452
  717TMC3     C10654   4.580   0.166   9.566 -0.8909 -0.4719  0.3789
  717TMC3     O10655   4.655   0.134   9.661  0.0867  0.1587  0.1408
  717TMC3     H10656   4.402   0.158   9.357  0.2660  3.0535 -2.6199
  717TMC3    H110657   0.034   0.005   9.510  1.1694 -0.1506 -1.0689
  717TMC3    H210658   4.693   0.012   9.084 -2.4201  1.2099 -1.3770
  717TMC3    C710659   0.133   4.669   9.277 -0.0022 -0.0893 -0.0840
  717TMC3    C810660   4.459   0.124   9.100 -0.0152  0.0901  0.3329
  717TMC3    O110661   0.210   4.684   9.371 -0.0584  0.0255  0.1426
  717TMC3    O210662   4.373   0.211   9.116 -0.1132 -0.3982 -0.5587
  718MPD2     C10663   4.259   4.017  13.152 -0.4741 -0.1524  0.4226
  718MPD2    C110664   4.185   4.060  13.044  0.5019  0.1921  0.0644
  718MPD2    C210665   4.100   3.968  12.987 -0.5930  0.5883  0.0538
  718MPD2    C310666   4.085   3.839  13.035  0.1666 -0.1277 -0.0405
  718MPD2    C410667   4.158   3.797  13.143 -0.1321 -0.4165 -0.0378
  718MPD2    C510668   4.240   3.888  13.199 -0.1157  0.0571 -0.2468
  718MPD2     H10669   4.056   3.992  12.891 -0.4011 -0.5657 -0.3312
  718MPD2    H110670   4.145   3.696  13.182 -1.3771 -0.1051  0.3236
  718MPD2    H210671   4.323   4.084  13.207 -0.3136 -0.9305  1.1884
  718MPD2    H310672   4.305   3.853  13.278  0.4099  2.2141  0.2851
  718MPD2     N10673   3.999   3.753  12.961  0.3344 -0.2462 -0.1810
  718MPD2    H510674   3.948   3.802  12.888 -1.2516 -0.3576  0.8585
  718MPD2    N110675   4.197   4.189  12.999 -0.6779  0.2736 -0.0166
  718MPD2    H710676   4.283   4.233  13.029 -1.7815  2.0877  0.4894
  719TMC3    C110677   4.132   4.374  12.863  0.7624 -0.6478  0.2201
  719TMC3    C210678   4.025   4.406  12.784  0.2953 -0.8116 -0.4923
  719TMC3    C310679   4.037   4.425  12.654 -0.4574 -0.0385  0.4212
  719TMC3    C410680   4.254   4.369  12.818  0.3165 -0.2829  0.4062
  719TMC3    C510681   4.277   4.412  12.692 -0.6330 -0.2316  0.1128
  719TMC3    C610682   4.171   4.434  12.607 -0.2667  0.2127 -0.7581
  719TMC3     C10683   4.094   4.258  12.938 -0.1096  0.0168 -1.2101
  719TMC3     O10684   3.980   4.216  12.912 -0.2681  0.9068  0.1296
  719TMC3     H10685   3.926   4.421  12.828 -0.3818  2.8415 -3.2177
  719TMC3    H110686   4.340   4.346  12.880  2.3768  0.2774 -2.1892
  719TMC3    H210687   4.198   4.449  12.503 -1.4609  0.0916 -1.0861
  719TMC3    C710688   4.408   4.404  12.630 -0.2298  0.0389 -0.0269
  719TMC3    C810689   3.965   4.327  12.576 -0.5871 -0.2280  0.1299
  719TMC3    O110690   4.415   4.399  12.508 -0.0119 -0.4025 -0.1315
  719TMC3    O210691   4.031   4.247  12.515 -0.4216 -0.6708  0.5450
  720MPD2     C10692   2.469   0.514  14.249 -0.5257  0.4231  0.4008
  720MPD2    C110693   2.549   0.542  14.144 -0.6805 -0.1064  0.3927
  720MPD2    C210694   2.686   0.534  14.158  0.1213 -0.1229 -0.1559
  720MPD2    C310695   2.743   0.519  14.282  0.5118  0.4656 -0.2582
  720MPD2    C410696   2.660   0.505  14.393 -0.3737 -0.3629 -0.0366
  720MPD2    C510697   2.521   0.505  14.374  0.3097 -0.4979 -0.3467
  720MPD2     H10698   2.754   0.556  14.075  0.2686  1.0889  0.2883
  720MPD2    H110699   2.683   0.493  14.499  0.2780  3.7105  0.2836
  720MPD2    H210700   2.361   0.519  14.248 -0.4499  1.8181 -0.8544
  720MPD2    H310701   2.455   0.508  14.460  1.5959  1.9412  0.5637
  720MPD2     N10702   2.885   0.532  14.293  0.4305 -0.1947 -0.2844
  720MPD2    H510703   2.930   0.556  14.205 -1.3666 -0.1423 -1.1912
  720MPD2    N110704   2.495   0.581  14.019  0.4605  0.3106  0.0333
  720MPD2    H710705   2.557   0.599  13.940  0.8882 -0.2733  0.2402
  721TMC3    C110706   3.105   0.556  14.401 -0.0894 -0.4980 -0.1017
  721TMC3    C210707   3.162   0.612  14.511  0.2610  0.2355 -0.3809
  721TMC3    C310708   3.297   0.616  14.520 -0.3626 -0.0850  0.3495
  721TMC3    C410709   3.175   0.496  14.300 -0.5652  0.2194 -0.0011
  721TMC3    C510710   3.311   0.488  14.322  0.8932  0.0907  0.2318
  721TMC3    C610711   3.379   0.562  14.420 -0.1489 -0.2808  0.1826
  721TMC3     C10712   2.956   0.532  14.410 -0.3798  0.6067  0.2597
  721TMC3     O10713   2.913   0.506  14.522  0.2538  0.5921  0.1734
  721TMC3     H10714   3.093   0.646  14.587  0.9587 -1.9824  1.2501
  721TMC3    H110715   3.127   0.446  14.217 -0.9262  1.5255 -0.5719
  721TMC3    H210716   3.484   0.561  14.445 -0.1408  2.3309  0.2476
  721TMC3    C710717   3.378   0.405  14.232  0.4233  0.7928  0.0273
  721TMC3    C810718   3.356   0.672  14.640  0.0367  0.5745  0.0760
  721TMC3    O110719   3.317   0.343  14.146  0.7801 -0.2467 -0.3184
  721TMC3    O210720   3.468   0.717  14.639  1.2063  0.3034 -0.0285
  722MPD2     C10721   1.405   4.078  13.430  0.3102  0.6089  0.1267
  722MPD2    C110722   1.414   4.169  13.330  0.3449 -0.6463 -0.2780
  722MPD2    C210723   1.301   4.218  13.272 -0.3682  0.1666  0.0129
  722MPD2    C310724   1.176   4.163  13.306 -0.2205 -0.3945  0.2711
  722MPD2    C410725   1.168   4.066  13.403  0.3100  0.0850 -0.2719
  722MPD2    C510726   1.282   4.032  13.467 -0.0367 -0.4501  0.6597
  722MPD2     H10727   1.307   4.286  13.188  2.1431  1.1559  1.0157
  722MPD2    H110728   1.073   4.028  13.439  0.1094  2.2836  1.5102
  722MPD2    H210729   1.489   4.056  13.495 -0.3164  0.5586  0.9221
  722MPD2    H310730   1.282   3.971  13.556  0.8210  0.9534  1.6045
  722MPD2     N10731   1.065   4.219  13.247 -0.3071  0.0166  0.4285
  722MPD2    H510732   1.084   4.286  13.173 -1.1869  0.3596  0.5080
  722MPD2    N110733   1.541   4.220  13.289 -0.5568 -0.0019  0.2404
  722MPD2    H710734   1.534   4.308  13.238 -3.4540  0.2069  1.0196
  723TMC3    C110735   0.842   4.226  13.163  0.8524 -0.2842 -0.0323
  723TMC3    C210736   0.739   4.146  13.136  0.3106 -0.0273  0.4746
  723TMC3    C310737   0.673   4.170  13.018  0.7679  0.5188 -0.1801
  723TMC3    C410738   0.882   4.333  13.095  0.4232 -0.4059 -0.1595
  723TMC3    C510739   0.812   4.356  12.978  0.4111  0.0987 -0.2381
  723TMC3    C610740   0.707   4.272  12.938  1.0783  0.1798  0.0914
  723TMC3     C10741   0.929   4.183  13.269 -0.5343  0.6765  0.1697
  723TMC3     O10742   0.885   4.102  13.346  0.2765 -0.5544  0.2092
  723TMC3     H10743   0.716   4.064  13.204 -0.8238  0.8604  1.1501
  723TMC3    H110744   0.962   4.399  13.125  1.3650 -0.8112 -1.7413
  723TMC3    H210745   0.655   4.279  12.843  0.2912 -1.8031  0.3836
  723TMC3    C710746   0.851   4.462  12.888 -0.0617  0.2059  0.0841
  723TMC3    C810747   0.586   4.067  12.958 -0.6471 -0.4388  0.2437
  723TMC3    O110748   0.867   4.437  12.768 -0.1742 -0.0397 -0.5455
  723TMC3    O210749   0.503   4.094  12.870 -0.1315 -0.1147  0.0572
  724TMC3    C110750   1.386   2.005  10.592 -0.1195  0.2448  0.0522
  724TMC3    C210751   1.291   2.025  10.499 -0.7059  0.4467 -0.2157
  724TMC3    C310752   1.244   2.149  10.483 -0.7525  0.1628  0.5151
  724TMC3    C410753   1.419   2.098  10.688 -0.4110 -0.3343  0.1953
  724TMC3    C510754   1.357   2.219  10.679  0.2634  0.2923 -0.1981
  724TMC3    C610755   1.270   2.244  10.579  0.2597  0.4991 -0.2445
  724TMC3     C10756   1.428   1.864  10.606 -0.7023 -0.4666  0.6653
  724TMC3     O10757   1.514   1.836  10.683  0.0058  0.5666  0.1475
  724TMC3     H10758   1.281   1.954  10.417  2.9224 -0.4089  0.0864
  724TMC3    H110759   1.487   2.071  10.768 -0.4888 -0.0802  0.3456
  724TMC3    H210760   1.223   2.342  10.576 -2.6048 -0.8852 -0.3097
  724TMC3    C710761   1.438   2.337  10.717  0.3833  0.1630 -0.6250
  724TMC3    C810762   1.181   2.185  10.367  0.1831  0.0138  0.5549
  724TMC3    O110763   1.438   2.426  10.633  0.2850  0.2800  0.4631
  724TMC3    O210764   1.127   2.098  10.301  0.1124  0.3009 -0.0839
  725TMC3    C110765   3.191   1.097  12.528  0.1556  0.8596  0.2911
  725TMC3    C210766   3.196   1.094  12.391  0.4599 -0.5045  0.3539
  725TMC3    C310767   3.191   0.970  12.333  0.2958  0.5842 -0.0749
  725TMC3    C410768   3.187   0.980  12.594 -0.0457 -0.6422  1.1397
  725TMC3    C510769   3.198   0.854  12.533  0.1597  0.0207  0.1571
  725TMC3    C610770   3.193   0.847  12.393 -0.3932 -0.3310 -0.3526
  725TMC3     C10771   3.298   1.178  12.581 -0.5593  0.6558 -0.5819
  725TMC3     O10772   3.312   1.290  12.531  0.9010 -0.4099  0.1856
  725TMC3     H10773   3.206   1.185  12.333 -1.4467  0.5036  1.6213
  725TMC3    H110774   3.172   0.995  12.700 -0.2182  1.0640  0.8681
  725TMC3    H210775   3.185   0.751  12.342  2.9418 -1.1599  0.6590
  725TMC3    C710776   3.292   0.769  12.603  0.2502 -0.3655  0.1859
  725TMC3    C810777   3.186   0.957  12.186  0.0052 -0.3811 -0.5441
  725TMC3    O110778   3.315   0.788  12.723 -0.3133  0.8772 -0.5936
  725TMC3    O210779   3.207   0.845  12.146  0.1158  0.4254  0.0044
  726MPD2     C10780   1.050   3.114  10.901  0.1602 -0.0995  0.2652
  726MPD2    C110781   1.004   3.118  10.777  0.3551  0.5207 -0.1147
  726MPD2    C210782   0.940   3.007  10.727  0.0789  0.3274 -0.1158
  726MPD2    C310783   0.905   2.907  10.810  0.0682  0.3703  0.3246
  726MPD2    C410784   0.938   2.910  10.941 -0.1716 -1.3379 -1.1544
  726MPD2    C510785   1.014   3.010  10.988 -0.1021  0.2638  0.2820
  726MPD2     H10786   0.908   3.005  10.623  0.5159  0.4408 -0.2516
  726MPD2    H110787   0.902   2.830  11.004 -0.3645 -1.2339 -1.1332
  726MPD2    H210788   1.117   3.193  10.934 -0.0373  0.5867 -0.9740
  726MPD2    H310789   1.045   3.010  11.091 -0.6852 -0.0011  0.4605
  726MPD2     N10790   0.844   2.787  10.763 -0.1291 -0.1367 -0.4643
  726MPD2    H510791   0.825   2.722  10.838 -2.5529 -0.1591 -1.0792
  726MPD2    N110792   1.027   3.239  10.702  0.8387  0.3283 -0.2993
  726MPD2    H710793   1.093   3.308  10.736  1.7038 -1.4295  1.5990
  727TMC3    C110794   0.999   3.413  10.553  0.8567 -0.4184 -0.4899
  727TMC3    C210795   1.101   3.481  10.619  0.1220 -0.0242  0.8411
  727TMC3    C310796   1.126   3.607  10.581 -0.4656  0.8046  0.5038
  727TMC3    C410797   0.932   3.465  10.443  0.5995 -0.3587  0.3535
  727TMC3    C510798   0.971   3.596  10.414  0.2980  0.7803 -0.0082
  727TMC3    C610799   1.068   3.674  10.483  0.3232 -0.9667  0.2590
  727TMC3     C10800   0.956   3.283  10.591  0.5460 -0.5822 -0.5920
  727TMC3     O10801   0.868   3.225  10.534 -0.0603 -0.6529  0.2596
  727TMC3     H10802   1.146   3.444  10.711 -1.2247  0.0075  1.5064
  727TMC3    H110803   0.861   3.406  10.386  0.2886  0.1818  0.1767
  727TMC3    H210804   1.106   3.771  10.453  0.6148 -1.2775 -0.3684
  727TMC3    C710805   0.860   3.677  10.357 -0.1729  0.6989 -0.3678
  727TMC3    C810806   1.239   3.667  10.652  0.4647  0.1167  0.7718
  727TMC3    O110807   0.880   3.798  10.340 -0.0613 -0.4654 -0.8746
  727TMC3    O210808   1.300   3.589  10.726 -0.3305  0.0426  0.4420
  728TMC3    C110809   0.574   0.927  15.433 -0.5090  0.6546  0.3462
  728TMC3    C210810   0.702   0.972  15.407  0.4737  0.4719 -0.2615
  728TMC3    C310811   0.751   0.962  15.282 -0.0542 -0.1651  0.4405
  728TMC3    C410812   0.499   0.873  15.331 -1.1644  0.2592 -0.4595
  728TMC3    C510813   0.558   0.857  15.204  0.1263 -0.2016 -1.1162
  728TMC3    C610814   0.683   0.899  15.182  0.0510  0.2124 -0.6058
  728TMC3     C10815   0.547   0.890  15.569  0.0234  0.0425 -0.1630
  728TMC3     O10816   0.637   0.905  15.647 -0.3041  0.2037 -0.2466
  728TMC3     H10817   0.763   1.023  15.481 -1.9161  1.6341  0.9155
  728TMC3    H110818   0.391   0.875  15.339 -1.1212 -2.2022  0.6985
  728TMC3    H210819   0.749   0.859  15.105 -0.1080 -0.0653 -0.5976
  728TMC3    C710820   0.473   0.891  15.090  0.3328  0.0255  0.9101
  728TMC3    C810821   0.846   1.058  15.227  0.1518 -0.2539  0.7552
  728TMC3    O110822   0.354   0.863  15.087 -0.5091  1.0412 -0.4079
  728TMC3    O210823   0.826   1.095  15.113 -0.6416 -0.2809 -0.1194
  729MPD2     C10824   2.651   2.320  16.861 -0.5455  0.1122  0.0204
  729MPD2    C110825   2.741   2.227  16.907 -0.2783 -0.1544 -0.2793
  729MPD2    C210826   2.762   2.223  17.040 -0.1124  0.5391 -0.2808
  729MPD2    C310827   2.703   2.309  17.134  0.2178 -0.5442  0.0318
  729MPD2    C410828   2.616   2.407  17.081 -0.0620  0.3487 -0.0502
  729MPD2    C510829   2.586   2.400  16.954  0.2861  0.6621 -0.1808
  729MPD2     H10830   2.835   2.151  17.075  0.6768  1.5701  0.2016
  729MPD2    H110831   2.566   2.477  17.146  1.9006 -0.1627  2.0625
  729MPD2    H210832   2.615   2.325  16.759 -0.6456 -2.4267 -0.0701
  729MPD2    H310833   2.513   2.476  16.929  0.3403  0.7917  0.0552
  729MPD2     N10834   2.723   2.312  17.275  0.3729  0.3676 -0.4323
  729MPD2    H510835   2.692   2.393  17.329  2.0245 -1.0111  2.5748
  729MPD2    N110836   2.818   2.163  16.809  0.2339 -0.2475 -0.1913
  729MPD2    H710837   2.799   2.206  16.719  0.5443 -0.2799 -0.2735
  730TMC3    C110838   2.799   2.282  17.487  0.5493  0.3057 -0.1743
  730TMC3    C210839   2.921   2.273  17.549  0.9689 -0.2834 -0.1694
  730TMC3    C310840   2.975   2.388  17.598  0.0935  0.0888 -0.0766
  730TMC3    C410841   2.731   2.403  17.493  0.5879  0.2793  0.3046
  730TMC3    C510842   2.792   2.517  17.537  0.4268  0.0179 -0.1593
  730TMC3    C610843   2.916   2.516  17.584 -0.2775  0.3995  1.0181
  730TMC3     C10844   2.799   2.230  17.350 -0.1479  0.3115 -0.5882
  730TMC3     O10845   2.868   2.128  17.326 -0.5311 -0.0670  0.0820
  730TMC3     H10846   2.962   2.175  17.566 -1.1452 -1.0399  0.6286
  730TMC3    H110847   2.628   2.414  17.462  0.2155 -1.3258  0.9714
  730TMC3    H210848   2.964   2.609  17.611 -1.3966  1.6536 -1.3141
  730TMC3    C710849   2.758   2.627  17.456  0.1487  0.3650 -0.3678
  730TMC3    C810850   3.100   2.383  17.674 -0.8369 -0.7121  0.2996
  730TMC3    O110851   2.719   2.599  17.344 -0.0711 -0.4239 -0.4880
  730TMC3    O210852   3.169   2.282  17.678 -0.0001  0.1337 -0.6168
  731MPD2     C10853   2.783   0.930  12.415  0.7273  0.2263  0.1147
  731MPD2    C110854   2.835   0.823  12.343 -0.2153 -0.1589 -0.1495
  731MPD2    C210855   2.894   0.728  12.418  0.5043 -0.7683  0.4029
  731MPD2    C310856   2.897   0.723  12.554 -0.0903  0.8064  0.3281
  731MPD2    C410857   2.838   0.825  12.626 -0.1266 -0.0022 -0.2093
  731MPD2    C510858   2.782   0.928  12.551 -0.1652  0.2689 -0.1732
  731MPD2     H10859   2.945   0.646  12.369 -0.2432 -0.3670 -1.0236
  731MPD2    H110860   2.843   0.847  12.732 -0.3687  1.3241 -0.4741
  731MPD2    H210861   2.729   1.007  12.362 -1.2260 -0.3795  1.2581
  731MPD2    H310862   2.739   1.013  12.602  1.2528  0.4797  0.6667
  731MPD2     N10863   2.980   0.625  12.622 -0.5741 -0.2348  0.5430
  731MPD2    H510864   3.027   0.553  12.568  1.8647 -0.3347  2.8037
  731MPD2    N110865   2.842   0.825  12.202  0.2496  0.3864 -0.1485
  731MPD2    H710866   2.797   0.902  12.154 -1.4150  0.2433  1.2020
  732TMC3    C110867   2.917   0.780  11.981 -0.3105 -0.6293 -0.9930
  732TMC3    C210868   2.837   0.880  11.922  0.0213  0.3186  0.1466
  732TMC3    C310869   2.834   0.892  11.792 -0.3634 -0.1991 -0.2748
  732TMC3    C410870   2.995   0.706  11.893  0.1818 -0.4529  0.1987
  732TMC3    C510871   2.981   0.720  11.757  0.4225  0.6829 -0.8603
  732TMC3    C610872   2.895   0.809  11.702  0.1962 -0.6231 -0.2705
  732TMC3     C10873   2.896   0.729  12.117  0.5782  0.3218 -0.7517
  732TMC3     O10874   2.959   0.629  12.145  0.2004 -0.2816  0.2770
  732TMC3     H10875   2.747   0.905  11.978 -0.4012 -2.3568  0.6529
  732TMC3    H110876   3.049   0.628  11.944  3.0007  0.5549 -1.2659
  732TMC3    H210877   2.880   0.829  11.596 -0.7519  1.7033  0.3032
  732TMC3    C710878   3.066   0.649  11.666 -0.7823 -0.0637  0.0385
  732TMC3    C810879   2.711   0.948  11.743 -0.2582  0.6667  0.0375
  732TMC3    O110880   3.026   0.631  11.550 -0.8257 -0.1937  0.7869
  732TMC3    O210881   2.685   1.063  11.782  0.4528  0.0177  0.5705
  733TMC3    C110882   3.675   3.459  12.817  0.7563  0.6764 -0.0377
  733TMC3    C210883   3.777   3.481  12.902  0.4387 -0.3397 -0.0684
  733TMC3    C310884   3.861   3.585  12.872 -0.8721 -0.3291  0.2202
  733TMC3    C410885   3.650   3.540  12.707 -0.4439  0.5572 -0.0018
  733TMC3    C510886   3.734   3.638  12.673 -0.0457  0.0531 -0.1119
  733TMC3    C610887   3.837   3.663  12.760  0.6645  0.4438  0.4581
  733TMC3     C10888   3.560   3.373  12.852  0.5475 -0.3270  1.0551
  733TMC3     O10889   3.467   3.359  12.768 -0.0037 -0.2604  0.1842
  733TMC3     H10890   3.785   3.432  12.998 -0.6531 -0.1145  0.1432
  733TMC3    H110891   3.573   3.525  12.633 -1.3775 -2.7876  1.6598
  733TMC3    H210892   3.908   3.742  12.740 -1.0935  1.3972 -1.9397
  733TMC3    C710893   3.671   3.745  12.599 -0.5708  0.4425  0.4109
  733TMC3    C810894   3.959   3.623  12.973 -0.6047  0.7265 -0.4400
  733TMC3    O110895   3.551   3.732  12.578 -0.0372  0.1309 -0.6265
  733TMC3    O210896   3.999   3.538  13.053 -0.1341 -0.2667  0.4190
  734MPD2     C10897   0.892   1.110  12.591  0.1173 -0.1664 -0.5666
  734MPD2    C110898   0.817   1.034  12.503  0.8471 -0.5522  0.4196
  734MPD2    C210899   0.805   1.064  12.372  0.4088 -0.1158  0.1100
  734MPD2    C310900   0.877   1.169  12.328  0.2125  0.2474  0.3773
  734MPD2    C410901   0.947   1.252  12.413 -1.0258 -0.0909  0.3772
  734MPD2    C510902   0.962   1.214  12.548  0.3768 -0.6680 -0.3791
  734MPD2     H10903   0.759   1.004  12.295 -0.9938 -0.3967  1.1601
  734MPD2    H110904   1.001   1.342  12.389 -2.3584 -0.0753 -2.5598
  734MPD2    H210905   0.883   1.103  12.699  0.2758 -1.1589 -0.6175
  734MPD2    H310906   1.018   1.268  12.624  0.4124  0.3815 -1.1468
  734MPD2     N10907   0.867   1.188  12.188 -0.2137 -0.1929 -0.5311
  734MPD2    H510908   0.795   1.127  12.149 -0.8167  0.2452 -0.0963
  734MPD2    N110909   0.745   0.920  12.557  0.3017 -0.3049 -0.2709
  734MPD2    H710910   0.768   0.896  12.653 -1.8155  0.2265  0.3686
  735TMC3    C110911   0.614   0.717  12.557 -0.1012  0.2737  0.0505
  735TMC3    C210912   0.510   0.666  12.476  0.0228 -0.0363 -0.3446
  735TMC3    C310913   0.518   0.533  12.432 -0.3935 -0.1370 -0.1426
  735TMC3    C410914   0.714   0.635  12.602  0.2610 -0.7626  0.0974
  735TMC3    C510915   0.721   0.506  12.559  0.1121  0.1319  0.0074
  735TMC3    C610916   0.624   0.459  12.477  0.2682 -0.7470  0.1636
  735TMC3     C10917   0.660   0.833  12.485  0.8545  0.3991  0.7327
  735TMC3     O10918   0.624   0.841  12.372 -0.0812 -0.3884  0.0889
  735TMC3     H10919   0.425   0.728  12.448  1.3521  0.3494 -3.5062
  735TMC3    H110920   0.803   0.680  12.643  0.1736  0.7203 -1.3381
  735TMC3    H210921   0.625   0.356  12.445  0.5245 -1.3669  2.1455
  735TMC3    C710922   0.853   0.477  12.515  0.9561  0.5311 -0.1353
  735TMC3    C810923   0.493   0.516  12.287  0.0801 -0.1744 -0.2364
  735TMC3    O110924   0.922   0.575  12.489 -0.2128 -0.3345 -0.3432
  735TMC3    O210925   0.478   0.399  12.249 -0.1092 -0.4071  0.4948
  736MPD2     C10926   0.961   0.152  12.382 -0.3389  0.0371  0.3438
  736MPD2    C110927   0.971   0.287  12.407 -0.3402  0.3332  0.0664
  736MPD2    C210928   1.070   0.360  12.343 -0.6968  0.2708 -0.0540
  736MPD2    C310929   1.158   0.306  12.251  0.9338 -0.1461 -0.0411
  736MPD2    C410930   1.148   0.169  12.222 -0.3650  0.6175 -0.1822
  736MPD2    C510931   1.057   0.097  12.296 -0.2475  0.7017  0.4985
  736MPD2     H10932   1.070   0.466  12.364  2.6711 -0.0968  1.8477
  736MPD2    H110933   1.212   0.123  12.147  0.3606 -0.4075  1.0677
  736MPD2    H210934   0.893   0.083  12.431 -0.3353  0.6373  1.1966
  736MPD2    H310935   1.047   4.731  12.278 -0.6188  0.4594  2.1432
  736MPD2     N10936   1.248   0.375  12.168  0.5265 -0.6973 -0.0556
  736MPD2    H510937   1.291   0.327  12.090 -0.1096  0.3073 -1.0119
  736MPD2    N110938   0.873   0.344  12.490  0.3359 -0.6449 -0.2189
  736MPD2    H710939   0.789   0.291  12.511 -0.4564  1.2010  1.2222
  737TMC3    C110940   1.363   0.560  12.088 -0.0845  0.8468 -0.2039
  737TMC3    C210941   1.418   0.682  12.102  0.3912 -0.0807 -0.0184
  737TMC3    C310942   1.478   0.750  11.997 -0.0718 -0.2234  0.5930
  737TMC3    C410943   1.363   0.501  11.965 -0.0585  0.3917 -0.1262
  737TMC3    C510944   1.432   0.568  11.865  0.5175  0.0402 -0.0424
  737TMC3    C610945   1.497   0.690  11.877 -0.0429 -0.9398  0.0836
  737TMC3     C10946   1.297   0.503  12.200 -0.0077 -0.2883  0.5834
  737TMC3     O10947   1.277   0.572  12.297 -0.0301 -0.2938  0.2639
  737TMC3     H10948   1.414   0.733  12.197  0.6902 -3.1841  1.6499
  737TMC3    H110949   1.326   0.403  11.938 -1.0924  1.0880 -1.2547
  737TMC3    H210950   1.547   0.734  11.792 -2.0238  0.0586 -0.5674
  737TMC3    C710951   1.477   0.482  11.755 -0.1118 -0.6013 -1.2685
  737TMC3    C810952   1.477   0.896  12.003  0.5383 -0.2798 -0.1715
  737TMC3    O110953   1.481   0.365  11.780  0.4922  0.3326  0.4253
  737TMC3    O210954   1.463   0.953  12.114 -0.0634 -0.2572 -0.1922
  738MPD2     C10955   1.607   4.367  14.826  0.1339 -0.3133 -0.2877
  738MPD2    C110956   1.679   4.277  14.907 -0.0916  0.2993  0.4905
  738MPD2    C210957   1.806   4.233  14.866  0.2530  0.5623  0.4447
  738MPD2    C310958   1.867   4.283  14.758 -0.1478  0.0775  0.5083
  738MPD2    C410959   1.805   4.381  14.690  0.7886  0.9424 -0.5405
  738MPD2    C510960   1.676   4.414  14.712  0.7797 -0.0464  0.3819
  738MPD2     H10961   1.848   4.149  14.921 -2.4151 -1.2098 -0.2061
  738MPD2    H110962   1.850   4.426  14.602  1.8837  2.9403  1.0554
  738MPD2    H210963   1.506   4.401  14.841  0.8905  1.3362  1.0526
  738MPD2    H310964   1.632   4.491  14.649  1.1504 -0.7049 -0.6762
  738MPD2     N10965   1.992   4.246  14.707 -0.5001  0.2650  0.1261
  738MPD2    H510966   2.017   4.305  14.628 -0.6673 -0.6405 -0.6035
  738MPD2    N110967   1.608   4.218  15.015 -0.3080 -0.5384 -0.2996
  738MPD2    H710968   1.507   4.230  15.022 -0.1949  0.0991  0.2671
  739TMC3    C110969   2.192   4.124  14.658 -0.6523  0.0076  0.1992
  739TMC3    C210970   2.206   4.196  14.541  0.2293  0.4395  0.3715
  739TMC3    C310971   2.329   4.201  14.488 -0.1836 -0.5785 -0.4031
  739TMC3    C410972   2.307   4.064  14.721 -0.0516  0.0648 -0.0901
  739TMC3    C510973   2.426   4.082  14.662 -0.5272  0.2548 -0.0649
  739TMC3    C610974   2.440   4.160  14.551 -0.1164 -0.2991 -0.0218
  739TMC3     C10975   2.075   4.144  14.750  0.4365 -0.6219  0.9463
  739TMC3     O10976   2.067   4.071  14.846  0.5720 -0.0924  0.3613
  739TMC3     H10977   2.122   4.240  14.488  0.8517  0.4144 -0.6174
  739TMC3    H110978   2.294   4.020  14.819 -0.1891 -0.3513 -0.2955
  739TMC3    H210979   2.540   4.181  14.517 -1.1528  1.7859 -1.7600
  739TMC3    C710980   2.534   4.063  14.757  0.0057 -0.5788 -0.5575
  739TMC3    C810981   2.346   4.276  14.361  0.3641 -0.7510 -0.0147
  739TMC3    O110982   2.615   4.158  14.768 -0.1974 -0.0919 -0.0774
  739TMC3    O210983   2.265   4.364  14.326 -0.6022  0.1408  0.6545
  740TMC3    C110984   2.344   0.830  14.464  1.4032 -0.3716 -0.3972
  740TMC3    C210985   2.408   0.832  14.589  0.2447  0.3115  0.2269
  740TMC3    C310986   2.540   0.831  14.594 -0.8071  0.0195 -0.1192
  740TMC3    C410987   2.420   0.848  14.349  0.6060  0.4405 -0.4286
  740TMC3    C510988   2.556   0.844  14.358 -0.5991 -0.3516 -0.3687
  740TMC3    C610989   2.617   0.829  14.482 -0.1547  0.2600  0.2337
  740TMC3     C10990   2.209   0.887  14.463 -0.0381 -0.0120 -0.1280
  740TMC3     O10991   2.174   0.972  14.383  0.4510  0.1095  0.1780
  740TMC3     H10992   2.352   0.829  14.681  0.9746  0.0549  0.6563
  740TMC3    H110993   2.359   0.860  14.260  0.3841  0.9533 -0.2028
  740TMC3    H210994   2.720   0.794  14.477 -0.3939 -0.5000  0.6304
  740TMC3    C710995   2.643   0.853  14.248  0.0730  0.6302  0.2333
  740TMC3    C810996   2.605   0.817  14.724  0.3960 -0.0715 -0.1483
  740TMC3    O110997   2.764   0.822  14.268 -0.0587 -0.7111 -0.1985
  740TMC3    O210998   2.534   0.780  14.819  0.3712  0.1324 -0.2616
  741TMC3    C110999   1.945   0.413  13.858  0.1096  0.6682 -0.3698
  741TMC3    C211000   1.846   0.380  13.947 -0.0707 -0.3855 -0.1678
  741TMC3    C311001   1.876   0.294  14.046 -0.1171 -0.2619 -0.4499
  741TMC3    C411002   2.074   0.388  13.885 -0.6126 -0.0518 -0.0345
  741TMC3    C511003   2.100   0.303  13.986  0.1022 -0.1616 -1.2857
  741TMC3    C611004   2.000   0.255  14.068  0.4385  0.1910 -0.3754
  741TMC3     C11005   1.906   0.489  13.745 -0.9213  0.4259  0.0944
  741TMC3     O11006   1.814   0.570  13.764 -0.3524  0.4303 -1.1528
  741TMC3     H11007   1.742   0.392  13.920 -0.1901 -2.0065 -0.4179
  741TMC3    H111008   2.150   0.428  13.819 -0.0148 -0.5640  0.3504
  741TMC3    H211009   2.025   0.196  14.156  0.4392  0.9540  0.1279
  741TMC3    C711010   2.232   0.251  13.998 -0.3716 -0.2130  0.0480
  741TMC3    C811011   1.760   0.205  14.082 -0.3267  0.4931  0.2751
  741TMC3    O111012   2.310   0.302  13.924  0.2534  0.0555  0.1725
  741TMC3    O211013   1.651   0.261  14.089 -0.7774 -0.1444  0.3092
  742TMC3    C111014   2.043   3.396  15.369  0.7064 -0.1431  0.2330
  742TMC3    C211015   1.972   3.438  15.255  0.4784  0.6584 -0.6609
  742TMC3    C311016   2.020   3.386  15.141  0.1994 -0.3621 -0.2935
  742TMC3    C411017   2.168   3.342  15.365 -0.1510  0.9275 -0.8301
  742TMC3    C511018   2.214   3.308  15.242 -0.3404 -0.2016 -0.4187
  742TMC3    C611019   2.147   3.333  15.126 -0.4187  0.2809 -0.2857
  742TMC3     C11020   1.989   3.441  15.496 -0.2886 -0.3583  0.2811
  742TMC3     O11021   1.941   3.551  15.506 -0.3302 -0.2166  0.1347
  742TMC3     H11022   1.866   3.457  15.269 -0.0869 -3.4124  0.7581
  742TMC3    H111023   2.217   3.313  15.458 -2.4549  0.1496  0.1247
  742TMC3    H211024   2.193   3.314  15.030  0.4396  1.6132 -0.1231
  742TMC3    C711025   2.356   3.293  15.227  0.4391 -0.2836  0.4916
  742TMC3    C811026   1.926   3.418  15.032 -1.3026  0.4764  0.5617
  742TMC3    O111027   2.399   3.223  15.140  0.5674 -0.1720  0.2723
  742TMC3    O211028   1.820   3.482  15.056  0.5376 -0.1551 -0.6761
  743MPD2     C11029   4.234   4.426   1.677  0.2293  0.2320 -0.0684
  743MPD2    C111030   4.307   4.382   1.574 -0.0680 -0.0644  0.6947
  743MPD2    C211031   4.431   4.433   1.552  0.2836  0.5195  0.2471
  743MPD2    C311032   4.490   4.524   1.643  0.5893  0.4257  0.2379
  743MPD2    C411033   4.417   4.562   1.750  0.1824  0.4359  0.1583
  743MPD2    C511034   4.293   4.507   1.775 -0.4385  0.8073  0.2302
  743MPD2     H11035   4.494   4.415   1.465  1.2904  1.4228  0.7844
  743MPD2    H111036   4.445   4.638   1.822 -0.3117  1.8541 -1.1408
  743MPD2    H211037   4.132   4.392   1.692  0.2458 -0.0944 -0.6659
  743MPD2    H311038   4.232   4.524   1.863 -1.0795 -0.0971 -0.0395
  743MPD2     N11039   4.625   4.562   1.617 -0.5524 -0.3047 -0.1058
  743MPD2    H511040   4.664   4.529   1.529  1.0455 -0.6399  0.7283
  743MPD2    N111041   4.235   4.308   1.478  0.3820 -0.4353  0.7982
  743MPD2    H711042   4.134   4.298   1.478 -0.0302  3.4038 -1.0330
  744TMC3    C111043   4.224   4.181   1.274  0.0371 -0.1185  0.5565
  744TMC3    C211044   4.086   4.160   1.278  0.6076  0.3515 -0.5303
  744TMC3    C311045   4.020   4.106   1.172  0.0557  0.1532  0.0619
  744TMC3    C411046   4.296   4.151   1.162  0.4049 -0.5629 -0.0318
  744TMC3    C511047   4.227   4.089   1.058  0.4381 -0.6386 -0.5745
  744TMC3    C611048   4.097   4.060   1.062 -0.1303 -0.2038  0.5474
  744TMC3     C11049   4.305   4.241   1.383  0.4148  0.0662  0.7052
  744TMC3     O11050   4.428   4.219   1.380 -0.0872 -0.4198 -0.4324
  744TMC3     H11051   4.036   4.196   1.367 -0.8991 -1.3400 -0.6955
  744TMC3    H111052   4.402   4.167   1.153  0.0555  0.3497 -2.5476
  744TMC3    H211053   4.029   4.044   0.980  0.5593  1.2336 -0.3005
  744TMC3    C711054   4.308   4.084   0.934 -0.1052 -0.1252 -1.2238
  744TMC3    C811055   3.879   4.097   1.171  0.9383  0.6266 -0.3495
  744TMC3    O111056   4.426   4.117   0.936 -0.3333 -0.6519 -0.0084
  744TMC3    O211057   3.834   4.095   1.056 -0.0162  0.4194 -0.1129
  745TMC3    C111058   2.104   2.981  13.712  0.1420 -0.3573 -0.2924
  745TMC3    C211059   1.992   2.948  13.783 -0.4184 -0.3406 -0.0912
  745TMC3    C311060   1.871   2.997  13.749 -0.2852 -0.3095 -0.0358
  745TMC3    C411061   2.101   3.077  13.620 -0.4237 -0.1204 -0.2239
  745TMC3    C511062   1.975   3.122  13.575  0.1364 -0.1290  0.5533
  745TMC3    C611063   1.862   3.084  13.644  0.2282 -0.2529  0.1132
  745TMC3     C11064   2.225   2.974  13.785  0.4862  0.9940  0.7065
  745TMC3     O11065   2.241   2.874  13.854 -0.1911  0.0370  0.7645
  745TMC3     H11066   1.992   2.861  13.848  1.3423  0.1954  0.6389
  745TMC3    H111067   2.193   3.079  13.564 -0.4824 -1.8321 -0.3778
  745TMC3    H211068   1.773   3.140  13.620  0.3685 -0.2330 -0.3615
  745TMC3    C711069   1.966   3.221  13.473  0.1468  0.1057  0.2739
  745TMC3    C811070   1.824   3.050  13.877 -0.0121  0.5281 -0.1431
  745TMC3    O111071   1.860   3.286  13.457 -0.8642 -0.0079  0.5969
  745TMC3    O211072   1.713   3.100  13.897  0.5790  0.0742 -0.1253
  746TMC3    C111073   4.167   0.423  11.151 -0.5435 -0.0500 -0.2523
  746TMC3    C211074   4.276   0.388  11.074  0.0423  0.2909  0.8713
  746TMC3    C311075   4.277   0.257  11.032 -0.8209 -0.2221 -0.4372
  746TMC3    C411076   4.061   0.343  11.174 -0.5324 -0.0648 -0.2498
  746TMC3    C511077   4.070   0.212  11.125  0.3668 -0.6520 -0.0814
  746TMC3    C611078   4.175   0.166  11.052  0.3294  0.3845 -0.5712
  746TMC3     C11079   4.173   0.559  11.191 -0.1033  0.0517 -0.3256
  746TMC3     O11080   4.116   0.587  11.297 -0.8354 -0.3797  0.6598
  746TMC3     H11081   4.369   0.443  11.065  1.1090 -1.3426  1.9350
  746TMC3    H111082   3.972   0.380  11.226  0.1969 -0.3771  1.2164
  746TMC3    H211083   4.179   0.063  11.020  0.9704  0.7427 -1.6754
  746TMC3    C711084   3.952   0.128  11.096 -0.2847 -0.2448 -0.0577
  746TMC3    C811085   4.370   0.215  10.920  0.2260 -0.4728 -0.3501
  746TMC3    O111086   3.977   0.011  11.088  0.1474 -1.0255 -0.7832
  746TMC3    O211087   4.363   0.101  10.877  0.3958  0.4378 -0.6677
  747TMC3    C111088   1.581   0.838  10.775  0.3575  0.1188  0.8715
  747TMC3    C211089   1.594   0.714  10.839  0.0616  0.0536 -0.0759
  747TMC3    C311090   1.638   0.721  10.967  0.1253  0.5258 -0.3292
  747TMC3    C411091   1.590   0.954  10.849  0.5597 -0.0795  0.5308
  747TMC3    C511092   1.629   0.956  10.977 -0.0654 -0.2512  0.2741
  747TMC3    C611093   1.664   0.838  11.037  0.2303  0.1932 -0.0326
  747TMC3     C11094   1.524   0.846  10.640  0.1020 -0.6136 -0.3457
  747TMC3     O11095   1.460   0.943  10.597 -0.0237  1.0340  0.3132
  747TMC3     H11096   1.576   0.619  10.791 -1.0912  1.6065 -2.7241
  747TMC3    H111097   1.563   1.046  10.797 -0.4070 -1.2752 -1.0904
  747TMC3    H211098   1.715   0.841  11.132 -0.8520 -0.4727  0.5713
  747TMC3    C711099   1.665   1.068  11.060  0.1074 -0.4360  0.5417
  747TMC3    C811100   1.652   0.600  11.055  0.1508  0.0957 -0.3628
  747TMC3    O111101   1.646   1.053  11.179  0.6703 -0.5063 -0.5915
  747TMC3    O211102   1.669   0.488  11.006 -0.0566  0.1594  0.0120
  748MPD2     C11103   3.929   0.870   0.889 -0.5084 -0.4309 -0.4085
  748MPD2    C111104   4.007   0.842   0.782 -0.0636 -0.1965  0.0807
  748MPD2    C211105   4.144   0.832   0.802  0.3420  0.0728  0.2636
  748MPD2    C311106   4.202   0.859   0.924  0.2033  0.3298 -0.1996
  748MPD2    C411107   4.122   0.894   1.029  0.0992  0.0956  1.2372
  748MPD2    C511108   3.981   0.891   1.014  0.5544 -0.4506  0.1251
  748MPD2     H11109   4.215   0.810   0.723  0.1424 -1.0037  0.3762
  748MPD2    H111110   4.156   0.931   1.125 -1.4046  1.1783  1.3492
  748MPD2    H211111   3.823   0.884   0.874 -0.3447  0.4335 -0.7634
  748MPD2    H311112   3.909   0.924   1.090  0.3842 -0.6116  0.0325
  748MPD2     N11113   4.345   0.851   0.931  0.5391  0.3634  0.4269
  748MPD2    H511114   4.380   0.832   0.838  1.0646  0.9835  0.4954
  748MPD2    N111115   3.955   0.812   0.659 -0.2293 -0.3457  0.4250
  748MPD2    H711116   3.854   0.826   0.652 -0.1297 -0.0007 -0.3237
  749TMC3    C111117   4.563   0.898   1.017 -0.7927  0.3800  0.6010
  749TMC3    C211118   4.651   0.872   1.118 -0.0755  0.2284  0.0569
  749TMC3    C311119   0.028   0.933   1.115 -0.1224  0.2546 -0.4447
  749TMC3    C411120   4.586   0.990   0.917 -0.1111  0.8542  0.3133
  749TMC3    C511121   4.716   1.049   0.915  0.4345 -0.0293  0.6085
  749TMC3    C611122   0.066   1.026   1.020  0.5871  0.2711 -0.9310
  749TMC3     C11123   4.424   0.859   1.043  0.7844  0.1335 -0.4896
  749TMC3     O11124   4.383   0.831   1.153  0.2735  0.4376 -0.0837
  749TMC3     H11125   4.627   0.807   1.201 -1.2582  2.2619  1.2887
  749TMC3    H111126   4.507   1.037   0.859  1.4511  2.5366 -0.4322
  749TMC3    H211127   0.166   1.068   1.019  0.1235  1.3570 -2.2618
  749TMC3    C711128   0.011   1.163   0.827  0.2726  0.6787 -0.2505
  749TMC3    C811129   0.124   0.909   1.219  0.2224 -0.0511 -0.7601
  749TMC3    O111130   0.090   1.243   0.869 -0.0735 -0.6819  0.6721
  749TMC3    O211131   0.148   1.002   1.292  0.3739 -0.1397  0.3965
  750MPD2     C11132   4.513   2.418  11.552 -0.0891  0.5142  0.7309
  750MPD2    C111133   4.386   2.372  11.572  0.1267  0.1329 -0.4754
  750MPD2    C211134   4.350   2.248  11.516 -0.3474  0.3223  0.2836
  750MPD2    C311135   4.445   2.178  11.442 -0.2296 -0.4000  0.0570
  750MPD2    C411136   4.574   2.227  11.431  0.1878 -0.4932  0.4296
  750MPD2    C511137   4.608   2.349  11.485 -0.1484 -0.0873 -0.1028
  750MPD2     H11138   4.248   2.214  11.525 -0.6822  1.2657  0.0904
  750MPD2    H111139   4.645   2.178  11.366  0.1660 -0.1793  0.1654
  750MPD2    H211140   4.536   2.510  11.604 -0.8560  1.3162 -0.3449
  750MPD2    H311141   4.710   2.384  11.473 -0.9856  2.8542  1.0785
  750MPD2     N11142   4.420   2.048  11.378 -0.4163  0.3592  0.1362
  750MPD2    H511143   4.485   1.994  11.321 -1.9621 -0.0036 -1.3026
  750MPD2    N111144   4.306   2.449  11.655 -0.4393  0.1005 -0.2913
  750MPD2    H711145   4.339   2.540  11.685 -0.7066  0.2681 -0.5040
  751TMC3    C111146   4.302   1.854  11.320 -0.3645  0.0948 -0.0306
  751TMC3    C211147   4.223   1.752  11.370 -0.2498  0.0734 -0.3127
  751TMC3    C311148   4.163   1.675  11.274 -0.2271 -0.1048 -0.3414
  751TMC3    C411149   4.325   1.873  11.186 -0.0384 -0.3578  0.2524
  751TMC3    C511150   4.272   1.782  11.098 -0.3549 -0.2215  0.3736
  751TMC3    C611151   4.193   1.678  11.143  0.2482 -0.8399  0.0233
  751TMC3     C11152   4.304   1.976  11.400 -0.7758  0.1245  0.3505
  751TMC3     O11153   4.208   1.990  11.475 -0.4561  0.3524 -0.3794
  751TMC3     H11154   4.181   1.764  11.470 -1.2038 -0.1323 -0.6870
  751TMC3    H111155   4.379   1.959  11.149  0.0142 -0.4445  0.1278
  751TMC3    H211156   4.152   1.608  11.072 -0.3022  1.4439 -1.9218
  751TMC3    C711157   4.329   1.773  10.957 -0.0415  0.0830  0.1564
  751TMC3    C811158   4.063   1.577  11.302  0.1606  0.2281 -0.5293
  751TMC3    O111159   4.439   1.818  10.936 -0.2814  0.4116  0.3699
  751TMC3    O211160   3.995   1.539  11.207  0.2795  0.3931  0.1765
  752TMC3    C111161   3.754   2.291  17.484 -0.3714 -0.4401 -0.1354
  752TMC3    C211162   3.828   2.248  17.586  0.2958  0.5761  0.0492
  752TMC3    C311163   3.826   2.322  17.700 -0.4509 -0.7606  0.1900
  752TMC3    C411164   3.668   2.397  17.487 -0.5697 -0.4779 -0.1017
  752TMC3    C511165   3.662   2.465  17.607  0.0765  0.3964  0.0537
  752TMC3    C611166   3.751   2.440  17.711  0.2472 -0.1781  0.3135
  752TMC3     C11167   3.776   2.221  17.357 -0.2618 -0.0632  0.2476
  752TMC3     O11168   3.888   2.180  17.345 -0.3995  0.0437  0.5702
  752TMC3     H11169   3.894   2.164  17.566 -1.7046 -0.6992 -1.1001
  752TMC3    H111170   3.601   2.423  17.406 -1.5019  0.0970  0.8577
  752TMC3    H211171   3.751   2.501   0.043 -2.3916  0.3632 -0.0460
  752TMC3    C711172   3.562   2.562  17.634  0.6719 -0.2900 -0.4621
  752TMC3    C811173   3.896   2.280   0.067 -0.3456  0.2049  0.2153
  752TMC3    O111174   3.569   2.631  17.736 -0.0535  0.7828 -0.1936
  752TMC3    O211175   3.912   2.369   0.147  0.0048  0.0371 -0.5112
  753TMC3    C111176   0.662   2.953  13.560 -0.5313 -0.2968  0.1140
  753TMC3    C211177   0.800   2.942  13.544 -0.5633 -0.2191  0.3197
  753TMC3    C311178   0.857   2.838  13.610  0.1669 -1.1647 -0.4188
  753TMC3    C411179   0.598   2.872  13.652  0.2862 -0.5376  0.4047
  753TMC3    C511180   0.658   2.778  13.725  0.0520 -0.3207  0.2021
  753TMC3    C611181   0.791   2.748  13.698 -0.4201 -0.0099 -0.4974
  753TMC3     C11182   0.577   3.051  13.492 -0.1084  0.0125 -0.0196
  753TMC3     O11183   0.456   3.046  13.505  0.6392 -0.3519  1.1687
  753TMC3     H11184   0.852   3.007  13.474 -3.1417  0.8017 -0.6489
  753TMC3    H111185   0.498   2.899  13.685 -0.2187  0.6813 -2.1251
  753TMC3    H211186   0.841   2.661  13.739  0.7729  0.8155 -0.1986
  753TMC3    C711187   0.602   2.712  13.849  0.0145 -0.0962 -0.1878
  753TMC3    C811188   0.997   2.854  13.659 -0.2832 -1.2882  0.5189
  753TMC3    O111189   0.681   2.647  13.919 -0.1057 -0.3394  0.0560
  753TMC3    O211190   1.052   2.748  13.688 -0.1093 -0.9901  0.1944
  754MPD2     C11191   4.625   1.713  13.061 -0.0743  0.2788  0.0303
  754MPD2    C111192   4.556   1.595  13.038  0.0844 -0.8403  0.3497
  754MPD2    C211193   4.425   1.603  12.991 -0.1288 -0.3815 -0.0919
  754MPD2    C311194   4.372   1.723  12.976 -0.5144  0.4697  0.1629
  754MPD2    C411195   4.445   1.840  12.988  0.1316 -0.3100  0.5473
  754MPD2    C511196   4.574   1.829  13.022 -0.0764  0.1100 -0.7521
  754MPD2     H11197   4.364   1.515  12.973 -1.1720  0.2804  0.1791
  754MPD2    H111198   4.398   1.935  12.966 -1.7930 -1.6980 -1.4030
  754MPD2    H211199   4.728   1.710  13.096  0.0440  0.6044 -0.2921
  754MPD2    H311200   4.631   1.921  13.030 -2.7335  1.5164  1.7074
  754MPD2     N11201   4.233   1.743  12.943 -0.6524  0.2120 -0.0423
  754MPD2    H511202   4.197   1.838  12.952 -0.3528  0.1708  1.5377
  754MPD2    N111203   4.619   1.478  13.071  0.5376  0.1181  0.1281
  754MPD2    H711204   4.708   1.489  13.120  0.4381  1.5867 -0.0295
  755MPD2     C11205   3.780   2.200  13.496 -0.6865 -0.2633  0.3759
  755MPD2    C111206   3.702   2.090  13.463  0.3977  0.4980  0.2548
  755MPD2    C211207   3.725   2.021  13.344  0.5280  0.0051 -1.0168
  755MPD2    C311208   3.830   2.047  13.266 -0.0804  0.0976  0.2830
  755MPD2    C411209   3.918   2.144  13.305  0.0456 -0.3366  0.2309
  755MPD2    C511210   3.888   2.226  13.413 -0.2211  0.0495 -0.6449
  755MPD2     H11211   3.657   1.939  13.325 -0.0307 -0.0798  1.3603
  755MPD2    H111212   4.016   2.170  13.267 -1.1817  1.2483 -1.8188
  755MPD2    H211213   3.761   2.262  13.583 -2.0859 -0.6035  0.3066
  755MPD2    H311214   3.955   2.305  13.444 -1.6803  0.7667  0.6709
  755MPD2     N11215   3.864   1.972  13.155  0.0094  0.3286 -0.6390
  755MPD2    H511216   3.944   2.009  13.104 -0.6579  0.3190 -1.6692
  755MPD2    N111217   3.593   2.040  13.548 -0.2427 -0.4093  0.1184
  755MPD2    H711218   3.555   1.948  13.527 -3.3990  0.5277  1.7935
  756MPD2     C11219   3.621   2.963   9.780  0.3876 -0.1906  0.5568
  756MPD2    C111220   3.546   2.891   9.874  0.4081 -0.6152 -0.5406
  756MPD2    C211221   3.416   2.846   9.845 -0.5173  0.7582 -0.3650
  756MPD2    C311222   3.355   2.878   9.729 -0.4492  0.0614 -0.0161
  756MPD2    C411223   3.430   2.943   9.634 -0.0342  0.5476  0.1897
  756MPD2    C511224   3.560   2.984   9.661  0.0077 -0.3174  0.1083
  756MPD2     H11225   3.360   2.788   9.918 -0.0692  0.1212 -0.5197
  756MPD2    H111226   3.395   2.953   9.532 -2.1594 -2.1989  0.6608
  756MPD2    H211227   3.727   2.981   9.788  0.1742  0.9773  0.8066
  756MPD2    H311228   3.613   3.036   9.582 -0.0083 -1.1332 -0.4364
  756MPD2     N11229   3.223   2.839   9.711  0.0968  0.1757  0.3774
  756MPD2    H511230   3.173   2.803   9.792 -1.3389  1.3708  0.0076
  756MPD2    N111231   3.597   2.861   9.998  0.1560  0.3905 -0.2367
  756MPD2    H711232   3.538   2.798  10.051  3.1844 -1.7900  0.5175
  757MPD2     C11233   2.952   2.138  10.079 -0.3953  0.5992  0.4628
  757MPD2    C111234   3.064   2.161   9.999  0.2061 -0.0834 -0.1109
  757MPD2    C211235   3.055   2.275   9.920  0.2280  0.2473  0.1178
  757MPD2    C311236   2.938   2.355   9.917 -0.5050 -0.4551 -0.4818
  757MPD2    C411237   2.833   2.322  10.003 -0.5968 -0.3384 -0.4370
  757MPD2    C511238   2.839   2.215  10.089 -0.4399  0.5221  0.0538
  757MPD2     H11239   3.137   2.297   9.853  0.1952 -1.2816 -0.4253
  757MPD2    H111240   2.738   2.374   9.999  0.1912  1.1346  0.1190
  757MPD2    H211241   2.947   2.043  10.131  1.5279 -0.3008 -1.0280
  757MPD2    H311242   2.772   2.188  10.170  0.9102 -0.9762  0.6611
  757MPD2     N11243   2.929   2.460   9.823 -0.0190  0.4099 -0.4630
  757MPD2    H511244   3.002   2.472   9.753  1.0402  0.4916  0.6404
  757MPD2    N111245   3.164   2.063   9.987  0.1987  0.1322 -0.1930
  757MPD2    H711246   3.153   1.964  10.007  2.4297 -0.1339 -0.3690
  758MPD2     C11247   4.508   1.498  15.925 -0.4926 -0.1236 -0.1234
  758MPD2    C111248   4.590   1.431  16.009 -0.6883 -0.6541 -0.1681
  758MPD2    C211249   4.547   1.415  16.140  0.3814  0.1274  0.0688
  758MPD2    C311250   4.428   1.464  16.188 -0.3336  0.4195  0.1340
  758MPD2    C411251   4.340   1.513  16.096 -0.0329  0.0189 -0.1839
  758MPD2    C511252   4.381   1.520  15.967 -0.1531 -0.1430  0.4563
  758MPD2     H11253   4.601   1.353  16.211  1.4571  0.5602 -0.3588
  758MPD2    H111254   4.246   1.560  16.122 -1.5610 -2.5871 -1.0050
  758MPD2    H211255   4.537   1.527  15.824  1.7728 -0.1902  0.5187
  758MPD2    H311256   4.314   1.574  15.900 -1.0309  0.8458  2.1172
  758MPD2     N11257   4.389   1.449  16.325 -0.0326 -0.1673  0.2211
  758MPD2    H511258   4.290   1.459  16.344  0.1297 -1.9421  1.9858
  758MPD2    N111259   4.721   1.396  15.970 -0.2049 -0.1690 -0.1319
  758MPD2    H711260   0.014   1.430  15.880  2.8088  0.8177  1.3392
  759MPD2     C11261   2.229   0.069   9.284  0.3516  0.4760 -0.0833
  759MPD2    C111262   2.286   0.114   9.396  0.8054  0.3105 -0.5221
  759MPD2    C211263   2.389   0.212   9.393  0.3208  0.3436  0.6481
  759MPD2    C311264   2.438   0.258   9.276  0.2258 -0.0246 -0.2901
  759MPD2    C411265   2.364   0.214   9.158  0.2317 -0.8240 -0.2211
  759MPD2    C511266   2.265   0.122   9.163 -0.0258 -0.0325 -0.5819
  759MPD2     H11267   2.423   0.253   9.488  0.4402 -0.7039  1.0635
  759MPD2    H111268   2.380   0.237   9.053  0.7359 -2.9998 -0.6274
  759MPD2    H211269   2.158   4.727   9.285  0.3873  0.4487  0.1025
  759MPD2    H311270   2.225   0.075   9.074  0.3631 -1.2361 -0.1286
  759MPD2     N11271   2.564   0.321   9.272  0.2330 -0.2324 -0.3948
  759MPD2    H511272   2.605   0.354   9.358 -0.1167 -1.9129  0.4185
  759MPD2    N111273   2.250   0.066   9.523  0.0580 -0.2489 -0.4000
  759MPD2    H711274   2.295   0.102   9.606  1.3955 -1.8719 -0.4075
  760MPD2     C11275   2.763   1.941  12.127  0.5195 -0.9127  0.1906
  760MPD2    C111276   2.782   1.994  12.004  0.7716 -0.3561  0.3372
  760MPD2    C211277   2.778   1.908  11.897  0.0196  0.2242 -0.0327
  760MPD2    C311278   2.748   1.770  11.915  0.5548  0.0856 -0.9395
  760MPD2    C411279   2.735   1.720  12.041 -0.6092 -0.4637  0.0638
  760MPD2    C511280   2.728   1.808  12.148  0.0764  0.0700 -0.7281
  760MPD2     H11281   2.803   1.938  11.796 -0.0345 -1.4934 -0.5699
  760MPD2    H111282   2.731   1.613  12.058  0.4063 -0.5532 -0.2889
  760MPD2    H211283   2.770   2.005  12.214 -0.1430  1.7520 -1.7048
  760MPD2    H311284   2.714   1.773  12.250  1.4835 -1.5794 -1.0936
  760MPD2     N11285   2.765   1.688  11.804  0.1288 -0.1495  0.2258
  760MPD2    H511286   2.801   1.594  11.820 -3.0229 -1.4920 -0.6508
  760MPD2    N111287   2.803   2.131  11.992 -0.3444 -0.2737  0.2025
  760MPD2    H711288   2.822   2.182  12.078  0.7946 -0.6817  0.1926
  761MPD2     C11289   3.936   1.183  11.609  0.0403 -0.2416  0.1322
  761MPD2    C111290   3.922   1.202  11.475 -0.3875 -0.2609 -0.2770
  761MPD2    C211291   3.958   1.325  11.418 -0.0860  0.1703  0.7034
  761MPD2    C311292   4.004   1.424  11.497 -0.7495  0.8409 -0.3928
  761MPD2    C411293   3.998   1.412  11.631 -0.2646  0.6393 -0.4907
  761MPD2    C511294   3.970   1.294  11.685 -0.0878  0.9710  0.2291
  761MPD2     H11295   3.973   1.338  11.312  2.0176  1.4426  1.1545
  761MPD2    H111296   4.038   1.489  11.696  1.6308  0.3516 -1.3154
  761MPD2    H211297   3.913   1.086  11.653  0.5124  0.0542  1.0390
  761MPD2    H311298   3.981   1.286  11.792  0.2710 -1.1963  0.0244
  761MPD2     N11299   4.062   1.547  11.439  0.3934  0.1876  0.0005
  761MPD2    H511300   4.107   1.611  11.503  1.7053  0.6809 -1.4049
  761MPD2    N111301   3.888   1.091  11.397  0.1504 -0.4427  0.1274
  761MPD2    H711302   3.894   1.001  11.443  1.3115 -0.5526 -0.2484
  762MPD2     C11303   4.059   1.167  10.648 -0.3559  0.5863 -0.1288
  762MPD2    C111304   4.079   1.037  10.693 -0.0060 -0.5551  0.0416
  762MPD2    C211305   4.187   0.966  10.641 -0.2000 -0.8865  0.2107
  762MPD2    C311306   4.279   1.033  10.551  0.2194  0.0698  0.0729
  762MPD2    C411307   4.251   1.157  10.513  0.6169  1.1713  1.1059
  762MPD2    C511308   4.147   1.226  10.560  0.0775 -0.4942  0.8317
  762MPD2     H11309   4.208   0.865  10.675  1.6096 -1.1989 -1.8361
  762MPD2    H111310   4.326   1.214  10.460  0.0915  1.8462  1.0863
  762MPD2    H211311   3.981   1.230  10.687 -1.1638  0.0944 -0.9530
  762MPD2    H311312   4.137   1.332  10.539  2.4514 -0.6198 -0.9830
  762MPD2     N11313   4.397   0.973  10.515  0.8318  0.4202 -0.4504
  762MPD2    H511314   4.433   0.898  10.573  0.2395  0.3402 -0.1857
  762MPD2    N111315   3.984   0.987  10.791 -0.7355 -0.4098  0.3382
  762MPD2    H711316   3.914   1.047  10.834  0.2456  0.3965  0.8098
  763MPD2     C11317   1.791   1.346  16.216 -0.4081 -0.5677  1.0398
  763MPD2    C111318   1.662   1.391  16.245  0.2308  0.7270 -0.7261
  763MPD2    C211319   1.639   1.510  16.311 -0.3147  0.1276  0.7613
  763MPD2    C311320   1.746   1.583  16.362  0.4060  0.0750 -1.0967
  763MPD2    C411321   1.877   1.536  16.339 -0.2043  0.0132 -0.0368
  763MPD2    C511322   1.891   1.421  16.259 -0.7328  0.5501 -1.2337
  763MPD2     H11323   1.536   1.542  16.325 -0.9221 -0.3415 -2.5271
  763MPD2    H111324   1.968   1.593  16.357  0.5306 -0.9466 -0.7345
  763MPD2    H211325   1.799   1.249  16.168 -0.9399  0.1434 -0.4955
  763MPD2    H311326   1.994   1.390  16.241 -0.6775  0.4120 -0.6701
  763MPD2     N11327   1.737   1.698  16.436  0.2760  0.0810  0.2274
  763MPD2    H511328   1.824   1.747  16.453 -0.2287  0.8730  0.5075
  763MPD2    N111329   1.549   1.332  16.184 -0.6307 -0.5273 -0.1911
  763MPD2    H711330   1.463   1.387  16.187 -0.1959  0.1585 -0.3769
  764MPD2     C11331   4.318   3.036   0.177 -0.2857  0.6685 -0.6511
  764MPD2    C111332   4.194   3.008   0.223  0.1762 -0.1461  0.3640
  764MPD2    C211333   4.178   2.990   0.357 -0.2066 -0.1945  0.1339
  764MPD2    C311334   4.277   2.998   0.452 -0.0765  0.5332  0.2716
  764MPD2    C411335   4.408   3.012   0.400  0.7432 -0.2210  0.1253
  764MPD2    C511336   4.421   3.036   0.263  0.2059 -0.0471 -0.9229
  764MPD2     H11337   4.080   2.966   0.395  0.7257 -2.4446  1.0973
  764MPD2    H111338   4.502   3.024   0.453  1.3772  2.2047 -1.5231
  764MPD2    H211339   4.336   3.066   0.074 -2.2387  0.2587 -1.1289
  764MPD2    H311340   4.518   3.074   0.233  0.8899 -1.4409 -0.4945
  764MPD2     N11341   4.247   2.988   0.594  0.1133 -0.0649 -0.5566
  764MPD2    H511342   4.147   2.994   0.613  0.2258 -0.3551  0.1555
  764MPD2    N111343   4.083   2.994   0.136 -0.5907  0.0922 -0.2235
  764MPD2    H711344   3.990   2.977   0.172 -0.1656 -1.4513  0.1528
  765MPD2     C11345   3.757   0.427  16.102  0.0749  0.2022 -0.4084
  765MPD2    C111346   3.831   0.533  16.047  0.5571 -0.2618  0.7588
  765MPD2    C211347   3.971   0.546  16.044  0.9181 -0.2379 -0.0442
  765MPD2    C311348   4.042   0.441  16.092 -0.0325  0.4113  0.1184
  765MPD2    C411349   3.969   0.335  16.147 -0.1625 -0.4097  0.0682
  765MPD2    C511350   3.834   0.324  16.149 -0.2714  0.4421 -0.0280
  765MPD2     H11351   4.021   0.622  15.986  0.0986  1.7964  1.9296
  765MPD2    H111352   4.016   0.242  16.178  1.1193 -0.1147 -1.0037
  765MPD2    H211353   3.650   0.438  16.095  0.2128  1.9377  0.1896
  765MPD2    H311354   3.779   0.239  16.189  0.9796 -0.6101 -0.5356
  765MPD2     N11355   4.181   0.426  16.069 -0.3735 -0.3498 -0.1704
  765MPD2    H511356   4.217   0.331  16.075 -0.5566 -0.3422  1.0394
  765MPD2    N111357   3.754   0.640  15.997  0.3598 -0.3829  0.8359
  765MPD2    H711358   3.653   0.632  15.998  0.2781  0.5416  0.8245
  766MPD2     C11359   3.625   0.548  15.491 -0.1415  0.0668  0.3307
  766MPD2    C111360   3.607   0.684  15.489  0.7573  0.1532 -0.0413
  766MPD2    C211361   3.672   0.751  15.390  0.4893 -0.2805 -0.5529
  766MPD2    C311362   3.744   0.689  15.294 -0.2979 -0.1653  0.3454
  766MPD2    C411363   3.753   0.549  15.295  1.0995 -0.6471 -0.1726
  766MPD2    C511364   3.697   0.477  15.403 -0.0088 -0.3741 -0.0146
  766MPD2     H11365   3.653   0.857  15.383  1.2271 -0.1425 -0.4489
  766MPD2    H111366   3.800   0.499  15.212 -2.0473  0.0946 -2.3761
  766MPD2    H211367   3.581   0.491  15.572  1.3769 -0.4307  0.7991
  766MPD2    H311368   3.694   0.369  15.407  1.3290 -0.3971  0.2648
  766MPD2     N11369   3.808   0.769  15.209  0.0711 -0.4660 -0.4062
  766MPD2    H511370   3.790   0.869  15.213  0.9390 -0.3115 -0.4001
  766MPD2    N111371   3.541   0.744  15.601 -0.4192  0.0943 -0.2740
  766MPD2    H711372   3.525   0.680  15.679  1.2526  1.9678  1.6179
  767MPD2     C11373   3.331   1.175  15.081  0.1375 -0.1584  0.0271
  767MPD2    C111374   3.462   1.141  15.084 -0.1689 -0.1544  0.2974
  767MPD2    C211375   3.515   1.095  14.965 -0.4541  0.5208 -0.8879
  767MPD2    C311376   3.441   1.090  14.846  0.0665 -0.4001  0.3772
  767MPD2    C411377   3.309   1.137  14.849  0.0317 -0.3084 -0.3220
  767MPD2    C511378   3.255   1.175  14.970  0.6977 -0.5625  0.6856
  767MPD2     H11379   3.621   1.070  14.959 -0.7905 -1.4851  1.7604
  767MPD2    H111380   3.243   1.132  14.763 -0.3027 -1.4029 -0.0028
  767MPD2    H211381   3.287   1.201  15.176 -2.1677 -2.5980 -0.3752
  767MPD2    H311382   3.153   1.212  14.963  1.0646  0.6294  1.4897
  767MPD2     N11383   3.504   1.042  14.730  0.1679 -0.9165  0.5646
  767MPD2    H511384   3.603   1.025  14.741  0.5290 -0.3006 -1.8254
  767MPD2    N111385   3.536   1.159  15.208 -0.9335 -0.3552 -0.3744
  767MPD2    H711386   3.487   1.213  15.279  0.5519 -0.7579  0.9590
  768MPD2     C11387   3.879   3.928  11.057 -0.1528 -0.0679  0.1773
  768MPD2    C111388   3.929   4.050  11.024 -0.1094  0.5372 -0.4320
  768MPD2    C211389   4.041   4.105  11.095 -0.2039  0.2247 -0.3192
  768MPD2    C311390   4.108   4.031  11.189 -0.3180  0.0805  0.0672
  768MPD2    C411391   4.060   3.902  11.220 -0.6820 -0.2964  0.0182
  768MPD2    C511392   3.941   3.857  11.164  0.6912 -0.7638 -0.4879
  768MPD2     H11393   4.072   4.206  11.070  2.4601 -0.3848  0.4400
  768MPD2    H111394   4.116   3.845  11.293  0.7826  2.0493  0.7635
  768MPD2    H211395   3.794   3.884  11.007 -0.2013  1.5762 -1.1710
  768MPD2    H311396   3.904   3.756  11.182 -1.2544  0.1255  0.4688
  768MPD2     N11397   4.232   4.073  11.246  0.0526  0.1698  0.1162
  768MPD2    H511398   4.279   4.004  11.303 -0.4266 -1.0348 -0.9591
  768MPD2    N111399   3.867   4.130  10.930  0.0767 -0.2479  0.1358
  768MPD2    H711400   3.920   4.209  10.897 -0.5162  0.9520  2.0241
  769MPD2     C11401   0.874   2.362  14.887  1.0401  0.3208  0.0647
  769MPD2    C111402   0.804   2.334  15.008  0.2581  0.1051  0.0044
  769MPD2    C211403   0.873   2.343  15.132  0.6935 -0.3567  0.0395
  769MPD2    C311404   0.999   2.401  15.134  0.1953  0.4020  0.2982
  769MPD2    C411405   1.059   2.428  15.016 -0.3200 -0.2168  0.0445
  769MPD2    C511406   1.002   2.409  14.894 -0.4133 -0.5412 -0.5876
  769MPD2     H11407   0.831   2.308  15.225 -0.3889 -1.5138 -0.8750
  769MPD2    H111408   1.164   2.454  15.009 -0.3118 -0.2194  0.1496
  769MPD2    H211409   0.838   2.346  14.786  0.1590  0.4202  0.3593
  769MPD2    H311410   1.061   2.417  14.803  0.4617  1.3900  0.1465
  769MPD2     N11411   1.070   2.389  15.255 -0.3574 -0.0675  0.7053
  769MPD2    H511412   1.027   2.330  15.326 -1.4593  2.6500  2.3183
  769MPD2    N111413   0.671   2.281  14.997 -0.4292  0.4022 -0.0972
  769MPD2    H711414   0.621   2.314  14.914 -0.3159 -0.4421 -0.5012
  770MPD2     C11415   4.633   1.563  15.173 -0.6840  0.0328  0.4382
  770MPD2    C111416   4.676   1.581  15.043 -0.0985 -0.9463  0.2543
  770MPD2    C211417   0.014   1.685  15.010  0.5898  0.3775  0.0396
  770MPD2    C311418   0.052   1.774  15.106 -0.2575 -0.0257 -0.0198
  770MPD2    C411419   0.011   1.761  15.240  0.1896  0.2467 -0.2378
  770MPD2    C511420   4.668   1.652  15.271  0.1683 -0.2770 -0.1987
  770MPD2     H11421   0.051   1.683  14.908 -2.0216 -3.0097 -0.8275
  770MPD2    H111422   0.048   1.822  15.321  0.3632 -1.4486  0.9544
  770MPD2    H211423   4.556   1.489  15.194  1.4018 -1.7087  2.0257
  770MPD2    H311424   4.638   1.626  15.371 -2.5039 -1.7804 -1.4010
  770MPD2     N11425   0.147   1.870  15.066 -0.3975  0.5337 -0.0943
  770MPD2    H511426   0.179   1.871  14.969 -0.2192  0.9908 -0.0278
  770MPD2    N111427   4.662   1.491  14.940  0.9822 -0.4269 -0.5189
  770MPD2    H711428   4.720   1.506  14.857  0.1075  2.0117 -0.6907
  771MPD2     C11429   1.137   0.588  14.003  0.1205 -1.1143  0.0495
  771MPD2    C111430   1.177   0.700  13.927 -0.2775  0.2601 -0.0091
  771MPD2    C211431   1.164   0.705  13.792 -0.4976  0.0505 -0.2420
  771MPD2    C311432   1.096   0.602  13.730  0.1563 -0.0102 -0.1280
  771MPD2    C411433   1.044   0.502  13.802 -0.7228 -0.6568 -0.1258
  771MPD2    C511434   1.070   0.490  13.932  0.0269  0.2757  0.9084
  771MPD2     H11435   1.205   0.791  13.742  0.4108 -0.1603  0.1398
  771MPD2    H111436   0.991   0.418  13.759 -0.8944 -1.4036  1.5619
  771MPD2    H211437   1.153   0.577  14.110 -0.5922 -2.3038  0.0267
  771MPD2    H311438   1.033   0.399  13.977  1.7706 -0.5763  0.6155
  771MPD2     N11439   1.086   0.610  13.586 -0.2539  0.1143 -0.3875
  771MPD2    H511440   1.108   0.700  13.546 -1.4027  0.1741 -0.8647
  771MPD2    N111441   1.235   0.816  13.983  0.1289  0.5203 -0.5842
  771MPD2    H711442   1.273   0.885  13.920 -2.2200 -0.2091 -2.7769
  772MPD2     C11443   0.808   1.261  14.190  0.3919  0.0960 -0.1661
  772MPD2    C111444   0.882   1.178  14.267 -0.5813 -0.2894  1.0088
  772MPD2    C211445   0.828   1.088  14.356 -0.1106 -0.3628  0.1127
  772MPD2    C311446   0.692   1.080  14.358 -0.3694 -0.4941  0.0616
  772MPD2    C411447   0.615   1.163  14.281 -0.1354 -0.3328  0.0274
  772MPD2    C511448   0.674   1.249  14.191  0.4501  0.2180  0.2887
  772MPD2     H11449   0.886   1.035  14.430  0.5191  2.8527  1.9453
  772MPD2    H111450   0.508   1.156  14.267 -0.5379  2.2978  1.8695
  772MPD2    H211451   0.857   1.333  14.125 -0.4843 -0.2978 -1.2568
  772MPD2    H311452   0.617   1.314  14.126 -1.5089 -0.3608  1.4468
  772MPD2     N11453   0.623   0.969  14.405 -0.6486 -0.2643  0.1782
  772MPD2    H511454   0.524   0.958  14.384 -1.0339  1.1215  1.2217
  772MPD2    N111455   1.023   1.181  14.278  0.4470 -0.1084 -0.3259
  772MPD2    H711456   1.057   1.111  14.343  0.2014 -0.4436 -0.5616
  773MPD2     C11457   0.538   1.414   0.423 -0.3542  0.2112  0.6194
  773MPD2    C111458   0.484   1.348   0.312  0.4905 -0.5386 -0.4612
  773MPD2    C211459   0.532   1.224   0.274  0.3564  0.0547  0.2518
  773MPD2    C311460   0.625   1.163   0.359 -0.2290  0.0361  0.2076
  773MPD2    C411461   0.676   1.231   0.469 -0.0790  0.3109 -0.3160
  773MPD2    C511462   0.634   1.357   0.500  0.2395 -0.1571  0.0987
  773MPD2     H11463   0.504   1.177   0.180 -2.3840 -0.7462  1.4630
  773MPD2    H111464   0.759   1.187   0.525 -1.0833  0.0927  1.0182
  773MPD2    H211465   0.503   1.511   0.456 -0.2090  0.8569 -1.1172
  773MPD2    H311466   0.674   1.403   0.590  0.4334  1.5409 -0.8705
  773MPD2     N11467   0.662   1.035   0.323  0.0035  0.1525 -0.5279
  773MPD2    H511468   0.617   0.990   0.244 -0.2413  2.0364 -1.4761
  773MPD2    N111469   0.380   1.404   0.230 -0.0663 -0.0512 -0.1693
  773MPD2    H711470   0.328   1.351   0.161 -0.3680 -0.2250  0.1969
  774MPD2     C11471   4.027   0.712  13.499  0.5785  0.1549  0.5165
  774MPD2    C111472   4.149   0.692  13.555  0.5520 -0.1549  0.2375
  774MPD2    C211473   4.246   0.781  13.505  0.3465  0.0466 -0.0753
  774MPD2    C311474   4.223   0.877  13.414  0.1270 -0.3823  0.1674
  774MPD2    C411475   4.096   0.883  13.360  0.0904  0.3386 -0.6066
  774MPD2    C511476   3.998   0.800  13.401 -0.5437 -0.0986 -0.2184
  774MPD2     H11477   4.349   0.775  13.537 -0.4394 -3.0425  1.8650
  774MPD2    H111478   4.079   0.950  13.276  1.2653 -0.6334 -1.6336
  774MPD2    H211479   3.951   0.655  13.551 -1.1419  0.8593 -1.2252
  774MPD2    H311480   3.899   0.793  13.357  0.2498 -0.2749 -1.9865
  774MPD2     N11481   4.332   0.969  13.400 -0.3002 -0.2327  0.3184
  774MPD2    H511482   4.417   0.941  13.447 -0.3998 -2.8224 -1.0701
  774MPD2    N111483   4.172   0.587  13.650  0.1418  0.0371  0.2051
  774MPD2    H711484   4.093   0.552  13.704 -0.3463 -1.8058 -1.6924
  775MPD2     C11485   1.399   2.260  15.977 -0.0920  0.0551  0.2786
  775MPD2    C111486   1.360   2.374  16.037  0.2709 -0.1888  0.1885
  775MPD2    C211487   1.427   2.487  16.001 -0.4539  0.5108 -0.2541
  775MPD2    C311488   1.520   2.491  15.901 -0.4144 -0.3315 -0.6916
  775MPD2    C411489   1.554   2.378  15.835  0.0399  0.6727  0.0501
  775MPD2    C511490   1.495   2.258  15.878  0.1950 -0.1917  0.5153
  775MPD2     H11491   1.400   2.576  16.056  2.9491  0.2327  1.8384
  775MPD2    H111492   1.628   2.375  15.757 -1.0648  2.1404 -1.0592
  775MPD2    H211493   1.350   2.166  16.000  1.2115 -1.5785 -3.4294
  775MPD2    H311494   1.512   2.163  15.829  1.0215  0.0109  0.4127
  775MPD2     N11495   1.582   2.609  15.856 -0.3670 -0.0330 -0.3333
  775MPD2    H511496   1.654   2.595  15.785  1.7322  1.3245  1.5108
  775MPD2    N111497   1.248   2.370  16.128 -0.0396 -0.1768  0.3037
  775MPD2    H711498   1.207   2.283  16.161 -2.5080  0.0400 -2.1793
  776MPD2     C11499   3.868   3.158  11.787 -0.1240  0.0956  0.1639
  776MPD2    C111500   3.971   3.083  11.730 -0.0215 -0.0075  0.0703
  776MPD2    C211501   4.071   3.147  11.652 -1.3747  0.2100 -0.2599
  776MPD2    C311502   4.049   3.275  11.607  0.0052  0.6046 -0.0474
  776MPD2    C411503   3.951   3.347  11.670 -0.4271  0.5048 -0.0519
  776MPD2    C511504   3.872   3.292  11.768  0.6767  0.7994  0.3464
  776MPD2     H11505   4.155   3.089  11.616 -1.5487  0.0602 -0.4251
  776MPD2    H111506   3.930   3.446  11.631  0.2022  1.3187  1.6595
  776MPD2    H211507   3.786   3.113  11.841  0.2574 -1.2353 -0.3597
  776MPD2    H311508   3.786   3.348  11.802 -1.0116 -1.1090 -0.7312
  776MPD2     N11509   4.134   3.342  11.515 -0.2616 -0.0927 -0.9064
  776MPD2    H511510   4.102   3.427  11.471  0.9772  1.3640  1.0071
  776MPD2    N111511   3.977   2.947  11.763 -0.4002  0.2718 -0.0131
  776MPD2    H711512   3.921   2.911  11.840 -1.5302 -0.4448 -1.1604
  777MPD2     C11513   0.682   4.665   0.718 -0.0853 -0.1700  0.2941
  777MPD2    C111514   0.563   4.669   0.780 -0.5023 -0.9683  0.2074
  777MPD2    C211515   0.457   4.596   0.730 -0.1731  0.3754 -0.4545
  777MPD2    C311516   0.470   4.530   0.608 -0.1154  0.2814 -0.0256
  777MPD2    C411517   0.601   4.525   0.549  0.1727  0.8895  0.6971
  777MPD2    C511518   0.698   4.602   0.601 -0.5627  0.1435  0.0785
  777MPD2     H11519   0.358   4.591   0.776  0.2148 -3.6183 -0.0436
  777MPD2    H111520   0.629   4.472   0.459  0.7555  0.9103  0.8686
  777MPD2    H211521   0.767   4.714   0.763 -0.1645 -0.1283  0.3982
  777MPD2    H311522   0.797   4.615   0.559 -1.0656 -1.9186 -1.7841
  777MPD2     N11523   0.360   4.468   0.547  0.3304  0.3079  0.2009
  777MPD2    H511524   0.271   4.486   0.592  0.7012  1.9559  0.2906
  777MPD2    N111525   0.563   4.723   0.916  0.1326  0.5922  0.4436
  777MPD2    H711526   0.644   0.034   0.950  0.3020  0.1793  0.6607
  778MPD2     C11527   1.304   0.372  15.340 -0.6168  0.1217  0.5720
  778MPD2    C111528   1.312   0.272  15.237 -0.8559 -0.2905 -0.5458
  778MPD2    C211529   1.349   0.317  15.112  0.0669  0.4797 -0.2732
  778MPD2    C311530   1.370   0.445  15.076 -0.4933 -0.2023 -0.2913
  778MPD2    C411531   1.342   0.538  15.175 -0.4231 -0.8627 -0.2759
  778MPD2    C511532   1.318   0.502  15.310 -0.0325  0.0232  0.8000
  778MPD2     H11533   1.364   0.242  15.035 -3.9896  0.8178 -1.4140
  778MPD2    H111534   1.351   0.644  15.153 -0.9912 -0.7001  0.2683
  778MPD2    H211535   1.282   0.356  15.445  1.8958  0.5804  1.1770
  778MPD2    H311536   1.305   0.582  15.382  2.7163  1.0787  0.1531
  778MPD2     N11537   1.426   0.476  14.948  0.7480 -0.3848 -0.1579
  778MPD2    H511538   1.436   0.400  14.880 -1.1709 -1.0277  0.2808
  778MPD2    N111539   1.304   0.137  15.266  0.3373  0.5363  0.2995
  778MPD2    H711540   1.285   0.080  15.183  1.7331 -2.0110  1.7143
  779MPD2     C11541   0.850   3.963  13.887  0.2742 -0.3263  0.1685
  779MPD2    C111542   0.939   3.979  13.998 -0.5956  0.3254  1.6343
  779MPD2    C211543   0.958   4.109  14.045  0.2488 -0.0190 -1.0058
  779MPD2    C311544   0.895   4.212  13.976 -0.4126  0.5187 -0.1589
  779MPD2    C411545   0.808   4.197  13.868  0.0507  0.2674  0.1469
  779MPD2    C511546   0.787   4.071  13.826 -0.1400 -0.2064 -0.5530
  779MPD2     H11547   1.033   4.131  14.120 -0.4636  1.5018 -0.7398
  779MPD2    H111548   0.755   4.278  13.819  0.1345  0.4731  0.3961
  779MPD2    H211549   0.818   3.865  13.852  3.1586 -1.6379  1.1895
  779MPD2    H311550   0.734   4.061  13.732  1.3806 -0.4908 -1.3791
  779MPD2     N11551   0.909   4.342  14.023 -0.6037 -0.4429  0.1005
  779MPD2    H511552   0.941   4.355  14.118 -0.6348 -1.0735  0.2009
  779MPD2    N111553   0.995   3.862  14.053 -0.2572  0.5732 -0.4712
  779MPD2    H711554   0.976   3.771  14.010 -1.7269  1.7864 -2.4138
  780MPD2     C11555   1.036   4.170   1.250  0.4404 -0.7340 -0.1268
  780MPD2    C111556   1.059   4.036   1.245 -0.6174  0.5867  0.4209
  780MPD2    C211557   1.111   3.979   1.130 -0.1562  0.5036 -0.1192
  780MPD2    C311558   1.138   4.064   1.026  0.0476  0.2599 -0.3729
  780MPD2    C411559   1.139   4.201   1.041  0.2856  1.2978  0.0209
  780MPD2    C511560   1.073   4.255   1.148  0.1084 -0.8069  0.2689
  780MPD2     H11561   1.123   3.872   1.112  0.2417  0.4684  0.3667
  780MPD2    H111562   1.172   4.267   0.962  0.9595 -1.7987 -2.3103
  780MPD2    H211563   1.004   4.216   1.343  1.2234  0.1317 -0.2807
  780MPD2    H311564   1.050   4.361   1.152 -0.8970 -0.9634 -1.1848
  780MPD2     N11565   1.188   4.007   0.900 -0.5007  0.2926 -0.4196
  780MPD2    H511566   1.221   3.911   0.899  1.5314  1.0460 -3.7918
  780MPD2    N111567   1.016   3.966   1.359 -0.2447  0.4322  0.4323
  780MPD2    H711568   0.978   4.021   1.435  0.4921  0.4779  0.7696
  781MPD2     C11569   1.795   1.376  12.213  0.3628  0.0501 -0.0499
  781MPD2    C111570   1.859   1.260  12.172 -0.5491 -0.6029  0.1019
  781MPD2    C211571   1.923   1.265  12.055 -0.0983 -0.1513 -0.3491
  781MPD2    C311572   1.918   1.372  11.963 -0.4304  0.1935 -0.2641
  781MPD2    C411573   1.836   1.473  11.994  0.3705  0.1634  0.3212
  781MPD2    C511574   1.788   1.476  12.122 -0.0616 -0.4897  0.2473
  781MPD2     H11575   1.975   1.179  12.013 -1.1302 -0.5645 -0.7904
  781MPD2    H111576   1.811   1.555  11.928 -0.0750 -0.6052 -0.4591
  781MPD2    H211577   1.739   1.384  12.305  2.9516  0.3674  1.4764
  781MPD2    H311578   1.721   1.556  12.152 -0.8111 -1.0583  0.0965
  781MPD2     N11579   1.982   1.371  11.836  0.3236 -0.8316  0.4089
  781MPD2    H511580   1.970   1.450  11.773  3.4727  0.2206  1.1231
  781MPD2    N111581   1.869   1.150  12.254 -0.0304 -0.1481  0.0505
  781MPD2    H711582   1.911   1.065  12.217  0.7785  0.1393  0.3024
  782MPD2     C11583   0.260   2.226  10.025  0.9486  0.2084  0.1371
  782MPD2    C111584   0.292   2.143  10.130 -0.3647 -0.6125 -0.0363
  782MPD2    C211585   0.372   2.197  10.235 -0.6546 -0.5605  0.3296
  782MPD2    C311586   0.420   2.326  10.226 -0.7748  0.5053  0.2136
  782MPD2    C411587   0.391   2.405  10.116  0.2432  0.1592 -0.4453
  782MPD2    C511588   0.312   2.349  10.014  0.1873  0.7955  0.1614
  782MPD2     H11589   0.400   2.135  10.320 -2.5387  0.7914  1.9177
  782MPD2    H111590   0.435   2.503  10.099 -0.0443  0.2092 -0.9270
  782MPD2    H211591   0.195   2.194   9.944  2.3423  0.9115 -1.2516
  782MPD2    H311592   0.277   2.416   9.937 -0.3053 -1.8445 -1.8992
  782MPD2     N11593   0.493   2.364  10.334 -1.0739 -0.0579 -0.1381
  782MPD2    H511594   0.518   2.294  10.404 -1.0391  1.2096  1.1047
  782MPD2    N111595   0.235   2.013  10.145  0.1969 -0.0388  0.6062
  782MPD2    H711596   0.273   1.948  10.214 -1.2154 -1.5112 -0.0137
  783MPD2     C11597   4.153   1.632  10.663  0.0763 -0.1865  0.0250
  783MPD2    C111598   4.248   1.705  10.729  0.3377  0.0854  0.1835
  783MPD2    C211599   4.353   1.747  10.656  0.6847  0.4232  0.1267
  783MPD2    C311600   4.370   1.711  10.521  0.5953  0.3326 -0.5049
  783MPD2    C411601   4.267   1.636  10.459 -0.1979 -0.1614 -0.2122
  783MPD2    C511602   4.156   1.610  10.531  0.0944  0.1456  0.1458
  783MPD2     H11603   4.423   1.814  10.706  2.2210 -0.7043 -0.4973
  783MPD2    H111604   4.280   1.598  10.358  2.0152  0.5858 -0.2070
  783MPD2    H211605   4.073   1.587  10.721 -2.0073  0.7610 -2.1507
  783MPD2    H311606   4.072   1.561  10.483 -0.5008  0.0930  1.2333
  783MPD2     N11607   4.485   1.754  10.451  0.0646 -0.2894  0.1678
  783MPD2    H511608   4.555   1.801  10.508  2.4556 -1.7064 -1.6015
  783MPD2    N111609   4.230   1.725  10.869 -1.4517 -0.2166  0.3495
  783MPD2    H711610   4.141   1.698  10.909 -1.7377  1.9408  1.1593
  784MPD2     C11611   3.375   1.764   0.458  0.0760  0.2552  0.2566
  784MPD2    C111612   3.286   1.801   0.559  0.7236 -0.2674 -0.6909
  784MPD2    C211613   3.174   1.873   0.526 -0.3933  0.2501 -0.0702
  784MPD2    C311614   3.127   1.891   0.387  0.1490 -0.8510  0.9623
  784MPD2    C411615   3.226   1.850   0.293 -0.8611 -0.0680  0.6146
  784MPD2    C511616   3.336   1.783   0.330 -0.1242 -0.1961  0.7871
  784MPD2     H11617   3.105   1.900   0.606  2.6810  0.4001  2.5119
  784MPD2    H111618   3.212   1.854   0.186  0.2617 -0.9502  0.4317
  784MPD2    H211619   3.466   1.709   0.482  1.0247  0.8296 -2.0063
  784MPD2    H311620   3.397   1.736   0.253 -1.3982  0.7655 -0.8128
  784MPD2     N11621   3.008   1.961   0.362  0.3178  0.2199 -0.1782
  784MPD2    H511622   2.944   1.974   0.439  1.1219  3.4662 -0.0794
  784MPD2    N111623   3.322   1.783   0.696  0.7245 -0.0169  0.1659
  784MPD2    H711624   3.251   1.806   0.765 -1.2889  1.6182 -2.4333
  785MPD2     C11625   2.740   0.724  11.375 -0.5157 -0.6630 -0.1342
  785MPD2    C111626   2.660   0.831  11.345  0.1102  0.3034  0.9191
  785MPD2    C211627   2.531   0.820  11.315 -0.1195  0.4072  0.1827
  785MPD2    C311628   2.480   0.692  11.292 -0.2214  0.2696  0.0572
  785MPD2    C411629   2.558   0.578  11.313 -0.2282  0.7258 -0.2219
  785MPD2    C511630   2.682   0.596  11.363  0.0007  0.2970  0.0614
  785MPD2     H11631   2.461   0.903  11.326 -1.2594 -0.4966 -0.2251
  785MPD2    H111632   2.525   0.477  11.293  0.0962  0.7513 -0.8993
  785MPD2    H211633   2.839   0.733  11.420 -0.1281 -0.4250 -1.0178
  785MPD2    H311634   2.748   0.515  11.394 -1.0216  0.0411  1.5681
  785MPD2     N11635   2.355   0.689  11.225  0.2628 -0.5823  0.7054
  785MPD2    H511636   2.333   0.774  11.174  2.3446 -0.1398  0.5464
  785MPD2    N111637   2.693   0.958  11.370  0.2539  0.3210  0.2200
  785MPD2    H711638   2.616   1.024  11.372  1.3844  1.6725 -1.5502
  786MPD2     C11639   1.727   3.339  14.568 -0.5327  0.0012 -0.3049
  786MPD2    C111640   1.804   3.227  14.608  0.5403  0.0861 -0.0367
  786MPD2    C211641   1.885   3.234  14.722 -0.0249  0.6058 -0.4768
  786MPD2    C311642   1.870   3.337  14.811  0.3685  0.2033  0.8118
  786MPD2    C411643   1.790   3.442  14.779  0.2608 -0.0761 -0.3267
  786MPD2    C511644   1.723   3.440  14.660  0.3323  0.1247 -0.5286
  786MPD2     H11645   1.961   3.159  14.739 -0.7814  0.6151  3.0024
  786MPD2    H111646   1.795   3.534  14.836 -1.8149  0.2667 -0.6901
  786MPD2    H211647   1.673   3.355  14.476 -1.5995 -0.7959  0.1800
  786MPD2    H311648   1.662   3.523  14.627 -0.6083 -0.3075  0.1601
  786MPD2     N11649   1.966   3.345  14.919  0.1482 -0.2949  0.1279
  786MPD2    H511650   2.045   3.282  14.923  0.7851  0.3920 -1.7402
  786MPD2    N111651   1.822   3.113  14.531 -0.1579 -0.2468  0.6870
  786MPD2    H711652   1.892   3.045  14.559 -1.0008 -1.4928 -0.1889
  787MPD2     C11653   2.183   2.657  14.551  0.2496 -0.2046  1.1235
  787MPD2    C111654   2.186   2.674  14.414 -0.6342 -0.4553 -0.2822
  787MPD2    C211655   2.284   2.611  14.347 -0.6037  0.2327 -0.2401
  787MPD2    C311656   2.380   2.533  14.407  0.2831 -0.3283 -0.3575
  787MPD2    C411657   2.380   2.520  14.547  0.2135 -0.3907 -0.1174
  787MPD2    C511658   2.281   2.587  14.615  0.3510 -0.0375 -0.4597
  787MPD2     H11659   2.286   2.624  14.239 -1.7184  0.6147 -0.2201
  787MPD2    H111660   2.450   2.466  14.609 -0.6118 -1.1829  0.1286
  787MPD2    H211661   2.105   2.704  14.610  0.7226  0.9182  0.8387
  787MPD2    H311662   2.290   2.589  14.723 -0.3444 -1.4075 -0.3841
  787MPD2     N11663   2.467   2.452  14.318  0.3004 -0.5522  0.5010
  787MPD2    H511664   2.487   2.485  14.224 -0.6970  2.1217  1.2412
  787MPD2    N111665   2.089   2.760  14.358 -0.0529  0.3219  0.0294
  787MPD2    H711666   2.027   2.803  14.426 -3.8548 -0.7908 -2.7395
  788MPD2     C11667   3.802   1.773   1.066  0.2186  0.0903  0.3234
  788MPD2    C111668   3.822   1.712   0.943 -0.0474 -0.6248 -0.4723
  788MPD2    C211669   3.782   1.777   0.826  0.5025  0.4136 -0.0226
  788MPD2    C311670   3.721   1.899   0.828 -0.4970  0.8180  0.6584
  788MPD2    C411671   3.694   1.957   0.947  0.1915  0.4209 -0.2433
  788MPD2    C511672   3.744   1.899   1.065  0.0258 -0.6994 -0.3977
  788MPD2     H11673   3.808   1.724   0.735  0.6412  2.5397 -1.2223
  788MPD2    H111674   3.629   2.043   0.959  1.5176  1.2211  1.1544
  788MPD2    H211675   3.823   1.725   1.161 -1.2164  0.9613  1.0702
  788MPD2    H311676   3.716   1.946   1.158  1.7323 -0.3744 -0.0634
  788MPD2     N11677   3.687   1.975   0.709  0.2407  0.1066  0.2965
  788MPD2    H511678   3.635   2.060   0.730  0.3877  0.3688 -0.4274
  788MPD2    N111679   3.875   1.584   0.926 -0.7630 -0.2975  0.4961
  788MPD2    H711680   3.895   1.553   0.832 -2.6623 -0.2494  0.0740
  789MPD2     C11681   4.312   1.108  16.847  0.1755  0.1947 -0.3224
  789MPD2    C111682   4.211   1.117  16.748  0.2894 -0.4745 -0.4244
  789MPD2    C211683   4.135   1.231  16.751  0.1680 -0.5369  0.1196
  789MPD2    C311684   4.150   1.332  16.851 -0.2161 -0.2281 -0.1335
  789MPD2    C411685   4.246   1.317  16.944  0.3492  0.1368  0.1407
  789MPD2    C511686   4.329   1.204  16.943  0.4317  0.4358 -0.8973
  789MPD2     H11687   4.047   1.250  16.691  0.9055  0.8168 -0.5343
  789MPD2    H111688   4.271   1.387  17.023 -1.0110  0.2152  0.5092
  789MPD2    H211689   4.381   1.026  16.867  0.2092  0.4541  0.6183
  789MPD2    H311690   4.411   1.199  17.013 -0.0800  0.5015 -0.2995
  789MPD2     N11691   4.077   1.454  16.843 -0.3691 -0.0922  0.1025
  789MPD2    H511692   4.092   1.522  16.917  0.0347 -1.0143  0.8722
  789MPD2    N111693   4.195   1.022  16.648  0.2535  0.0740  0.1789
  789MPD2    H711694   4.255   0.942  16.659 -0.6145 -0.6598 -0.4358
  790MPD2     C11695   0.005   3.370  13.842 -0.1747  0.2331 -0.4001
  790MPD2    C111696   0.075   3.254  13.823 -0.4295 -0.2804  0.1322
  790MPD2    C211697   0.067   3.190  13.701  0.1612  0.0216 -0.1073
  790MPD2    C311698   4.731   3.244  13.602  0.8193  0.0149 -0.4540
  790MPD2    C411699   4.665   3.359  13.620  0.2036 -0.5112  0.4239
  790MPD2    C511700   4.669   3.422  13.740  0.3074 -0.0347  0.7327
  790MPD2     H11701   0.103   3.088  13.699  1.7825  0.5697  1.1183
  790MPD2    H111702   4.606   3.410  13.544 -2.6952  0.1370  3.1227
  790MPD2    H211703   0.008   3.423  13.936  0.4974 -0.1868 -0.1846
  790MPD2    H311704   4.613   3.514  13.756 -1.6164 -0.9332 -0.8629
  790MPD2     N11705   4.714   3.169  13.491 -0.1092  0.7740 -0.3893
  790MPD2    H511706   0.010   3.074  13.488 -1.7907  0.1591 -1.3101
  790MPD2    N111707   0.154   3.216  13.938 -0.1563 -0.4632  0.5671
  790MPD2    H711708   0.141   3.273  14.020 -0.1622 -1.0520  0.9764
  791MPD2     C11709   4.087   2.965  13.045 -0.1835  0.4860  0.1291
  791MPD2    C111710   4.187   2.872  13.041 -0.3548  0.2479 -0.2729
  791MPD2    C211711   4.177   2.757  12.961 -0.2722 -0.2998 -0.2437
  791MPD2    C311712   4.056   2.737  12.897 -0.1442  0.5341 -1.0713
  791MPD2    C411713   3.950   2.826  12.906  0.1867  0.1838 -0.1361
  791MPD2    C511714   3.968   2.941  12.980 -0.0350 -0.0344  0.8638
  791MPD2     H11715   4.253   2.681  12.950  0.5546  0.6443 -1.1939
  791MPD2    H111716   3.859   2.816  12.849 -0.7520 -1.2374  1.6269
  791MPD2    H211717   4.098   3.046  13.115  2.1443  1.4254 -1.3111
  791MPD2    H311718   3.890   3.017  12.975 -0.0139 -0.1815 -1.3870
  791MPD2     N11719   4.037   2.611  12.837  0.0474  0.0681 -0.3845
  791MPD2    H511720   4.114   2.545  12.838 -0.4226 -0.4707 -0.2649
  791MPD2    N111721   4.304   2.913  13.103 -0.4929  0.5688 -0.0282
  791MPD2    H711722   4.309   3.006  13.142  0.3462  0.4799  0.0880
  792MPD2     C11723   4.436   3.002  10.998 -0.1016 -0.1162  0.1245
  792MPD2    C111724   4.369   3.117  10.964  0.1950 -0.2904  0.7440
  792MPD2    C211725   4.253   3.148  11.035 -0.1486 -0.7036  0.0748
  792MPD2    C311726   4.201   3.064  11.133 -0.3902  0.1172 -0.2520
  792MPD2    C411727   4.277   2.952  11.160 -0.0072 -0.1615  0.0531
  792MPD2    C511728   4.389   2.919  11.094 -0.0770  1.0264 -0.0259
  792MPD2     H11729   4.201   3.238  11.004 -0.8747 -0.9689  0.5062
  792MPD2    H111730   4.249   2.884  11.240 -0.2074 -0.6660 -0.4434
  792MPD2    H211731   4.524   2.972  10.941 -0.8312 -1.2756 -0.3870
  792MPD2    H311732   4.437   2.825  11.119 -0.8028  1.3571  2.5872
  792MPD2     N11733   4.071   3.077  11.187 -0.3446  0.3171  0.3594
  792MPD2    H511734   4.032   2.998  11.237  1.8376 -0.3029  1.0956
  792MPD2    N111735   4.437   3.205  10.874 -0.3241  0.2992 -0.2796
  792MPD2    H711736   4.533   3.185  10.850 -0.1877  0.9136 -0.2303
  793MPD2     C11737   3.357   2.943  10.731 -0.0253  0.4535  0.2968
  793MPD2    C111738   3.493   2.942  10.729 -0.0477 -0.2057  0.1258
  793MPD2    C211739   3.560   2.997  10.837 -0.0245  0.1982  0.6494
  793MPD2    C311740   3.491   3.052  10.948  0.5371 -0.7316  0.1664
  793MPD2    C411741   3.350   3.045  10.944  0.7438 -0.0061 -0.3300
  793MPD2    C511742   3.285   2.998  10.832  0.4907 -0.6877 -0.3108
  793MPD2     H11743   3.668   2.997  10.836 -0.0611  0.7858 -2.4680
  793MPD2    H111744   3.280   3.072  11.022 -0.2501 -1.2233 -0.8051
  793MPD2    H211745   3.295   2.889  10.661 -1.1731 -0.0278  1.6851
  793MPD2    H311746   3.176   2.998  10.834  0.5285 -1.3459  1.7455
  793MPD2     N11747   3.566   3.130  11.041  0.4857 -0.1105  0.3373
  793MPD2    H511748   3.666   3.140  11.030  0.6461  0.5103  2.3783
  793MPD2    N111749   3.567   2.899  10.615 -0.0755 -0.0363  0.7500
  793MPD2    H711750   3.665   2.923  10.615 -0.2193  0.5881 -1.9961
  794MPD2     C11751   0.062   2.172  17.676 -0.1185 -0.5542 -0.0427
  794MPD2    C111752   0.045   2.056  17.604 -0.3059 -0.4308  0.2919
  794MPD2    C211753   4.737   2.072  17.469 -0.2295 -0.1046  0.0069
  794MPD2    C311754   4.692   2.194  17.420  0.6269  0.1186  0.7971
  794MPD2    C411755   4.712   2.309  17.495  0.4077  0.0841  0.0059
  794MPD2    C511756   0.034   2.293  17.616  0.1654 -0.4245 -0.0670
  794MPD2     H11757   4.713   1.982  17.413 -1.5201  1.3210 -1.7524
  794MPD2    H111758   4.686   2.404  17.450  0.4470 -0.5715 -1.4065
  794MPD2    H211759   0.093   2.167   0.022 -0.0527  0.3974 -0.0211
  794MPD2    H311760   0.053   2.385  17.670 -0.5670 -0.0075 -0.5043
  794MPD2     N11761   4.620   2.212  17.299 -0.0880  0.3975 -0.3050
  794MPD2    H511762   4.590   2.309  17.292  1.9677  1.0093 -0.6265
  794MPD2    N111763   0.068   1.925  17.660  0.3947 -0.0112 -0.2854
  794MPD2    H711764   0.036   1.844  17.608  1.0469 -2.3742  3.0305
  795MPD2     C11765   2.370   4.359  13.486  0.3131  0.2516 -0.1435
  795MPD2    C111766   2.293   4.246  13.472  0.0108  0.0417  0.0477
  795MPD2    C211767   2.347   4.127  13.523 -0.2772  0.0923  0.5326
  795MPD2    C311768   2.478   4.120  13.568 -0.0940  0.1884 -0.7403
  795MPD2    C411769   2.554   4.234  13.555  0.2411 -1.0599 -0.3333
  795MPD2    C511770   2.501   4.346  13.517  0.1087  0.0539  0.3209
  795MPD2     H11771   2.293   4.034  13.514  2.7990 -1.5302 -1.4879
  795MPD2    H111772   2.656   4.227  13.592 -0.0902 -0.1116  0.7604
  795MPD2    H211773   2.325   4.455  13.462  0.1072 -0.0433 -0.9405
  795MPD2    H311774   2.579   4.422  13.515  0.9321 -0.9236 -4.3456
  795MPD2     N11775   2.520   3.998  13.628  0.0374 -0.7952 -0.3435
  795MPD2    H511776   2.449   3.930  13.653 -0.1414 -0.7672 -0.7768
  795MPD2    N111777   2.177   4.239  13.392  0.4585  0.3605  0.1795
  795MPD2    H711778   2.135   4.148  13.375  3.5368 -0.7541 -1.5842
  796MPD2     C11779   1.656   0.918  15.809 -0.0574  0.1064  0.5826
  796MPD2    C111780   1.772   0.951  15.882  0.3525  0.6076 -0.5846
  796MPD2    C211781   1.799   1.085  15.918 -0.2762 -0.5246 -1.1388
  796MPD2    C311782   1.714   1.189  15.868 -0.2146 -0.2905 -0.4051
  796MPD2    C411783   1.609   1.160  15.789  0.1388 -0.1283  0.0634
  796MPD2    C511784   1.592   1.026  15.754 -0.5057 -0.5720 -0.1927
  796MPD2     H11785   1.882   1.112  15.982 -1.1362 -0.6116  0.0192
  796MPD2    H111786   1.545   1.233  15.741 -0.7394 -0.9643 -0.0357
  796MPD2    H211787   1.641   0.822  15.762  1.6268 -0.0542  0.3990
  796MPD2    H311788   1.514   1.007  15.683  0.5839  1.8637 -2.0598
  796MPD2     N11789   1.752   1.323  15.897 -0.0487  0.2866 -0.5191
  796MPD2    H511790   1.829   1.334  15.961  0.3570  1.1447 -1.1628
  796MPD2    N111791   1.850   0.843  15.918  0.5794 -0.5270 -0.1913
  796MPD2    H711792   1.802   0.756  15.934 -0.6665  0.0729 -0.6416
  797MPD2     C11793   2.919   0.566  17.174 -0.3613  0.5896  0.2146
  797MPD2    C111794   3.026   0.641  17.124  0.4453  0.1658 -0.0613
  797MPD2    C211795   3.008   0.730  17.020  0.0933  0.0134 -0.1199
  797MPD2    C311796   2.881   0.749  16.963  0.7340  0.1702 -0.4122
  797MPD2    C411797   2.771   0.678  17.018 -0.3076  0.3780 -0.4218
  797MPD2    C511798   2.796   0.595  17.124  0.1044  0.3184 -0.4170
  797MPD2     H11799   3.102   0.779  16.995  0.6233 -1.0867 -0.2655
  797MPD2    H111800   2.672   0.678  16.974 -0.1942  0.4919 -0.6784
  797MPD2    H211801   2.929   0.493  17.254 -0.3787  1.7997  1.3261
  797MPD2    H311802   2.706   0.544  17.159  0.0442  2.3543  2.3532
  797MPD2     N11803   2.863   0.835  16.859  0.6404 -0.4056  0.6274
  797MPD2    H511804   2.767   0.841  16.824  0.8826  2.4386  0.4843
  797MPD2    N111805   3.158   0.636  17.181 -0.7061 -0.5198 -0.3268
  797MPD2    H711806   3.222   0.709  17.151  0.4089 -1.2589  0.2758
  798MPD2     C11807   3.483   1.194  16.849 -0.3178 -0.8227  0.2437
  798MPD2    C111808   3.383   1.103  16.856  0.3763 -0.1005  1.0406
  798MPD2    C211809   3.393   0.995  16.937 -0.3336  0.7877  0.0940
  798MPD2    C311810   3.496   0.982  17.026  0.3064  0.3372 -0.1011
  798MPD2    C411811   3.594   1.083  17.033 -0.4151 -0.2260  0.5225
  798MPD2    C511812   3.590   1.181  16.934  0.1319 -0.3000 -0.8714
  798MPD2     H11813   3.313   0.923  16.943 -0.6039  0.9770 -1.1974
  798MPD2    H111814   3.683   1.085  17.095  0.0510 -0.1796 -0.1350
  798MPD2    H211815   3.478   1.278  16.780 -1.7173 -0.4422  0.8104
  798MPD2    H311816   3.675   1.248  16.932  0.9300 -1.3056 -0.9335
  798MPD2     N11817   3.499   0.869  17.104  0.3784  0.1885  0.0641
  798MPD2    H511818   3.425   0.804  17.078  0.5007 -0.1057  0.4568
  798MPD2    N111819   3.267   1.109  16.779 -0.2788 -0.3444 -0.2358
  798MPD2    H711820   3.201   1.033  16.788 -0.3795 -0.3657 -1.1402
  799MPD2     C11821   2.051   2.177  14.529 -0.2741  0.8198 -0.3462
  799MPD2    C111822   1.919   2.140  14.522  0.4299  0.0327 -0.1017
  799MPD2    C211823   1.834   2.192  14.424  0.1214 -0.3099  0.5889
  799MPD2    C311824   1.896   2.274  14.329  0.0741 -0.3166 -0.4318
  799MPD2    C411825   2.031   2.299  14.336  0.1068  0.3407  0.2763
  799MPD2    C511826   2.110   2.253  14.434  0.4373  0.6096 -0.0648
  799MPD2     H11827   1.728   2.173  14.416  0.3312 -0.8040 -1.0199
  799MPD2    H111828   2.074   2.361  14.259 -0.5622  0.5945  0.1082
  799MPD2    H211829   2.116   2.138  14.607 -0.8958 -0.0113 -0.2380
  799MPD2    H311830   2.212   2.287  14.445  1.2707 -2.7241  2.2723
  799MPD2     N11831   1.833   2.331  14.215  0.6276  0.2869 -0.2436
  799MPD2    H511832   1.893   2.368  14.142  0.2048  1.8292  0.1964
  799MPD2    N111833   1.863   2.036  14.606 -0.2483  0.1928  0.3814
  799MPD2    H711834   1.762   2.022  14.602 -0.4157  1.3508  0.3848
  800MPD2     C11835   2.008   3.350  14.242 -0.1540 -0.0397 -0.3713
  800MPD2    C111836   2.118   3.285  14.188 -0.0589 -0.3597 -0.4263
  800MPD2    C211837   2.086   3.187  14.097  0.4415 -0.4012  0.5856
  800MPD2    C311838   1.955   3.154  14.062  0.3606  0.5361  0.5433
  800MPD2    C411839   1.853   3.213  14.130  0.1672  0.0217  0.4137
  800MPD2    C511840   1.882   3.307  14.224 -0.7914  0.1072  0.2524
  800MPD2     H11841   2.161   3.132  14.041  0.7971  1.8823 -1.1803
  800MPD2    H111842   1.752   3.187  14.103  1.0247 -1.8762 -0.9885
  800MPD2    H211843   2.020   3.433  14.311  2.0102 -0.3887 -0.3421
  800MPD2    H311844   1.797   3.366  14.256 -0.6249  0.6313 -0.2500
  800MPD2     N11845   1.940   3.072  13.951 -0.0307  0.5575 -0.3470
  800MPD2    H511846   2.031   3.059  13.908  0.8834 -2.2383  2.4511
  800MPD2    N111847   2.246   3.331  14.199 -0.0023  0.4807  0.2669
  800MPD2    H711848   2.256   3.421  14.245 -1.0041 -0.6882  2.7880
  801MPD2     C11849   2.234   3.967  14.138 -0.9279  0.1890  1.1947
  801MPD2    C111850   2.232   3.848  14.202 -0.3651  0.3486 -0.3959
  801MPD2    C211851   2.148   3.832  14.314  0.2568 -0.4121  0.3351
  801MPD2    C311852   2.059   3.930  14.364  1.1902 -0.2939 -0.7195
  801MPD2    C411853   2.053   4.047  14.286 -0.2039 -0.1879  1.1670
  801MPD2    C511854   2.134   4.063  14.176 -0.0579 -0.2962  0.0636
  801MPD2     H11855   2.146   3.740  14.372 -0.7494  0.8401  2.3236
  801MPD2    H111856   1.996   4.133  14.319 -0.1465 -0.6339  2.4502
  801MPD2    H211857   2.296   4.000  14.055 -0.7589  2.1344  2.0948
  801MPD2    H311858   2.121   4.153  14.116  3.5912  0.1175 -0.1004
  801MPD2     N11859   1.982   3.909  14.477  0.0870  0.0240 -0.2727
  801MPD2    H511860   1.898   3.966  14.479 -0.3023 -0.5687  0.3052
  801MPD2    N111861   2.327   3.747  14.180 -0.0174  0.4506  0.2642
  801MPD2    H711862   2.316   3.669  14.244  0.0622  0.6368  0.5031
  802MPD2     C11863   2.339   0.258   0.178 -0.6640  0.2645 -0.7210
  802MPD2    C111864   2.284   0.137   0.212 -0.0172 -0.3913 -0.0093
  802MPD2    C211865   2.301   0.035   0.128 -0.8425 -0.2202 -0.1299
  802MPD2    C311866   2.378   0.038   0.016 -0.1731 -0.4847  0.3638
  802MPD2    C411867   2.452   0.152  17.750 -0.7631  0.0569  0.0092
  802MPD2    C511868   2.430   0.258   0.074 -0.2710  0.6980 -0.2837
  802MPD2     H11869   2.255   4.680   0.153  0.4347 -0.3253  1.9215
  802MPD2    H111870   2.530   0.156  17.675 -0.8864 -1.6928 -0.2193
  802MPD2    H211871   2.337   0.343   0.244  0.4286  1.2007 -1.8884
  802MPD2    H311872   2.489   0.348   0.057  0.1841  0.9314  2.5097
  802MPD2     N11873   2.391   4.661  17.709 -0.1602 -0.5866  0.6901
  802MPD2    H511874   2.333   4.585  17.743  0.1368 -1.2641 -0.3008
  802MPD2    N111875   2.193   0.121   0.322  0.3915 -0.4087 -0.2129
  802MPD2    H711876   2.166   0.025   0.338  3.3167 -1.2670 -0.4477
  803MPD2     C11877   2.576   2.655  12.066 -0.0705 -0.2371  0.0869
  803MPD2    C111878   2.686   2.643  12.152  0.5215  0.6762 -0.3260
  803MPD2    C211879   2.711   2.529  12.219 -0.0199  0.4867 -0.2059
  803MPD2    C311880   2.628   2.417  12.211 -0.7280 -0.1175  0.2654
  803MPD2    C411881   2.520   2.425  12.135 -0.6866  0.7592 -0.1671
  803MPD2    C511882   2.498   2.541  12.063  0.3270 -0.3363 -0.1519
  803MPD2     H11883   2.790   2.523  12.293 -0.1938 -1.6748 -0.1960
  803MPD2    H111884   2.453   2.340  12.124 -0.2996  0.1145  2.3152
  803MPD2    H211885   2.540   2.746  12.018  2.5188  0.7444  0.0060
  803MPD2    H311886   2.410   2.556  12.001  0.6170  1.0663 -0.2252
  803MPD2     N11887   2.659   2.306  12.288  0.2176  0.0695  0.1120
  803MPD2    H511888   2.580   2.244  12.299  0.5850 -0.3421  0.4331
  803MPD2    N111889   2.773   2.755  12.172  0.0151 -0.2673 -0.2711
  803MPD2    H711890   2.840   2.742  12.248 -1.0788 -0.9401  0.5878
  804MPD2     C11891   2.530   3.719  16.887  0.0467 -0.0415 -0.0270
  804MPD2    C111892   2.487   3.729  17.019  0.2890 -0.0215  0.7700
  804MPD2    C211893   2.528   3.836  17.089 -0.2246  0.1684  0.1011
  804MPD2    C311894   2.601   3.943  17.033 -0.2039 -0.2422 -0.2408
  804MPD2    C411895   2.634   3.932  16.905  0.0088  0.2762 -0.4198
  804MPD2    C511896   2.591   3.827  16.833 -0.0305 -0.4174  0.1844
  804MPD2     H11897   2.506   3.845  17.195  0.4575  1.1875  0.1620
  804MPD2    H111898   2.689   4.013  16.859 -0.8850  1.1797  0.1005
  804MPD2    H211899   2.509   3.635  16.822  0.7983  1.2372 -1.9188
  804MPD2    H311900   2.613   3.832  16.727 -2.3947 -2.0701 -0.3789
  804MPD2     N11901   2.647   4.042  17.130 -0.3583  0.0651 -0.0869
  804MPD2    H511902   2.596   4.058  17.216  1.3331  0.9222  0.7459
  804MPD2    N111903   2.410   3.622  17.081 -0.3806  0.1332 -0.2137
  804MPD2    H711904   2.364   3.637  17.170  1.1938 -1.8798  0.9479
  805MPD2     C11905   1.704   2.025  15.498 -0.0271 -0.5678 -0.2910
  805MPD2    C111906   1.768   2.150  15.483 -0.1573 -0.1921 -1.0794
  805MPD2    C211907   1.863   2.194  15.569  0.7998 -0.3795  0.6788
  805MPD2    C311908   1.892   2.128  15.687 -0.0674 -0.3547  0.2420
  805MPD2    C411909   1.822   2.013  15.708 -0.2177  0.6288  0.6641
  805MPD2    C511910   1.741   1.962  15.610  0.0845 -0.6143 -0.3083
  805MPD2     H11911   1.909   2.291  15.559 -1.3291  0.6864  1.2151
  805MPD2    H111912   1.845   1.956  15.797 -1.0528 -0.0479  0.4508
  805MPD2    H211913   1.638   1.980  15.425  0.8656  0.4086 -1.7120
  805MPD2    H311914   1.711   1.859  15.627  0.4091 -0.9208 -1.6117
  805MPD2     N11915   1.974   2.190  15.787 -0.4954  0.5929  0.5959
  805MPD2    H511916   2.014   2.280  15.763 -1.3430  0.7195 -0.3336
  805MPD2    N111917   1.732   2.239  15.380  0.1083  0.2738  0.0924
  805MPD2    H711918   1.797   2.313  15.356  1.4105 -0.1403  2.3671
  806MPD2     C11919   1.838   1.278  17.656 -0.3641 -0.1470  0.3167
  806MPD2    C111920   1.972   1.304  17.675  0.5599  0.1286  0.4124
  806MPD2    C211921   2.066   1.313  17.571  0.6267  0.1498  0.3017
  806MPD2    C311922   2.022   1.293  17.441 -0.8953 -0.2910 -0.9449
  806MPD2    C411923   1.892   1.251  17.421 -1.0745 -0.3942  0.2586
  806MPD2    C511924   1.810   1.252  17.526 -0.2178  0.5048 -0.7249
  806MPD2     H11925   2.167   1.343  17.593  1.3808 -2.2311  0.1290
  806MPD2    H111926   1.846   1.242  17.323 -0.9379  0.9814  0.0642
  806MPD2    H211927   1.758   1.267  17.727  1.2393  0.0919  2.1733
  806MPD2    H311928   1.710   1.246  17.485 -0.9583  0.1671  1.1239
  806MPD2     N11929   2.104   1.327  17.338 -0.6368 -0.5264 -0.1174
  806MPD2    H511930   2.184   1.387  17.355  1.2276 -3.8683  2.9390
  806MPD2    N111931   2.009   1.299   0.054 -0.0490  0.3693  0.2088
  806MPD2    H711932   1.947   1.262   0.126 -1.8704  1.1456 -0.9628
  807MPD2     C11933   1.622   1.278   0.698 -0.8045  0.2017 -0.5172
  807MPD2    C111934   1.746   1.315   0.726 -0.7771  0.2845  0.1328
  807MPD2    C211935   1.768   1.356   0.860  0.2397 -0.2674 -0.3680
  807MPD2    C311936   1.672   1.337   0.957  0.0929  0.8198 -0.3716
  807MPD2    C411937   1.548   1.284   0.926  0.0126  0.2124  0.0273
  807MPD2    C511938   1.526   1.275   0.790 -0.2581  1.0467 -0.3016
  807MPD2     H11939   1.861   1.389   0.904 -0.6041  1.0853  0.3829
  807MPD2    H111940   1.479   1.246   1.000 -0.4309 -0.0092 -0.5016
  807MPD2    H211941   1.600   1.247   0.597  1.6480  0.9370 -1.2713
  807MPD2    H311942   1.428   1.235   0.765 -0.9975  2.2816  0.5601
  807MPD2     N11943   1.722   1.349   1.089 -0.3405 -0.1279 -0.4585
  807MPD2    H511944   1.816   1.385   1.105 -1.0059  1.1988  0.5378
  807MPD2    N111945   1.849   1.326   0.634 -0.0716 -0.2420  0.3970
  807MPD2    H711946   1.933   1.377   0.660  0.0381 -1.5964  2.6774
  808MPD2     C11947   1.567   3.135   9.522  0.3970 -0.1372  0.2624
  808MPD2    C111948   1.581   3.208   9.641 -0.6508 -0.2277  0.1264
  808MPD2    C211949   1.654   3.323   9.642 -0.0858 -0.6489  0.3013
  808MPD2    C311950   1.717   3.360   9.526  0.6119  0.0788 -0.4018
  808MPD2    C411951   1.701   3.291   9.407  0.0130  0.0608  0.0701
  808MPD2    C511952   1.621   3.178   9.406 -0.3620 -0.4754  0.3105
  808MPD2     H11953   1.661   3.375   9.736 -0.4349  0.2904 -0.1927
  808MPD2    H111954   1.755   3.307   9.314  0.9580  0.0513  0.6155
  808MPD2    H211955   1.525   3.035   9.516  0.8634 -0.3659  0.8255
  808MPD2    H311956   1.604   3.123   9.314 -1.9343 -0.3010  0.4964
  808MPD2     N11957   1.802   3.470   9.514 -0.3842 -0.1162 -0.3392
  808MPD2    H511958   1.856   3.481   9.429 -0.0764  0.1071 -0.1164
  808MPD2    N111959   1.516   3.184   9.764 -0.7514  0.1631 -0.1837
  808MPD2    H711960   1.532   3.259   9.830 -3.4056  1.6067 -1.1949
  809MPD2     C11961   2.338   4.148   8.990  0.1486 -0.3181 -0.1037
  809MPD2    C111962   2.416   4.124   9.105  0.1271 -0.3652 -0.2512
  809MPD2    C211963   2.376   4.029   9.201 -0.5566 -0.5371  0.0145
  809MPD2    C311964   2.259   3.963   9.188 -0.2478 -0.1616 -0.1792
  809MPD2    C411965   2.176   3.998   9.079  0.3157 -0.4010  0.0379
  809MPD2    C511966   2.217   4.086   8.979  0.8789  0.8668 -0.3465
  809MPD2     H11967   2.442   4.001   9.282  0.6208  0.0344 -0.7522
  809MPD2    H111968   2.079   3.952   9.060  0.2772 -0.3735  0.1666
  809MPD2    H211969   2.359   4.228   8.920 -2.9553 -0.6997 -1.4723
  809MPD2    H311970   2.149   4.115   8.900 -1.4394  2.2696  2.1699
  809MPD2     N11971   2.235   3.862   9.285  0.0672 -0.3467  0.4329
  809MPD2    H511972   2.301   3.863   9.362  0.4164  2.3199  0.0817
  809MPD2    N111973   2.538   4.187   9.127 -0.3556  0.0268 -0.6400
  809MPD2    H711974   2.585   4.160   9.212 -1.1902  0.1668 -0.1345
  810MPD2     C11975   1.739   2.903  11.068 -1.0075 -0.0609  0.5498
  810MPD2    C111976   1.678   2.971  10.964  0.4966 -0.1103  0.6857
  810MPD2    C211977   1.736   3.098  10.938 -0.0521 -0.6183 -0.0132
  810MPD2    C311978   1.839   3.150  11.008  0.1857 -0.2179 -0.8118
  810MPD2    C411979   1.898   3.074  11.098 -0.2954 -0.1766  0.1987
  810MPD2    C511980   1.847   2.950  11.129 -0.3930 -0.2077  0.4512
  810MPD2     H11981   1.687   3.164  10.867 -0.6625 -0.9107  0.1448
  810MPD2    H111982   1.980   3.112  11.158 -0.2590 -1.1640  0.7743
  810MPD2    H211983   1.708   2.805  11.101 -1.8351 -0.3147 -0.9716
  810MPD2    H311984   1.898   2.885  11.198  1.0634  1.2578  0.7624
  810MPD2     N11985   1.895   3.278  10.999 -0.0828 -0.0591  0.1749
  810MPD2    H511986   1.968   3.305  11.064  1.7569 -3.1986 -0.5950
  810MPD2    N111987   1.568   2.925  10.890 -0.4450  0.3259 -0.0663
  810MPD2    H711988   1.525   2.839  10.922 -0.8955  1.0868  1.3602
  811MPD2     C11989   0.898   3.000  10.244 -0.6382  0.3571  0.1146
  811MPD2    C111990   1.008   3.060  10.298  0.0527  0.2346 -0.0652
  811MPD2    C211991   1.043   3.180  10.245 -0.0189 -0.1551 -0.2538
  811MPD2    C311992   0.951   3.259  10.170 -0.1668  0.0370  0.0805
  811MPD2    C411993   0.839   3.195  10.122  0.4955  0.3968 -0.1809
  811MPD2    C511994   0.816   3.067  10.159  0.0241 -0.0480 -0.5299
  811MPD2     H11995   1.131   3.232  10.281  0.4087  0.9301 -2.8828
  811MPD2    H111996   0.763   3.240  10.059  0.4591 -1.3131 -1.3554
  811MPD2    H211997   0.852   2.908  10.277  0.5210 -0.2930 -0.0789
  811MPD2    H311998   0.725   3.020  10.123  0.7699 -0.3446 -2.0461
  811MPD2     N11999   0.998   3.389  10.128  0.4771  0.4674 -0.0632
  811MPD2    H512000   1.092   3.418  10.155  0.7674  0.6954 -1.2925
  811MPD2    N112001   1.085   2.987  10.393 -0.0282 -0.5136 -0.7641
  811MPD2    H712002   1.051   2.898  10.427  4.2087 -1.1687  1.8093
  812MPD2     C12003   4.571   3.186  12.470  0.1352  0.2769 -0.0738
  812MPD2    C112004   4.700   3.215  12.435  0.7992 -0.1523 -0.3870
  812MPD2    C212005   0.069   3.167  12.516  0.6686  0.1114 -0.1060
  812MPD2    C312006   0.041   3.092  12.631 -0.8792 -0.0876 -1.0492
  812MPD2    C412007   4.650   3.065  12.663 -0.2820  0.6243 -0.5492
  812MPD2    C512008   4.550   3.116  12.578  0.5851 -0.2764 -0.3669
  812MPD2     H12009   0.175   3.173  12.496  0.6015  0.1070 -0.4749
  812MPD2    H112010   4.610   3.018  12.753 -0.9870 -0.8617 -1.6394
  812MPD2    H212011   4.489   3.223  12.410 -0.1500 -0.0069  0.1461
  812MPD2    H312012   4.447   3.094  12.604  0.0625 -0.5537 -2.6651
  812MPD2     N12013   0.150   3.046  12.706  0.3800  0.5377  0.8344
  812MPD2    H512014   0.241   3.085  12.682 -0.3778  1.1986 -0.9787
  812MPD2    N112015   4.728   3.289  12.316 -0.3057  0.1253  0.1861
  812MPD2    H712016   4.650   3.333  12.267 -1.7244 -0.1836  2.1835
  813MPD2     C12017   0.240   4.662  13.097 -0.6640 -0.2546 -0.4572
  813MPD2    C112018   0.147   0.021  13.113  0.4898 -0.2601 -0.2011
  813MPD2    C212019   0.013   4.735  13.151  0.2028  0.4752  0.3000
  813MPD2    C312020   4.718   4.606  13.180  0.1864 -0.5987  1.2474
  813MPD2    C412021   0.073   4.504  13.168 -0.0454 -0.0742  0.2583
  813MPD2    C512022   0.198   4.530  13.121  0.0500 -0.5048  0.4229
  813MPD2     H12023   4.680   0.071  13.178 -1.3517 -0.5774 -0.8606
  813MPD2    H112024   0.046   4.403  13.194  2.0296 -1.8788 -4.5636
  813MPD2    H212025   0.346   4.680  13.079 -0.8364  0.2224 -0.9761
  813MPD2    H312026   0.264   4.445  13.108 -1.1494 -1.3076 -0.3702
  813MPD2     N12027   4.590   4.590  13.246 -0.1993 -0.1260 -0.2542
  813MPD2    H512028   4.537   4.676  13.253 -0.6549 -0.6039  2.4112
  813MPD2    N112029   0.180   0.158  13.117 -0.2651  0.2481 -0.2324
  813MPD2    H712030   0.106   0.227  13.112 -0.0313  0.6694  1.9724
  814MPD2     C12031   0.076   1.008  12.740  1.2360 -0.1315  0.3094
  814MPD2    C112032   0.152   1.014  12.629 -0.0692 -0.2921  0.4363
  814MPD2    C212033   0.228   1.125  12.602  0.1699  0.1155 -0.0262
  814MPD2    C312034   0.217   1.237  12.685 -0.2537 -0.0810 -0.2813
  814MPD2    C412035   0.123   1.236  12.788  0.0579 -0.1487 -0.0089
  814MPD2    C512036   0.063   1.122  12.820  0.2802  0.2525 -0.6586
  814MPD2     H12037   0.290   1.130  12.513  1.0429  2.4266  0.7030
  814MPD2    H112038   0.109   1.322  12.853 -0.1614 -0.6831  0.6410
  814MPD2    H212039   0.014   0.926  12.774  0.9529  0.0243  0.1660
  814MPD2    H312040   4.740   1.116  12.909 -0.6482  2.2957 -1.1851
  814MPD2     N12041   0.303   1.346  12.677 -0.5726 -0.6278  0.4401
  814MPD2    H512042   0.294   1.421  12.744  0.4149 -0.0324 -0.0791
  814MPD2    N112043   0.150   0.917  12.523  0.1343  0.5928  0.0780
  814MPD2    H712044   0.197   0.939  12.436 -2.8837 -1.1368 -2.0129
  815MPD2     C12045   0.595   0.068  11.467 -1.0597  0.6217 -0.9665
  815MPD2    C112046   0.584   4.672  11.467 -0.1921  0.0681  0.3601
  815MPD2    C212047   0.544   4.611  11.586  0.2143 -0.7770  0.3352
  815MPD2    C312048   0.513   4.681  11.706 -0.4156 -0.3795 -0.1419
  815MPD2    C412049   0.539   0.078  11.704 -0.0234 -0.8521  0.0587
  815MPD2    C512050   0.574   0.140  11.583 -0.0272  0.1899  0.0890
  815MPD2     H12051   0.542   4.503  11.584 -2.1069 -0.7178 -0.5017
  815MPD2    H112052   0.520   0.134  11.794  0.9240  0.8934 -0.8277
  815MPD2    H212053   0.637   0.122  11.382  3.8413  0.1236  1.1461
  815MPD2    H312054   0.591   0.247  11.578 -0.2045  0.3102  1.9850
  815MPD2     N12055   0.479   4.606  11.816  0.1682 -0.0416  0.2871
  815MPD2    H512056   0.490   4.507  11.799 -2.5178 -0.3171  0.1799
  815MPD2    N112057   0.629   4.600  11.348  0.0790  0.3508 -0.3931
  815MPD2    H712058   0.645   4.660  11.268 -0.7984  0.9112 -0.1477
  816MPD2     C12059   1.334   3.299  17.695  0.0632 -0.5894  0.1487
  816MPD2    C112060   1.268   3.399  17.616  0.3949 -0.3289  1.0918
  816MPD2    C212061   1.297   3.394  17.479 -0.4168  0.0950  0.0612
  816MPD2    C312062   1.376   3.305  17.420 -0.9651 -0.5381 -0.5428
  816MPD2    C412063   1.438   3.208  17.502  0.1845 -0.0793 -0.2817
  816MPD2    C512064   1.410   3.209  17.637 -0.1482 -0.4344 -0.5691
  816MPD2     H12065   1.253   3.452  17.399 -0.9500  1.7762  1.5934
  816MPD2    H112066   1.492   3.122  17.463 -0.0335  0.4029 -1.6567
  816MPD2    H212067   1.328   3.294   0.046  0.9929  0.6725  0.2542
  816MPD2    H312068   1.445   3.129  17.700  1.8975  0.7660 -0.2071
  816MPD2     N12069   1.382   3.301  17.280  0.2989  0.7194 -0.0350
  816MPD2    H512070   1.351   3.391  17.243  0.2241  0.9320  0.5327
  816MPD2    N112071   1.173   3.491  17.676 -0.5226  0.2191 -0.0289
  816MPD2    H712072   1.175   3.497   0.020 -1.7444 -0.2675  0.0172
  817MPD2     C12073   4.586   0.956   9.578  0.9312  0.1969 -0.5464
  817MPD2    C112074   4.550   0.862   9.488 -0.4064 -0.2754 -0.0951
  817MPD2    C212075   4.459   0.883   9.390 -0.7434 -0.2743 -0.2741
  817MPD2    C312076   4.386   1.010   9.391 -0.3077 -0.2088 -0.0154
  817MPD2    C412077   4.425   1.106   9.485 -0.1974 -0.5683  0.6555
  817MPD2    C512078   4.520   1.079   9.577  0.3864  0.1393  0.4195
  817MPD2     H12079   4.426   0.807   9.321  1.5963 -1.5135 -0.0124
  817MPD2    H112080   4.375   1.201   9.500 -0.8695 -1.2044  2.4180
  817MPD2    H212081   4.647   0.930   9.663  2.2284 -0.4818 -1.6847
  817MPD2    H312082   4.559   1.154   9.646 -0.7962  0.4886  0.7124
  817MPD2     N12083   4.284   1.028   9.298 -0.2020  0.0276  0.5599
  817MPD2    H512084   4.282   0.962   9.221 -2.4171  1.6199 -0.7501
  817MPD2    N112085   4.604   0.734   9.486 -0.6587  0.1674 -0.3871
  817MPD2    H712086   4.591   0.672   9.407  0.2462 -1.0394  0.4143
  818MPD2     C12087   4.161   0.167   9.546  0.4933  0.6807 -0.2530
  818MPD2    C112088   4.093   0.261   9.626  0.5310 -0.3565 -0.5283
  818MPD2    C212089   4.012   0.355   9.564 -0.1428 -0.6275 -0.1678
  818MPD2    C312090   3.992   0.353   9.431 -0.1203 -0.3106  0.0599
  818MPD2    C412091   4.042   0.247   9.354 -0.0018  0.2529 -0.2948
  818MPD2    C512092   4.121   0.156   9.413  0.1554 -0.4039  0.0079
  818MPD2     H12093   3.964   0.425   9.631  0.4431 -0.7913  0.4268
  818MPD2    H112094   3.996   0.233   9.256  0.1808  0.4223 -0.4056
  818MPD2    H212095   4.216   0.092   9.603 -0.2653  0.6708  0.4643
  818MPD2    H312096   4.138   0.062   9.360  0.2530 -0.9376  0.9921
  818MPD2     N12097   3.896   0.443   9.370 -0.0356 -0.1558  0.6208
  818MPD2    H512098   3.868   0.426   9.274 -1.1384 -0.8483  1.0704
  818MPD2    N112099   4.115   0.281   9.762 -0.7754 -0.0068  0.3984
  818MPD2    H712100   4.069   0.362   9.803  1.5987  1.2570  0.5863
  819MPD2     C12101   2.316   2.126  15.749 -0.8926 -0.5489  0.1848
  819MPD2    C112102   2.324   1.989  15.767 -0.1526  0.2042 -0.0314
  819MPD2    C212103   2.434   1.939  15.840 -0.7972 -0.6255  0.1419
  819MPD2    C312104   2.518   2.024  15.907  0.7772  0.4258 -0.4523
  819MPD2    C412105   2.500   2.162  15.894 -0.4718 -0.6290  0.5032
  819MPD2    C512106   2.406   2.207  15.808 -0.2132  1.1515  0.0863
  819MPD2     H12107   2.448   1.832  15.845  1.2824 -0.3357  0.5073
  819MPD2    H112108   2.568   2.227  15.948 -0.4978 -1.2819  1.3246
  819MPD2    H212109   2.250   2.184  15.685 -0.2070 -1.0762 -1.0010
  819MPD2    H312110   2.399   2.314  15.791 -3.1911  0.7177 -1.4203
  819MPD2     N12111   2.625   1.965  15.980  0.6113 -0.7684  0.0534
  819MPD2    H512112   2.609   1.865  15.978 -1.1158 -0.4779 -0.9586
  819MPD2    N112113   2.226   1.914  15.704  0.0009 -0.4478 -0.2553
  819MPD2    H712114   2.149   1.964  15.662  0.7306  0.2578 -0.7643
  820MPD2     C12115   1.604   1.880  14.918 -0.5167 -0.8482  0.4369
  820MPD2    C112116   1.690   1.978  14.971  0.4394 -1.0067  0.0226
  820MPD2    C212117   1.770   1.942  15.087 -0.6056 -0.0067 -0.2131
  820MPD2    C312118   1.756   1.816  15.147 -0.8849 -0.1880 -0.0566
  820MPD2    C412119   1.666   1.732  15.089  0.1722 -0.6459  0.4287
  820MPD2    C512120   1.595   1.757  14.975 -0.9649 -0.2065  0.2592
  820MPD2     H12121   1.836   2.017  15.129 -0.4921 -0.7492  0.9479
  820MPD2    H112122   1.644   1.635  15.134  0.5626 -1.0715 -0.3047
  820MPD2    H212123   1.531   1.909  14.843 -2.1480 -3.0937  1.1596
  820MPD2    H312124   1.524   1.686  14.935 -1.4955  1.6683 -2.1259
  820MPD2     N12125   1.829   1.758  15.253 -0.5601  0.6254 -0.4916
  820MPD2    H512126   1.804   1.664  15.280 -1.0463 -0.0404 -3.2510
  820MPD2    N112127   1.677   2.108  14.918 -0.4731 -0.2901  0.0485
  820MPD2    H712128   1.613   2.116  14.840 -0.9864  2.8548  0.7587
  821MPD2     C12129   2.045   3.420  13.265 -0.0161  0.7755  0.6939
  821MPD2    C112130   2.123   3.320  13.310  0.4743 -0.7566 -0.2840
  821MPD2    C212131   2.245   3.312  13.257  0.3534  0.7026 -0.4543
  821MPD2    C312132   2.299   3.407  13.165  0.5561 -0.6305 -0.0258
  821MPD2    C412133   2.225   3.510  13.120  0.4101  0.2161  0.2295
  821MPD2    C512134   2.095   3.506  13.159  0.6055  0.9322 -0.4597
  821MPD2     H12135   2.308   3.231  13.294 -2.3620 -1.8291 -1.3647
  821MPD2    H112136   2.256   3.575  13.039  2.0965 -0.3792  0.4081
  821MPD2    H212137   1.945   3.434  13.305 -0.0323  0.5018  0.7557
  821MPD2    H312138   2.031   3.582  13.116 -1.2798  0.2453  1.1403
  821MPD2     N12139   2.426   3.396  13.104  0.3074 -0.0518  0.4903
  821MPD2    H512140   2.459   3.466  13.038  1.2196  0.3645  1.3911
  821MPD2    N112141   2.082   3.232  13.408  0.0815  0.0417  0.0091
  821MPD2    H712142   2.147   3.156  13.424  1.3268  1.1349  0.0716
  822MPD2     C12143   2.849   2.925  15.632 -0.2490  0.4188 -0.0029
  822MPD2    C112144   2.906   3.004  15.735  0.4334  0.8615 -0.3010
  822MPD2    C212145   2.859   3.134  15.763  0.5108  0.4899 -0.1092
  822MPD2    C312146   2.736   3.174  15.716 -0.0366  0.2937 -0.7300
  822MPD2    C412147   2.677   3.098  15.615  0.5516  0.7785  0.7846
  822MPD2    C512148   2.737   2.978  15.576  0.3429  0.4300 -0.1939
  822MPD2     H12149   2.903   3.188  15.846 -0.0608  1.0841 -0.1832
  822MPD2    H112150   2.580   3.111  15.568  0.3222  1.1002  1.3539
  822MPD2    H212151   2.872   2.822  15.607  0.2230  0.6491 -0.5145
  822MPD2    H312152   2.689   2.914  15.504  0.2175  1.2758 -0.8626
  822MPD2     N12153   2.679   3.294  15.757 -0.9489  0.5037 -0.4957
  822MPD2    H512154   2.728   3.342  15.831  0.0983 -1.1465 -0.1022
  822MPD2    N112155   3.006   2.964  15.822 -0.1453 -0.1332  0.1054
  822MPD2    H712156   3.045   3.029  15.890 -0.2163 -0.7441  0.7311
  823MPD2     C12157   2.197   3.567  16.439 -0.2984  0.3604  0.8841
  823MPD2    C112158   2.301   3.515  16.361  0.1051  0.6846 -0.4432
  823MPD2    C212159   2.403   3.448  16.433 -0.0227 -0.5797 -0.0693
  823MPD2    C312160   2.407   3.425  16.571 -0.2828  0.5615  0.0426
  823MPD2    C412161   2.293   3.478  16.641  0.0416 -0.5815  0.0322
  823MPD2    C512162   2.196   3.548  16.574  0.0307  0.0930 -0.2222
  823MPD2     H12163   2.490   3.417  16.375  0.4142 -0.5468  0.5714
  823MPD2    H112164   2.289   3.452  16.747 -1.5706  3.9641  1.0586
  823MPD2    H212165   2.115   3.627  16.400 -0.3653 -0.0201  0.4335
  823MPD2    H312166   2.119   3.586  16.641 -0.1386  0.9574 -0.9107
  823MPD2     N12167   2.499   3.350  16.639 -0.1801 -0.0466 -0.3868
  823MPD2    H512168   2.503   3.370  16.739 -3.1678  2.5814 -0.7898
  823MPD2    N112169   2.318   3.538  16.221 -0.1113  1.2966 -0.2962
  823MPD2    H712170   2.252   3.605  16.185 -1.5225 -0.3422 -0.7458
  824MPD2     C12171   3.264   2.234  15.900  0.2628 -0.1589  0.4750
  824MPD2    C112172   3.367   2.327  15.914 -0.0140  0.2493 -0.0594
  824MPD2    C212173   3.498   2.296  15.882  0.3668 -0.0012  0.0362
  824MPD2    C312174   3.530   2.168  15.834 -0.4745 -0.5182 -0.4652
  824MPD2    C412175   3.425   2.074  15.837 -0.5383  0.1000 -0.3227
  824MPD2    C512176   3.296   2.105  15.861 -0.2276 -0.2221  0.1683
  824MPD2     H12177   3.576   2.370  15.879  0.4534 -0.0740  0.5824
  824MPD2    H112178   3.434   1.968  15.817  1.6620  0.1271  0.5044
  824MPD2    H212179   3.161   2.265  15.911 -0.0246 -1.3220  0.9579
  824MPD2    H312180   3.221   2.027  15.866  0.4938 -1.0613 -2.5514
  824MPD2     N12181   3.666   2.138  15.791  0.1849  0.2484  0.0028
  824MPD2    H512182   3.730   2.214  15.813  2.0011 -1.3409  0.2952
  824MPD2    N112183   3.332   2.459  15.943  0.0383 -0.6418  0.3865
  824MPD2    H712184   3.231   2.475  15.944 -0.1757 -1.8693 -1.2710
  825MPD2     C12185   4.283   2.178  15.191 -0.1117 -0.1409 -0.0398
  825MPD2    C112186   4.213   2.240  15.293 -0.3057 -0.1325 -0.5652
  825MPD2    C212187   4.223   2.375  15.297  0.2804 -0.4019 -0.5860
  825MPD2    C312188   4.278   2.454  15.199 -0.0060 -0.2065 -0.1730
  825MPD2    C412189   4.341   2.385  15.098  0.5781  0.1657 -0.1093
  825MPD2    C512190   4.346   2.251  15.093  0.1576  0.7220  0.0624
  825MPD2     H12191   4.175   2.425  15.381  0.2977  2.6634 -2.3984
  825MPD2    H112192   4.380   2.434  15.010 -1.3651  0.7386 -0.6491
  825MPD2    H212193   4.309   2.073  15.183  3.1673  0.6452  0.2785
  825MPD2    H312194   4.407   2.211  15.012  0.5557  0.2178  0.6115
  825MPD2     N12195   4.268   2.595  15.207  0.1188  0.2951  0.6762
  825MPD2    H512196   4.333   2.641  15.145 -0.6587  1.1963  0.5280
  825MPD2    N112197   4.148   2.156  15.389  0.0714  0.2544 -0.7814
  825MPD2    H712198   4.135   2.058  15.364 -2.4345  0.5034 -0.4947
  826MPD2     C12199   4.163   2.555  13.716  0.6798  0.1615  0.3753
  826MPD2    C112200   4.109   2.523  13.596 -0.0191 -0.1542 -0.0909
  826MPD2    C212201   3.979   2.555  13.574  0.7565 -0.1006  0.0108
  826MPD2    C312202   3.904   2.621  13.666  0.1603  1.1612 -0.2938
  826MPD2    C412203   3.963   2.665  13.782  0.4510 -1.3696  0.2645
  826MPD2    C512204   4.094   2.621  13.809 -0.2142  0.0949 -0.4444
  826MPD2     H12205   3.942   2.536  13.473 -0.7001  1.3056  0.2727
  826MPD2    H112206   3.911   2.732  13.850  1.9681  0.8940 -0.8267
  826MPD2    H212207   4.259   2.514  13.746  0.2825  1.2144  3.0634
  826MPD2    H312208   4.148   2.633  13.902 -2.8789  1.2649  0.9495
  826MPD2     N12209   3.767   2.659  13.648 -0.6339 -0.3206 -0.0815
  826MPD2    H512210   3.729   2.726  13.714  1.6339 -0.2898  1.1833
  826MPD2    N112211   4.195   2.457  13.504 -1.0660 -0.1077  0.5347
  826MPD2    H712212   4.285   2.419  13.530  0.0380  2.0517 -0.1206
  827MPD2     C12213   4.065   4.535   9.643  0.0131  0.1122  0.6947
  827MPD2    C112214   4.007   4.440   9.725  0.3322 -0.0467 -0.0302
  827MPD2    C212215   3.909   4.355   9.674  0.1419  0.2187  0.2783
  827MPD2    C312216   3.856   4.382   9.544 -0.1224  0.2649 -0.2347
  827MPD2    C412217   3.906   4.481   9.464 -0.5838 -0.8068  0.3082
  827MPD2    C512218   4.009   4.553   9.511  0.1998 -0.3628  0.1948
  827MPD2     H12219   3.867   4.273   9.731  0.0074  1.8004  2.4718
  827MPD2    H112220   3.863   4.503   9.367 -2.1347  1.3938  1.4777
  827MPD2    H212221   4.143   4.602   9.678  1.0722 -1.2061  0.9044
  827MPD2    H312222   4.053   4.636   9.456  0.3852  1.6155  3.3022
  827MPD2     N12223   3.747   4.304   9.503  0.0005  0.2584  1.1453
  827MPD2    H512224   3.737   4.209   9.536 -0.3015  0.2400  1.0044
  827MPD2    N112225   4.060   4.429   9.862 -0.6639  0.1451 -0.4297
  827MPD2    H712226   4.145   4.481   9.883 -1.4384  1.8848 -1.6534
  828MPD2     C12227   2.670   3.465  12.719  0.8933 -0.4222  0.3404
  828MPD2    C112228   2.668   3.591  12.670  0.2982 -0.4644  0.5528
  828MPD2    C212229   2.781   3.627  12.598 -0.4290 -0.1108 -0.4648
  828MPD2    C312230   2.893   3.542  12.578  0.3186  0.0232  0.4013
  828MPD2    C412231   2.885   3.408  12.624  0.3251  0.1477 -0.4108
  828MPD2    C512232   2.781   3.379  12.705 -0.9777 -0.0333  0.2032
  828MPD2     H12233   2.777   3.732  12.569 -0.6106  0.2056  0.6984
  828MPD2    H112234   2.958   3.329  12.613  0.8063  0.3368  1.5001
  828MPD2    H212235   2.587   3.425  12.775 -0.2542 -0.2274 -1.2334
  828MPD2    H312236   2.777   3.278  12.745 -2.5677 -0.4653 -1.0528
  828MPD2     N12237   3.007   3.574  12.501  0.0148  0.0834  0.3040
  828MPD2    H512238   3.069   3.503  12.463  0.0358  1.5972 -2.4569
  828MPD2    N112239   2.554   3.673  12.683 -0.1251  0.5697 -0.6115
  828MPD2    H712240   2.552   3.759  12.628 -2.0860 -1.7183 -4.1113
  829MPD2     C12241   2.216   3.853  11.944  0.3884 -0.7306  0.0575
  829MPD2    C112242   2.111   3.878  12.037 -0.1325 -0.1069  0.3804
  829MPD2    C212243   2.137   3.896  12.171  0.2313 -0.0948 -0.1308
  829MPD2    C312244   2.274   3.895  12.215 -0.3223  0.4716 -0.3245
  829MPD2    C412245   2.375   3.858  12.122 -0.0674  0.2631 -0.2747
  829MPD2    C512246   2.342   3.833  11.990  0.6003  0.3630 -1.0217
  829MPD2     H12247   2.056   3.901  12.243 -1.8542  2.1374 -2.6326
  829MPD2    H112248   2.477   3.850  12.157  0.0208  0.9106 -0.3988
  829MPD2    H212249   2.197   3.859  11.838 -0.8289 -0.3672  0.3007
  829MPD2    H312250   2.419   3.809  11.918  1.4732  0.5269 -0.1501
  829MPD2     N12251   2.303   3.889  12.350 -0.1569 -0.1315 -0.8113
  829MPD2    H512252   2.395   3.859  12.380 -0.6277  0.3074  1.0678
  829MPD2    N112253   1.976   3.903  12.001 -0.0650  0.0525 -0.2262
  829MPD2    H712254   1.912   3.932  12.074 -0.2886  1.0763 -0.8297
  830MPD2     C12255   3.379   1.602  16.049 -0.2088 -0.3114 -0.2631
  830MPD2    C112256   3.259   1.628  15.971 -0.3242 -0.4123 -0.2332
  830MPD2    C212257   3.281   1.671  15.842  0.0015 -0.2652 -0.4797
  830MPD2    C312258   3.410   1.687  15.793 -0.7805  0.1560  0.2944
  830MPD2    C412259   3.522   1.668  15.870  0.3898  0.0771  0.1559
  830MPD2    C512260   3.508   1.622  15.999  0.1019 -0.0509  0.2169
  830MPD2     H12261   3.194   1.678  15.778 -0.6908 -0.4774  0.4384
  830MPD2    H112262   3.622   1.677  15.828  1.4237 -1.1922  2.3325
  830MPD2    H212263   3.382   1.575  16.154  2.1277 -0.2215 -0.2963
  830MPD2    H312264   3.595   1.617  16.063  2.6606 -1.8758 -3.3834
  830MPD2     N12265   3.428   1.739  15.661  0.4359  0.0939 -0.3085
  830MPD2    H512266   3.520   1.777  15.639  0.9013 -1.5437 -1.2103
  830MPD2    N112267   3.134   1.623  16.041 -0.7311 -0.3511  0.4760
  830MPD2    H712268   3.146   1.605  16.140  2.2332  1.5016  0.4489
  831MPD2     C12269   2.983   3.467  16.211 -0.3367  0.8253 -0.6390
  831MPD2    C112270   3.025   3.370  16.125  0.0958  0.3297 -0.3603
  831MPD2    C212271   2.931   3.256  16.112 -0.1059 -0.2078  0.2467
  831MPD2    C312272   2.808   3.258  16.178  0.1805  0.2274 -0.8502
  831MPD2    C412273   2.785   3.355  16.268  0.1761 -0.3770  0.5399
  831MPD2    C512274   2.870   3.461  16.282 -1.2447 -0.3343 -0.2860
  831MPD2     H12275   2.956   3.171  16.049  0.8330 -1.6158  2.5314
  831MPD2    H112276   2.695   3.360  16.328  0.2657 -0.6250  0.6948
  831MPD2    H212277   3.047   3.551  16.238  0.6720 -0.0319 -0.3365
  831MPD2    H312278   2.854   3.539  16.357  0.3099 -0.2124 -0.0710
  831MPD2     N12279   2.713   3.154  16.185 -0.1226  0.0336  0.1197
  831MPD2    H512280   2.632   3.173  16.243  1.1199  1.9576  1.1987
  831MPD2    N112281   3.153   3.374  16.070 -0.1640 -0.4936 -0.3279
  831MPD2    H712282   3.230   3.431  16.104 -0.6086  0.2039 -0.4889
  832MPD2     C12283   1.893   4.205  17.075  0.0247  0.5830 -1.0362
  832MPD2    C112284   1.856   4.325  17.028 -0.0542  0.1708  0.7522
  832MPD2    C212285   1.733   4.350  16.976  0.7866  0.1768 -0.7457
  832MPD2    C312286   1.635   4.252  16.990 -0.5100 -0.3465  0.9986
  832MPD2    C412287   1.676   4.123  17.019 -0.4516 -0.1905 -0.1056
  832MPD2    C512288   1.804   4.102  17.061 -0.4306  0.1511 -0.1407
  832MPD2     H12289   1.706   4.453  16.956 -1.4882 -0.4665 -1.0225
  832MPD2    H112290   1.613   4.035  17.015 -2.0184  0.9439 -0.4597
  832MPD2    H212291   1.994   4.196  17.112  0.1264 -0.4301 -1.5656
  832MPD2    H312292   1.827   4.002  17.097 -0.6848  0.1551  0.0273
  832MPD2     N12293   1.494   4.276  16.968 -0.0208  0.4623  0.4481
  832MPD2    H512294   1.427   4.203  16.992  0.6210  0.5375  2.4660
  832MPD2    N112295   1.950   4.426  17.056  0.0190 -0.4133  0.6209
  832MPD2    H712296   2.029   4.395  17.112  1.9684  1.9325 -0.8388
  833MPD2     C12297   3.580   1.318  12.351  0.4471 -0.3919 -0.5315
  833MPD2    C112298   3.548   1.432  12.284 -0.4071  0.0103  0.2997
  833MPD2    C212299   3.601   1.454  12.158 -0.3918  0.1357 -0.0644
  833MPD2    C312300   3.684   1.352  12.107  0.3555  0.4828 -0.8081
  833MPD2    C412301   3.715   1.246  12.185  0.1768 -0.6440 -0.2247
  833MPD2    C512302   3.669   1.226  12.310 -0.7672  1.0101 -0.0629
  833MPD2     H12303   3.566   1.535  12.094  1.4399  0.8080 -0.2326
  833MPD2    H112304   3.759   1.163  12.131 -1.1178 -0.9751 -0.7640
  833MPD2    H212305   3.523   1.307  12.443 -0.8513  0.4196 -1.2405
  833MPD2    H312306   3.689   1.133  12.362  1.8631  0.7388 -1.6042
  833MPD2     N12307   3.723   1.350  11.970 -0.2237 -0.1480 -0.1934
  833MPD2    H512308   3.758   1.260  11.936  0.8447  0.0865  0.3096
  833MPD2    N112309   3.446   1.517  12.340 -0.3132  0.2119  0.1791
  833MPD2    H712310   3.402   1.469  12.417 -1.4861 -1.1940 -1.3551
  834MPD2     C12311   3.476   0.721  11.274 -0.4139  0.4555 -0.2273
  834MPD2    C112312   3.482   0.834  11.192 -0.2835 -0.0124  0.3145
  834MPD2    C212313   3.490   0.956  11.254  0.0583 -0.2488  0.5181
  834MPD2    C312314   3.504   0.963  11.392  0.1994  0.2847 -0.7348
  834MPD2    C412315   3.488   0.853  11.471 -0.2996  0.2327  0.0873
  834MPD2    C512316   3.478   0.730  11.410 -0.0380  0.3181  0.3075
  834MPD2     H12317   3.502   1.043  11.190 -0.8419 -1.1423 -0.8736
  834MPD2    H112318   3.478   0.851  11.579  0.6307 -1.3566  0.1371
  834MPD2    H212319   3.461   0.625  11.225  0.5722  0.2623 -0.1496
  834MPD2    H312320   3.462   0.639  11.466 -0.2223 -0.3300 -0.7905
  834MPD2     N12321   3.529   1.086  11.456 -0.5861 -0.0361 -1.0080
  834MPD2    H512322   3.513   1.173  11.407  3.0980  1.5665  0.6278
  834MPD2    N112323   3.472   0.821  11.053 -0.6231  0.8868  0.1291
  834MPD2    H712324   3.460   0.725  11.022 -0.7945 -0.1092  3.3047
  835MPD2     C12325   3.137   4.241  11.265  0.3276  0.7122 -0.1491
  835MPD2    C112326   3.080   4.351  11.325 -0.1596 -0.2327  0.4637
  835MPD2    C212327   3.140   4.400  11.443 -0.0575 -0.5700 -0.1927
  835MPD2    C312328   3.241   4.327  11.507  0.8531  0.5734 -0.6079
  835MPD2    C412329   3.301   4.227  11.435 -0.4910 -0.5293  0.5063
  835MPD2    C512330   3.253   4.186  11.312 -0.0360 -0.1699 -0.2471
  835MPD2     H12331   3.085   4.479  11.492 -0.6545  0.3771 -2.4159
  835MPD2    H112332   3.368   4.152  11.475 -1.2978 -1.5022  0.0355
  835MPD2    H212333   3.090   4.191  11.181  0.2047  0.2633  0.1838
  835MPD2    H312334   3.297   4.098  11.266  1.3484 -2.0283  4.5811
  835MPD2     N12335   3.310   4.362  11.632 -0.6614  0.3014 -0.4147
  835MPD2    H512336   3.374   4.291  11.666  0.2329  0.8757 -0.9058
  835MPD2    N112337   2.954   4.402  11.272 -0.1832 -0.3002  1.0292
  835MPD2    H712338   2.912   4.471  11.334  0.1343  0.8812 -0.0604
  836MPD2     C12339   3.059   0.048  12.242 -0.2524  0.3971  1.1129
  836MPD2    C112340   3.106   4.659  12.276  0.5325  0.3029 -1.2795
  836MPD2    C212341   3.057   4.602  12.393 -0.2613 -0.3534  1.1562
  836MPD2    C312342   2.971   4.670  12.478  0.4377  0.4720  0.6287
  836MPD2    C412343   2.936   0.063  12.447 -0.0523 -0.2769  0.2833
  836MPD2    C512344   2.979   0.121  12.330  0.4220  0.1881 -0.3315
  836MPD2     H12345   3.086   4.500  12.418  0.1430 -0.3143  0.8372
  836MPD2    H112346   2.882   0.114  12.526 -1.0898  0.7800 -1.1095
  836MPD2    H212347   3.083   0.091  12.145  0.4689 -0.0948  1.0687
  836MPD2    H312348   2.949   0.212  12.281  0.1146 -1.1750 -2.6987
  836MPD2     N12349   2.900   4.617  12.584  0.2743  0.4074 -0.0764
  836MPD2    H512350   2.845   4.680  12.641 -0.6760 -0.9673  0.5282
  836MPD2    N112351   3.200   4.593  12.188  0.3515 -0.4592  0.0216
  836MPD2    H712352   3.219   4.642  12.101  2.4326 -1.8170 -0.2990
  837MPD2     C12353   1.419   4.047  10.302  0.0727  0.1328  0.0564
  837MPD2    C112354   1.284   4.067  10.288  0.1199  0.0616 -0.1530
  837MPD2    C212355   1.226   4.190  10.293  0.1549  0.4726  0.2851
  837MPD2    C312356   1.313   4.302  10.320  0.0597  0.2769 -0.0621
  837MPD2    C412357   1.452   4.282  10.346  0.1340 -0.3908  0.2053
  837MPD2    C512358   1.500   4.154  10.334  0.5688 -0.4604 -0.0606
  837MPD2     H12359   1.120   4.205  10.282  0.0016 -1.1355 -0.4070
  837MPD2    H112360   1.520   4.366  10.355 -0.2104 -0.2974  1.8764
  837MPD2    H212361   1.465   3.952  10.278  1.7144  0.9782 -0.0930
  837MPD2    H312362   1.607   4.135  10.346  0.7798  0.3240 -0.6814
  837MPD2     N12363   1.242   4.431  10.309 -0.2293 -0.5838 -0.6550
  837MPD2    H512364   1.145   4.425  10.282 -0.4088  0.2241 -0.1843
  837MPD2    N112365   1.196   3.966  10.239 -0.1365  0.2693 -0.2517
  837MPD2    H712366   1.101   3.994  10.216  0.5290  3.0571  0.4583
  838MPD2     C12367   0.493   2.389  11.979 -0.6927  0.3546 -0.0219
  838MPD2    C112368   0.427   2.278  11.943 -0.3468 -0.0585 -0.1936
  838MPD2    C212369   0.392   2.188  12.046 -0.1713  0.4896  0.7503
  838MPD2    C312370   0.390   2.229  12.180 -0.3598 -0.3595  0.7017
  838MPD2    C412371   0.461   2.342  12.214  0.5309  0.1792 -0.1200
  838MPD2    C512372   0.515   2.418  12.111 -0.1222 -0.8087  0.3507
  838MPD2     H12373   0.355   2.088  12.027 -0.0832  0.1923  2.1165
  838MPD2    H112374   0.468   2.368  12.319  2.9335  0.4634 -0.3337
  838MPD2    H212375   0.525   2.457  11.901 -0.8473 -0.0696 -0.4559
  838MPD2    H312376   0.556   2.517  12.128 -1.6557  0.1025 -1.3428
  838MPD2     N12377   0.320   2.152  12.271  0.3232  0.1137  0.4440
  838MPD2    H512378   0.272   2.075  12.225  0.2178 -0.9360  2.3367
  838MPD2    N112379   0.395   2.241  11.813  0.3706 -0.3073  0.3153
  838MPD2    H712380   0.376   2.142  11.799  1.3009  0.1109 -3.9404
  839MPD2     C12381   4.365   1.819  11.734  0.4260 -0.6584  0.4144
  839MPD2    C112382   4.460   1.738  11.667 -0.0076  0.1928 -0.5132
  839MPD2    C212383   4.592   1.792  11.645 -0.3852 -0.0522  0.5197
  839MPD2    C312384   4.624   1.911  11.689  0.1261 -0.3487  0.0812
  839MPD2    C412385   4.536   1.984  11.767  1.0103  0.0303 -0.5713
  839MPD2    C512386   4.405   1.939  11.784  0.4285  0.2276  0.6426
  839MPD2     H12387   4.668   1.738  11.590 -1.3454  0.7879 -1.6308
  839MPD2    H112388   4.572   2.079  11.805  2.0941 -1.4588  2.1851
  839MPD2    H212389   4.262   1.790  11.752 -0.1695  0.7282 -0.8166
  839MPD2    H312390   4.337   2.002  11.841 -1.9737 -0.7375 -1.1428
  839MPD2     N12391   0.008   1.978  11.661 -0.2691 -0.1375  0.2206
  839MPD2    H512392   0.010   2.074  11.696  0.5112  0.0617 -0.3634
  839MPD2    N112393   4.433   1.604  11.632  0.7296  0.3024  0.1941
  839MPD2    H712394   4.507   1.566  11.575 -0.1766  0.4671 -1.1079
  840MPD2     C12395   4.557   4.727  10.058  0.7385  0.2010  0.2212
  840MPD2    C112396   4.554   4.624  10.152 -0.1009  0.7597 -0.1080
  840MPD2    C212397   4.640   4.625  10.259 -0.3938 -0.3687  0.3274
  840MPD2    C312398   0.005   4.722  10.264 -0.1185  0.7173 -0.0527
  840MPD2    C412399   0.012   0.082  10.167  0.2166 -0.5775  0.1067
  840MPD2    C512400   4.662   0.076  10.066  0.1709  0.5681  0.0238
  840MPD2     H12401   4.634   4.544  10.330  2.1942 -1.0141 -0.1709
  840MPD2    H112402   0.087   0.160  10.166  0.5918 -0.9182  1.4636
  840MPD2    H212403   4.496   0.002   9.970  0.0112 -0.5478  0.6000
  840MPD2    H312404   4.681   0.147   9.987 -0.2167  0.6879  0.0392
  840MPD2     N12405   0.102   4.721  10.363  0.1382 -0.2716  0.7488
  840MPD2    H512406   0.161   0.063  10.372 -1.3841  0.8627  0.3741
  840MPD2    N112407   4.451   4.526  10.130 -0.6106  0.1712 -0.3167
  840MPD2    H712408   4.383   4.550  10.058  1.5561  1.4263 -1.9635
  841MPD2     C12409   4.273   4.281  14.909  0.3489 -0.0139  0.3412
  841MPD2    C112410   4.290   4.148  14.909 -0.0442 -0.1127  0.0187
  841MPD2    C212411   4.412   4.094  14.953  0.4728 -0.9001 -0.0144
  841MPD2    C312412   4.523   4.172  14.972 -0.5726  0.4422 -0.3067
  841MPD2    C412413   4.510   4.308  14.962 -0.0559 -0.4318 -0.2969
  841MPD2    C512414   4.383   4.359  14.945  0.4859 -0.3182  1.1249
  841MPD2     H12415   4.426   3.986  14.950  0.4922 -0.8843 -0.4642
  841MPD2    H112416   4.596   4.371  14.976  0.6100 -1.5090  0.4635
  841MPD2    H212417   4.183   4.328  14.871  0.9945 -0.5480 -1.8186
  841MPD2    H312418   4.385   4.468  14.946 -1.7442 -0.2763 -0.1651
  841MPD2     N12419   4.646   4.110  15.003 -0.1240  0.7204 -0.4588
  841MPD2    H512420   4.628   4.011  15.023  0.1828  0.8531  0.5047
  841MPD2    N112421   4.177   4.059  14.903  0.1776  0.3029  0.0750
  841MPD2    H712422   4.190   3.958  14.909 -0.1429  0.3186  1.0932
  842MPD2     C12423   1.069   0.075  16.952  0.3419  0.1721 -1.0105
  842MPD2    C112424   0.955   4.736  16.962  0.2021  0.7830 -0.7202
  842MPD2    C212425   0.951   4.643  17.066  0.2796 -0.0447  0.3401
  842MPD2    C312426   1.049   4.650  17.171 -0.7579 -0.3003 -0.3627
  842MPD2    C412427   1.152   4.736  17.156 -0.0180 -0.2569  0.4899
  842MPD2    C512428   1.167   0.076  17.042  0.1186 -0.3185  0.0659
  842MPD2     H12429   0.865   4.576  17.059  0.5832 -0.2278 -1.5974
  842MPD2    H112430   1.240   4.737  17.220  0.8583  0.1040 -0.7108
  842MPD2    H212431   1.075   0.138  16.864 -1.7521 -0.2981 -1.5051
  842MPD2    H312432   1.264   0.125  17.033  0.0650 -0.2137  0.0655
  842MPD2     N12433   1.051   4.560  17.285  0.1274  0.1443  0.2360
  842MPD2    H512434   1.135   4.551  17.341  0.8979  0.8599 -0.8182
  842MPD2    N112435   0.860   0.006  16.857  0.0934  0.1713  0.5300
  842MPD2    H712436   0.881   0.078  16.789 -0.2534 -1.6646 -1.5430
  843MPD2     C12437   3.130   1.089  17.260 -0.5889 -0.0013 -0.0823
  843MPD2    C112438   3.158   1.000  17.356  0.1599  0.2073 -0.5118
  843MPD2    C212439   3.276   1.006  17.434  0.0895  0.6025  0.1454
  843MPD2    C312440   3.375   1.097  17.392  0.0541  0.1304 -0.3428
  843MPD2    C412441   3.341   1.186  17.288 -0.0961 -1.0000  0.8160
  843MPD2    C512442   3.226   1.180  17.218 -0.2740  0.6605 -0.2187
  843MPD2     H12443   3.287   0.955  17.529 -2.3115  2.6235  1.4908
  843MPD2    H112444   3.412   1.261  17.254 -1.4144 -0.0378  0.1698
  843MPD2    H212445   3.034   1.103  17.210 -1.0029 -0.8197  0.4793
  843MPD2    H312446   3.212   1.247  17.134 -1.9306 -0.0139 -0.4770
  843MPD2     N12447   3.499   1.122  17.451  0.3039  0.2275 -0.6446
  843MPD2    H512448   3.562   1.195  17.419  0.6939  0.5568  0.8789
  843MPD2    N112449   3.050   0.916  17.389 -0.2453 -0.1700 -0.1882
  843MPD2    H712450   2.964   0.934  17.339 -0.9637 -0.6016  0.8923
  844MPD2     C12451   1.257   3.824  16.841  0.3113  0.7698  1.0356
  844MPD2    C112452   1.217   3.949  16.791 -0.0644  0.3167  0.3124
  844MPD2    C212453   1.310   4.030  16.749  0.6949  0.2661  0.3140
  844MPD2    C312454   1.446   3.999  16.734 -0.1858 -0.3674  0.1529
  844MPD2    C412455   1.484   3.870  16.771 -0.0996 -0.6607  0.4574
  844MPD2    C512456   1.387   3.788  16.823  0.3096  0.5777 -0.3119
  844MPD2     H12457   1.284   4.132  16.720  3.1854  1.3282  1.8828
  844MPD2    H112458   1.585   3.833  16.764  0.3244  0.4443  0.7671
  844MPD2    H212459   1.181   3.760  16.886  0.3946  0.0121  0.1077
  844MPD2    H312460   1.421   3.693  16.863  1.4857  1.1161 -0.0460
  844MPD2     N12461   1.528   4.107  16.692  0.5449  0.3556  0.8361
  844MPD2    H512462   1.487   4.200  16.688  2.5797  1.1863 -0.7214
  844MPD2    N112463   1.082   3.995  16.784 -0.1396  0.3977  0.2933
  844MPD2    H712464   1.062   4.077  16.729  2.6287  0.2715 -0.8738
  845MPD2     C12465   1.655   0.356  16.674  0.2100 -1.0978  0.0539
  845MPD2    C112466   1.736   0.303  16.779  0.3903 -0.8641  0.5309
  845MPD2    C212467   1.751   0.167  16.794  0.0575  0.3551 -0.5164
  845MPD2    C312468   1.697   0.079  16.695 -0.6473 -0.2683  0.5868
  845MPD2    C412469   1.622   0.132  16.594 -0.1283 -0.0132  0.6068
  845MPD2    C512470   1.604   0.272  16.582  0.2848 -1.0375 -0.3174
  845MPD2     H12471   1.821   0.127  16.867 -0.8667  0.1495  0.2574
  845MPD2    H112472   1.586   0.068  16.514  1.5510 -0.3253  0.0992
  845MPD2    H212473   1.655   0.463  16.661 -0.1538 -0.9965  0.8622
  845MPD2    H312474   1.555   0.319  16.497  0.4960 -0.6072 -0.1995
  845MPD2     N12475   1.731   4.681  16.693  0.2190 -0.4311  0.9926
  845MPD2    H512476   1.798   4.660  16.767  1.1062  1.8684  0.8127
  845MPD2    N112477   1.800   0.403  16.857  0.3000  0.1803 -0.7675
  845MPD2    H712478   1.781   0.496  16.821  0.0340 -0.0320 -1.1750
  846MPD2     C12479   2.719   0.836  13.745  0.1643  0.2703 -0.3255
  846MPD2    C112480   2.611   0.915  13.773 -0.8041 -0.1031 -0.1414
  846MPD2    C212481   2.566   0.943  13.898  0.2214  0.0762 -0.1648
  846MPD2    C312482   2.634   0.890  14.006  0.0521 -0.4601 -0.0751
  846MPD2    C412483   2.750   0.817  13.982 -0.9909 -0.3820  0.3051
  846MPD2    C512484   2.792   0.801  13.856  0.4649  0.5596 -0.0146
  846MPD2     H12485   2.476   1.001  13.915  1.4903  1.9761  0.0463
  846MPD2    H112486   2.821   0.780  14.056 -1.4144  0.7858  1.3050
  846MPD2    H212487   2.756   0.811  13.646 -1.5594  0.4243 -1.0018
  846MPD2    H312488   2.886   0.751  13.836 -1.2017 -1.0811 -3.5986
  846MPD2     N12489   2.585   0.911  14.137  0.2629 -0.0292  0.8551
  846MPD2    H512490   2.487   0.934  14.142  0.1761  0.1180 -1.9254
  846MPD2    N112491   2.539   0.978  13.670 -0.0954  0.1774  0.2924
  846MPD2    H712492   2.490   1.064  13.697 -0.2437  1.0247 -2.5988
  847MPD2     C12493   2.933   1.267  14.562 -0.3401 -0.2066 -0.0297
  847MPD2    C112494   3.003   1.336  14.658 -1.1488 -0.4957 -0.4917
  847MPD2    C212495   2.950   1.343  14.781 -0.2453  0.1110  1.0675
  847MPD2    C312496   2.833   1.276  14.813 -0.3328 -0.8893  0.0128
  847MPD2    C412497   2.767   1.205  14.717 -0.2973 -0.4070 -0.3755
  847MPD2    C512498   2.817   1.206  14.594 -0.3613 -0.3850  0.3205
  847MPD2     H12499   2.995   1.409  14.854 -1.9670  1.7215  0.6816
  847MPD2    H112500   2.681   1.145  14.746 -1.1777  1.0144 -0.0260
  847MPD2    H212501   2.972   1.261  14.461  1.2894  0.7541  0.5447
  847MPD2    H312502   2.767   1.147  14.518  1.6002 -2.2458  0.4756
  847MPD2     N12503   2.809   1.260  14.952 -0.0447 -0.6766 -0.8915
  847MPD2    H512504   2.881   1.300  15.010 -0.5017  0.5690 -1.1899
  847MPD2    N112505   3.130   1.395  14.645  0.4578 -0.2931  0.2994
  847MPD2    H712506   3.181   1.433  14.724  0.5850  0.2296 -0.0322
  848MPD2     C12507   0.886   4.611  16.471  0.1539  0.5169  0.5310
  848MPD2    C112508   1.010   4.637  16.532  0.1100  0.0349 -0.1928
  848MPD2    C212509   1.086   0.001  16.479 -0.4295  0.9399  0.0782
  848MPD2    C312510   1.050   0.069  16.368  0.1895 -0.4279  0.2850
  848MPD2    C412511   0.926   0.048  16.315 -0.0878 -0.3246 -0.2386
  848MPD2    C512512   0.850   4.688  16.364 -0.3774 -0.1976  0.0005
  848MPD2     H12513   1.180   0.017  16.530  0.1669 -2.1783 -0.0291
  848MPD2    H112514   0.890   0.107  16.232 -0.5416 -0.4499 -0.1266
  848MPD2    H212515   0.825   4.531  16.513 -1.1320  1.4989  0.5190
  848MPD2    H312516   0.757   4.666  16.314 -0.5320  1.1754 -0.3105
  848MPD2     N12517   1.120   0.183  16.328 -0.1268  0.1190  0.1230
  848MPD2    H512518   1.078   0.231  16.249  1.3173 -0.1541 -0.8108
  848MPD2    N112519   1.060   4.568  16.640  0.0097  0.8915 -1.2068
  848MPD2    H712520   1.149   4.606  16.673 -0.1308 -1.2277  1.6421
  849MPD2     C12521   4.612   4.700  14.659  0.4191  0.2125  0.3484
  849MPD2    C112522   4.726   4.722  14.589 -0.7797 -0.7865  0.2820
  849MPD2    C212523   0.103   4.679  14.642  0.4790  0.0812  0.1960
  849MPD2    C312524   0.095   4.612  14.762 -0.1052 -0.0717 -0.7525
  849MPD2    C412525   4.720   4.599  14.834  0.9081 -0.1506  0.2253
  849MPD2    C512526   4.603   4.646  14.783  0.2971 -0.5893  0.1455
  849MPD2     H12527   0.198   4.698  14.594 -0.3669  2.0787 -0.6963
  849MPD2    H112528   4.723   4.570  14.938  1.1669  0.3726  0.3654
  849MPD2    H212529   4.516   4.725  14.615 -0.3827 -1.5695  1.0627
  849MPD2    H312530   4.518   4.630  14.849 -0.4228  2.1760 -0.0959
  849MPD2     N12531   0.211   4.553  14.819 -0.5094  0.0834  0.0919
  849MPD2    H512532   0.211   4.516  14.914 -2.5684  1.3394  0.5762
  849MPD2    N112533   4.715   0.044  14.462 -0.4717 -0.0804  0.4354
  849MPD2    H712534   4.625   0.046  14.415  0.0197 -0.2947 -0.5046
  850MPD2     C12535   2.959   2.805  14.688 -1.1610 -0.1192 -0.7730
  850MPD2    C112536   2.951   2.811  14.826  0.3378 -0.4947 -0.2734
  850MPD2    C212537   3.043   2.728  14.889 -0.2389 -0.3274 -0.3802
  850MPD2    C312538   3.149   2.665  14.823 -0.0102 -0.1314 -0.3370
  850MPD2    C412539   3.139   2.645  14.686  0.2634  0.6583 -0.1404
  850MPD2    C512540   3.042   2.720  14.622 -0.4615 -0.2087  0.2905
  850MPD2     H12541   3.038   2.718  14.997 -0.9567 -0.7289 -0.4535
  850MPD2    H112542   3.215   2.589  14.633  2.0396  0.3784  2.7240
  850MPD2    H212543   2.888   2.869  14.637 -3.1585 -3.2418 -1.8710
  850MPD2    H312544   3.038   2.715  14.514  0.1583 -2.0798  0.3463
  850MPD2     N12545   3.257   2.601  14.890  0.8240  0.3381 -0.2275
  850MPD2    H512546   3.319   2.538  14.841  0.9528 -0.3003  0.7554
  850MPD2    N112547   2.863   2.899  14.896  0.3471 -0.0712  0.2414
  850MPD2    H712548   2.816   2.956  14.826  2.0691  0.2534 -0.6541
  851MPD2     C12549   3.374   2.686  15.577  0.1947  0.1720 -1.0831
  851MPD2    C112550   3.262   2.637  15.502 -0.0293  0.2132 -0.2392
  851MPD2    C212551   3.262   2.501  15.476  0.4370  0.5936  0.6727
  851MPD2    C312552   3.366   2.421  15.517 -0.2323 -0.8311  0.0143
  851MPD2    C412553   3.475   2.469  15.589  0.2929 -0.8875 -0.3589
  851MPD2    C512554   3.471   2.602  15.625 -0.7990 -0.5676  0.3761
  851MPD2     H12555   3.182   2.464  15.413  1.9937 -0.2314 -0.8072
  851MPD2    H112556   3.548   2.397  15.625 -0.9176 -2.0259 -0.1746
  851MPD2    H212557   3.376   2.793  15.595  2.6263  0.1179 -1.1059
  851MPD2    H312558   3.552   2.632  15.690  0.3309 -0.4092 -1.0914
  851MPD2     N12559   3.366   2.288  15.475 -0.8111 -0.0159 -0.0822
  851MPD2    H512560   3.282   2.255  15.429  0.0942  0.4395 -2.0224
  851MPD2    N112561   3.170   2.733  15.458  0.2937  0.1575  0.2499
  851MPD2    H712562   3.185   2.831  15.481 -1.9868  0.7057 -0.6536
  852MPD2     C12563   2.297   0.543  10.461  0.0582  0.1107 -0.4342
  852MPD2    C112564   2.303   0.658  10.538 -0.1652 -0.7477 -0.1509
  852MPD2    C212565   2.390   0.761  10.493 -0.2579  0.6054  0.1426
  852MPD2    C312566   2.463   0.761  10.381 -0.5721 -0.7082  0.1488
  852MPD2    C412567   2.447   0.647  10.300  0.4782  0.1052  0.1072
  852MPD2    C512568   2.366   0.541  10.342  0.5873 -0.2705 -0.1113
  852MPD2     H12569   2.408   0.844  10.560 -1.4439  1.8601 -1.0878
  852MPD2    H112570   2.501   0.630  10.208 -1.5309 -2.5957 -0.5770
  852MPD2    H212571   2.239   0.456  10.492  0.4500 -0.6272 -1.8209
  852MPD2    H312572   2.369   0.458  10.273  0.6428 -1.2971  1.1312
  852MPD2     N12573   2.544   0.872  10.349 -0.1505  0.0241 -0.3421
  852MPD2    H512574   2.529   0.961  10.396 -0.4799  0.0580 -0.5129
  852MPD2    N112575   2.245   0.667  10.667  0.4637  0.1914 -0.3950
  852MPD2    H712576   2.255   0.758  10.712  4.0887 -1.6029  2.3554
  853MPD2     C12577   4.707   0.410  12.473 -0.5768  0.4598 -0.1974
  853MPD2    C112578   4.568   0.435  12.461  0.2174  0.4012 -0.2054
  853MPD2    C212579   4.498   0.406  12.346 -0.6394 -0.2308  0.0012
  853MPD2    C312580   4.569   0.377  12.229  0.3704 -0.1989 -0.2349
  853MPD2    C412581   4.702   0.363  12.238 -0.4190 -0.1731  0.0347
  853MPD2    C512582   0.029   0.372  12.355 -0.2939 -0.1104  1.0933
  853MPD2     H12583   4.391   0.410  12.359 -0.5960  1.0578 -0.0498
  853MPD2    H112584   0.027   0.338  12.155 -2.4017 -1.8142 -1.0031
  853MPD2    H212585   0.026   0.422  12.564 -1.8569 -0.7527  0.7882
  853MPD2    H312586   0.136   0.357  12.360 -0.0321  1.2630 -0.2256
  853MPD2     N12587   4.510   0.369  12.099 -0.1379 -0.4481  0.8644
  853MPD2    H512588   4.577   0.340  12.029 -0.5119  0.7731  0.0046
  853MPD2    N112589   4.502   0.478  12.572 -0.0977 -0.9413  0.1016
  853MPD2    H712590   4.537   0.464  12.667  0.4455 -1.3275 -0.1527
  854MPD2     C12591   1.334   0.205  12.499 -0.9935 -0.3715 -0.1184
  854MPD2    C112592   1.399   0.301  12.561  0.1238 -0.5447 -0.1624
  854MPD2    C212593   1.537   0.278  12.582 -0.0424  0.4822 -0.0655
  854MPD2    C312594   1.602   0.161  12.537  0.0112  0.4282 -0.0892
  854MPD2    C412595   1.526   0.065  12.479  0.0517 -0.2082  0.6059
  854MPD2    C512596   1.390   0.086  12.465 -0.2844 -0.4251 -0.0124
  854MPD2     H12597   1.603   0.356  12.618  0.9432  0.3643 -1.5825
  854MPD2    H112598   1.568   4.716  12.432 -0.4196  0.1053 -0.4274
  854MPD2    H212599   1.229   0.224  12.482 -1.1207 -0.7741  0.2196
  854MPD2    H312600   1.318   0.013  12.430 -0.1434 -0.1460 -0.9028
  854MPD2     N12601   1.743   0.142  12.541  0.4255 -0.7329 -0.1702
  854MPD2    H512602   1.779   0.086  12.464  0.7457 -0.0817 -0.4922
  854MPD2    N112603   1.340   0.423  12.599 -0.2082  0.1336 -0.0766
  854MPD2    H712604   1.245   0.431  12.567 -0.1826  2.6892  0.5104
  855MPD2     C12605   2.602   0.052  13.231  0.3571 -0.0957 -0.0906
  855MPD2    C112606   2.466   0.046  13.246 -0.1314 -0.2597 -0.1488
  855MPD2    C212607   2.382   0.057  13.137  0.1654 -0.3461 -0.1471
  855MPD2    C312608   2.431   0.066  13.006  0.7406  1.1021 -0.0387
  855MPD2    C412609   2.565   0.068  12.992  0.3363 -1.0389  0.3874
  855MPD2    C512610   2.653   0.075  13.102 -0.0957  0.3440 -0.2257
  855MPD2     H12611   2.277   0.049  13.164  0.1853  3.1919  1.0182
  855MPD2    H112612   2.615   0.086  12.897 -1.3737 -0.4671 -0.3996
  855MPD2    H212613   2.667   0.065  13.317  2.1758 -0.6297 -1.4111
  855MPD2    H312614   2.760   0.079  13.088 -0.1622  1.6448 -0.3273
  855MPD2     N12615   2.358   0.067  12.886  0.4318  0.2889 -0.5110
  855MPD2    H512616   2.410   0.082  12.800  1.4555 -1.7304 -0.2748
  855MPD2    N112617   2.412   0.044  13.373 -0.3281 -0.8704  0.2433
  855MPD2    H712618   2.311   0.046  13.381 -0.4016 -0.4861 -0.7421
  856MPD2     C12619   4.221   0.897  13.988 -0.8087 -0.8976 -0.4163
  856MPD2    C112620   4.187   0.975  14.089 -0.3573 -0.2175  0.2793
  856MPD2    C212621   4.055   0.994  14.108  0.1643 -0.0239  0.5413
  856MPD2    C312622   3.954   0.948  14.028 -0.3420  0.5982 -0.3960
  856MPD2    C412623   3.989   0.861  13.927 -0.9170  0.4429 -0.1133
  856MPD2    C512624   4.124   0.834  13.917  0.2900  0.6484  0.2179
  856MPD2     H12625   4.026   1.054  14.194 -2.5767 -1.1845  0.4462
  856MPD2    H112626   3.915   0.815  13.862 -1.5456  0.0405  0.8863
  856MPD2    H212627   4.322   0.860  13.975  0.0818  1.6661 -0.8135
  856MPD2    H312628   4.152   0.762  13.841  1.1886  0.5602  0.6322
  856MPD2     N12629   3.818   0.996  14.034 -0.1118 -0.4863  0.5695
  856MPD2    H512630   3.762   0.951  13.963 -0.0019 -0.5475  0.5227
  856MPD2    N112631   4.274   1.035  14.181  0.0338 -0.8981  0.4450
  856MPD2    H712632   4.233   1.098  14.248  1.0636 -0.0873  0.3117
  857MPD2     C12633   0.489   3.573  12.881 -0.2307 -0.3157 -0.1479
  857MPD2    C112634   0.613   3.578  12.945  0.1648  0.3155 -0.4313
  857MPD2    C212635   0.654   3.703  12.982  0.3889  0.5894 -0.6229
  857MPD2    C312636   0.574   3.816  12.966  0.1891 -0.0921 -0.1939
  857MPD2    C412637   0.457   3.807  12.900 -0.1828 -0.6784  0.3830
  857MPD2    C512638   0.411   3.682  12.864  0.3255  0.1693 -0.3367
  857MPD2     H12639   0.752   3.709  13.028  0.2624 -0.0094 -0.2754
  857MPD2    H112640   0.394   3.891  12.872 -0.3479 -1.4905 -1.7246
  857MPD2    H212641   0.452   3.477  12.846  0.7867  0.1644 -2.5502
  857MPD2    H312642   0.317   3.675  12.810  0.3790  1.0308 -0.5331
  857MPD2     N12643   0.632   3.939  13.003 -0.2089  0.7076  0.0720
  857MPD2    H512644   0.726   3.945  13.041  0.0891  1.9690 -0.8481
  857MPD2    N112645   0.702   3.471  12.953  0.1456 -0.4579  0.2198
  857MPD2    H712646   0.658   3.381  12.933 -0.5220 -0.2069  0.5826
  858MPD2     C12647   1.680   2.412  16.953  0.4004  0.0340 -0.8467
  858MPD2    C112648   1.778   2.316  16.974 -0.1263 -0.1098  0.5262
  858MPD2    C212649   1.884   2.347  17.057  0.5879  0.1919  0.3291
  858MPD2    C312650   1.885   2.454  17.138  0.7479 -0.5092 -0.0903
  858MPD2    C412651   1.788   2.550  17.117  0.4801 -0.5703 -0.0312
  858MPD2    C512652   1.693   2.532  17.022 -0.3126  0.4076  0.2204
  858MPD2     H12653   1.962   2.273  17.071  0.2991 -0.0547  0.6321
  858MPD2    H112654   1.790   2.641  17.176 -1.1146 -1.5614  1.5474
  858MPD2    H212655   1.596   2.394  16.887 -1.0376 -1.1275  1.2847
  858MPD2    H312656   1.618   2.608  17.008 -1.5197 -0.3045  2.7931
  858MPD2     N12657   1.971   2.476  17.251 -0.4617 -0.1818  0.6773
  858MPD2    H512658   1.950   2.560  17.305 -2.0530  0.0112 -0.2380
  858MPD2    N112659   1.780   2.190  16.899  0.3224  0.0245 -0.5492
  858MPD2    H712660   1.872   2.149  16.911 -0.5062 -1.0961  2.1237
  859MPD2     C12661   0.056   0.015  16.098 -0.4327  0.0155 -0.3062
  859MPD2    C112662   0.104   4.669  16.004  0.2199 -0.6188  0.0987
  859MPD2    C212663   0.089   4.535  16.029  0.2712  0.5133 -1.0071
  859MPD2    C312664   0.013   4.492  16.133 -0.3691  0.6275 -0.2621
  859MPD2    C412665   4.698   4.582  16.226 -0.3451 -0.3615  0.4287
  859MPD2    C512666   4.714   4.712  16.205 -0.1428 -0.2975  0.3799
  859MPD2     H12667   0.140   4.467  15.961 -0.2366  0.9538 -1.8397
  859MPD2    H112668   4.636   4.551  16.309 -1.5987 -0.5535 -0.5691
  859MPD2    H212669   0.064   0.121  16.079  0.5901  0.2952  1.7601
  859MPD2    H312670   4.663   0.049  16.261  0.0833  0.7644 -0.8550
  859MPD2     N12671   4.720   4.353  16.159  0.3092 -0.2034  0.0142
  859MPD2    H512672   4.676   4.332  16.248 -1.2442  0.7898 -0.5100
  859MPD2    N112673   0.179   4.725  15.902  0.5147 -0.1467  0.0184
  859MPD2    H712674   0.181   0.086  15.897 -0.2030  0.0102  3.0381
  860MPD2     C12675   2.453   1.001  11.603 -0.1476  0.0035  0.1830
  860MPD2    C112676   2.497   0.879  11.650 -0.0871 -0.1125 -0.4494
  860MPD2    C212677   2.418   0.770  11.644  0.0349 -0.8420 -0.1018
  860MPD2    C312678   2.293   0.770  11.575  0.1479  0.2713 -0.7161
  860MPD2    C412679   2.245   0.887  11.535 -0.2326  0.0940 -0.0761
  860MPD2    C512680   2.329   1.002  11.553  0.0259 -0.6101  0.3636
  860MPD2     H12681   2.451   0.675  11.686  0.5872  0.2650  1.9997
  860MPD2    H112682   2.143   0.904  11.501  0.4680  2.6949 -0.9000
  860MPD2    H212683   2.505   1.094  11.621  2.1389 -1.5161  1.4965
  860MPD2    H312684   2.289   1.101  11.537 -2.2039 -1.8631 -1.8100
  860MPD2     N12685   2.233   0.639  11.564 -0.7097 -0.1244 -0.0998
  860MPD2    H512686   2.284   0.556  11.592 -0.5933 -0.6623 -1.8904
  860MPD2    N112687   2.622   0.853  11.714  0.6587 -0.6291  0.0808
  860MPD2    H712688   2.636   0.762  11.758  1.4066 -0.0005  1.1497
  861MPD2     C12689   0.773   3.221  11.183  0.3413  0.2276 -0.0303
  861MPD2    C112690   0.869   3.298  11.124 -0.5189  0.0222 -0.0410
  861MPD2    C212691   0.844   3.358  11.005 -0.8425 -0.4276  0.2001
  861MPD2    C312692   0.715   3.348  10.947 -0.3025  0.7130 -0.1878
  861MPD2    C412693   0.624   3.262  10.999 -0.6054 -0.0537 -0.2075
  861MPD2    C512694   0.657   3.189  11.111 -0.5294  0.2055 -0.2435
  861MPD2     H12695   0.921   3.418  10.958  0.8449 -1.9217  1.0468
  861MPD2    H112696   0.527   3.243  10.954  0.1861 -1.7524 -1.2498
  861MPD2    H212697   0.791   3.183  11.284 -1.6931 -0.1090  0.2078
  861MPD2    H312698   0.575   3.131  11.152 -0.0718 -1.6497 -1.9544
  861MPD2     N12699   0.669   3.409  10.829 -0.0342  0.1459 -0.0980
  861MPD2    H512700   0.572   3.392  10.804 -0.1004 -0.3999  0.5243
  861MPD2    N112701   0.986   3.340  11.192  0.3124 -0.7090 -0.2476
  861MPD2    H712702   1.040   3.411  11.143  1.5490 -1.2640  0.3285
  862MPD2     C12703   0.055   3.383  10.435  0.4133 -0.0618 -0.4111
  862MPD2    C112704   0.161   3.328  10.502  0.1918  0.1619 -0.1071
  862MPD2    C212705   0.140   3.192  10.532 -0.0082  0.0986 -0.4197
  862MPD2    C312706   0.028   3.117  10.502 -0.0862 -0.6063 -0.2538
  862MPD2    C412707   4.664   3.183  10.454 -0.1051  0.3978  0.0850
  862MPD2    C512708   4.676   3.315  10.425 -0.1469 -0.3896  0.0655
  862MPD2     H12709   0.219   3.142  10.586  0.1192  2.1299  1.3168
  862MPD2    H112710   4.568   3.144  10.424 -0.2158  0.6506  0.1040
  862MPD2    H212711   0.054   3.485  10.399 -0.6909 -0.2914 -1.0393
  862MPD2    H312712   4.588   3.358  10.379 -0.9037 -0.7114  1.2063
  862MPD2     N12713   0.014   2.976  10.516 -1.2710 -0.1496 -0.2046
  862MPD2    H512714   4.667   2.936  10.482 -1.7756 -0.3174  1.3238
  862MPD2    N112715   0.284   3.389  10.535  0.3222  0.4798  0.0997
  862MPD2    H712716   0.354   3.336  10.586  1.0200  0.2750 -1.0632
  863MPD2     C12717   0.161   1.277  16.540  0.1475  0.4424 -0.2635
  863MPD2    C112718   0.123   1.307  16.669 -0.1646 -0.1585 -0.3596
  863MPD2    C212719   0.215   1.279  16.765  0.6936 -1.1071 -0.2584
  863MPD2    C312720   0.338   1.216  16.742  0.6813  0.0503  0.1056
  863MPD2    C412721   0.368   1.176  16.613  0.4026 -0.2494 -0.6541
  863MPD2    C512722   0.285   1.224  16.516  0.6219 -0.0193 -0.3972
  863MPD2     H12723   0.195   1.311  16.867 -1.1343  0.0459 -0.9745
  863MPD2    H112724   0.463   1.135  16.581  0.7003 -0.6515  0.7416
  863MPD2    H212725   0.101   1.318  16.459 -2.2019 -0.4165  1.0394
  863MPD2    H312726   0.314   1.195  16.416 -0.7282  2.4439 -1.4760
  863MPD2     N12727   0.430   1.194  16.850  0.3325 -0.0670  0.8809
  863MPD2    H512728   0.403   1.226  16.942  0.4453 -0.3522  1.0138
  863MPD2    N112729   4.740   1.362  16.684  0.3670  0.2034  0.2912
  863MPD2    H712730   4.692   1.375  16.595 -0.7282  2.2005  1.1598
  864MPD2     C12731   0.539   2.837  17.694 -0.4671  0.9427 -0.9413
  864MPD2    C112732   0.574   2.799  17.572  0.0401  0.3484 -0.2253
  864MPD2    C212733   0.667   2.875  17.504  0.1757  0.0420 -0.1739
  864MPD2    C312734   0.743   2.973  17.565 -0.0325 -0.8156  0.3491
  864MPD2    C412735   0.710   3.005  17.697 -0.7597  0.6228  0.1421
  864MPD2    C512736   0.603   2.943  17.750  0.9040 -0.3136  0.2425
  864MPD2     H12737   0.688   2.855  17.399  0.8827 -0.0160 -0.0173
  864MPD2    H112738   0.759   3.084  17.752 -0.9543  0.5792  0.3746
  864MPD2    H212739   0.462   2.790  17.753  0.0132 -0.6168 -1.5475
  864MPD2    H312740   0.567   2.974   0.090  0.1426  1.9170 -0.7551
  864MPD2     N12741   0.840   3.038  17.490  0.1467 -0.2217 -0.1107
  864MPD2    H512742   0.914   3.090  17.537  0.8350 -2.4256  1.2845
  864MPD2    N112743   0.499   2.704  17.504  0.2796  0.3239  0.2480
  864MPD2    H712744   0.419   2.660  17.549  0.6251  0.6522  1.1810
  865MPD2     C12745   0.709   2.974  16.520  0.0636  0.2537  0.6346
  865MPD2    C112746   0.801   2.887  16.578 -0.1969 -0.0814 -0.0372
  865MPD2    C212747   0.875   2.929  16.689 -0.2492  0.0629  0.0672
  865MPD2    C312748   0.834   3.037  16.760 -0.3721  0.0459  0.0637
  865MPD2    C412749   0.730   3.109  16.709  0.0573  0.0453  0.3363
  865MPD2    C512750   0.668   3.077  16.588 -0.1407  0.3668 -0.4669
  865MPD2     H12751   0.951   2.860  16.725 -0.4301 -0.6497 -0.9141
  865MPD2    H112752   0.705   3.205  16.752  1.6624  0.7478 -0.3163
  865MPD2    H212753   0.660   2.954  16.425 -1.0642  0.1946  1.2215
  865MPD2    H312754   0.586   3.132  16.544 -1.0460  0.6950  1.6051
  865MPD2     N12755   0.894   3.086  16.875  0.2219  0.1344  0.2042
  865MPD2    H512756   0.849   3.171  16.909 -1.6564 -0.6202 -0.3844
  865MPD2    N112757   0.851   2.761  16.527  0.3617 -0.1361 -0.3697
  865MPD2    H712758   0.919   2.705  16.576  0.6168 -0.2365 -0.8356
  866MPD2     C12759   1.667   3.577  11.121 -0.1677  0.0316  0.4841
  866MPD2    C112760   1.562   3.491  11.103  0.1006  0.0570  0.9725
  866MPD2    C212761   1.439   3.548  11.078  0.5848  1.2498 -0.2592
  866MPD2    C312762   1.417   3.683  11.060 -0.0041  0.4156 -0.1297
  866MPD2    C412763   1.531   3.768  11.078  0.0757 -0.3396 -0.5671
  866MPD2    C512764   1.657   3.708  11.103 -0.3617  0.9953 -0.3754
  866MPD2     H12765   1.354   3.482  11.069  0.7035  0.7254  2.4610
  866MPD2    H112766   1.532   3.876  11.071  0.6880 -0.3319 -0.3410
  866MPD2    H212767   1.769   3.539  11.125 -0.1326 -0.1083 -1.8787
  866MPD2    H312768   1.751   3.761  11.097  1.1841 -1.9188 -2.0248
  866MPD2     N12769   1.293   3.738  11.031 -0.2870 -0.4943  0.2428
  866MPD2    H512770   1.289   3.836  11.005  0.7703 -0.6128 -0.3195
  866MPD2    N112771   1.576   3.359  11.131 -0.0405  0.5069 -0.8712
  866MPD2    H712772   1.668   3.325  11.159  0.4352  1.1650 -1.6373
  867MPD2     C12773   3.876   2.432  17.027 -0.8227  0.3345  0.3236
  867MPD2    C112774   3.999   2.464  17.084 -0.1360 -0.1171 -0.5078
  867MPD2    C212775   3.996   2.552  17.196 -0.0579  0.4788  0.1714
  867MPD2    C312776   3.877   2.596  17.251  0.2099 -0.4971  0.3085
  867MPD2    C412777   3.763   2.570  17.184 -0.2400 -0.8109  0.1827
  867MPD2    C512778   3.760   2.496  17.070  0.0827 -0.6225 -0.0752
  867MPD2     H12779   4.085   2.600  17.236  1.7860 -3.6159  1.0055
  867MPD2    H112780   3.674   2.620  17.221  2.8722  3.3235  1.9887
  867MPD2    H212781   3.868   2.371  16.938  0.3718 -1.6959  1.6121
  867MPD2    H312782   3.659   2.472  17.036  0.2077  0.6952 -1.3534
  867MPD2     N12783   3.884   2.689  17.356  0.0694 -0.1509  0.5839
  867MPD2    H512784   3.973   2.700  17.404 -0.2290  1.8775  0.6956
  867MPD2    N112785   4.116   2.408  17.017  0.5682 -0.1632  0.3679
  867MPD2    H712786   4.095   2.349  16.937  0.8517  1.8134 -1.1669
  868MPD2     C12787   0.675   2.208  13.359  0.0744  0.4312  0.4322
  868MPD2    C112788   0.759   2.151  13.453  0.0613  0.2137 -0.7232
  868MPD2    C212789   0.739   2.166  13.589  0.0605  0.1741 -0.3118
  868MPD2    C312790   0.643   2.263  13.624 -0.4810 -0.3287  0.1984
  868MPD2    C412791   0.569   2.339  13.533  0.2669 -0.1607  1.1862
  868MPD2    C512792   0.580   2.307  13.392  0.0721  0.0324  0.4776
  868MPD2     H12793   0.795   2.109  13.662 -0.4490 -2.4070 -1.9208
  868MPD2    H112794   0.505   2.419  13.565  3.4216  1.5026  3.2645
  868MPD2    H212795   0.685   2.184  13.254 -1.6895  0.7675  0.1837
  868MPD2    H312796   0.508   2.357  13.329  1.7596  0.8372 -0.7817
  868MPD2     N12797   0.610   2.289  13.761  0.1646  0.0231 -0.0541
  868MPD2    H512798   0.670   2.253  13.835 -0.6513  1.3095  1.2365
  868MPD2    N112799   0.855   2.056  13.414 -0.2776 -0.2571  0.0392
  868MPD2    H712800   0.831   2.011  13.326  3.7549 -0.5089 -0.9317
  869MPD2     C12801   2.015   4.493   0.933 -0.2190  0.5294  0.1016
  869MPD2    C112802   2.101   4.476   0.830 -0.0359  0.1771  0.5499
  869MPD2    C212803   2.174   4.585   0.791 -0.6121  0.0652 -0.0389
  869MPD2    C312804   2.144   4.716   0.844 -0.5894  0.8188  0.1749
  869MPD2    C412805   2.053   4.722   0.946  0.3326  0.1017 -0.3080
  869MPD2    C512806   1.985   4.612   0.992 -0.2536  0.3607 -0.2515
  869MPD2     H12807   2.247   4.589   0.712  1.9581  0.9091  2.3871
  869MPD2    H112808   2.038   0.075   0.999 -3.3706 -0.9542  0.4282
  869MPD2    H212809   1.947   4.413   0.960  2.1492 -1.8042 -0.7094
  869MPD2    H312810   1.916   4.617   1.075  1.2660 -0.1141  1.0541
  869MPD2     N12811   2.218   0.092   0.809 -0.3491 -0.1648 -0.2076
  869MPD2    H512812   2.185   0.179   0.850 -2.2062 -0.9389 -0.0804
  869MPD2    N112813   2.108   4.351   0.762  0.1251  0.8741  0.0794
  869MPD2    H712814   2.058   4.267   0.790 -0.0762  0.9312 -0.1098
  870MPD2     C12815   2.324   2.946   1.115  0.6771  0.2422  0.0144
  870MPD2    C112816   2.285   3.010   1.232 -0.7838 -0.1491 -0.0458
  870MPD2    C212817   2.166   3.084   1.226 -0.1873 -0.0735  0.2338
  870MPD2    C312818   2.085   3.076   1.118  0.5155  0.6687 -0.1928
  870MPD2    C412819   2.130   3.026   1.008  0.0173 -0.0832 -0.0476
  870MPD2    C512820   2.249   2.956   1.005  0.2095 -0.6340 -0.2319
  870MPD2     H12821   2.130   3.123   1.320 -1.6417  0.9275 -0.7577
  870MPD2    H112822   2.070   3.013   0.918 -0.3231 -0.3965  0.2232
  870MPD2    H212823   2.417   2.892   1.106  0.3403  0.3377 -4.0862
  870MPD2    H312824   2.279   2.897   0.918 -1.8696 -2.0352 -0.0010
  870MPD2     N12825   1.954   3.121   1.121  0.5093  0.1057  0.2295
  870MPD2    H512826   1.900   3.105   1.037  0.8220  0.5338 -0.0540
  870MPD2    N112827   2.375   3.000   1.343 -0.2404 -0.1185  0.2425
  870MPD2    H712828   2.463   2.954   1.323 -0.0894  0.6537 -0.8305
  871MPD2     C12829   2.976   2.786  16.314 -0.2142 -0.2094  0.3849
  871MPD2    C112830   2.966   2.772  16.454 -0.1681  0.2074  0.9722
  871MPD2    C212831   2.983   2.650  16.511 -0.4353 -0.2758 -0.7100
  871MPD2    C312832   3.017   2.543  16.431  0.5655 -0.2931 -0.3854
  871MPD2    C412833   3.042   2.562  16.292 -0.2676  0.0938  0.7602
  871MPD2    C512834   3.018   2.684  16.232  0.0249 -0.8710 -0.8470
  871MPD2     H12835   2.984   2.637  16.619 -0.9039 -0.5254 -0.7330
  871MPD2    H112836   3.073   2.480  16.228 -0.7051  0.1083  0.5300
  871MPD2    H212837   2.960   2.881  16.265 -1.2351 -2.5454 -3.8585
  871MPD2    H312838   3.032   2.698  16.125  0.3131 -0.2620 -0.7337
  871MPD2     N12839   3.056   2.423  16.493 -0.0626 -0.0058  0.8185
  871MPD2    H512840   3.052   2.420  16.595 -0.4125 -0.5684  0.7931
  871MPD2    N112841   2.927   2.882  16.535  0.2564 -0.5233  0.2338
  871MPD2    H712842   2.916   2.967  16.481 -1.8245 -0.4952  0.6865
  872MPD2     C12843   3.809   0.181  14.045 -0.3490  0.5402  0.7024
  872MPD2    C112844   3.836   0.320  14.079 -0.0191  0.0768 -0.3639
  872MPD2    C212845   3.736   0.396  14.138 -0.2503 -0.5373  0.6434
  872MPD2    C312846   3.610   0.343  14.152 -0.5273 -0.6686  0.0050
  872MPD2    C412847   3.577   0.216  14.103 -0.3926 -0.2321  0.2362
  872MPD2    C512848   3.676   0.137  14.066 -0.4202  0.0191  0.0977
  872MPD2     H12849   3.765   0.494  14.175 -0.1398 -1.2759  2.5189
  872MPD2    H112850   3.480   0.171  14.115 -0.5454 -0.1284 -0.5745
  872MPD2    H212851   3.881   0.118  13.993  0.0813  0.0694  1.8731
  872MPD2    H312852   3.654   0.034  14.039  1.5811 -0.4276  0.1263
  872MPD2     N12853   3.517   0.424  14.221 -0.0269 -0.2756 -0.8528
  872MPD2    H512854   3.554   0.498  14.280  0.8187 -3.6826  2.9137
  872MPD2    N112855   3.962   0.378  14.071 -0.2449  0.2621 -0.1758
  872MPD2    H712856   3.968   0.479  14.061 -2.9544  0.4466 -0.0367
  873MPD2     C12857   1.226   0.030   0.845 -0.1813 -0.1039  0.0275
  873MPD2    C112858   1.097   0.013   0.903 -0.7909  0.2688 -0.3337
  873MPD2    C212859   1.028   4.637   0.883 -0.3410  1.0379  0.0443
  873MPD2    C312860   1.082   4.534   0.812  0.3331  0.1723 -0.0677
  873MPD2    C412861   1.211   4.539   0.771 -0.2600 -0.8056  0.6584
  873MPD2    C512862   1.274   4.659   0.774 -0.0405 -0.3641  0.2409
  873MPD2     H12863   0.929   4.634   0.928 -1.7715 -1.1242 -3.2071
  873MPD2    H112864   1.252   4.465   0.703  1.6699  0.3462  0.5619
  873MPD2    H212865   1.281   0.123   0.848 -0.6507  0.2090 -1.1669
  873MPD2    H312866   1.371   4.663   0.726 -1.1167  0.5094 -1.8190
  873MPD2     N12867   1.007   4.412   0.790 -0.2908 -0.8659  0.1940
  873MPD2    H512868   1.052   4.341   0.733 -0.3745 -3.0966  2.9091
  873MPD2    N112869   1.046   0.119   0.972 -0.8138  0.5857 -0.5973
  873MPD2    H712870   1.108   0.197   0.990  0.4413 -0.2337 -1.3968
  874MPD2     C12871   0.519   0.476  16.238  0.3957 -0.0766  0.3025
  874MPD2    C112872   0.616   0.391  16.286  0.0503 -1.1417  0.1914
  874MPD2    C212873   0.746   0.408  16.251 -0.5276  0.0148 -0.0044
  874MPD2    C312874   0.782   0.510  16.166 -0.3367  0.0346 -0.2912
  874MPD2    C412875   0.689   0.592  16.112  0.8845 -0.7836  0.2915
  874MPD2    C512876   0.555   0.579  16.145  0.1765 -0.6956 -0.5481
  874MPD2     H12877   0.828   0.344  16.282 -1.2263 -0.9859 -0.2330
  874MPD2    H112878   0.727   0.673  16.050 -3.9815  0.2723 -1.3481
  874MPD2    H212879   0.414   0.474  16.268  0.0619 -1.1663 -0.9510
  874MPD2    H312880   0.490   0.658  16.108 -1.9591 -2.0961  0.2645
  874MPD2     N12881   0.917   0.537  16.131  0.2086  0.4068  0.3103
  874MPD2    H512882   0.945   0.628  16.095  0.4826  0.7141  1.3041
  874MPD2    N112883   0.579   0.297  16.381 -0.5472 -0.1484  0.0466
  874MPD2    H712884   0.481   0.282  16.400 -0.1038 -1.8690  0.9875
  875MPD2     C12885   1.422   3.415  14.698 -0.0807 -0.1550  0.1747
  875MPD2    C112886   1.370   3.543  14.676 -0.3907 -0.1634  0.3495
  875MPD2    C212887   1.368   3.626  14.788  0.2089 -0.2010 -0.5754
  875MPD2    C312888   1.423   3.589  14.911 -0.0304  0.3259  0.2723
  875MPD2    C412889   1.477   3.466  14.923 -0.2101 -0.2805  0.3276
  875MPD2    C512890   1.475   3.385  14.817  0.0386 -0.2391  0.3547
  875MPD2     H12891   1.304   3.712  14.773 -0.7953 -0.6513  1.1926
  875MPD2    H112892   1.544   3.448  15.006  0.7561  0.8177 -0.2249
  875MPD2    H212893   1.418   3.332  14.628  0.7905  0.5491 -0.7151
  875MPD2    H312894   1.510   3.283  14.823  0.0868 -0.2865 -0.8162
  875MPD2     N12895   1.426   3.669  15.028  0.4616  0.4868  0.8153
  875MPD2    H512896   1.500   3.647  15.095  0.5220 -2.4170 -0.2282
  875MPD2    N112897   1.305   3.580  14.551 -0.3172  0.1128 -0.4743
  875MPD2    H712898   1.251   3.665  14.551  1.4683  1.2450 -0.2322
  876MPD2     C12899   0.349   4.588  16.286  0.6097 -0.1550 -0.1830
  876MPD2    C112900   0.438   4.555  16.188 -0.2569  0.1674  0.2371
  876MPD2    C212901   0.451   4.428  16.134  0.1995  0.1007  0.0834
  876MPD2    C312902   0.370   4.331  16.184  0.1761 -0.3534  0.0334
  876MPD2    C412903   0.280   4.353  16.286 -0.1506 -0.7871  0.2750
  876MPD2    C512904   0.275   4.482  16.333 -0.2805  0.3391  0.3044
  876MPD2     H12905   0.525   4.411  16.056  0.7400  0.5354  0.4997
  876MPD2    H112906   0.215   4.279  16.331  0.1305 -1.2484 -0.0767
  876MPD2    H212907   0.330   4.686  16.328  1.7803  0.7364 -1.7181
  876MPD2    H312908   0.208   4.498  16.417  0.5485  2.0229  0.6489
  876MPD2     N12909   0.398   4.198  16.132 -0.0440  0.1059  0.2226
  876MPD2    H512910   0.472   4.191  16.063 -0.1425  1.9423 -0.0487
  876MPD2    N112911   0.515   4.654  16.131 -0.7106 -0.4562 -0.5900
  876MPD2    H712912   0.584   4.623  16.062  2.1153  0.0723  2.0235
  877MPD2     C12913   0.478   0.487  15.568 -0.2358 -0.2986 -0.2845
  877MPD2    C112914   0.612   0.461  15.588  0.2296 -0.0431  0.6273
  877MPD2    C212915   0.708   0.506  15.502 -0.4884 -1.0477  0.2354
  877MPD2    C312916   0.664   0.545  15.373  0.7894 -0.4145  0.7486
  877MPD2    C412917   0.534   0.556  15.352 -0.2000 -0.2067 -0.1725
  877MPD2    C512918   0.442   0.538  15.452  0.7435  0.2136  0.2325
  877MPD2     H12919   0.814   0.496  15.524 -0.7186  0.1221  1.8526
  877MPD2    H112920   0.499   0.579  15.252 -0.9632  1.0801  0.3914
  877MPD2    H212921   0.401   0.479  15.643 -0.4464 -5.9374 -1.0404
  877MPD2    H312922   0.335   0.553  15.440  0.1753 -1.9099  2.3653
  877MPD2     N12923   0.748   0.548  15.248 -0.2716 -0.4386 -0.6740
  877MPD2    H512924   0.702   0.537  15.158 -1.3857 -0.0395 -0.1498
  877MPD2    N112925   0.651   0.408  15.712 -0.1666 -0.1374 -0.6854
  877MPD2    H712926   0.749   0.400  15.734 -0.3344  1.2401  0.4896
  878MPD2     C12927   4.487   0.250  13.548 -0.3346  0.2735  0.2822
  878MPD2    C112928   4.622   0.253  13.559  0.5815  0.0101  0.8655
  878MPD2    C212929   4.674   0.170  13.662  0.5885  0.6576 -0.5982
  878MPD2    C312930   4.598   0.102  13.755 -0.3670 -0.0226  0.3751
  878MPD2    C412931   4.464   0.131  13.754 -0.7451 -0.5069  0.0225
  878MPD2    C512932   4.410   0.192  13.640 -0.0997 -0.1117  0.5288
  878MPD2     H12933   0.040   0.146  13.655  0.5500  0.5517 -0.8187
  878MPD2    H112934   4.398   0.066  13.810 -0.5380 -0.2048  0.6105
  878MPD2    H212935   4.437   0.297  13.464  0.9272 -0.1057 -0.6931
  878MPD2    H312936   4.302   0.188  13.648  0.0179  0.1668  2.3927
  878MPD2     N12937   4.674   0.033  13.858 -0.3110 -0.0338 -0.3236
  878MPD2    H512938   0.035   0.036  13.851 -0.2940 -0.2051 -0.1455
  878MPD2    N112939   4.698   0.332  13.473 -0.7490 -0.1744 -0.4526
  878MPD2    H712940   4.643   0.374  13.399  1.1171  1.2422 -1.0412
  879MPD2     C12941   0.991   1.219  17.114 -0.3021  0.2470  0.7262
  879MPD2    C112942   0.971   1.095  17.159  0.2045  0.3347 -0.5489
  879MPD2    C212943   0.943   0.999  17.071  0.0356  0.1548 -0.8834
  879MPD2    C312944   0.911   1.027  16.940 -0.5821  0.5340 -0.9986
  879MPD2    C412945   0.926   1.152  16.899  0.2607  0.6518 -0.4508
  879MPD2    C512946   0.976   1.250  16.978  0.0218  0.0642  0.3711
  879MPD2     H12947   0.923   0.898  17.104  1.2121  0.4653  0.7689
  879MPD2    H112948   0.894   1.174  16.798  1.6913 -0.6365 -1.1875
  879MPD2    H212949   1.026   1.302  17.174 -0.4964  1.1812 -0.4569
  879MPD2    H312950   0.976   1.353  16.945  0.5536 -0.2702 -0.6863
  879MPD2     N12951   0.867   0.933  16.848  0.3021 -0.1883 -0.5235
  879MPD2    H512952   0.831   0.958  16.756  1.4980 -1.4073 -1.3249
  879MPD2    N112953   1.002   1.076  17.295  0.1902  0.6259  0.2898
  879MPD2    H712954   1.041   1.159  17.338  0.1770  1.2608 -0.9181
  880MPD2     C12955   2.625   2.887   0.433  0.2149  0.5832  0.2142
  880MPD2    C112956   2.513   2.820   0.413 -0.4194 -0.4248  0.7505
  880MPD2    C212957   2.520   2.697   0.353  0.4173  1.0119 -0.1911
  880MPD2    C312958   2.638   2.639   0.320  0.3018 -0.0143  0.0513
  880MPD2    C412959   2.760   2.704   0.353 -0.6449  0.4084  0.3774
  880MPD2    C512960   2.743   2.830   0.404  0.3548  0.2670 -0.1335
  880MPD2     H12961   2.433   2.636   0.333  1.4628  0.0315 -1.7399
  880MPD2    H112962   2.857   2.657   0.353 -0.1979  1.3369 -0.0669
  880MPD2    H212963   2.619   2.990   0.466 -0.0450  0.4240  0.6607
  880MPD2    H312964   2.828   2.894   0.428 -0.9975  1.8711  0.4373
  880MPD2     N12965   2.634   2.500   0.288  0.1205  0.3325 -0.4580
  880MPD2    H512966   2.541   2.460   0.283  0.5683 -0.8178  0.3611
  880MPD2    N112967   2.386   2.886   0.435 -0.6028 -0.0545  0.0201
  880MPD2    H712968   2.385   2.980   0.474 -3.3114 -0.2555  0.4288
  881MPD2     C12969   2.063   3.582  17.578 -0.4594 -0.0075  0.3639
  881MPD2    C112970   2.150   3.477  17.589  0.4647  0.4489  0.2252
  881MPD2    C212971   2.153   3.403  17.705 -0.2407  0.3365 -0.0476
  881MPD2    C312972   2.061   3.416   0.047  0.4717 -0.1693 -0.2584
  881MPD2    C412973   1.971   3.517   0.030  0.1468  0.7910 -0.0644
  881MPD2    C512974   1.967   3.600  17.679  0.2469  0.4363 -0.5765
  881MPD2     H12975   2.223   3.320  17.708 -1.1109 -0.4805 -2.6044
  881MPD2    H112976   1.902   3.524   0.113 -0.9835  0.2497 -0.9572
  881MPD2    H212977   2.046   3.633  17.484 -1.2237 -0.4114  0.2870
  881MPD2    H312978   1.881   3.663  17.659  0.5375  1.5093  1.6269
  881MPD2     N12979   2.051   3.338   0.160  0.5527 -0.0166 -0.5693
  881MPD2    H512980   1.976   3.350   0.228 -0.0427 -3.4440 -0.6213
  881MPD2    N112981   2.212   3.428  17.471  0.0509 -0.3092  0.0854
  881MPD2    H712982   2.199   3.486  17.388  0.3303 -1.7349 -0.9581
  882MPD2     C12983   0.716   0.248  14.514  0.0300  0.1891  0.2126
  882MPD2    C112984   0.692   0.305  14.636  0.6518  0.6097 -0.5502
  882MPD2    C212985   0.567   0.305  14.690 -0.4960  0.1221  0.2352
  882MPD2    C312986   0.466   0.247  14.618 -0.3369  0.0669 -0.2549
  882MPD2    C412987   0.490   0.212  14.489 -0.3362 -0.4888 -0.3564
  882MPD2    C512988   0.613   0.208  14.430 -0.8062 -0.3415 -0.2867
  882MPD2     H12989   0.553   0.342  14.791  0.3738  2.1923 -0.4031
  882MPD2    H112990   0.409   0.177  14.426  0.9701 -2.3840 -0.9577
  882MPD2    H212991   0.816   0.246  14.473 -0.0880 -0.3501 -0.0569
  882MPD2    H312992   0.627   0.171  14.329  2.6760  1.7126 -0.5445
  882MPD2     N12993   0.333   0.234  14.660  0.1981  0.1779 -0.1223
  882MPD2    H512994   0.261   0.232  14.588 -0.7570  2.4576  0.7748
  882MPD2    N112995   0.794   0.383  14.694  0.0470 -0.5044 -0.4128
  882MPD2    H712996   0.885   0.373  14.650 -0.2835  0.0373 -1.2158
  883MPD2     C12997   2.280   0.173  16.288  0.1465  0.4511  0.3045
  883MPD2    C112998   2.365   0.252  16.215 -0.1401  0.4219  0.0007
  883MPD2    C212999   2.493   0.278  16.253 -0.1213 -0.7006 -0.4722
  883MPD2    C313000   2.549   0.217  16.358  0.1316 -0.0525 -0.1441
  883MPD2    C413001   2.475   0.126  16.428  1.0789 -0.3014  0.0830
  883MPD2    C513002   2.340   0.110  16.399 -1.0155  0.2681 -0.6691
  883MPD2     H13003   2.544   0.348  16.188  0.2316 -0.1562  0.3954
  883MPD2    H113004   2.514   0.074  16.514  0.1667 -0.1482  0.5855
  883MPD2    H213005   2.177   0.156  16.260  0.1413  0.7239  0.1591
  883MPD2    H313006   2.274   0.039  16.448  0.0071  0.3236  0.8144
  883MPD2     N13007   2.686   0.239  16.396  0.7871 -0.6739  0.1028
  883MPD2    H513008   2.739   0.308  16.344  0.3230 -1.0253 -0.8296
  883MPD2    N113009   2.328   0.311  16.090  0.3989  0.2985 -0.3357
  883MPD2    H713010   2.407   0.360  16.050  0.8334  0.0131  0.1614
  884MPD2     C13011   4.457   0.843  15.264 -0.0823 -0.0798 -0.4604
  884MPD2    C113012   4.442   0.976  15.217 -0.2666  0.3954  0.4018
  884MPD2    C213013   4.329   1.045  15.254  0.4040 -0.4397  0.0730
  884MPD2    C313014   4.226   0.980  15.325  0.3403  0.6139 -1.0343
  884MPD2    C413015   4.243   0.849  15.365  0.0305 -0.3093  0.8304
  884MPD2    C513016   4.360   0.785  15.338 -0.4650 -0.1875 -0.7057
  884MPD2     H13017   4.313   1.146  15.218 -1.9646  0.3675  3.3798
  884MPD2    H113018   4.165   0.793  15.415 -0.1163 -2.1175 -1.4176
  884MPD2    H213019   4.537   0.777  15.231  0.0172  0.5248 -1.4512
  884MPD2    H313020   4.372   0.684  15.375  0.1423 -0.6843 -2.2505
  884MPD2     N13021   4.103   1.045  15.357 -0.2020 -0.3679 -0.9244
  884MPD2    H513022   4.041   0.991  15.417 -0.2522 -0.4683 -1.0669
  884MPD2    N113023   4.535   1.036  15.128 -0.1802 -0.0422  0.1937
  884MPD2    H713024   4.511   1.126  15.088 -2.8347 -1.3203 -1.0985
  885MPD2     C13025   2.734   1.035  17.632  0.7807  0.4731  0.1873
  885MPD2    C113026   2.850   1.105  17.627  0.1546 -0.9982 -0.5642
  885MPD2    C213027   2.863   1.192  17.526 -0.4776  1.6455 -0.2829
  885MPD2    C313028   2.756   1.231  17.443  0.3694  0.6381 -0.3486
  885MPD2    C413029   2.636   1.161  17.458  0.0154  0.1629 -0.5629
  885MPD2    C513030   2.628   1.067  17.551 -0.3844  0.0472 -0.7811
  885MPD2     H13031   2.956   1.248  17.521 -0.0577  0.9513 -0.3049
  885MPD2    H113032   2.547   1.173  17.398 -0.3158 -2.7111 -0.6570
  885MPD2    H213033   2.723   0.956  17.706  2.8771  0.2718  0.3024
  885MPD2    H313034   2.537   1.012  17.576  1.3464 -1.6884  1.7620
  885MPD2     N13035   2.783   1.339  17.354  0.2669  0.3958  0.6837
  885MPD2    H513036   2.877   1.375  17.360  0.1512  0.7869  0.1265
  885MPD2    N113037   2.960   1.069  17.715  0.3891  0.0788  0.1224
  885MPD2    H713038   2.944   0.988   0.017  0.9874 -0.1979 -0.0989
  886MPD2     C13039   3.691   4.619  15.256 -0.0562  0.7669  0.0830
  886MPD2    C113040   3.809   4.627  15.315 -0.8256 -0.0098  0.2657
  886MPD2    C213041   3.888   4.740  15.294  0.2005  0.1388 -0.5694
  886MPD2    C313042   3.852   0.093  15.204 -0.3026  0.2938  0.2508
  886MPD2    C413043   3.727   0.089  15.149 -0.4642  0.4249  0.2711
  886MPD2    C513044   3.647   4.721  15.175  0.0338  0.0543 -0.0853
  886MPD2     H13045   3.985   4.733  15.342 -0.6089 -0.5200  0.9652
  886MPD2    H113046   3.687   0.151  15.070  1.0032 -0.3560 -1.0931
  886MPD2    H213047   3.630   4.529  15.260  2.4552 -1.0346 -1.6647
  886MPD2    H313048   3.551   4.717  15.125 -0.5493 -1.5262  1.1344
  886MPD2     N13049   3.931   0.197  15.169  0.1039 -0.4829 -0.4954
  886MPD2    H513050   3.893   0.261  15.100  0.1960 -0.0878 -0.1832
  886MPD2    N113051   3.873   4.524  15.399  0.3179  0.0124 -0.7446
  886MPD2    H713052   3.966   4.543  15.435  0.1486 -1.5169  0.4735
  887MPD2     C13053   4.474   4.465  15.752 -0.2179 -0.7324  0.2875
  887MPD2    C113054   4.350   4.527  15.764 -0.1988  0.4846  0.6307
  887MPD2    C213055   4.352   4.663  15.787 -0.1772  0.1874  0.1325
  887MPD2    C313056   4.468   4.734  15.810  0.0764  0.7057  0.0856
  887MPD2    C413057   4.596   4.672  15.791  0.4162  0.0469 -0.3617
  887MPD2    C513058   4.590   4.536  15.768 -0.4380 -0.4354 -0.2618
  887MPD2     H13059   4.256   4.713  15.785  0.4981  1.4983  0.5316
  887MPD2    H113060   4.688   4.728  15.795  0.9355 -0.8306  0.0692
  887MPD2    H213061   4.476   4.365  15.709 -1.8083  0.2287 -2.0327
  887MPD2    H313062   4.684   4.484  15.751  0.7132  1.5834 -0.0145
  887MPD2     N13063   4.452   0.133  15.835 -0.4687 -0.1022 -0.5417
  887MPD2    H513064   4.357   0.158  15.861 -0.8662 -1.4989 -0.6867
  887MPD2    N113065   4.228   4.473  15.722  0.5139  1.1243  0.1182
  887MPD2    H713066   4.153   4.537  15.699  0.6975  0.6504 -1.8241
  888MPD2     C13067   1.521   4.513  15.154  0.0087  0.1397 -0.3276
  888MPD2    C113068   1.602   4.563  15.255  0.5874  0.2303  0.1337
  888MPD2    C213069   1.640   4.698  15.253  0.2059  0.2143 -0.1111
  888MPD2    C313070   1.618   0.048  15.147  0.5149  0.2162  0.3366
  888MPD2    C413071   1.547   4.734  15.038  0.0177  0.0046  0.2398
  888MPD2    C513072   1.506   4.600  15.047  0.2584  0.0474  0.1317
  888MPD2     H13073   1.702   4.735  15.334  2.5169  2.0703 -2.7346
  888MPD2    H113074   1.521   0.061  14.957  0.2440  1.6826  1.5507
  888MPD2    H213075   1.487   4.412  15.134 -1.3447  0.4279  0.4993
  888MPD2    H313076   1.451   4.562  14.962 -3.0049 -0.0148  2.3010
  888MPD2     N13077   1.671   0.182  15.160 -0.6417  0.3685  0.2213
  888MPD2    H513078   1.707   0.209  15.251 -0.6591 -0.1426  0.3826
  888MPD2    N113079   1.642   4.481  15.361  0.2810 -0.2183 -0.0021
  888MPD2    H713080   1.729   4.507  15.407 -0.3106  1.8698 -0.0452
  889MPD2     C13081   0.980   4.710  12.787  0.1548  0.0727  0.5146
  889MPD2    C113082   0.914   4.703  12.909 -0.6999 -0.3332  0.6072
  889MPD2    C213083   0.941   0.065  12.999  0.5503  0.6130  0.6826
  889MPD2    C313084   1.008   0.174  12.955 -0.1933  0.3270  0.0238
  889MPD2    C413085   1.067   0.182  12.831 -0.1408  0.0928  0.6082
  889MPD2    C513086   1.053   0.074  12.746 -0.1768  0.5302 -0.2732
  889MPD2     H13087   0.880   0.066  13.089  1.7976  1.4472  1.5029
  889MPD2    H113088   1.130   0.265  12.801  1.2778 -2.4708 -3.3850
  889MPD2    H213089   0.973   4.634  12.710 -0.5655 -0.2615  0.9110
  889MPD2    H313090   1.089   0.064  12.645  1.2737  2.4162  0.0680
  889MPD2     N13091   1.009   0.275  13.052  0.0985  0.4071  0.3638
  889MPD2    H513092   0.966   0.255  13.142 -1.6697 -2.0727 -1.0177
  889MPD2    N113093   0.856   4.581  12.956 -0.0544 -0.3528 -0.1616
  889MPD2    H713094   0.827   4.581  13.053  3.9130  1.1268  1.0175
  890MPD2     C13095   0.414   1.131  14.635  0.1234  0.2035 -0.7523
  890MPD2    C113096   0.522   1.179  14.699 -0.0629 -0.1410 -0.2623
  890MPD2    C213097   0.564   1.120  14.818 -0.2633 -0.0052 -0.6241
  890MPD2    C313098   0.498   1.015  14.879 -0.0121 -0.6399  0.3672
  890MPD2    C413099   0.383   0.970  14.818  0.2156 -0.0800  0.2745
  890MPD2    C513100   0.347   1.029  14.695  0.6740  0.4654 -0.8511
  890MPD2     H13101   0.643   1.160  14.882  1.5875 -1.3831 -2.0454
  890MPD2    H113102   0.316   0.897  14.862  1.8278 -0.6692  1.7062
  890MPD2    H213103   0.373   1.171  14.543  0.1742  1.5533 -0.1826
  890MPD2    H313104   0.261   0.997  14.637 -0.3551  1.3372  0.2086
  890MPD2     N13105   0.540   0.977  15.006  0.1994 -0.3255 -0.8396
  890MPD2    H513106   0.630   1.009  15.040  0.5515 -1.9725 -0.1981
  890MPD2    N113107   0.590   1.288  14.639  0.2809  0.0255 -0.1317
  890MPD2    H713108   0.556   1.331  14.554  0.4981 -0.9028 -0.6890
  891MPD2     C13109   3.712   4.432  16.449  0.6004  0.4572  0.5664
  891MPD2    C113110   3.614   4.393  16.537 -0.2525 -0.0151  0.9542
  891MPD2    C213111   3.656   4.340  16.658 -0.6124 -0.6040  0.3459
  891MPD2    C313112   3.785   4.326  16.690 -0.5666 -0.7053 -0.6562
  891MPD2    C413113   3.884   4.355  16.597  0.4850 -0.7220  0.4914
  891MPD2    C513114   3.841   4.420  16.487  0.5648  0.4408  0.0452
  891MPD2     H13115   3.584   4.328  16.738 -1.1277 -3.6010 -0.5747
  891MPD2    H113116   3.992   4.348  16.602  0.7240  2.4579  0.2038
  891MPD2    H213117   3.697   4.468  16.348 -1.7538  1.3251  1.2223
  891MPD2    H313118   3.914   4.453  16.413  2.2390  0.7485  1.8330
  891MPD2     N13119   3.819   4.282  16.825  0.1575  0.1383  0.0357
  891MPD2    H513120   3.750   4.247  16.890 -0.4305 -0.3357 -0.8411
  891MPD2    N113121   3.478   4.407  16.507  0.3779  0.0324  0.5301
  891MPD2    H713122   3.459   4.440  16.413  0.5666 -3.5804 -0.7981
  892MPD2     C13123   4.558   0.968  14.660 -0.2940 -0.0732 -0.6371
  892MPD2    C113124   4.489   0.881  14.741 -0.2279  0.2125  0.7550
  892MPD2    C213125   4.540   0.756  14.765  0.6910  0.6325  0.4327
  892MPD2    C313126   4.660   0.717  14.703 -0.8756 -0.0623 -0.4804
  892MPD2    C413127   4.736   0.811  14.632  0.0799  0.0215  0.6066
  892MPD2    C513128   4.677   0.932  14.605 -0.3604  0.1691  0.0558
  892MPD2     H13129   4.498   0.678  14.828  1.0736 -0.1595 -0.2843
  892MPD2    H113130   0.097   0.791  14.597  0.4219 -1.9323  2.7286
  892MPD2    H213131   4.527   1.072  14.648  0.8671  0.4275  0.6398
  892MPD2    H313132   4.727   0.990  14.528 -0.3124  0.3709  0.2391
  892MPD2     N13133   4.702   0.583  14.708 -0.0792  0.5319  0.0353
  892MPD2    H513134   0.063   0.571  14.700  0.0301  1.5540 -0.1498
  892MPD2    N113135   4.374   0.920  14.815 -0.3700  0.2552 -0.1057
  892MPD2    H713136   4.334   1.008  14.784  0.8986  0.6591 -0.5961
  893MPD2     C13137   1.609   4.586   1.218 -0.0118 -0.3503  0.0721
  893MPD2    C113138   1.582   4.482   1.301  0.4610 -0.1096  0.0677
  893MPD2    C213139   1.654   4.477   1.418 -0.2036  0.0125 -0.2515
  893MPD2    C313140   1.764   4.554   1.442  0.4789  0.8027  0.1271
  893MPD2    C413141   1.789   4.661   1.358 -0.3367 -0.0635 -0.7003
  893MPD2    C513142   1.710   4.676   1.246 -0.5272 -0.1457 -1.0708
  893MPD2     H13143   1.628   4.400   1.490  0.2069 -1.0021 -1.1839
  893MPD2    H113144   1.872   4.722   1.390 -0.4565 -0.0401 -0.4321
  893MPD2    H213145   1.555   4.610   1.127 -0.9119  1.8003  1.1635
  893MPD2    H313146   1.735   0.018   1.180  0.0130 -0.8661 -1.7607
  893MPD2     N13147   1.844   4.549   1.556 -0.0252 -0.2005 -0.4879
  893MPD2    H513148   1.939   4.584   1.552  0.5043 -1.5948 -0.3761
  893MPD2    N113149   1.475   4.389   1.280 -0.3545 -1.0374  0.0802
  893MPD2    H713150   1.430   4.383   1.189  0.3151  0.7794 -0.3794
  894MPD2     C13151   4.448   1.127   1.316  0.3665 -0.5939 -0.5644
  894MPD2    C113152   4.337   1.196   1.363  0.8435 -0.6078 -0.1201
  894MPD2    C213153   4.334   1.334   1.357  0.1075  0.7252 -0.1671
  894MPD2    C313154   4.440   1.405   1.303 -0.2086  0.1766  0.7432
  894MPD2    C413155   4.547   1.334   1.253 -0.2453  0.2257  0.4838
  894MPD2    C513156   4.557   1.199   1.271  0.2900 -0.4181  0.4515
  894MPD2     H13157   4.236   1.379   1.363  0.2613  1.3468 -1.9906
  894MPD2    H113158   4.639   1.376   1.213 -0.1602 -0.0114  0.4338
  894MPD2    H213159   4.468   1.020   1.325 -2.8898 -1.0766  1.0275
  894MPD2    H313160   4.646   1.139   1.252  1.0482  0.8518 -0.0305
  894MPD2     N13161   4.431   1.550   1.290 -0.2160 -0.1844 -0.1889
  894MPD2    H513162   4.348   1.603   1.314  0.2375  1.2488 -1.7488
  894MPD2    N113163   4.232   1.127   1.429  0.1980 -0.1579 -0.2867
  894MPD2    H713164   4.151   1.180   1.458 -1.0459 -2.0752 -0.2172
  895MPD2     C13165   3.495   4.539  13.955  0.0274 -0.4940  0.2686
  895MPD2    C113166   3.439   4.530  13.827 -0.3074  1.2103 -0.0826
  895MPD2    C213167   3.488   4.436  13.742 -0.0514  0.2742  0.0914
  895MPD2    C313168   3.572   4.332  13.782  0.0710  0.2033  0.8585
  895MPD2    C413169   3.619   4.338  13.914 -0.2118  0.9722  0.6846
  895MPD2    C513170   3.591   4.446  13.991 -0.2078  0.1658 -0.2393
  895MPD2     H13171   3.441   4.436  13.644 -1.2296 -0.2080  0.6527
  895MPD2    H113172   3.688   4.265  13.954  0.8528  1.1065 -0.9123
  895MPD2    H213173   3.466   4.618  14.023  1.2732  2.0141 -2.0628
  895MPD2    H313174   3.633   4.454  14.090 -1.7790  1.9746  0.2649
  895MPD2     N13175   3.598   4.219  13.703 -0.4076 -0.1571 -0.1616
  895MPD2    H513176   3.640   4.139  13.749 -2.2966 -1.7391 -1.1589
  895MPD2    N113177   3.333   4.611  13.786 -0.1547 -0.0383  0.4686
  895MPD2    H713178   3.292   4.597  13.694  0.0808 -2.3863  0.7316
  896MPD2     C13179   1.664   2.319   1.495  0.3450 -0.6057 -0.9481
  896MPD2    C113180   1.694   2.239   1.384  0.1898 -0.0849 -0.0519
  896MPD2    C213181   1.590   2.196   1.301 -1.5291  0.5176  0.3916
  896MPD2    C313182   1.456   2.233   1.333  0.5832 -0.6295 -0.0135
  896MPD2    C413183   1.430   2.313   1.437 -0.0210  0.2681  0.2321
  896MPD2    C513184   1.534   2.352   1.527 -0.0482 -0.3070 -0.2700
  896MPD2     H13185   1.614   2.127   1.221  3.0047  0.8386  1.4978
  896MPD2    H113186   1.331   2.346   1.465  0.3969  1.0290  0.8125
  896MPD2    H213187   1.743   2.351   1.561 -0.0684 -1.3380 -0.0932
  896MPD2    H313188   1.513   2.408   1.618 -0.2095 -1.0738  0.1676
  896MPD2     N13189   1.345   2.195   1.262 -0.1298  0.2194  0.2355
  896MPD2    H513190   1.254   2.231   1.288 -1.4530 -1.8560 -1.5496
  896MPD2    N113191   1.831   2.212   1.359 -0.8857  0.2186  0.3221
  896MPD2    H713192   1.888   2.263   1.425  0.7035 -0.2804 -0.6642
  897MPD2     C13193   1.791   4.427  10.548 -0.0848 -0.3384  0.6075
  897MPD2    C113194   1.724   4.545  10.541  0.4904  0.0797  0.2059
  897MPD2    C213195   1.649   4.592  10.642 -0.1808 -0.5681  0.2321
  897MPD2    C313196   1.607   4.498  10.742  0.4219  0.3981  0.9755
  897MPD2    C413197   1.670   4.381  10.749 -0.7468  0.3337 -0.3657
  897MPD2    C513198   1.764   4.346  10.650 -0.1278  0.6699  0.1410
  897MPD2     H13199   1.594   4.684  10.632 -0.3783 -0.6188  0.8049
  897MPD2    H113200   1.660   4.306  10.827 -2.0873  0.1186 -0.7577
  897MPD2    H213201   1.859   4.391  10.472 -0.8036  0.2986 -0.3368
  897MPD2    H313202   1.814   4.250  10.659  0.1814  0.8361  0.2125
  897MPD2     N13203   1.506   4.534  10.835  0.3807  0.4341 -0.2611
  897MPD2    H513204   1.447   4.613  10.809  0.2201 -0.1599 -1.7205
  897MPD2    N113205   1.720   4.604  10.409 -0.1658 -0.5287 -0.2115
  897MPD2    H713206   1.754   4.542  10.336 -0.0059 -2.6280  1.6590
  898MPD2     C13207   0.200   0.599   0.642 -0.9421 -0.2046 -0.1255
  898MPD2    C113208   0.119   0.522   0.557  0.1687  0.1560 -0.1088
  898MPD2    C213209   4.737   0.573   0.512 -0.9259  0.4529  0.5106
  898MPD2    C313210   4.687   0.691   0.562  0.5341  0.1708 -0.6091
  898MPD2    C413211   0.023   0.761   0.653 -0.4768  0.2062 -0.5480
  898MPD2    C513212   0.143   0.712   0.688  0.1962  0.5449  0.1769
  898MPD2     H13213   4.674   0.506   0.454 -0.3108  0.0412  0.3287
  898MPD2    H113214   4.733   0.857   0.694  0.1351  0.2409 -0.1910
  898MPD2    H213215   0.301   0.573   0.671 -1.1636 -0.6148  0.2842
  898MPD2    H313216   0.202   0.784   0.743  1.7598  0.1961 -1.0604
  898MPD2     N13217   4.565   0.735   0.505 -0.1762 -0.0172 -0.0310
  898MPD2    H513218   4.527   0.684   0.427  1.1986 -1.5329  0.2867
  898MPD2    N113219   0.163   0.400   0.515 -0.0626  0.8983  0.5316
  898MPD2    H713220   0.110   0.342   0.450  1.2906 -0.0373  0.2498
  899MPD2     C13221   0.311   0.539  17.094  0.3632  0.6818  0.8864
  899MPD2    C113222   0.369   0.629  17.182 -0.0146  0.1784 -0.1459
  899MPD2    C213223   0.333   0.627  17.316  0.9155 -0.4783 -0.1098
  899MPD2    C313224   0.238   0.535  17.362 -0.2122  0.4559  0.0145
  899MPD2    C413225   0.183   0.448  17.270 -0.0775  0.1910 -0.6268
  899MPD2    C513226   0.219   0.442  17.141 -0.1577  0.5845 -0.2400
  899MPD2     H13227   0.369   0.705  17.381 -2.3466  2.1602 -1.4278
  899MPD2    H113228   0.098   0.389  17.301  1.7821 -2.5636 -0.7236
  899MPD2    H213229   0.312   0.543  16.986 -1.0901 -0.8733  0.8178
  899MPD2    H313230   0.167   0.374  17.075  1.4579  0.0345 -0.9592
  899MPD2     N13231   0.184   0.535  17.496 -0.3241 -0.2201 -0.5561
  899MPD2    H513232   0.109   0.471  17.519  0.3955 -1.0323 -0.4563
  899MPD2    N113233   0.463   0.728  17.136 -0.1238 -0.0319  0.9264
  899MPD2    H713234   0.455   0.747  17.037  2.8606  0.0881  0.6940
  900MPD2     C13235   4.383   2.666  12.685 -0.0944 -0.1063  0.7307
  900MPD2    C113236   4.298   2.578  12.614 -0.3659  0.0541 -0.6424
  900MPD2    C213237   4.193   2.634  12.542  0.0529 -0.2030  0.5803
  900MPD2    C313238   4.172   2.771  12.537  0.2046  0.3348  0.2513
  900MPD2    C413239   4.259   2.858  12.602  0.1257 -0.4985  0.8237
  900MPD2    C513240   4.364   2.802  12.677 -0.8635 -0.4434 -0.2251
  900MPD2     H13241   4.123   2.572  12.487 -1.5468  0.6858  1.5872
  900MPD2    H113242   4.237   2.964  12.609 -1.3938 -0.8405  1.2731
  900MPD2    H213243   4.467   2.637  12.747 -0.2898 -2.5943 -0.1637
  900MPD2    H313244   4.425   2.870  12.736 -3.7011  1.5326  0.4607
  900MPD2     N13245   4.048   2.799  12.470  0.2966 -0.7283  0.3758
  900MPD2    H513246   3.986   2.724  12.442 -1.4124  0.6965  0.3298
  900MPD2    N113247   4.319   2.442  12.619 -0.1886 -0.7686  0.1869
  900MPD2    H713248   4.409   2.419  12.660  0.6623  1.4338 -0.4384
  901MPD2     C13249   3.905   1.422  12.481  0.2240 -0.2176  0.5106
  901MPD2    C113250   4.032   1.419  12.442 -0.2132 -0.1447 -0.6101
  901MPD2    C213251   4.104   1.541  12.449 -0.0943 -0.5104 -1.1683
  901MPD2    C313252   4.044   1.655  12.481  0.1576  0.0808  0.8637
  901MPD2    C413253   3.909   1.661  12.503 -0.5257 -0.3349  0.4583
  901MPD2    C513254   3.839   1.541  12.503  0.5235 -0.3465  0.0656
  901MPD2     H13255   4.210   1.546  12.428  0.0359  2.0993  0.2340
  901MPD2    H113256   3.853   1.751  12.526  0.4102  0.9527 -2.3528
  901MPD2    H213257   3.846   1.331  12.493  1.2686 -0.8608  0.7211
  901MPD2    H313258   3.733   1.542  12.523  0.5405  1.2962  0.1071
  901MPD2     N13259   4.124   1.769  12.487 -0.4683 -0.0555  0.2874
  901MPD2    H513260   4.224   1.756  12.476 -0.5150 -1.0915  1.1247
  901MPD2    N113261   4.104   1.302  12.429 -0.3681 -0.1246  0.1374
  901MPD2    H713262   4.079   1.213  12.472  1.8472 -2.1073 -2.7231
  902MPD2     C13263   3.490   0.549  12.658 -0.0478  0.1564 -0.8625
  902MPD2    C113264   3.460   0.588  12.531  0.0081  0.1113  0.0503
  902MPD2    C213265   3.520   0.539  12.419 -0.7172 -0.0562  0.8437
  902MPD2    C313266   3.612   0.438  12.431 -0.1948  0.8017 -0.2147
  902MPD2    C413267   3.648   0.395  12.555  0.2948  0.8980  0.0773
  902MPD2    C513268   3.583   0.445  12.663  0.3138 -0.9707  0.4750
  902MPD2     H13269   3.485   0.581  12.325 -0.2399 -2.6065 -0.4593
  902MPD2    H113270   3.723   0.317  12.561 -1.7954 -0.9739  1.9818
  902MPD2    H213271   3.444   0.588  12.748 -0.2392  0.9569 -1.3030
  902MPD2    H313272   3.617   0.412  12.760  3.0248  0.7287  0.1039
  902MPD2     N13273   3.675   0.399  12.315 -0.0640  0.9221 -0.3385
  902MPD2    H513274   3.647   0.435  12.225 -0.1634  0.2609 -0.5736
  902MPD2    N113275   3.356   0.688  12.510  0.2658 -0.5643 -0.0845
  902MPD2    H713276   3.331   0.698  12.412  0.8867 -1.9597 -0.3833
  903MPD2     C13277   3.459   0.323  11.590  0.3517 -0.5073  0.1479
  903MPD2    C113278   3.485   0.397  11.703  0.0932  0.1334  0.1169
  903MPD2    C213279   3.396   0.494  11.741  0.2481 -0.2520 -0.4330
  903MPD2    C313280   3.275   0.512  11.678 -0.4385 -0.2323  0.0402
  903MPD2    C413281   3.259   0.445  11.560  0.7661  0.3799 -0.6601
  903MPD2    C513282   3.349   0.348  11.515 -0.3454 -0.3648 -0.7751
  903MPD2     H13283   3.410   0.542  11.837  2.6833 -0.9109 -0.4805
  903MPD2    H113284   3.165   0.452  11.506  0.2467 -1.6507  0.0121
  903MPD2    H213285   3.526   0.242  11.564  0.0472 -0.6816 -0.0903
  903MPD2    H313286   3.333   0.294  11.423  0.8931 -3.0499  0.5923
  903MPD2     N13287   3.177   0.599  11.736  0.3209  0.2544 -0.1564
  903MPD2    H513288   3.193   0.623  11.834 -1.3397  0.5597  0.0488
  903MPD2    N113289   3.603   0.366  11.769 -0.7212 -0.3094 -0.2281
  903MPD2    H713290   3.656   0.286  11.736 -0.9015 -0.2425 -0.6800
  904MPD2     C13291   3.765   3.851  14.348  0.1112  0.1801  0.7382
  904MPD2    C113292   3.741   3.986  14.343  0.5319 -0.1212  0.0942
  904MPD2    C213293   3.834   4.065  14.406 -0.9577  0.1404  0.4764
  904MPD2    C313294   3.947   4.018  14.468 -0.9139 -0.4692  0.0183
  904MPD2    C413295   3.958   3.880  14.479  0.0515  0.2282  0.3215
  904MPD2    C513296   3.869   3.801  14.417 -0.3307  0.4490 -0.6471
  904MPD2     H13297   3.823   4.171  14.386 -0.4609  0.2672  0.8698
  904MPD2    H113298   4.039   3.834  14.535 -0.1862  0.0253  0.4995
  904MPD2    H213299   3.701   3.785  14.289 -1.0520  1.2523  0.8144
  904MPD2    H313300   3.879   3.694  14.409  1.0068  0.6226 -1.2418
  904MPD2     N13301   4.041   4.113  14.518 -0.2766  0.0036  0.0569
  904MPD2    H513302   4.022   4.212  14.510  1.0552  0.2564 -0.0081
  904MPD2    N113303   3.638   4.046  14.268 -0.7049  0.2623 -0.2601
  904MPD2    H713304   3.634   4.147  14.264  0.3650  0.3414  0.6821
  905MPD2     C13305   3.081   4.262  13.568 -0.3994 -0.3370 -0.1717
  905MPD2    C113306   3.158   4.165  13.613 -0.1291 -0.0633 -0.6467
  905MPD2    C213307   3.212   4.075  13.523  0.8453  0.1782 -0.3235
  905MPD2    C313308   3.175   4.086  13.389  0.2435  0.1445  0.1120
  905MPD2    C413309   3.075   4.174  13.356 -0.5234  0.5824  0.8044
  905MPD2    C513310   3.030   4.268  13.445  0.6851 -0.1276 -0.0718
  905MPD2     H13311   3.254   3.980  13.555  3.9949  1.5805 -0.2421
  905MPD2    H113312   3.020   4.171  13.263  0.9403  0.1103 -0.0474
  905MPD2    H213313   3.034   4.321  13.646 -0.5183  1.4923 -1.6333
  905MPD2    H313314   2.968   4.350  13.412  1.6609  1.2125  1.4112
  905MPD2     N13315   3.234   4.005  13.284 -0.0780  0.1023 -0.3636
  905MPD2    H513316   3.180   4.013  13.198 -0.8385  3.3903  0.4167
  905MPD2    N113317   3.189   4.168  13.746 -0.1967 -0.2878 -0.0787
  905MPD2    H713318   3.162   4.248  13.803  0.8315 -1.1536  1.6406
  906MPD2     C13319   0.315   4.479  11.180  0.0824 -0.4978 -0.0463
  906MPD2    C113320   0.265   4.425  11.065  0.3296 -0.2693  0.3850
  906MPD2    C213321   0.216   4.298  11.064 -0.5445  0.1638 -0.7985
  906MPD2    C313322   0.219   4.219  11.177 -0.0630 -1.1234 -0.1226
  906MPD2    C413323   0.258   4.275  11.295 -0.4732  0.4526 -0.5773
  906MPD2    C513324   0.314   4.403  11.289  0.2026 -0.6844  0.0857
  906MPD2     H13325   0.172   4.271  10.969 -0.6541  0.0175 -0.7064
  906MPD2    H113326   0.249   4.226  11.391  3.2853  0.3332 -0.2981
  906MPD2    H213327   0.351   4.580  11.195 -0.7729 -0.4023  1.3636
  906MPD2    H313328   0.364   4.434  11.380  0.4406 -0.3040 -0.1782
  906MPD2     N13329   0.163   4.090  11.175  0.0018  0.1056  0.8288
  906MPD2    H513330   0.156   4.045  11.266  0.9557  0.1371  0.9145
  906MPD2    N113331   0.259   4.495  10.935 -0.3284 -1.1537  0.0033
  906MPD2    H713332   0.214   4.448  10.857  0.5494  0.2425 -1.3665
  907MPD2     C13333   3.945   3.237  15.605 -0.1614 -0.0477  0.6630
  907MPD2    C113334   4.019   3.123  15.590 -0.2715  0.3271  0.3319
  907MPD2    C213335   4.088   3.071  15.702 -0.1518 -0.4994  0.3028
  907MPD2    C313336   4.050   3.114  15.832 -0.1759  0.0823  0.0088
  907MPD2    C413337   3.977   3.232  15.841  0.8460 -0.2866 -0.3992
  907MPD2    C513338   3.924   3.286  15.731 -0.3168  0.5967 -0.1020
  907MPD2     H13339   4.144   2.979  15.687  3.3463  1.7767 -0.7397
  907MPD2    H113340   3.951   3.272  15.938 -2.7337 -1.2372 -0.9627
  907MPD2    H213341   3.899   3.287  15.521 -0.6987  1.3613  1.7837
  907MPD2    H313342   3.850   3.365  15.735  0.4877  1.3850 -0.9145
  907MPD2     N13343   4.105   3.047  15.945  0.9382 -0.0844 -0.2105
  907MPD2    H513344   4.159   2.964  15.922 -0.2014 -0.8608 -0.0798
  907MPD2    N113345   4.037   3.054  15.472  0.3470 -0.2769  0.3569
  907MPD2    H713346   4.079   2.962  15.474  0.3430 -0.2594  0.9954
  908MPD2     C13347   1.263   4.161   9.851  0.6337  0.1109 -0.0461
  908MPD2    C113348   1.381   4.151   9.918 -0.4228 -0.0583  0.1271
  908MPD2    C213349   1.429   4.267   9.981 -0.8731 -0.5735 -0.4977
  908MPD2    C313350   1.377   4.388   9.955 -0.5903  0.6659  0.7921
  908MPD2    C413351   1.262   4.400   9.873  0.2052  0.6947  0.4541
  908MPD2    C513352   1.209   4.284   9.826 -0.6651 -0.2189 -0.5867
  908MPD2     H13353   1.511   4.258  10.051 -0.4576 -1.5298 -1.1036
  908MPD2    H113354   1.222   4.495   9.840  0.7646  0.7514 -0.0682
  908MPD2    H213355   1.219   4.071   9.809  2.5055 -0.6586 -0.3842
  908MPD2    H313356   1.122   4.288   9.762  0.9740 -1.1490 -2.8692
  908MPD2     N13357   1.445   4.497  10.010 -0.1462  0.1354 -0.8416
  908MPD2    H513358   1.528   4.469  10.061  0.3399 -0.2002 -1.8185
  908MPD2    N113359   1.433   4.024   9.941 -0.9002  0.3779 -0.0199
  908MPD2    H713360   1.386   3.942   9.903 -1.7189  0.2864  1.1812
  909MPD2     C13361   1.967   2.257  11.698 -0.0523 -1.2224  0.1613
  909MPD2    C113362   1.957   2.395  11.670  0.6261  0.1550 -0.1097
  909MPD2    C213363   1.879   2.474  11.753  0.2508  0.9041 -0.3182
  909MPD2    C313364   1.821   2.423  11.870  0.0394 -0.4734  0.1557
  909MPD2    C413365   1.833   2.287  11.892 -0.0988  0.2775 -0.3456
  909MPD2    C513366   1.897   2.206  11.802 -0.5510 -0.0236 -0.0352
  909MPD2     H13367   1.875   2.581  11.735  0.6928  0.8893 -0.5213
  909MPD2    H113368   1.782   2.245  11.978  0.6826 -1.8353 -0.8961
  909MPD2    H213369   2.025   2.186  11.640 -0.2513  0.0542 -1.5901
  909MPD2    H313370   1.906   2.100  11.821 -1.5666 -0.0960  0.0395
  909MPD2     N13371   1.738   2.505  11.951  0.3496 -0.1827 -0.1394
  909MPD2    H513372   1.715   2.595  11.909  0.6378 -0.1040 -0.1301
  909MPD2    N113373   2.032   2.457  11.566 -0.4847  0.6468 -0.3462
  909MPD2    H713374   2.040   2.559  11.562 -0.9047  0.7274  1.0847
  910MPD2     C13375   3.602   4.057  16.333 -0.2598  0.0382 -0.4448
  910MPD2    C113376   3.569   3.924  16.309  0.2748  0.6295  0.0192
  910MPD2    C213377   3.494   3.889  16.201  0.1682 -0.1029  0.4522
  910MPD2    C313378   3.453   3.981  16.107  0.0976  0.4317  0.0652
  910MPD2    C413379   3.470   4.114  16.135  0.3228 -0.0049  0.0764
  910MPD2    C513380   3.548   4.148  16.243  0.0098 -0.0416 -0.2286
  910MPD2     H13381   3.462   3.787  16.187 -1.1200  0.0384  2.4016
  910MPD2    H113382   3.427   4.192  16.072  0.5140  0.1347  0.1203
  910MPD2    H213383   3.667   4.087  16.414 -4.0757  3.8860  1.2330
  910MPD2    H313384   3.563   4.254  16.262  0.1776 -0.2345  0.7322
  910MPD2     N13385   3.401   3.959  15.972 -0.0028  0.1904  0.1738
  910MPD2    H513386   3.381   4.038  15.911  0.3393 -0.9138 -1.3830
  910MPD2    N113387   3.618   3.822  16.395 -0.0840  0.3343  0.5364
  910MPD2    H713388   3.582   3.729  16.376 -0.1661 -0.0554  2.5917
  911MPD2     C13389   1.876   4.339  15.999 -0.1479 -0.7829  0.3861
  911MPD2    C113390   1.908   4.328  16.138  0.7000 -0.2683 -0.3238
  911MPD2    C213391   1.831   4.393  16.230 -0.0671 -0.6024 -0.6380
  911MPD2    C313392   1.741   4.488  16.183  0.2075 -0.2927 -0.8465
  911MPD2    C413393   1.718   4.507  16.047  0.8571  0.1980  0.0293
  911MPD2    C513394   1.776   4.426  15.961 -0.0683  0.6177  0.1077
  911MPD2     H13395   1.852   4.384  16.336  0.1739  1.0117 -0.5500
  911MPD2    H113396   1.651   4.579  16.002 -0.9950 -1.7261 -0.2891
  911MPD2    H213397   1.930   4.289  15.920  0.1307  0.5809 -0.2931
  911MPD2    H313398   1.749   4.435  15.857  0.4555 -0.6090 -0.1320
  911MPD2     N13399   1.662   4.570  16.273  1.0319  0.8736  0.6101
  911MPD2    H513400   1.630   4.531  16.361  2.4710 -1.7382 -0.0352
  911MPD2    N113401   2.015   4.243  16.167  0.4320 -0.0155  0.4237
  911MPD2    H713402   2.081   4.224  16.092 -1.2149 -1.1038 -0.7512
  912MPD2     C13403   0.883   4.412  16.084  0.1488 -0.0569 -0.0979
  912MPD2    C113404   0.971   4.408  16.183 -0.1392 -0.2914 -0.4574
  912MPD2    C213405   0.949   4.338  16.297  0.0503 -0.2533 -0.0321
  912MPD2    C313406   0.847   4.246  16.297  0.0658  0.1468 -0.1203
  912MPD2    C413407   0.755   4.245  16.189  0.4142 -0.1316  0.7960
  912MPD2    C513408   0.774   4.328  16.082  0.2195 -0.7967 -1.1757
  912MPD2     H13409   1.016   4.353  16.381  0.1218 -0.5322 -0.0391
  912MPD2    H113410   0.677   4.171  16.176  0.7711 -0.9572  3.2088
  912MPD2    H213411   0.906   4.475  15.999  1.0956 -1.4847 -0.9074
  912MPD2    H313412   0.716   4.296  15.996 -1.6619 -0.5871  0.0035
  912MPD2     N13413   0.837   4.171  16.414 -0.0283 -0.0771  0.3117
  912MPD2    H513414   0.909   4.177  16.486  0.4917 -0.0673 -0.2137
  912MPD2    N113415   1.075   4.514  16.172  1.3020 -0.5944 -0.1152
  912MPD2    H713416   1.070   4.583  16.097 -0.6017 -2.9779 -2.2059
  913MPD2     C13417   0.983   0.834  10.012  0.5889 -0.4504  0.0316
  913MPD2    C113418   0.951   0.952  10.070  0.0821 -0.3596  0.4215
  913MPD2    C213419   1.053   1.047  10.087  0.0555  0.1774 -0.0579
  913MPD2    C313420   1.178   1.030  10.039  0.4095 -0.1136 -0.0835
  913MPD2    C413421   1.202   0.910   9.980  0.0505 -0.1529  0.0496
  913MPD2    C513422   1.105   0.815   9.959  0.1116 -0.4648 -0.2919
  913MPD2     H13423   1.019   1.142  10.127  2.6797  1.4238 -0.8135
  913MPD2    H113424   1.301   0.876   9.953 -0.7956 -0.8225 -2.2238
  913MPD2    H213425   0.905   0.760   9.997 -0.9360  1.2883 -0.5861
  913MPD2    H313426   1.137   0.724   9.910 -2.4765 -2.7147  2.1926
  913MPD2     N13427   1.282   1.120  10.055 -0.8930 -0.9037 -0.7349
  913MPD2    H513428   1.376   1.083  10.060 -0.5415 -0.3855 -4.1114
  913MPD2    N113429   0.816   0.966  10.116  0.0668 -0.2440 -0.6227
  913MPD2    H713430   0.756   0.884  10.113 -0.1002 -0.1770  0.7657
  914MPD2     C13431   0.259   1.502  12.301 -0.4044  0.1532 -0.3229
  914MPD2    C113432   0.136   1.563  12.308  0.0068  0.3020  0.4699
  914MPD2    C213433   0.014   1.488  12.309  0.9510 -0.1161  1.0138
  914MPD2    C313434   0.024   1.347  12.329  0.1809 -0.0189  0.0685
  914MPD2    C413435   0.149   1.291  12.323  0.5987 -1.0404 -0.2424
  914MPD2    C513436   0.264   1.366  12.313 -0.8757  0.2477  0.5905
  914MPD2     H13437   4.655   1.530  12.300  0.9525 -0.3798 -0.1691
  914MPD2    H113438   0.158   1.184  12.333  1.4697 -0.6721  3.1610
  914MPD2    H213439   0.353   1.555  12.294  0.0819 -0.8280 -1.2970
  914MPD2    H313440   0.358   1.315  12.330 -0.8400 -0.1348 -0.7578
  914MPD2     N13441   4.646   1.267  12.329  0.1163 -0.0904  0.2524
  914MPD2    H513442   4.566   1.323  12.354  0.3308 -0.3922  1.6020
  914MPD2    N113443   0.133   1.707  12.306  0.0985 -0.3115 -0.3289
  914MPD2    H713444   0.221   1.755  12.288  0.2740 -0.9803 -1.1980
  915MPD2     C13445   2.885   0.968  15.443  0.5854  0.8845 -0.4001
  915MPD2    C113446   2.746   0.990  15.446  0.1866  0.0508 -0.2751
  915MPD2    C213447   2.685   1.060  15.545  0.0912 -0.1888 -0.2843
  915MPD2    C313448   2.761   1.106  15.646 -1.1464  0.3392  0.4635
  915MPD2    C413449   2.903   1.092  15.645 -0.0307  0.3721  0.2433
  915MPD2    C513450   2.960   1.022  15.542  0.1663 -0.4488 -0.6176
  915MPD2     H13451   2.578   1.078  15.547 -0.1306 -1.3841 -1.9016
  915MPD2    H113452   2.971   1.128  15.722 -1.0487  3.1268 -0.1162
  915MPD2    H213453   2.929   0.907  15.365 -0.4925 -0.0967 -0.2514
  915MPD2    H313454   3.067   1.005  15.553  0.1450 -0.0224  0.2844
  915MPD2     N13455   2.693   1.170  15.753 -0.0985  0.2513  0.5703
  915MPD2    H513456   2.593   1.164  15.770 -0.2355 -3.5712 -1.3992
  915MPD2    N113457   2.676   0.938  15.337  0.3173  0.2528  0.1882
  915MPD2    H713458   2.730   0.885  15.270 -0.8651 -0.3718 -0.2740
  916MPD2     C13459   0.707   4.024  15.594 -0.3644 -0.5470 -0.5194
  916MPD2    C113460   0.730   3.920  15.687  0.2150  0.1033 -0.4141
  916MPD2    C213461   0.827   3.826  15.649 -0.0625 -0.1393  0.7907
  916MPD2    C313462   0.897   3.834  15.533 -0.4293  0.4226  0.8137
  916MPD2    C413463   0.871   3.943  15.450  0.1784 -0.1051 -0.2591
  916MPD2    C513464   0.769   4.028  15.482 -0.2000 -0.2010  0.3837
  916MPD2     H13465   0.847   3.742  15.715 -0.7788 -1.8366 -1.1274
  916MPD2    H113466   0.917   3.950  15.352  1.1474 -2.0809  0.0528
  916MPD2    H213467   0.637   4.106  15.610  1.5009  1.2152 -1.3880
  916MPD2    H313468   0.746   4.105  15.409 -0.6692  0.3234  1.0972
  916MPD2     N13469   0.995   3.733  15.515  0.1325 -0.5230 -0.0761
  916MPD2    H513470   1.010   3.659  15.582 -1.9964 -1.4893 -0.6480
  916MPD2    N113471   0.652   3.915  15.810 -0.3790  0.7041 -0.1866
  916MPD2    H713472   0.571   3.977  15.815 -0.3124  0.7450  0.3664
  917MPD2     C13473   0.491   1.758  11.395  0.5704 -0.1061  0.2011
  917MPD2    C113474   0.483   1.835  11.509  0.0840 -0.0758  0.1667
  917MPD2    C213475   0.525   1.967  11.508  0.1211  0.0736  0.6876
  917MPD2    C313476   0.592   2.011  11.397  0.0604 -0.5192  0.0183
  917MPD2    C413477   0.598   1.940  11.282  0.3151 -0.3113  0.2503
  917MPD2    C513478   0.548   1.815  11.282  0.5092  0.5146 -0.1314
  917MPD2     H13479   0.521   2.025  11.600  2.1340  0.9263  0.2300
  917MPD2    H113480   0.636   1.983  11.190 -0.1531 -1.1196 -0.3291
  917MPD2    H213481   0.461   1.654  11.387  3.0439 -0.7761 -0.3922
  917MPD2    H313482   0.536   1.765  11.186 -0.5814 -0.5314  0.5509
  917MPD2     N13483   0.666   2.134  11.400  0.3025  0.0097 -0.5745
  917MPD2    H513484   0.709   2.160  11.313 -1.2211 -2.2014 -1.9964
  917MPD2    N113485   0.445   1.773  11.636 -0.4096  0.4348 -0.1759
  917MPD2    H713486   0.457   1.672  11.643 -0.1209  0.4871  0.0709
  918MPD2     C13487   0.740   2.213  12.457 -0.3607  1.4442 -0.7544
  918MPD2    C113488   0.806   2.204  12.332  0.7174  0.0544 -0.6495
  918MPD2    C213489   0.756   2.114  12.242  0.3411 -0.2237  0.0642
  918MPD2    C313490   0.661   2.025  12.283 -0.3578  0.3157 -0.0171
  918MPD2    C413491   0.580   2.050  12.399  0.1557  0.2115 -0.0096
  918MPD2    C513492   0.634   2.135  12.487 -0.0364  0.3952 -0.2561
  918MPD2     H13493   0.806   2.089  12.149 -0.4018 -0.6638 -0.2125
  918MPD2    H113494   0.506   1.978  12.432 -0.4028  0.1665 -1.3671
  918MPD2    H213495   0.768   2.271  12.544 -0.5124 -1.6586  1.3708
  918MPD2    H313496   0.588   2.136  12.585 -0.0589  0.4884 -0.2676
  918MPD2     N13497   0.628   1.922  12.196 -0.6762  0.1575 -0.1170
  918MPD2    H513498   0.675   1.924  12.106  0.2231 -0.9254  0.3323
  918MPD2    N113499   0.933   2.266  12.308 -0.4113 -0.1203  0.2813
  918MPD2    H713500   0.980   2.237  12.223 -1.9049 -1.8636  0.0646
  919MPD2     C13501   1.497   1.201  11.958  0.4054 -0.3920 -0.2655
  919MPD2    C113502   1.457   1.098  11.868 -0.2933 -0.5455 -0.0535
  919MPD2    C213503   1.414   1.138  11.739  0.1135  0.0046  0.2361
  919MPD2    C313504   1.419   1.267  11.698 -0.1734  0.6303  0.5425
  919MPD2    C413505   1.473   1.363  11.784 -0.0107  0.1182 -0.2612
  919MPD2    C513506   1.504   1.329  11.912 -0.4604 -0.1567 -0.8589
  919MPD2     H13507   1.367   1.060  11.680 -0.2794 -0.2853  0.9236
  919MPD2    H113508   1.481   1.470  11.770  0.2002 -0.1624 -2.2339
  919MPD2    H213509   1.534   1.175  12.056 -0.5500  1.9857  0.6978
  919MPD2    H313510   1.528   1.404  11.987  1.0419 -0.5510 -0.9475
  919MPD2     N13511   1.379   1.319  11.572 -0.0763  0.2035  0.6287
  919MPD2    H513512   1.412   1.414  11.559 -0.6583  0.4450  0.9322
  919MPD2    N113513   1.457   0.960  11.888  0.2393  0.8617 -0.0022
  919MPD2    H713514   1.433   0.903  11.807  0.2849  0.2014  0.4414
  920MPD2     C13515   1.105   1.896  10.776 -0.1274 -0.2917 -0.8247
  920MPD2    C113516   1.078   1.767  10.740 -0.4006  0.5348  0.1144
  920MPD2    C213517   1.155   1.664  10.794 -0.8049 -0.5544  0.5013
  920MPD2    C313518   1.228   1.680  10.909  0.0769  0.6248  0.3567
  920MPD2    C413519   1.232   1.810  10.966  0.0108  0.2435  0.1229
  920MPD2    C513520   1.179   1.910  10.891 -0.4644  0.7456  0.0553
  920MPD2     H13521   1.147   1.570  10.742 -2.9614 -1.6200  2.7738
  920MPD2    H113522   1.294   1.832  11.053 -2.4699 -0.1606  1.9788
  920MPD2    H213523   1.067   1.982  10.721 -0.7918  0.5654  0.9720
  920MPD2    H313524   1.202   2.013  10.915  0.4082  0.0173  2.3336
  920MPD2     N13525   1.280   1.562  10.974  0.7999 -0.6749 -0.7194
  920MPD2    H513526   1.256   1.473  10.932  0.3281 -1.0087  0.2576
  920MPD2    N113527   0.980   1.738  10.641  0.4596  0.1533 -0.0755
  920MPD2    H713528   0.960   1.641  10.622  2.8792 -0.3911  0.2058
  921MPD2     C13529   2.660   4.314  16.874  0.1119 -0.1440 -0.0970
  921MPD2    C113530   2.714   4.309  16.746 -0.0798 -0.1459 -0.5639
  921MPD2    C213531   2.636   4.272  16.640  0.1907  0.0276  0.1576
  921MPD2    C313532   2.508   4.219  16.653  0.3198 -0.0811  0.0285
  921MPD2    C413533   2.454   4.218  16.782  0.3825 -0.3179  0.0955
  921MPD2    C513534   2.534   4.270  16.882 -0.8688 -0.4124 -0.2824
  921MPD2     H13535   2.688   4.266  16.545 -1.5394 -0.0810 -0.7895
  921MPD2    H113536   2.350   4.195  16.804  1.0315 -0.1569  3.2506
  921MPD2    H213537   2.712   4.335  16.967  0.3669  0.4245 -0.3743
  921MPD2    H313538   2.485   4.256  16.978  0.2173  0.7786  0.4433
  921MPD2     N13539   2.430   4.155  16.553  0.2329 -0.0396 -0.4795
  921MPD2    H513540   2.346   4.114  16.593  2.7954 -3.3802  1.4703
  921MPD2    N113541   2.851   4.345  16.733  0.1844 -0.0394  0.0288
  921MPD2    H713542   2.908   4.359  16.815  0.4501 -2.0222  0.1856
  922MPD2     C13543   3.364   2.583   0.307 -0.1679 -0.0365  0.0579
  922MPD2    C113544   3.269   2.673   0.265 -0.2958  0.3491  0.2026
  922MPD2    C213545   3.185   2.646   0.163  0.0604 -0.8422 -0.3358
  922MPD2    C313546   3.212   2.529   0.090  0.6205 -0.3883 -0.8197
  922MPD2    C413547   3.316   2.444   0.125  0.2173 -0.0311 -0.2866
  922MPD2    C513548   3.404   2.475   0.230  0.7139  0.0516 -0.3624
  922MPD2     H13549   3.100   2.707   0.133  0.5463 -0.2494 -0.4939
  922MPD2    H113550   3.341   2.351   0.075  0.3380  1.0416 -2.2323
  922MPD2    H213551   3.427   2.601   0.394  1.5199 -2.6752 -0.6245
  922MPD2    H313552   3.468   2.400   0.275 -1.0325 -0.6833  0.8824
  922MPD2     N13553   3.110   2.496  17.753 -0.0872  0.1742  0.4331
  922MPD2    H513554   3.045   2.572  17.739 -0.1166  0.0276 -0.2311
  922MPD2    N113555   3.258   2.785   0.344  0.0458 -0.6123 -0.3315
  922MPD2    H713556   3.328   2.794   0.417 -1.0097 -0.6920  0.6877
  923MPD2     C13557   4.278   0.029   8.631  0.1213  0.5913  0.4288
  923MPD2    C113558   4.239   0.126   8.719 -0.0197 -0.5219  0.7410
  923MPD2    C213559   4.294   0.130   8.850  0.8132  0.7140  0.0876
  923MPD2    C313560   4.391   0.035   8.883 -0.1481 -0.9086  0.6505
  923MPD2    C413561   4.434   4.680   8.786  0.3937 -1.0623 -1.0049
  923MPD2    C513562   4.382   4.685   8.665 -0.0655  0.0669  0.5247
  923MPD2     H13563   4.262   0.201   8.925 -1.0336 -0.3523  0.3093
  923MPD2    H113564   4.517   4.613   8.808  1.2648  1.4846  3.5458
  923MPD2    H213565   4.229   0.009   8.536  3.0853 -1.4983 -0.6284
  923MPD2    H313566   4.414   4.602   8.604  0.1341 -0.2326  1.0378
  923MPD2     N13567   4.468   0.034   8.999  0.3130  0.1783 -0.1013
  923MPD2    H513568   4.529   4.694   9.016 -0.9921 -0.9369 -0.6575
  923MPD2    N113569   4.134   0.214   8.675 -0.8110  0.2770 -0.9324
  923MPD2    H713570   4.112   0.209   8.576  0.6470  0.6259 -1.2758
  924MPD2     C13571   4.571   2.436  16.616 -0.1984  0.2227 -0.5131
  924MPD2    C113572   4.487   2.547  16.645 -0.1592 -0.4722 -0.3087
  924MPD2    C213573   4.419   2.597  16.532  0.1641 -0.4221 -0.5365
  924MPD2    C313574   4.454   2.560  16.406  0.4937  0.3089  0.2182
  924MPD2    C413575   4.558   2.472  16.383  0.2319  0.3582  0.7354
  924MPD2    C513576   4.601   2.396  16.488  0.3489 -0.1330 -0.0303
  924MPD2     H13577   4.343   2.674  16.543  0.1333 -0.5241 -0.0391
  924MPD2    H113578   4.599   2.451  16.285  0.3807 -1.6534  1.2256
  924MPD2    H213579   4.621   2.381  16.695  1.2663 -0.6620 -2.0433
  924MPD2    H313580   4.675   2.320  16.464 -0.6185 -0.7953 -0.9299
  924MPD2     N13581   4.403   2.626  16.285  0.0506  0.1293 -0.0992
  924MPD2    H513582   4.457   2.618  16.200  1.1634 -0.0006  0.6216
  924MPD2    N113583   4.458   2.605  16.769 -0.0992 -0.0532 -0.5726
  924MPD2    H713584   4.373   2.660  16.774 -0.5813 -0.9237  0.5326
  925MPD2     C13585   3.404   0.743  14.924  0.3313 -0.9039 -0.3419
  925MPD2    C113586   3.323   0.640  14.880 -0.4433  0.1818  0.1864
  925MPD2    C213587   3.277   0.551  14.971  0.5555  0.5056 -0.4856
  925MPD2    C313588   3.302   0.564  15.102  0.0414  0.2117  0.4866
  925MPD2    C413589   3.388   0.664  15.146  0.6269  0.0072 -0.8515
  925MPD2    C513590   3.436   0.750  15.052 -0.0629  0.2876 -0.2034
  925MPD2     H13591   3.221   0.466  14.932 -0.9904  0.5880  1.5683
  925MPD2    H113592   3.413   0.691  15.249  0.7489 -2.2908 -0.2910
  925MPD2    H213593   3.443   0.818  14.857  0.0412  0.4604  1.0267
  925MPD2    H313594   3.509   0.825  15.081  0.7459  0.2074 -2.0696
  925MPD2     N13595   3.277   0.460  15.194  0.0950 -0.9631 -0.5295
  925MPD2    H513596   3.279   0.478  15.294 -0.9277 -0.4576 -0.5995
  925MPD2    N113597   3.281   0.627  14.743  0.4151  0.0495 -0.3007
  925MPD2    H713598   3.217   0.553  14.717  2.1115 -1.3765 -0.3402
  926MPD2     C13599   1.738   3.667  13.663 -0.2303 -0.1976 -0.5242
  926MPD2    C113600   1.749   3.795  13.610  0.3341  0.6388  0.1786
  926MPD2    C213601   1.855   3.816  13.516 -0.0417 -0.5248 -0.0780
  926MPD2    C313602   1.952   3.717  13.481  0.1610  0.4395 -0.3764
  926MPD2    C413603   1.941   3.596  13.548 -0.7416 -0.1320 -0.3254
  926MPD2    C513604   1.831   3.571  13.627  0.6623  0.1223  0.9018
  926MPD2     H13605   1.865   3.915  13.472 -1.9923 -0.5215 -0.4810
  926MPD2    H113606   2.012   3.517  13.526 -1.9527 -1.1584 -0.5631
  926MPD2    H213607   1.656   3.638  13.726  0.7152 -0.2926  0.6562
  926MPD2    H313608   1.821   3.472  13.670  2.4969  0.0368  1.1299
  926MPD2     N13609   2.067   3.741  13.408 -0.2199  0.7136  0.5079
  926MPD2    H513610   2.137   3.668  13.406 -1.8578 -0.8939  2.5303
  926MPD2    N113611   1.679   3.911  13.645  0.3121 -0.1215  0.2619
  926MPD2    H713612   1.701   3.993  13.589 -0.4314  0.6812  1.1396
  927MPD2     C13613   1.824   0.744  17.635  0.1936  0.0944 -0.5795
  927MPD2    C113614   1.766   0.851  17.569 -0.0236  0.5770 -0.1374
  927MPD2    C213615   1.812   0.894  17.447  0.6328 -1.1866  0.0341
  927MPD2    C313616   1.914   0.837  17.383  0.1586 -0.0213 -0.0289
  927MPD2    C413617   1.964   0.725  17.442  0.4565  0.2221  0.5069
  927MPD2    C513618   1.926   0.678  17.565 -0.3575 -0.5619 -0.7035
  927MPD2     H13619   1.774   0.979  17.391  1.3863  0.2326  1.6977
  927MPD2    H113620   2.051   0.670  17.407  0.7195  1.2339 -0.4380
  927MPD2    H213621   1.790   0.700  17.727  0.0598 -2.2138 -1.7357
  927MPD2    H313622   1.968   0.585  17.601  2.1603  1.0006  0.3900
  927MPD2     N13623   1.970   0.904  17.272 -0.4881 -0.3379  0.1815
  927MPD2    H513624   1.928   0.992  17.243 -0.1030 -1.3557 -3.4810
  927MPD2    N113625   1.661   0.913  17.643 -0.6179  0.0379 -0.3105
  927MPD2    H713626   1.655   0.883  17.740 -1.0086  2.4834  0.4262
  928MPD2     C13627   4.210   3.963   0.606 -0.1655  0.5539 -0.3125
  928MPD2    C113628   4.294   4.023   0.699 -0.1460 -0.2723 -0.8089
  928MPD2    C213629   4.420   4.068   0.661 -0.5147  0.2998 -0.4498
  928MPD2    C313630   4.459   4.056   0.530 -0.2035  0.2011 -0.0101
  928MPD2    C413631   4.378   3.987   0.442 -0.1738 -0.0561  0.5715
  928MPD2    C513632   4.248   3.955   0.477 -0.4811  0.0220  0.1627
  928MPD2     H13633   4.490   4.106   0.734 -1.8365  1.8410  0.0388
  928MPD2    H113634   4.409   3.959   0.342 -0.1825  1.7579  0.0586
  928MPD2    H213635   4.108   3.933   0.630 -0.1334  0.6515 -0.0507
  928MPD2    H313636   4.184   3.904   0.406 -2.1479  1.8541  0.3332
  928MPD2     N13637   4.586   4.093   0.475 -0.3977  0.2679 -0.5651
  928MPD2    H513638   4.598   4.086   0.375 -0.7044 -1.4962 -0.4789
  928MPD2    N113639   4.245   4.025   0.829 -0.0985  0.4354 -0.1025
  928MPD2    H713640   4.155   3.980   0.842  0.4312 -1.2641 -2.3093
  929MPD2     C13641   3.740   0.013   9.160  0.7813  0.5586 -0.6294
  929MPD2    C113642   3.691   0.092   9.268  0.5896  0.2688  0.2902
  929MPD2    C213643   3.635   0.215   9.249 -0.8769  0.2541  0.3844
  929MPD2    C313644   3.623   0.255   9.114 -0.1735  0.1447 -0.0949
  929MPD2    C413645   3.684   0.188   9.013  0.8733 -0.5916  0.9219
  929MPD2    C513646   3.755   0.076   9.038  0.3656 -0.2668 -0.5471
  929MPD2     H13647   3.586   0.273   9.327 -0.0001  0.7794  0.5417
  929MPD2    H113648   3.680   0.214   8.908  0.7699  1.1204  1.3372
  929MPD2    H213649   3.786   4.656   9.177  0.7055  0.9018  1.4378
  929MPD2    H313650   3.793   0.024   8.952 -1.6917 -2.1747 -0.3019
  929MPD2     N13651   3.536   0.360   9.071  0.2807  0.5681  0.1000
  929MPD2    H513652   3.512   0.357   8.972 -0.2684 -0.5216  0.2657
  929MPD2    N113653   3.719   0.038   9.397  0.5910 -0.0779  0.3762
  929MPD2    H713654   3.757   4.684   9.407 -0.3945 -0.4427  0.7438
  930MPD2     C13655   1.441   1.593  14.186 -0.3125  0.5792 -0.9746
  930MPD2    C113656   1.578   1.569  14.164 -0.1082 -0.4795  1.0103
  930MPD2    C213657   1.622   1.536  14.036 -0.2161  0.1282  0.0204
  930MPD2    C313658   1.535   1.527  13.932 -0.2884 -0.0630  0.7544
  930MPD2    C413659   1.409   1.571  13.944 -0.2142 -0.0276  0.6859
  930MPD2    C513660   1.360   1.590  14.070 -0.8408 -0.0480 -0.5228
  930MPD2     H13661   1.728   1.515  14.022  0.1669  0.9791  1.6300
  930MPD2    H113662   1.335   1.562  13.865 -0.8308  2.5949  0.9576
  930MPD2    H213663   1.405   1.613  14.286  1.5267  1.4127 -0.4728
  930MPD2    H313664   1.252   1.597  14.080 -0.9520 -0.0957 -1.7149
  930MPD2     N13665   1.578   1.511  13.801  0.3432 -0.6343  0.3876
  930MPD2    H513666   1.506   1.530  13.732  0.1259 -2.6909  0.0727
  930MPD2    N113667   1.664   1.585  14.276  0.1957  0.5308 -0.3326
  930MPD2    H713668   1.621   1.626  14.359  1.9205 -0.5803  1.1105
  931MPD2     C13669   1.112   1.016   0.525 -0.3781 -1.0323  0.5933
  931MPD2    C113670   1.228   0.971   0.476  0.1208  0.5128  0.4347
  931MPD2    C213671   1.326   0.929   0.563 -0.5290  0.1289 -0.2740
  931MPD2    C313672   1.304   0.932   0.700 -0.1695 -0.0066 -0.5739
  931MPD2    C413673   1.173   0.966   0.747 -0.2207  0.0260 -0.0470
  931MPD2    C513674   1.076   1.012   0.661  0.5922  0.1615  0.2061
  931MPD2     H13675   1.427   0.930   0.523 -0.7729 -1.1542 -0.9246
  931MPD2    H113676   1.153   0.969   0.854 -0.6359 -1.4697 -0.0868
  931MPD2    H213677   1.039   1.046   0.452  2.3510  0.8208 -1.3725
  931MPD2    H313678   0.980   1.056   0.684  0.0921  0.3100 -2.2559
  931MPD2     N13679   1.394   0.910   0.807 -0.5155  0.4733 -0.5391
  931MPD2    H513680   1.351   0.929   0.897  1.5146  4.6543 -0.4666
  931MPD2    N113681   1.258   1.020   0.346  0.5926 -0.5413  0.1803
  931MPD2    H713682   1.200   1.090   0.301  2.7498  2.3395  1.8988
  932MPD2     C13683   3.042   0.444  10.634  0.1887  0.2480 -0.0209
  932MPD2    C113684   3.132   0.479  10.735 -0.0564 -0.2881 -0.9693
  932MPD2    C213685   3.164   0.385  10.835  0.8977  0.7720 -0.4737
  932MPD2    C313686   3.091   0.260  10.836 -0.4679  0.5294 -0.4226
  932MPD2    C413687   3.012   0.226  10.729 -0.4332  0.6929  0.1919
  932MPD2    C513688   2.981   0.321  10.630  0.1133  0.1341  0.4436
  932MPD2     H13689   3.234   0.402  10.915  0.4403 -0.1357  0.1220
  932MPD2    H113690   2.973   0.126  10.716 -0.7105  0.9402 -0.8444
  932MPD2    H213691   3.024   0.510  10.550  1.9127  1.7784  0.8163
  932MPD2    H313692   2.921   0.301  10.542 -0.2215  1.8188  0.2817
  932MPD2     N13693   3.115   0.161  10.927 -0.0656 -0.1618  0.3622
  932MPD2    H513694   3.072   0.072  10.905 -0.0266 -0.2903  0.7983
  932MPD2    N113695   3.207   0.599  10.742 -0.0066  1.0209  0.0514
  932MPD2    H713696   3.275   0.610  10.816 -1.2253  0.6335  1.2136
  933MPD2     C13697   3.657   3.938   1.402 -0.4232  0.2077 -0.0902
  933MPD2    C113698   3.683   4.016   1.294 -0.3646  0.0432 -0.1447
  933MPD2    C213699   3.593   4.042   1.194  0.5351  0.0449 -0.2021
  933MPD2    C313700   3.460   3.998   1.212  0.2315  0.4046 -0.5174
  933MPD2    C413701   3.430   3.919   1.328 -0.4017 -0.5012  0.4951
  933MPD2    C513702   3.525   3.892   1.419  0.4606 -0.9607 -0.0921
  933MPD2     H13703   3.622   4.102   1.108  0.7586  0.5122  0.1962
  933MPD2    H113704   3.328   3.887   1.349  0.1402 -2.6905 -0.1866
  933MPD2    H213705   3.735   3.910   1.471 -0.2041  2.0358  0.4074
  933MPD2    H313706   3.496   3.840   1.509 -0.3316  1.0192  0.8005
  933MPD2     N13707   3.379   4.013   1.101  0.2639  0.4811  0.7523
  933MPD2    H513708   3.427   4.038   1.015 -1.0132  0.5085  0.0497
  933MPD2    N113709   3.817   4.065   1.289 -0.0487  0.1356 -0.1118
  933MPD2    H713710   3.879   4.053   1.369 -2.2999 -3.1156  1.1263
  934MPD2     C13711   1.145   2.418   1.669 -0.2275  0.1724 -0.3346
  934MPD2    C113712   1.195   2.287   1.666  0.1984 -0.8516  0.0930
  934MPD2    C213713   1.132   2.191   1.585  0.5329  0.2051 -0.2787
  934MPD2    C313714   1.022   2.221   1.502  0.0723  0.6498 -0.1664
  934MPD2    C413715   0.979   2.353   1.507 -0.6772  0.3394  0.0558
  934MPD2    C513716   1.031   2.447   1.594  0.6357 -0.5387 -0.0494
  934MPD2     H13717   1.174   2.092   1.573  1.2100  0.4997 -0.3577
  934MPD2    H113718   0.885   2.387   1.465 -1.2252 -0.5149  0.5887
  934MPD2    H213719   1.168   2.489   1.748  0.4601  1.1735 -1.4412
  934MPD2    H313720   0.993   2.546   1.614 -3.2201 -1.6907 -1.5364
  934MPD2     N13721   0.940   2.124   1.437 -0.1276  0.1410 -0.4701
  934MPD2    H513722   0.854   2.155   1.392 -1.8903 -0.7368  2.3056
  934MPD2    N113723   1.309   2.239   1.738  0.3110 -0.4389 -0.4143
  934MPD2    H713724   1.342   2.146   1.714 -0.7152 -1.2969  1.4576
  935MPD2     C13725   0.984   1.088   1.375  0.1102 -0.5357  0.5898
  935MPD2    C113726   0.930   1.135   1.263  1.1713  0.1964  0.1698
  935MPD2    C213727   0.892   1.272   1.256 -0.3849  0.2469 -0.3126
  935MPD2    C313728   0.907   1.355   1.362  0.3790 -0.2285 -0.7140
  935MPD2    C413729   0.969   1.303   1.474 -0.2446 -0.0588  0.9433
  935MPD2    C513730   1.012   1.176   1.480 -0.0508  0.0088 -0.0763
  935MPD2     H13731   0.857   1.304   1.159  1.6524 -1.8737 -1.7580
  935MPD2    H113732   0.978   1.368   1.560  1.6881 -0.6205  1.1660
  935MPD2    H213733   0.998   0.981   1.384 -0.6813 -0.5898  1.2203
  935MPD2    H313734   1.060   1.144   1.572  1.1306 -0.6328 -0.9107
  935MPD2     N13735   0.895   1.495   1.356 -0.4864  0.3082 -0.1303
  935MPD2    H513736   0.909   1.550   1.440  0.4308  0.8912 -0.6652
  935MPD2    N113737   0.909   1.037   1.156 -0.0896 -0.0987 -0.0431
  935MPD2    H713738   0.912   0.938   1.173  0.1658  0.0420  0.7208
  936MPD2     C13739   3.586   4.009  12.508  0.0015  0.7125 -0.3125
  936MPD2    C113740   3.709   3.980  12.559 -0.0519 -0.2071 -0.0842
  936MPD2    C213741   3.799   4.086  12.584  0.3319  0.0655  0.5113
  936MPD2    C313742   3.751   4.214  12.568 -0.7096 -0.6666 -0.0036
  936MPD2    C413743   3.627   4.243  12.525  0.2759  0.5212 -0.4104
  936MPD2    C513744   3.543   4.143  12.494 -0.0341 -0.4055 -0.3344
  936MPD2     H13745   3.903   4.070  12.610  1.2967  0.3821 -3.1487
  936MPD2    H113746   3.589   4.343  12.510 -1.0799  0.6666  4.1061
  936MPD2    H213747   3.512   3.935  12.480  0.8481 -0.5890  0.8748
  936MPD2    H313748   3.442   4.167  12.465 -0.0278  0.7155  0.5567
  936MPD2     N13749   3.829   4.330  12.601 -0.8392  0.5110 -0.1322
  936MPD2    H513750   3.793   4.421  12.626  1.5915  1.7730 -1.1741
  936MPD2    N113751   3.756   3.849  12.585 -0.2746  0.2880  0.1415
  936MPD2    H713752   3.850   3.839  12.622  0.5330 -3.2904 -2.8289
  937MPD2     C13753   1.602   0.374  11.513  0.4443  0.2132 -0.5484
  937MPD2    C113754   1.530   0.490  11.515  0.0656 -0.3880  0.5304
  937MPD2    C213755   1.541   0.576  11.408  0.2695 -0.4034  0.4729
  937MPD2    C313756   1.616   0.536  11.296  0.0992  0.5831  0.2345
  937MPD2    C413757   1.688   0.422  11.297  0.1935  0.1010 -0.2736
  937MPD2    C513758   1.679   0.340  11.407  0.3248  0.0377  0.2625
  937MPD2     H13759   1.483   0.668  11.408  1.9533  0.6619  0.1786
  937MPD2    H113760   1.760   0.395  11.221  0.7879  2.9061 -0.7027
  937MPD2    H213761   1.603   0.305  11.597  0.4231  2.0069  0.9369
  937MPD2    H313762   1.739   0.250  11.416 -1.1346 -0.8587  0.9845
  937MPD2     N13763   1.614   0.623  11.183  0.0766 -0.4280  0.3247
  937MPD2    H513764   1.594   0.721  11.202  1.5589 -0.3823  1.6331
  937MPD2    N113765   1.479   0.547  11.635 -0.3282  0.1342  0.0882
  937MPD2    H713766   1.434   0.638  11.634 -2.7112 -1.0731 -2.2897
  938MPD2     C13767   4.673   1.445   0.404 -0.4322  1.1921 -0.1393
  938MPD2    C113768   4.724   1.486   0.527  0.3823  0.8549  0.6281
  938MPD2    C213769   4.729   1.385   0.625  0.4100 -0.0497 -0.1010
  938MPD2    C313770   4.690   1.249   0.603  0.2117 -0.0841 -0.0073
  938MPD2    C413771   4.635   1.214   0.479 -0.5152  0.3811 -0.2639
  938MPD2    C513772   4.626   1.312   0.380  0.1846  0.2032 -0.3740
  938MPD2     H13773   0.035   1.412   0.720 -3.7689  1.5931  1.4363
  938MPD2    H113774   4.613   1.111   0.451  1.8859  0.3103 -1.9052
  938MPD2    H213775   4.673   1.514   0.319  0.6109 -0.0116 -1.1203
  938MPD2    H313776   4.592   1.293   0.278 -0.1827  0.4938 -0.3065
  938MPD2     N13777   4.698   1.152   0.703 -0.4584  0.1994  0.6025
  938MPD2    H513778   4.658   1.060   0.689 -0.6237  0.3859 -0.1640
  938MPD2    N113779   0.048   1.612   0.539  0.3729 -0.0160 -0.2224
  938MPD2    H713780   0.111   1.628   0.618  1.8393  0.0180 -1.3963
  939MPD2     C13781   1.286   2.672   1.333 -0.0461  0.6019  0.0016
  939MPD2    C113782   1.416   2.683   1.387 -0.3679  0.4988  1.0252
  939MPD2    C213783   1.526   2.643   1.311 -0.4866  0.2445 -0.1556
  939MPD2    C313784   1.508   2.582   1.186 -0.8391  0.0183 -0.7730
  939MPD2    C413785   1.374   2.578   1.133  0.6275 -0.0294  0.0385
  939MPD2    C513786   1.266   2.616   1.213 -0.2496 -0.5133 -0.5232
  939MPD2     H13787   1.626   2.646   1.354 -0.4746  1.0905 -0.2269
  939MPD2    H113788   1.342   2.524   1.045  2.7168 -2.2017  0.6037
  939MPD2    H213789   1.203   2.705   1.394  0.0369  0.2440  0.3064
  939MPD2    H313790   1.162   2.607   1.184 -0.4494 -1.6532  0.5392
  939MPD2     N13791   1.625   2.533   1.114  0.3652  0.2286 -0.4227
  939MPD2    H513792   1.717   2.564   1.144  1.0768 -0.2995 -2.0954
  939MPD2    N113793   1.420   2.747   1.513  0.2753 -0.1123  0.1175
  939MPD2    H713794   1.332   2.786   1.547 -0.2500 -0.7547 -0.5258
  940MPD2     C13795   4.715   3.819  13.578  0.2044  0.0644  0.3183
  940MPD2    C113796   4.589   3.769  13.554 -0.4592 -0.0036  0.6756
  940MPD2    C213797   4.548   3.754  13.420  0.2379 -0.6191  0.3327
  940MPD2    C313798   4.640   3.790  13.317  0.4207 -0.1319 -0.5969
  940MPD2    C413799   0.024   3.842  13.345  0.6715  0.3558  0.1193
  940MPD2    C513800   0.054   3.853  13.476  0.2444  0.1508 -0.3410
  940MPD2     H13801   4.448   3.722  13.392 -0.0753 -0.3414  1.1252
  940MPD2    H113802   0.091   3.873  13.266  0.0412 -2.0347 -1.3504
  940MPD2    H213803   0.003   3.839  13.680  1.3384  0.2611 -0.0359
  940MPD2    H313804   0.151   3.896  13.501  1.2096 -1.4939 -1.1999
  940MPD2     N13805   4.601   3.786  13.184  0.3788  0.0790 -0.7443
  940MPD2    H513806   4.661   3.843  13.125  0.8013  0.4656  0.0588
  940MPD2    N113807   4.495   3.738  13.651 -0.4231 -0.1759  0.5436
  940MPD2    H713808   4.410   3.697  13.615 -0.0442  0.7262 -1.3433
  941MPD2     C13809   3.003   3.192   9.776 -0.6481  0.2152  0.1004
  941MPD2    C113810   3.120   3.164   9.852  0.1357  0.0978  0.1916
  941MPD2    C213811   3.104   3.098   9.975  0.2224  0.0103 -0.4005
  941MPD2    C313812   2.982   3.049  10.006 -0.6586 -0.2251  0.1432
  941MPD2    C413813   2.867   3.073   9.936 -0.8996 -0.4234  0.8032
  941MPD2    C513814   2.878   3.150   9.819  0.6634  0.3969 -0.5682
  941MPD2     H13815   3.184   3.085  10.047 -1.1069 -0.8281  0.9297
  941MPD2    H113816   2.771   3.034   9.968 -1.3161  0.8813  1.1552
  941MPD2    H213817   2.994   3.255   9.689 -0.7540  0.3860  0.2339
  941MPD2    H313818   2.789   3.169   9.759 -0.0661 -2.7544 -0.4944
  941MPD2     N13819   2.951   2.988  10.130 -0.5061  0.4570 -0.7110
  941MPD2    H513820   2.852   2.975  10.149 -0.8772 -0.0528 -2.9707
  941MPD2    N113821   3.253   3.222   9.832 -0.0612 -0.2512 -0.3116
  941MPD2    H713822   3.318   3.210   9.908 -0.9752  0.9005  0.6536
  942MPD2     C13823   3.009   0.079   9.291  0.8254  0.6201  0.1678
  942MPD2    C113824   2.917   0.088   9.191  0.3413  0.3557  0.7329
  942MPD2    C213825   2.954   0.123   9.067 -0.2865  0.1052  0.0388
  942MPD2    C313826   3.091   0.146   9.035  0.4268  1.1523 -0.1717
  942MPD2    C413827   3.182   0.130   9.139 -0.0537  0.0965 -0.0635
  942MPD2    C513828   3.146   0.104   9.271 -0.0878 -0.3580 -0.2996
  942MPD2     H13829   2.876   0.145   8.995  0.2085  0.5454 -0.3678
  942MPD2    H113830   3.288   0.139   9.121 -0.0602  0.8047  0.2554
  942MPD2    H213831   2.982   0.043   9.390  1.5912 -1.1319 -0.2659
  942MPD2    H313832   3.221   0.105   9.349 -0.3418 -1.6494 -0.0341
  942MPD2     N13833   3.133   0.197   8.916 -0.4482 -0.2497  0.0213
  942MPD2    H513834   3.233   0.213   8.913 -0.7473  1.8866  1.3618
  942MPD2    N113835   2.783   0.049   9.207 -0.7441  0.0525  0.5099
  942MPD2    H713836   2.737   0.027   9.119 -1.0089  0.3917  0.5628
  943MPD2     C13837   1.775   2.912   9.881  0.2222 -0.1075  0.1428
  943MPD2    C113838   1.723   2.831   9.982  0.6713 -0.2265 -0.3921
  943MPD2    C213839   1.741   2.870  10.112 -0.2399 -0.3641 -0.1170
  943MPD2    C313840   1.811   2.989  10.140 -0.0104 -0.2707 -0.4914
  943MPD2    C413841   1.860   3.065  10.038 -0.2749  1.1886  0.0080
  943MPD2    C513842   1.844   3.025   9.913 -0.9046 -1.1266 -1.0078
  943MPD2     H13843   1.702   2.809  10.193  3.1803 -3.3987 -0.7916
  943MPD2    H113844   1.916   3.156  10.054  2.3527 -0.4013 -0.1134
  943MPD2    H213845   1.762   2.891   9.775 -0.7266 -2.2380  0.6799
  943MPD2    H313846   1.853   3.094   9.830 -0.5707 -0.6640 -0.5808
  943MPD2     N13847   1.837   3.031  10.273  0.1734 -0.1355  0.3195
  943MPD2    H513848   1.927   3.075  10.288  0.2040 -0.0540 -0.0916
  943MPD2    N113849   1.648   2.717   9.944  0.2958  0.2751  0.0348
  943MPD2    H713850   1.649   2.691   9.846 -1.6117  0.6445 -0.0745
  944MPD2     C13851   1.982   1.813  10.770 -0.0004 -0.3300 -0.7009
  944MPD2    C113852   2.080   1.795  10.866  0.0645 -0.3406  0.0944
  944MPD2    C213853   2.063   1.842  10.997  0.6426  0.1326 -0.0833
  944MPD2    C313854   1.945   1.900  11.034  0.7162  0.3454 -0.0105
  944MPD2    C413855   1.845   1.921  10.942 -0.3902 -0.5983 -0.1050
  944MPD2    C513856   1.868   1.880  10.811 -0.5341  0.8917  0.4669
  944MPD2     H13857   2.137   1.810  11.069  0.9127  1.4129  0.2047
  944MPD2    H113858   1.744   1.945  10.970  0.0061  2.0539 -0.9966
  944MPD2    H213859   1.994   1.779  10.667 -2.4571  0.7951 -1.3483
  944MPD2    H313860   1.785   1.896  10.744 -0.6767 -1.7102 -0.0074
  944MPD2     N13861   1.928   1.932  11.170 -0.0241  0.0402 -0.2908
  944MPD2    H513862   2.011   1.908  11.224 -0.3436 -2.8061 -1.0651
  944MPD2    N113863   2.200   1.731  10.821  0.1679 -0.7026  0.3360
  944MPD2    H713864   2.197   1.690  10.728 -1.5334 -2.9082  1.3595
    1TMC1    C113865   1.617   3.013  14.983  0.9848 -0.2118  0.3259
    1TMC1    C213866   1.548   3.062  15.090  0.0538  0.6595 -1.2702
    1TMC1    C313867   1.627   3.114  15.192 -0.4036  0.9433 -0.2015
    1TMC1    C413868   1.751   3.014  14.975 -0.4205  0.4097  0.0232
    1TMC1    C513869   1.817   3.063  15.078 -0.0494  0.4223 -0.5036
    1TMC1    C613870   1.760   3.120  15.190  0.3812  0.5646  0.5098
    1TMC1     C13871   1.555   2.994  14.855 -0.3695 -0.4624  0.2576
    1TMC1     O13872   1.627   2.950  14.766  0.2362 -0.2988  0.4057
    1TMC1     H13873   1.440   3.069  15.094  0.1950  1.8817  0.2768
    1TMC1    H113874   1.799   2.981  14.883  0.5825  1.0627  0.3186
    1TMC1    H213875   1.814   3.143  15.281  2.0712 -1.9304  0.1443
    1TMC1    C713876   1.954   3.027  15.077 -0.7370  0.1225  0.3031
    1TMC1    C813877   1.566   3.155  15.322 -0.0201 -0.2889 -0.2706
    1TMC1    O113878   2.026   3.051  14.979 -0.0400 -0.1998  0.4086
    1TMC1    O213879   1.613   3.231  15.404  0.0231 -0.0136 -0.1061
    1TMC1    O313880   1.989   3.004  15.205 -0.3638 -0.8913  0.2802
    1TMC1    H313881   1.918   2.970  15.264 -0.8872 -0.7787 -0.2865
    1TMC1    O513882   1.482   3.051  15.351 -0.1970  0.0399 -0.2611
    1TMC1    H513883   1.443   3.011  15.271 -3.5417  0.0212  1.4009
    2MPD2     C13884   1.193   3.111  14.489 -0.2961 -0.1505 -0.1192
    2MPD2    C113885   1.143   3.138  14.616  0.0843  0.3442  0.1764
    2MPD2    C213886   1.229   3.115  14.723 -0.1727  0.3529  0.2008
    2MPD2    C313887   1.354   3.054  14.719 -0.4030  0.6759  0.3809
    2MPD2    C413888   1.402   3.038  14.590 -0.3884 -0.8784 -0.2066
    2MPD2    C513889   1.321   3.054  14.482  0.1568  0.1005  0.8861
    2MPD2     H13890   1.197   3.151  14.820 -2.1055  2.1104 -1.0940
    2MPD2    H113891   1.500   2.992  14.582 -0.8114 -1.6512 -0.9039
    2MPD2    H213892   1.137   3.125  14.397 -2.5241  0.5892  1.3266
    2MPD2    H313893   1.363   3.025  14.386 -1.1273  3.5346 -0.7056
    2MPD2     N13894   1.422   3.040  14.840 -0.1548  0.2039  0.6137
    2MPD2    H513895   1.371   3.067  14.924  0.1662  2.5246  0.0641
    2MPD2    N113896   1.019   3.197  14.626  0.4019  0.6437 -0.5332
    2MPD2    H713897   0.975   3.220  14.537 -0.0553 -1.8680 -0.9576
    3TMC2    C113898   0.811   3.262  14.711  0.5889 -0.2740 -0.2909
    3TMC2    C213899   0.712   3.215  14.793 -0.6450  0.0643  0.0927
    3TMC2    C313900   0.580   3.223  14.755 -0.5133  0.3184 -0.1499
    3TMC2    C413901   0.783   3.322  14.593 -0.3255 -0.3427 -0.8144
    3TMC2    C513902   0.654   3.336  14.556  0.7922 -0.0297  0.2214
    3TMC2    C613903   0.557   3.281  14.634  0.2925  0.7081  0.5756
    3TMC2     C13904   0.947   3.213  14.734 -0.0599 -0.3166  0.0871
    3TMC2     O13905   0.971   3.191  14.854 -0.7619  0.1550 -0.5875
    3TMC2     H13906   0.746   3.166  14.883  0.9891  0.9268 -0.0683
    3TMC2    H113907   0.860   3.365  14.530 -1.9648  1.2292 -1.7393
    3TMC2    H213908   0.451   3.296  14.613  0.3938  0.1805 -0.3102
    3TMC2    C713909   0.630   3.363  14.412  0.2186  0.9715  0.6381
    3TMC2    C813910   0.503   3.108  14.792  0.1779  0.4387 -0.8863
    3TMC2    O113911   0.724   3.337  14.336 -0.0641 -0.3263 -0.3545
    3TMC2    O213912   0.557   3.001  14.817 -0.3977 -0.0367 -0.1264
    3TMC2    O513913   0.377   3.131  14.757  0.0386 -0.2139  0.4490
    3TMC2    H513914   0.352   3.224  14.777 -1.5293 -0.4077 -0.6620
    4TMC2    C113915   4.594   3.915  14.109  0.4046  0.0530 -0.3244
    4TMC2    C213916   4.673   3.995  14.040  0.4123  0.2873  0.6754
    4TMC2    C313917   0.067   3.961  14.039 -1.2398  0.0672 -0.0382
    4TMC2    C413918   4.652   3.806  14.184 -0.0483 -0.7133  0.5037
    4TMC2    C513919   0.043   3.774  14.160 -0.0534 -0.3884  0.1146
    4TMC2    C613920   0.124   3.853  14.096 -0.2008  0.3996 -0.0170
    4TMC2     C13921   4.465   3.973  14.147  0.5318  0.5017  0.0900
    4TMC2     O13922   4.410   3.942  14.253  0.2467  0.1778  0.6886
    4TMC2     H13923   4.639   4.087  13.994 -1.2281 -0.2719  0.7762
    4TMC2    H113924   4.585   3.736  14.231 -1.3161  0.9139  1.1230
    4TMC2    H213925   0.231   3.835  14.096 -0.6300 -2.2298  0.0638
    4TMC2    C713926   0.086   3.641  14.189 -0.2843 -0.9076 -0.4180
    4TMC2    C813927   0.152   4.012  13.934 -0.3099  0.3702 -0.4871
    4TMC2    O113928   0.072   3.608  14.304  0.6785  0.1241  0.0278
    4TMC2    O213929   0.270   4.031  13.950  0.2490  0.2432 -0.2562
    4TMC2    O513930   0.086   4.049  13.820  0.4422 -0.1146  0.0090
    4TMC2    H513931   4.728   4.048  13.820  0.4472 -0.1767 -1.4790
    5MPD2     C13932   4.069   4.287  14.057  0.3798 -0.2564 -0.0607
    5MPD2    C113933   4.133   4.270  13.939 -0.1642  0.4151 -0.4223
    5MPD2    C213934   4.251   4.199  13.945  0.3954 -0.2518 -0.0904
    5MPD2    C313935   4.299   4.139  14.061 -0.4075  0.4847 -0.0018
    5MPD2    C413936   4.220   4.152  14.172 -0.5391  0.5586  0.8050
    5MPD2    C513937   4.111   4.223  14.171 -0.3598  0.3389 -0.4025
    5MPD2     H13938   4.303   4.176  13.852 -0.8720  0.0453 -0.8631
    5MPD2    H113939   4.239   4.103  14.267  0.4179 -1.3433 -0.3773
    5MPD2    H213940   3.983   4.353  14.052  0.9377  0.4561 -0.2294
    5MPD2    H313941   4.051   4.240  14.260 -1.0651  0.5992 -0.9248
    5MPD2     N13942   4.416   4.060  14.048  0.1056 -0.2007 -0.4003
    5MPD2    H513943   4.462   4.067  13.958  0.8701 -0.1303 -0.0052
    5MPD2    N113944   4.079   4.326  13.824  0.2071  0.7477 -0.6830
    5MPD2    H713945   3.995   4.383  13.833 -0.9993 -0.8289 -2.0994
    6MPD1     C13946   3.747   1.237  13.193 -0.2011 -0.1627 -0.6403
    6MPD1    C113947   3.858   1.157  13.167 -0.1038 -0.1666  0.0018
    6MPD1    C213948   3.837   1.021  13.157 -0.0987  0.1054 -0.3423
    6MPD1    C313949   3.708   0.971  13.156  0.3959 -0.0890 -0.0271
    6MPD1    C413950   3.605   1.056  13.159 -0.0106  0.1069 -0.4599
    6MPD1    C513951   3.625   1.191  13.168  0.4668  0.6774 -0.2813
    6MPD1     H13952   3.918   0.950  13.148  0.4402  0.8714 -1.6568
    6MPD1    H113953   3.504   1.023  13.139 -0.3052  0.1709  0.9268
    6MPD1    H213954   3.762   1.343  13.212 -1.2000 -0.0328 -0.5788
    6MPD1    H313955   3.534   1.249  13.163 -1.1771 -1.8027  1.2816
    6MPD1     N13956   3.676   0.838  13.136  0.1008  0.0655  0.2974
    6MPD1    H513957   3.578   0.818  13.121  0.1414  0.8364 -0.9167
    6MPD1    N113958   3.981   1.212  13.190 -0.2810 -0.2763 -0.0543
    6MPD1    H613959   4.047   1.170  13.125  0.0034 -1.6842  1.1411
    6MPD1    H713960   3.977   1.309  13.159 -0.6671 -0.9614 -2.1646
    7MPD2     C13961   3.551   0.243  13.605 -0.1871  0.4138 -0.5037
    7MPD2    C113962   3.597   0.190  13.487 -0.3591 -0.0737  0.5577
    7MPD2    C213963   3.657   0.063  13.492 -0.0242 -0.0080 -0.3637
    7MPD2    C313964   3.682   4.732  13.609 -0.8524 -0.6947 -0.5530
    7MPD2    C413965   3.626   0.046  13.725 -0.4455 -0.2814 -0.3598
    7MPD2    C513966   3.566   0.168  13.721 -0.1425 -0.0112 -0.3514
    7MPD2     H13967   3.687   0.026  13.395  0.7006 -1.3839  0.3842
    7MPD2    H113968   3.639   4.734  13.819  2.3087 -1.2485 -1.2803
    7MPD2    H213969   3.499   0.337  13.621  1.9293  1.4736  0.0613
    7MPD2    H313970   3.538   0.208  13.818 -0.3188 -0.1486 -0.3459
    7MPD2     N13971   3.736   4.600  13.609 -0.4665 -0.6268 -0.2535
    7MPD2    H513972   3.757   4.558  13.699 -1.3746 -0.5030  0.0106
    7MPD2    N113973   3.594   0.263  13.366  0.0862 -0.7947 -0.0573
    7MPD2    H713974   3.630   0.215  13.284  1.6209  1.4854 -0.7530
    8TMC3    C113975   3.830   4.401  13.506 -0.9383  0.4905 -1.1907
    8TMC3    C213976   3.922   4.408  13.605  0.9929 -0.2267  0.6510
    8TMC3    C313977   4.050   4.362  13.587  0.0611 -0.8007  0.1721
    8TMC3    C413978   3.861   4.354  13.385  0.7312  0.1313  0.1239
    8TMC3    C513979   3.995   4.322  13.359 -0.0732  0.3831  0.9922
    8TMC3    C613980   4.088   4.326  13.460 -0.5001  0.0189  0.8742
    8TMC3     C13981   3.761   4.533  13.491  0.0108 -0.2426 -0.2259
    8TMC3     O13982   3.726   4.556  13.376 -0.5794 -0.6259 -0.6592
    8TMC3     H13983   3.892   4.442  13.704  1.1064 -2.0556  1.2988
    8TMC3    H113984   3.788   4.331  13.309  0.5847  0.4914  0.1529
    8TMC3    H213985   4.188   4.295  13.433 -0.1898  1.7403  0.0463
    8TMC3    C713986   4.051   4.390  13.242 -0.6767 -0.2277  0.0482
    8TMC3    C813987   4.126   4.307  13.699  0.7256  0.1398  0.1751
    8TMC3    O113988   4.168   4.376  13.213  0.3946 -0.6084  0.3389
    8TMC3    O213989   4.211   4.230  13.661  0.2739  0.3530 -0.1682
    9TMC3    C113990   3.708   0.603  13.099 -0.1521  0.2470 -0.4406
    9TMC3    C213991   3.755   0.515  13.009  0.1118 -0.3717  0.5035
    9TMC3    C313992   3.720   0.384  13.016  0.5413  0.2574 -0.2400
    9TMC3    C413993   3.631   0.574  13.202  0.2160 -0.4224  0.5031
    9TMC3    C513994   3.588   0.442  13.212  0.7693 -0.5490  0.0709
    9TMC3    C613995   3.638   0.349  13.120  0.3832  0.1039 -0.1643
    9TMC3     C13996   3.770   0.733  13.116 -0.2471 -0.5896 -0.0433
    9TMC3     O13997   3.891   0.735  13.092 -0.0087  0.2854 -0.3068
    9TMC3     H13998   3.821   0.556  12.934 -1.2439  0.4991 -0.2104
    9TMC3    H113999   3.602   0.647  13.276 -2.4545  0.5918 -1.5228
    9TMC3    H214000   3.597   0.249  13.119 -2.3613  1.2394 -0.9408
    9TMC3    C714001   3.574   0.394  13.351 -0.0171 -0.2390 -0.2585
    9TMC3    C814002   3.822   0.291  12.965 -0.2038 -0.0408  0.3181
    9TMC3    O114003   3.569   0.477  13.441  0.4457 -0.4450 -0.1900
    9TMC3    O214004   3.901   0.336  12.879  0.0750  0.2987  0.6062
   10MPD2     C14005   4.106   4.619  13.064 -0.0015  0.3900  0.4534
   10MPD2    C114006   3.983   4.594  13.122 -0.3568  0.1868  0.3796
   10MPD2    C214007   3.889   4.693  13.110 -0.2529 -0.0345 -0.2022
   10MPD2    C314008   3.907   0.066  13.031  0.5793  0.4245 -0.0596
   10MPD2    C414009   4.029   0.090  12.974 -0.2673  0.0006 -0.2610
   10MPD2    C514010   4.124   4.731  12.985  0.1651  0.5375  0.2263
   10MPD2     H14011   3.794   4.687  13.162  0.7044  0.5866  1.5880
   10MPD2    H114012   4.053   0.184  12.926  2.1634  0.6871  2.3111
   10MPD2    H214013   4.196   4.565  13.091  0.2172  0.3053 -0.4496
   10MPD2    H314014   4.222   0.008  12.942 -0.8320 -1.8651 -2.9841
   10MPD2     N14015   3.803   0.161  13.016  0.1990  0.0749 -0.5700
   10MPD2    H514016   3.718   0.139  13.067 -0.0924 -1.0913 -1.5550
   10MPD2    N114017   3.962   4.487  13.205  0.7452  0.2573 -0.0715
   10MPD2    H714018   3.870   4.484  13.247 -0.3544  2.0003 -2.3891
   11MPD2     C14019   0.518   3.390  14.135  0.5365 -0.1964 -0.2266
   11MPD2    C114020   0.463   3.447  14.251  0.3363 -0.2865  0.0178
   11MPD2    C214021   0.341   3.513  14.241 -0.1433 -0.9319  0.0612
   11MPD2    C314022   0.289   3.529  14.114  0.1656  0.8110 -0.8171
   11MPD2    C414023   0.351   3.469  14.005  0.0138  0.5704  1.0655
   11MPD2    C514024   0.464   3.399  14.010 -0.4013 -0.7007  0.5557
   11MPD2     H14025   0.295   3.570  14.321  1.0151  1.1153 -0.7625
   11MPD2    H114026   0.302   3.475  13.909 -0.0767 -0.0547  1.0740
   11MPD2    H214027   0.618   3.348  14.138  0.2664 -0.6775  1.8587
   11MPD2    H314028   0.511   3.368  13.917  0.1663  1.6984  0.0267
   11MPD2     N14029   0.171   3.602  14.092  0.0700  0.6022  0.0697
   11MPD2    H514030   0.163   3.633  13.996  0.2231 -0.5067 -0.2933
   11MPD2    N114031   0.509   3.415  14.380 -0.2030 -0.5110 -0.3302
   11MPD2    H714032   0.449   3.435  14.459 -1.4837 -0.4567 -1.3148
    1MPD1     C14033   2.701   0.516  16.529  0.4160  0.2832  0.2799
    1MPD1    C114034   2.747   0.593  16.423 -0.2202 -0.5103  0.4060
    1MPD1    C214035   2.872   0.647  16.420  0.1246  0.3240  0.4002
    1MPD1    C314036   2.945   0.661  16.535 -0.7182  0.3914 -0.5280
    1MPD1    C414037   2.901   0.600  16.653  0.9203 -0.0161 -0.3106
    1MPD1    C514038   2.783   0.527  16.642  0.3203 -0.3855 -0.4230
    1MPD1     H14039   2.906   0.688  16.326  0.9653  3.0649  1.9244
    1MPD1    H114040   2.952   0.596  16.748  1.7079 -0.4400 -0.7522
    1MPD1    H214041   2.609   0.459  16.534  1.0182 -0.5229  2.3103
    1MPD1    H314042   2.750   0.481  16.734  1.1918 -0.3000 -0.0720
    1MPD1     N14043   3.070   0.729  16.546 -0.4944  0.1574  0.3681
    1MPD1    H514044   3.111   0.733  16.639 -2.1377 -1.6843  1.1750
    1MPD1    N114045   2.678   0.580  16.304 -0.2272 -0.1008  0.1130
    1MPD1    H614046   2.582   0.556  16.327 -0.2421 -0.5296 -0.3828
    1MPD1    H714047   2.668   0.667  16.252  0.5772 -0.3945 -0.5276
    2MPD1     C14048   3.943   0.787  17.019  0.4216  0.6976  0.4957
    2MPD1    C114049   3.952   0.900  16.944  0.4663  0.2589 -0.4083
    2MPD1    C214050   3.849   0.915  16.852 -0.1326  0.5001  1.0505
    2MPD1    C314051   3.746   0.827  16.825  0.4319  0.2400 -0.3741
    2MPD1    C414052   3.749   0.707  16.892 -0.6015  0.5164  0.5121
    2MPD1    C514053   3.854   0.692  16.981  0.0866 -0.0027 -0.0424
    2MPD1     H14054   3.833   1.009  16.800  0.8452  0.3131  0.4071
    2MPD1    H114055   3.672   0.631  16.880  0.8664 -0.9704  0.3750
    2MPD1    H214056   4.012   0.755  17.095  1.0531 -0.5435 -0.6073
    2MPD1    H314057   3.850   0.608  17.048 -1.8064 -0.3246 -0.5652
    2MPD1     N14058   3.650   0.863  16.725 -0.8369  0.4120 -0.5078
    2MPD1    H514059   3.646   0.960  16.696 -4.2948  0.7904  1.2878
    2MPD1    N114060   4.038   1.000  16.991  0.2420  0.3486 -0.4672
    2MPD1    H614061   4.059   1.071  16.921 -0.0365  1.4229  0.5490
    2MPD1    H714062   4.126   0.975  17.035 -1.3348 -3.9639  0.1977
    3TMC3    C114063   3.450   0.864  16.599  0.2300 -0.0336  0.9852
    3TMC3    C214064   3.503   0.970  16.522 -0.3730  0.6490 -0.0108
    3TMC3    C314065   3.419   1.020  16.429  0.1139  0.6138 -0.0217
    3TMC3    C414066   3.324   0.820  16.593  0.8123 -0.3167 -0.1214
    3TMC3    C514067   3.246   0.875  16.498  0.1393  0.1409  0.2531
    3TMC3    C614068   3.294   0.976  16.414 -0.1240  0.3571 -0.0890
    3TMC3     C14069   3.550   0.786  16.678  0.1541  0.4096  0.6381
    3TMC3     O14070   3.512   0.672  16.707  0.3337  0.3644 -0.2272
    3TMC3     H14071   3.596   1.023  16.541 -0.2652 -0.4241  2.5231
    3TMC3    H114072   3.291   0.729  16.642 -0.3027  0.1001 -0.0889
    3TMC3    H214073   3.235   1.017  16.332  1.1792  0.4072 -0.9924
    3TMC3    C714074   3.123   0.808  16.446  0.4267  0.7671 -0.3068
    3TMC3    C814075   3.471   1.127  16.344 -0.8895  0.6001 -0.2871
    3TMC3    O114076   3.084   0.839  16.335 -0.2929 -0.0632  0.4479
    3TMC3    O214077   3.393   1.214  16.313 -0.2639 -0.7317 -0.2095
    4MPD1     C14078   3.871   1.334  16.086 -0.3697  0.6030 -0.0557
    4MPD1    C114079   3.909   1.211  16.132 -0.3349  1.2085  0.4566
    4MPD1    C214080   3.815   1.140  16.208  0.3838  0.2002  0.3650
    4MPD1    C314081   3.684   1.188  16.231 -0.4774  0.6793 -0.0150
    4MPD1    C414082   3.648   1.313  16.198  0.9137 -0.3949 -0.8468
    4MPD1    C514083   3.739   1.375  16.114  0.5315  0.8413  0.5939
    4MPD1     H14084   3.848   1.046  16.249  0.6458 -0.5705 -1.5901
    4MPD1    H114085   3.554   1.364  16.216  0.9446 -0.6079 -0.0980
    4MPD1    H214086   3.934   1.398  16.025  1.8403 -1.5525 -0.0495
    4MPD1    H314087   3.711   1.474  16.078 -1.3499  0.3288  0.6426
    4MPD1     N14088   3.602   1.108  16.308 -0.3950 -0.1950  0.5595
    4MPD1    H514089   3.634   1.017  16.342 -2.0314 -0.8914  0.2571
    4MPD1    N114090   4.046   1.173  16.131 -0.7254  0.4042  0.1946
    4MPD1    H614091   4.065   1.073  16.135  0.7315  0.6356 -0.9920
    4MPD1    H714092   4.092   1.213  16.050  0.4405 -0.6693  0.3252
    1TCq1    O114093   0.385   0.115  12.577  0.0776  0.0704 -0.5693
    1TCq1    C114094   0.319   0.198  12.661 -0.0637  0.2012 -0.6198
    1TCq1    O214095   0.369   0.288  12.731  0.1967 -0.4312  0.6416
    1TCq1    C214096   0.177   0.163  12.651 -0.6189  0.1405  0.8498
    1TCq1    C314097   0.110   0.189  12.765  0.0608  0.0791 -0.0900
    1TCq1    C414098   4.734   0.115  12.781  0.0747  0.2947 -0.2396
    1TCq1    C514099   4.672   0.067  12.671  0.8722  0.3113  0.0967
    1TCq1    C614100   4.739   0.058  12.549  0.7062  0.6953 -0.2773
    1TCq1    C714101   0.129   0.100  12.535  0.4265 -0.1829 -0.2452
    1TCq1    C814102   4.648   0.037  12.434 -0.4250 -0.6173  0.0482
    1TCq1    O414103   4.528   0.026  12.460  0.3568  0.3478  0.2304
    1TCq1    C914104   4.643   0.152  12.895  0.2848 -0.0362 -0.1266
    1TCq1    O514105   4.680   0.244  12.972 -0.2258  0.2589 -0.2656
    1TCq1    O614106   4.526   0.102  12.904 -0.1306  0.5071 -0.0395
    1TCq1    H114107   0.322   0.054  12.534  1.1783 -0.6651 -1.1340
    1TCq1    H214108   0.163   0.220  12.854  0.1706  0.7165 -0.3798
    1TCq1    H314109   4.567   0.042  12.683  1.3240 -2.3523 -1.5550
    1TCq1    H414110   0.192   0.097  12.447  1.0843  0.7014  0.1943
    2MPD1     C14111   4.567   4.661  11.949  0.3594  0.2295 -0.8974
    2MPD1    C114112   4.696   4.629  11.977 -0.1641  0.9139  0.1266
    2MPD1    C214113   0.007   4.667  12.102  0.3207  0.8624  0.1127
    2MPD1    C314114   4.662   4.724  12.197  0.2976  0.0486  0.6419
    2MPD1    C414115   4.532   0.006  12.165 -0.0964 -1.0470  0.6802
    2MPD1    C514116   4.485   4.715  12.043  0.4003 -0.1275  0.5685
    2MPD1     H14117   0.114   4.664  12.116  0.5240  0.2570 -1.6248
    2MPD1    H114118   4.471   0.063  12.234  1.7137  2.3642 -0.5422
    2MPD1    H214119   4.524   4.634  11.853 -0.5046 -0.7768 -0.2281
    2MPD1    H314120   4.383   0.002  12.018  0.3603  0.3728  1.2919
    2MPD1     N14121   4.713   0.016  12.322  0.3068 -0.4808 -0.7605
    2MPD1    H514122   0.071   4.733  12.335  0.0153 -0.2981  1.8498
    2MPD1    N114123   0.043   4.599  11.872  0.3145 -0.2124 -0.3331
    2MPD1    H614124   0.125   4.544  11.894 -0.3546 -0.8330  0.5975
    2MPD1    H714125   4.738   4.565  11.787 -2.1719 -1.0633  1.3216
    1TMC1    C114126   2.879   2.801   0.768  0.6543 -0.0453  0.2203
    1TMC1    C214127   2.901   2.677   0.706  0.2568 -0.7087 -0.5411
    1TMC1    C314128   2.786   2.618   0.664  0.2338 -0.3674 -1.2254
    1TMC1    C414129   2.758   2.862   0.787 -0.1372  0.2165  0.2411
    1TMC1    C514130   2.654   2.786   0.749 -0.2783  0.6918  0.4800
    1TMC1    C614131   2.659   2.654   0.702  0.2911  0.4442  0.1530
    1TMC1     C14132   2.996   2.870   0.817 -1.0859 -0.0195 -0.8499
    1TMC1     O14133   3.100   2.836   0.761  0.3940 -0.2873 -0.1999
    1TMC1     H14134   2.993   2.646   0.659  1.1225  2.6600 -1.0203
    1TMC1    H114135   2.747   2.962   0.827  0.3837 -0.8215  2.9917
    1TMC1    H214136   2.572   2.596   0.677  0.0734  0.7767  0.1406
    1TMC1    C714137   2.538   2.821   0.807  0.9854 -0.3181 -0.6141
    1TMC1    C814138   2.799   2.482   0.629  0.4672  0.7308  0.5181
    1TMC1    O114139   2.508   2.940   0.831 -0.5060  0.7516 -0.2612
    1TMC1    O214140   2.710   2.417   0.568 -0.1437  0.0608  0.1343
    1TMC1    O314141   2.502   2.720   0.887 -0.7821 -0.0065  0.5126
    1TMC1    H314142   2.563   2.644   0.880 -0.2030  0.6593 -1.6413
    1TMC1    O514143   2.877   2.428   0.726  0.2908 -0.0327 -0.0480
    1TMC1    H514144   2.898   2.489   0.799 -1.0635 -0.2837  0.5588
    2MPD1     C14145   3.256   3.209   1.096  0.4067  0.1028  0.6194
    2MPD1    C114146   3.121   3.225   1.123 -0.2679  0.2324  0.5454
    2MPD1    C214147   3.028   3.141   1.065  0.4008 -0.0484 -0.6160
    2MPD1    C314148   3.066   3.037   0.978  0.3518 -0.8690 -0.3828
    2MPD1    C414149   3.201   3.025   0.948  0.6599 -0.9258  0.1928
    2MPD1    C514150   3.290   3.111   1.009 -0.3796 -0.1857 -0.7633
    2MPD1     H14151   2.924   3.157   1.090  0.5480  0.0311 -0.0681
    2MPD1    H114152   3.250   2.946   0.893  3.1910 -0.2209  1.4719
    2MPD1    H214153   3.334   3.265   1.147  2.1758 -2.4123  0.6792
    2MPD1    H314154   3.396   3.095   0.994 -0.6793 -0.9814 -2.0169
    2MPD1     N14155   2.974   2.953   0.921 -0.0077 -0.1877 -0.0020
    2MPD1    H514156   2.880   2.984   0.942  1.1180  2.5827  0.8994
    2MPD1    N114157   3.081   3.316   1.220  0.1169  0.3317  0.5218
    2MPD1    H614158   3.136   3.399   1.238  1.3285 -0.3541 -0.0183
    2MPD1    H714159   2.982   3.337   1.230 -0.5760 -2.1188 -1.1304
    1MPD1     C14160   1.589   4.153  12.428 -0.2311 -0.2638 -0.3417
    1MPD1    C114161   1.462   4.116  12.402 -0.1195  0.4170 -0.3177
    1MPD1    C214162   1.400   4.188  12.301 -0.0310 -0.4757  0.6324
    1MPD1    C314163   1.453   4.288  12.227  0.2426 -0.2699  0.2098
    1MPD1    C414164   1.584   4.320  12.255  0.0862 -0.4917  0.7049
    1MPD1    C514165   1.650   4.252  12.353 -0.4372  0.4034 -0.5943
    1MPD1     H14166   1.301   4.154  12.273 -0.8342  3.1823 -0.9854
    1MPD1    H114167   1.635   4.406  12.214  1.6115 -3.1199 -2.8025
    1MPD1    H214168   1.646   4.108  12.508  0.5064  1.6393  0.1948
    1MPD1    H314169   1.755   4.270  12.374 -1.4102  1.3312  3.4378
    1MPD1     N14170   1.374   4.347  12.130  0.1612 -0.4407  0.0182
    1MPD1    H514171   1.277   4.316  12.122 -0.1464  0.4857  0.2197
    1MPD1    N114172   1.393   4.032  12.487  0.2294  0.2375  0.2445
    1MPD1    H614173   1.441   3.949  12.521 -0.6162  0.4268  1.9043
    1MPD1    H714174   1.323   3.979  12.436  2.0265 -1.0016 -0.9413
    2MPD1     C14175   4.347   0.609  11.721 -0.9839 -0.2382 -0.3660
    2MPD1    C114176   4.295   0.576  11.602  0.2111 -0.0902  0.5222
    2MPD1    C214177   4.373   0.501  11.518  0.9456 -0.7778 -0.5329
    2MPD1    C314178   4.501   0.459  11.549  0.1866 -0.0432  0.4447
    2MPD1    C414179   4.552   0.492  11.671  0.2339  0.4438  0.8872
    2MPD1    C514180   4.474   0.563  11.757 -0.1874  0.1650 -0.4090
    2MPD1     H14181   4.327   0.490  11.421 -0.2477 -0.6788  0.0290
    2MPD1    H114182   4.653   0.462  11.698  0.2757 -1.2386 -1.1269
    2MPD1    H214183   4.302   0.678  11.791 -2.2764  1.3908 -2.7955
    2MPD1    H314184   4.512   0.588  11.855  0.1940  2.4042 -1.1236
    2MPD1     N14185   4.579   0.387  11.466  0.1072 -0.5045 -0.2113
    2MPD1    H514186   4.673   0.363  11.494  0.6706  2.7129  0.5946
    2MPD1    N114187   4.190   0.655  11.560 -0.0428 -0.1153  0.3124
    2MPD1    H614188   4.144   0.622  11.475  3.0437 -2.4183 -0.4406
    2MPD1    H714189   4.123   0.680  11.632 -1.6022  0.5428 -1.3520
    3MPD1     C14190   4.504   4.326  10.787 -0.5705  0.2801 -0.5086
    3MPD1    C114191   4.428   4.349  10.897 -0.3018  0.2704 -0.3490
    3MPD1    C214192   4.443   4.471  10.963  0.4172  0.5778  0.2581
    3MPD1    C314193   4.562   4.544  10.943  1.0070 -0.8348  0.3185
    3MPD1    C414194   4.636   4.515  10.828 -0.1865 -0.4058 -0.3334
    3MPD1    C514195   4.608   4.407  10.750 -0.6047 -0.2744 -0.7074
    3MPD1     H14196   4.370   4.502  11.037  1.2165 -1.0572  1.7067
    3MPD1    H114197   4.718   4.579  10.799 -1.5835  1.0640 -1.0608
    3MPD1    H214198   4.499   4.231  10.736 -0.0471  0.2520 -0.5110
    3MPD1    H314199   4.680   4.362  10.682  0.3446  0.1952 -0.0116
    3MPD1     N14200   4.588   4.655  11.030 -0.5515  0.1736 -0.4758
    3MPD1    H514201   4.537   4.643  11.117 -1.7827  1.6681 -0.9984
    3MPD1    N114202   4.320   4.266  10.924  0.0885 -0.2560 -0.4561
    3MPD1    H614203   4.339   4.169  10.900  1.9329  0.0760 -0.3342
    3MPD1    H714204   4.295   4.265  11.022  2.4394 -0.0035  0.1365
    4MPD2     C14205   0.764   0.055  12.072  0.1954  0.2002 -0.3553
    4MPD2    C114206   0.867   0.065  11.972  0.2348  0.5082  0.3123
    4MPD2    C214207   0.907   0.188  11.918 -0.2581  0.1097  0.0445
    4MPD2    C314208   0.834   0.307  11.955  0.5333  0.4569  0.3882
    4MPD2    C414209   0.734   0.291  12.044 -0.7035 -0.3179  0.2436
    4MPD2    C514210   0.701   0.176  12.105 -0.1403  0.0682 -0.2394
    4MPD2     H14211   0.974   0.180  11.834  3.1156  0.4442  2.7129
    4MPD2    H114212   0.668   0.372  12.071  0.3506  1.2769 -1.9936
    4MPD2    H214213   0.744   4.700  12.119  0.9028  0.5504  0.6608
    4MPD2    H314214   0.630   0.167  12.186  0.1384  1.2151  0.1433
    4MPD2     N14215   0.857   0.428  11.889  0.0739  0.2165  0.4718
    4MPD2    H514216   0.789   0.503  11.902 -0.3744 -0.1017 -0.0152
    4MPD2    N114217   0.942   4.694  11.925 -0.5480 -0.1968 -0.5894
    4MPD2    H714218   1.013   4.714  11.855 -0.0910 -0.7065 -0.2769
    5TMC3    C114219   1.077   4.500  11.929 -0.2049  0.3465 -0.0642
    5TMC3    C214220   1.181   4.475  12.010  0.3129  0.4717  0.2213
    5TMC3    C314221   1.313   4.486  11.957 -0.2469  0.8140 -0.0727
    5TMC3    C414222   1.110   4.533  11.796  0.0657  0.2040 -0.5921
    5TMC3    C514223   1.236   4.559  11.754 -0.1189 -0.5664  0.4380
    5TMC3    C614224   1.343   4.524  11.832 -0.1168  0.0442  0.3731
    5TMC3     C14225   0.964   4.575  11.987 -0.7280  0.5071  0.1331
    5TMC3     O14226   0.927   4.543  12.103  0.0800  0.1857  0.1929
    5TMC3     H14227   1.163   4.442  12.112  1.7381 -1.1686 -0.0629
    5TMC3    H114228   1.031   4.556  11.725 -1.8412 -2.0151  0.8353
    5TMC3    H214229   1.445   4.528  11.796 -1.2959  2.1357 -2.7657
    5TMC3    C714230   1.229   4.690  11.699 -0.0533 -0.2895 -0.8618
    5TMC3    C814231   1.420   4.431  12.033 -0.5934  0.1423 -0.1439
    5TMC3    O114232   1.172   0.026  11.775  0.0426  0.0517 -0.4758
    5TMC3    O214233   1.537   4.447  12.000 -0.3640  0.0755  0.3062
    6TMC3    C114234   4.650   0.242  11.293  0.5127  0.2307  0.1437
    6TMC3    C214235   4.619   0.141  11.207  0.2031 -0.2035  0.4205
    6TMC3    C314236   4.715   0.094  11.131 -0.4413  0.4471 -0.7159
    6TMC3    C414237   0.030   0.304  11.286 -0.7743  0.7547 -0.1847
    6TMC3    C514238   0.122   0.254  11.200 -0.5041 -0.2607  0.0300
    6TMC3    C614239   0.097   0.140  11.132 -0.3482 -0.3097 -0.8664
    6TMC3     C14240   4.543   0.322  11.353 -0.8642 -0.4055  0.0247
    6TMC3     O14241   4.438   0.331  11.293  0.4383  0.3359  0.3884
    6TMC3     H14242   4.518   0.103  11.191  0.3504  0.3109 -1.8460
    6TMC3    H114243   0.055   0.399  11.330  1.9866  0.3073 -0.8126
    6TMC3    H214244   0.180   0.091  11.083  1.0426  2.9393 -1.7306
    6TMC3    C714245   0.257   0.300  11.224  0.4571  0.1727  0.5861
    6TMC3    C814246   4.685   0.014  11.010  0.1216 -0.1093  0.4850
    6TMC3    O114247   0.281   0.354  11.333 -0.2318 -0.1550 -0.6692
    6TMC3    O214248   0.028   0.022  10.920  0.4211 -0.2659  0.0384
    7MPD2     C14249   1.332   0.319  11.350  0.1886 -0.1212  0.1009
    7MPD2    C114250   1.260   0.321  11.472 -0.6411 -0.6000  0.0228
    7MPD2    C214251   1.258   0.205  11.548  0.2571  0.2595 -0.2812
    7MPD2    C314252   1.319   0.083  11.511 -0.5788 -0.0727 -0.1865
    7MPD2    C414253   1.387   0.076  11.392  0.1469 -0.0296  0.6468
    7MPD2    C514254   1.390   0.192  11.318  0.3242 -0.2836  0.1513
    7MPD2     H14255   1.201   0.212  11.640  1.0394 -1.6729  0.3578
    7MPD2    H114256   1.441   4.731  11.353  1.1972  2.4604 -3.4164
    7MPD2    H214257   1.351   0.406  11.288 -1.4434 -0.2457 -0.5688
    7MPD2    H314258   1.470   0.203  11.246 -0.6842 -0.6991 -1.0392
    7MPD2     N14259   1.313   4.707  11.592  0.1700 -0.0173 -0.5377
    7MPD2    H514260   1.354   4.620  11.559 -0.4355 -0.3210 -0.4753
    7MPD2    N114261   1.196   0.434  11.525  0.5423  0.5496  0.0264
    7MPD2    H714262   1.150   0.422  11.614 -1.4244 -0.0855 -1.0893
    8TMC3    C114263   1.058   0.622  11.514 -0.3523  0.2850  0.1686
    8TMC3    C214264   0.941   0.623  11.442  0.6456  0.2864 -0.0871
    8TMC3    C314265   0.831   0.573  11.502 -0.1656 -0.1089 -0.2436
    8TMC3    C414266   1.057   0.606  11.653 -0.1135 -0.4267  0.1189
    8TMC3    C514267   0.945   0.564  11.712  0.6191  0.5219 -0.3696
    8TMC3    C614268   0.830   0.545  11.636 -0.1274 -0.3849  0.7305
    8TMC3     C14269   1.162   0.544  11.450  0.0201  1.0202  0.1502
    8TMC3     O14270   1.192   0.574  11.339  0.0584 -0.0565 -0.3785
    8TMC3     H14271   0.941   0.646  11.335 -0.3652  3.4071  0.5762
    8TMC3    H114272   1.155   0.615  11.699  0.5819 -1.2714 -1.2069
    8TMC3    H214273   0.744   0.490  11.672 -1.1671 -0.0207 -1.2169
    8TMC3    C714274   0.963   0.452  11.804 -0.5634 -0.4966  0.2535
    8TMC3    C814275   0.718   0.528  11.421  0.1090  0.3806  0.1228
    8TMC3    O114276   1.064   0.385  11.781  0.0848 -0.2112 -0.2604
    8TMC3    O214277   0.606   0.516  11.478 -0.2347  0.2514  0.3381
    9MPD2     C14278   0.734   0.409  11.069  0.0644  0.0389  0.0031
    9MPD2    C114279   0.677   0.421  11.197 -0.0112  0.2804  0.0581
    9MPD2    C214280   0.540   0.379  11.213  0.5927  0.3746 -1.2699
    9MPD2    C314281   0.472   0.316  11.107  0.6631  0.2193 -0.4556
    9MPD2    C414282   0.540   0.300  10.990  0.0651 -0.4268  0.3538
    9MPD2    C514283   0.668   0.344  10.969 -0.9533 -0.4513  0.1946
    9MPD2     H14284   0.492   0.395  11.309  1.7319  2.3295 -1.0143
    9MPD2    H114285   0.487   0.282  10.897 -0.6443 -0.6504  0.8026
    9MPD2    H214286   0.834   0.445  11.047 -0.8651  1.2462 -2.0869
    9MPD2    H314287   0.718   0.345  10.873  1.2535 -2.4171  1.3211
    9MPD2     N14288   0.338   0.285  11.114  0.2716  0.4786 -0.2746
    9MPD2    H514289   0.294   0.246  11.031 -0.1102  1.4239 -0.5114
    9MPD2    N114290   0.753   0.483  11.293  0.1495  0.1410  0.0348
    9MPD2    H714291   0.850   0.494  11.264  0.2775 -2.0359 -0.3408
    1MPD1     C14292   3.930   3.337  17.682 -0.8284  0.0423  0.0485
    1MPD1    C114293   3.970   3.365   0.052 -0.7164  0.2363  0.7472
    1MPD1    C214294   3.888   3.452   0.120  0.1243 -0.0822  0.8126
    1MPD1    C314295   3.772   3.505   0.069 -0.6034  0.1098  0.6624
    1MPD1    C414296   3.733   3.459  17.703  0.6842  0.1387  0.2753
    1MPD1    C514297   3.804   3.370  17.634  0.6260  0.2177  0.3713
    1MPD1     H14298   3.910   3.469   0.225 -1.5695  2.1261  0.8099
    1MPD1    H114299   3.637   3.485  17.660  0.3538  0.6015  1.2966
    1MPD1    H214300   4.001   3.279  17.624  0.9775 -0.9374  3.2951
    1MPD1    H314301   3.769   3.334  17.538 -3.1285  0.5810  1.6011
    1MPD1     N14302   3.684   3.585   0.141 -0.4713 -0.2052  0.3592
    1MPD1    H514303   3.598   3.602   0.089 -1.5181  0.2620  2.2632
    1MPD1    N114304   4.101   3.334   0.092  0.2838 -0.1005 -0.0654
    1MPD1    H614305   4.110   3.236   0.068 -0.1176 -0.5263  1.5176
    1MPD1    H714306   4.109   3.329   0.193  0.0474  0.2171 -0.0291
    2TMC2    C114307   3.466   3.743   0.514 -0.4096 -0.0072  0.3905
    2TMC2    C214308   3.348   3.746   0.446 -0.3668  0.0432  0.0564
    2TMC2    C314309   3.355   3.729   0.308  0.2152 -0.1233  0.6386
    2TMC2    C414310   3.582   3.713   0.451 -0.3437  0.5534  0.4722
    2TMC2    C514311   3.575   3.686   0.316 -0.1382  0.0541 -0.2052
    2TMC2    C614312   3.464   3.684   0.240  0.7708 -0.0496 -0.3704
    2TMC2     C14313   3.450   3.715   0.654  0.1539  0.1530  0.0045
    2TMC2     O14314   3.334   3.692   0.696  0.1685  0.5388 -0.0694
    2TMC2     H14315   3.255   3.772   0.497  0.3575  1.1834  0.8050
    2TMC2    H114316   3.675   3.706   0.507  0.1743  1.0563 -0.3136
    2TMC2    H214317   3.457   3.681   0.131  0.9916  0.7760 -0.4094
    2TMC2    C714318   3.699   3.632   0.270 -0.0210 -0.5890  0.3658
    2TMC2    C814319   3.228   3.712   0.239 -0.3397  0.1017  0.3316
    2TMC2    O114320   3.789   3.618   0.355  0.0664 -0.2991 -0.7615
    2TMC2    O214321   3.126   3.700   0.301 -0.5253  0.2500 -0.0278
    2TMC2    O514322   3.239   3.785   0.124  0.0572  0.3506  0.3909
    2TMC2    H514323   3.329   3.807   0.092  0.3000 -1.1782  0.0365
    3MPD1     C14324   3.624   3.691   1.142 -0.1204  0.4309 -0.6630
    3MPD1    C114325   3.727   3.743   1.062  0.1881 -0.1883 -0.0099
    3MPD1    C214326   3.695   3.748   0.931  0.2631  0.5944 -0.0299
    3MPD1    C314327   3.574   3.717   0.869 -0.2238 -0.4591 -0.5139
    3MPD1    C414328   3.475   3.677   0.951  0.2943 -0.7387  0.2374
    3MPD1    C514329   3.500   3.662   1.084  1.0846  0.2098 -0.1617
    3MPD1     H14330   3.767   3.783   0.857 -3.1061  1.7338 -2.7945
    3MPD1    H114331   3.373   3.658   0.920  0.6106 -1.0413 -0.5942
    3MPD1    H214332   3.635   3.688   1.249 -0.2096 -1.9131 -0.7275
    3MPD1    H314333   3.417   3.639   1.150  1.0362 -0.5548 -0.4967
    3MPD1     N14334   3.561   3.730   0.731  0.3018  0.7566  0.2292
    3MPD1    H514335   3.646   3.769   0.690  0.2283  0.5677 -0.1035
    3MPD1    N114336   3.861   3.766   1.109 -0.1485  0.1870 -0.4860
    3MPD1    H614337   3.923   3.804   1.037 -0.2246 -1.3765 -1.3877
    3MPD1    H714338   3.908   3.675   1.108  1.0373  0.8071 -1.0170
    1TMC1    C114339   3.797   2.762  13.233 -0.0619 -0.0058  0.0469
    1TMC1    C214340   3.856   2.660  13.171  0.1101  0.1085  0.2221
    1TMC1    C314341   3.781   2.574  13.100 -0.2844  0.1434  0.3128
    1TMC1    C414342   3.662   2.788  13.221  0.0140 -0.0609  0.4042
    1TMC1    C514343   3.587   2.704  13.137 -0.5900 -0.0682 -0.1376
    1TMC1    C614344   3.645   2.589  13.084 -0.4118  0.3265 -0.3299
    1TMC1     C14345   3.869   2.848  13.325  0.1706 -0.3366  0.4113
    1TMC1     O14346   3.815   2.949  13.367  0.1277 -0.1221 -0.1526
    1TMC1     H14347   3.965   2.652  13.171  0.3717  3.4693  0.0935
    1TMC1    H114348   3.613   2.873  13.266 -0.2729 -0.2436  0.4385
    1TMC1    H214349   3.578   2.526  13.026 -1.2079  1.6839 -0.8947
    1TMC1    C714350   3.444   2.702  13.149  0.3478 -0.1069 -0.2546
    1TMC1    C814351   3.829   2.434  13.095  0.0467 -0.0730  0.3473
    1TMC1    O114352   3.388   2.736  13.252  0.3224  0.1957  0.3730
    1TMC1    O214353   3.944   2.408  13.069  0.3886  0.0488 -0.1917
    1TMC1    O314354   3.393   2.707  13.025 -0.3986 -0.6149  0.4736
    1TMC1    H314355   3.466   2.720  12.960  0.2227  0.3083  1.3647
    1TMC1    O514356   3.729   2.352  13.078  0.3685  0.2734  0.3075
    1TMC1    H514357   3.654   2.390  13.129  0.8646  1.1167  0.3978
    2MPD2     C14358   4.081   3.013  13.463 -0.1515  0.8622 -0.0167
    2MPD2    C114359   4.100   2.884  13.416  0.2514  0.0687  0.2209
    2MPD2    C214360   4.220   2.822  13.425 -0.0775 -0.6635 -0.4632
    2MPD2    C314361   4.327   2.886  13.485 -0.1204 -0.2528  0.1164
    2MPD2    C414362   4.312   3.013  13.538 -0.6339  0.1563 -0.1784
    2MPD2    C514363   4.184   3.071  13.530  0.6194  0.2301 -0.4990
    2MPD2     H14364   4.231   2.720  13.390  0.0217 -0.2954 -1.4999
    2MPD2    H114365   4.380   3.071  13.600 -0.6828 -0.0449  0.0595
    2MPD2    H214366   3.990   3.069  13.451 -0.4696  0.6425  1.3836
    2MPD2    H314367   4.176   3.171  13.572 -0.0212 -0.5336  1.2049
    2MPD2     N14368   4.451   2.815  13.500  0.1986 -0.0003  0.5098
    2MPD2    H514369   4.455   2.732  13.442  0.8458 -1.1161  2.1556
    2MPD2    N114370   3.999   2.805  13.351  0.1364  0.2329  0.3850
    2MPD2    H714371   4.033   2.717  13.314 -2.0772  0.2901 -1.8020
    3TCq1    O114372   0.287   2.557  13.565 -0.1924  0.1948  0.4889
    3TCq1    C114373   0.240   2.652  13.643 -0.0720 -0.7715 -0.0669
    3TCq1    O214374   0.296   2.762  13.654  0.5611 -0.2684 -0.3763
    3TCq1    C214375   0.098   2.628  13.650  0.2277 -0.4837  0.0717
    3TCq1    C314376   0.045   2.505  13.628  0.8075 -0.1215 -0.2199
    3TCq1    C414377   4.643   2.498  13.618 -0.1087 -0.6625  0.0422
    3TCq1    C514378   4.559   2.603  13.623  0.9486  0.0724  0.3929
    3TCq1    C614379   4.620   2.726  13.629 -0.8220 -0.0308 -0.5740
    3TCq1    C714380   0.015   2.741  13.657  0.0148 -0.3953 -0.0565
    3TCq1    C814381   4.537   2.842  13.604 -0.0746  0.4614  0.0082
    3TCq1    O414382   4.554   2.940  13.681  0.2103 -0.0611  0.4736
    3TCq1    C914383   4.583   2.367  13.597 -0.1591  0.6401 -0.1218
    3TCq1    O514384   4.658   2.268  13.586  0.2592  0.2052 -0.1424
    3TCq1    O614385   4.458   2.362  13.584 -0.0733 -0.2787 -0.0417
    3TCq1    H114386   0.218   2.497  13.530 -0.8487  1.5574 -0.5671
    3TCq1    H214387   0.103   2.416  13.648  2.9996  1.3447  0.0518
    3TCq1    H314388   4.453   2.588  13.609  0.9788  1.9990 -1.9144
    3TCq1    H414389   0.056   2.840  13.674 -1.2670  0.4416 -1.8896
    1MPD2     C14390   3.292   3.652  14.917 -0.8074  0.1140  0.3245
    1MPD2    C114391   3.224   3.624  14.801  0.3539 -0.5648 -0.3512
    1MPD2    C214392   3.267   3.517  14.719  0.0223 -0.2507 -0.1280
    1MPD2    C314393   3.362   3.429  14.759 -0.1380 -0.7359 -0.0437
    1MPD2    C414394   3.426   3.458  14.873  0.4024  0.2316 -1.1838
    1MPD2    C514395   3.385   3.565  14.952  1.2475  0.0345  0.5278
    1MPD2     H14396   3.218   3.503  14.623 -0.1078  0.9607 -0.2295
    1MPD2    H114397   3.497   3.391  14.920  0.4979  1.2336  0.0868
    1MPD2    H214398   3.264   3.732  14.985 -1.2787 -0.0410  0.3115
    1MPD2    H314399   3.432   3.576  15.049  1.2594 -1.0596  0.6460
    1MPD2     N14400   3.414   3.322  14.685  0.1746 -0.3539  0.2201
    1MPD2    H514401   3.494   3.274  14.724  0.2981 -0.7712 -0.5615
    1MPD2    N114402   3.097   3.691  14.776  0.9814 -1.0559 -0.0553
    1MPD2    H714403   3.072   3.766  14.840  1.5732 -1.9120  1.1851
    2TMC3    C114404   2.887   3.738  14.672  0.3811  0.7020  0.3441
    2TMC3    C214405   2.793   3.642  14.669  0.6545  0.3055  0.2338
    2TMC3    C314406   2.695   3.649  14.577  0.3222 -0.0155  0.2150
    2TMC3    C414407   2.882   3.844  14.590  1.0620 -0.2459 -0.7612
    2TMC3    C514408   2.767   3.856  14.518  0.1154  0.3112  0.7406
    2TMC3    C614409   2.676   3.758  14.502  0.0722  0.0109  0.0289
    2TMC3     C14410   3.012   3.663  14.669  0.1053  0.7672 -0.1784
    2TMC3     O14411   3.008   3.568  14.589  0.2344 -0.1451  0.5487
    2TMC3     H14412   2.796   3.570  14.750 -4.4070 -1.2064 -0.9054
    2TMC3    H114413   2.975   3.896  14.569  0.4286  1.2757  0.1993
    2TMC3    H214414   2.588   3.769  14.439 -0.0936 -0.4815  0.1730
    2TMC3    C714415   2.746   3.983  14.449 -0.1809 -0.1293  0.6854
    2TMC3    C814416   2.652   3.516  14.524  0.0627  0.5067  0.3830
    2TMC3    O114417   2.651   3.999  14.376  0.4570 -0.2609 -0.1621
    2TMC3    O214418   2.543   3.491  14.477 -0.4300 -0.2011 -0.5881
    3TCq1    O114419   3.395   0.289  14.801 -0.2475 -0.0639 -0.4378
    3TCq1    C114420   3.350   0.222  14.698  0.7339 -0.1495 -0.5762
    3TCq1    O214421   3.356   0.256  14.583 -0.4631  0.3114  0.3653
    3TCq1    C214422   3.255   0.114  14.748 -0.0417  0.2900 -0.7054
    3TCq1    C314423   3.289   0.039  14.861 -0.0260  0.4041  0.8060
    3TCq1    C414424   3.222   4.660  14.876  0.1796 -0.5568 -0.0357
    3TCq1    C514425   3.121   4.618  14.796  0.2035  0.9566 -0.3727
    3TCq1    C614426   3.088   4.699  14.690  0.5606  0.1177 -0.3908
    3TCq1    C714427   3.159   0.069  14.662  0.1983 -0.8813 -0.0336
    3TCq1    C814428   3.002   4.655  14.583  0.0529 -0.1784  0.0369
    3TCq1    O414429   2.987   4.731  14.489 -0.6379 -0.3329  0.0369
    3TCq1    C914430   3.245   4.590  14.999  0.1288 -0.3998 -0.5686
    3TCq1    O514431   3.165   4.497  15.035  0.0575  0.1822 -0.7183
    3TCq1    O614432   3.357   4.607  15.052 -0.3960 -0.2908 -0.2408
    3TCq1    H114433   3.360   0.241  14.879  2.8748 -3.2426 -1.0308
    3TCq1    H214434   3.368   0.069  14.929  1.7966 -2.1679 -0.1642
    3TCq1    H314435   3.066   4.536  14.842  1.0166  0.7752  0.2762
    3TCq1    H414436   3.151   0.120  14.567 -0.1963 -2.1432 -0.6757
    4MPD2     C14437   2.864   4.478  14.381 -0.1588 -1.0267 -0.3348
    4MPD2    C114438   2.902   4.435  14.509 -0.5651  0.0014 -0.2807
    4MPD2    C214439   2.900   4.299  14.546 -0.2949  0.7099 -0.3467
    4MPD2    C314440   2.845   4.212  14.458  0.4748 -0.0761  0.5106
    4MPD2    C414441   2.808   4.249  14.326  0.2420 -0.1789  0.1596
    4MPD2    C514442   2.811   4.384  14.297 -0.2420  0.9144  0.2526
    4MPD2     H14443   2.933   4.279  14.647  1.3525  0.7343 -0.8887
    4MPD2    H114444   2.769   4.183  14.249  0.7572 -1.3798  0.9221
    4MPD2    H214445   2.875   4.581  14.347  2.0833 -1.0110  0.4518
    4MPD2    H314446   2.775   4.407  14.197 -0.8033  0.8376  0.4369
    4MPD2     N14447   2.831   4.080  14.505  0.1050  0.1026  0.3202
    4MPD2    H514448   2.884   4.067  14.591 -1.6225 -0.3737  1.3272
    4MPD2    N114449   2.955   4.529  14.608  0.5935  0.1481 -0.3150
    4MPD2    H714450   2.973   4.495  14.702 -1.2414  1.0422  0.3415
    5TMC2    C114451   3.294   2.994  14.413 -0.5225 -0.8222 -0.1417
    5TMC2    C214452   3.323   2.900  14.503  0.8917 -0.4452 -0.2638
    5TMC2    C314453   3.412   2.938  14.602  0.4732  0.3722 -0.3104
    5TMC2    C414454   3.336   3.115  14.414  0.2219  0.4878 -0.3868
    5TMC2    C514455   3.412   3.158  14.519  0.2427  0.5828  0.7103
    5TMC2    C614456   3.452   3.065  14.612 -0.3376 -0.3285 -0.5475
    5TMC2     C14457   3.147   2.977  14.392 -0.3562  0.1482 -0.8211
    5TMC2     O14458   3.094   2.865  14.362 -0.0828  0.1567  0.1318
    5TMC2     H14459   3.284   2.800  14.489 -0.3674 -0.0454  0.3338
    5TMC2    H114460   3.306   3.179  14.331 -2.4005  1.5215  1.3444
    5TMC2    H214461   3.505   3.092  14.703 -1.1408  0.3599 -0.2870
    5TMC2    C714462   3.360   3.278  14.568  0.1869 -0.0709  0.3306
    5TMC2    C814463   3.475   2.840  14.692  0.5237 -0.5770  0.3946
    5TMC2    O114464   3.259   3.315  14.513 -0.1930 -0.1307  0.4168
    5TMC2    O214465   3.539   2.886  14.789  0.4399  0.2126 -0.3620
    5TMC2    O514466   3.504   2.730  14.616 -0.1928  0.1968 -0.0991
    5TMC2    H514467   3.548   2.657  14.664 -0.7604 -0.2275 -0.2364
    6MPD2     C14468   2.687   3.218  14.447 -0.3903 -0.4942 -0.5430
    6MPD2    C114469   2.792   3.308  14.467 -0.2263 -0.2823  0.2952
    6MPD2    C214470   2.924   3.263  14.453 -0.2316  0.0035  0.1467
    6MPD2    C314471   2.950   3.131  14.428 -0.0224  0.2547  0.0375
    6MPD2    C414472   2.846   3.044  14.399 -0.3341  0.1780  0.8852
    6MPD2    C514473   2.717   3.088  14.410  0.1365  0.3842  0.9803
    6MPD2     H14474   3.001   3.333  14.481 -0.0270  1.4243 -3.9710
    6MPD2    H114475   2.869   2.939  14.388 -0.4859  0.4527 -2.0506
    6MPD2    H214476   2.581   3.243  14.450  0.1755  1.4870  2.2349
    6MPD2    H314477   2.639   3.015  14.390  0.3979  0.1771  0.7079
    6MPD2     N14478   3.090   3.095  14.430  0.0105 -0.8840  0.1776
    6MPD2    H514479   3.156   3.169  14.448  0.1530 -0.9083 -0.2389
    6MPD2    N114480   2.773   3.443  14.515 -0.4974  0.3321  0.4601
    6MPD2    H714481   2.855   3.498  14.537  0.2370 -1.9499  3.4361
  945NH3     N114482   1.977   3.016   2.886 -0.6542  0.7720  0.5619
  945NH3     H214483   1.992   3.072   2.969 -0.8675 -0.7553  1.6284
  945NH3     H314484   2.014   2.929   2.923 -0.7670 -0.0032 -1.1641
  945NH3     H414485   2.052   3.036   2.820 -1.7756 -1.1221 -1.2819
  946SOD     NA14486   3.313   4.468  15.217 -0.2363 -0.3115  0.2814
  947SOD     NA14487   1.434   0.113  12.986  0.5243  0.0313  0.0706
  948SOD     NA14488   1.812   0.769   5.147 -0.3189  0.5510  0.1196
  949SOD     NA14489   4.550   3.753   3.736  0.1593  0.3675 -0.0414
  950SOD     NA14490   4.163   4.644  12.200 -0.1981 -0.0852  0.1719
  951SOD     NA14491   3.610   2.391  16.375  0.1013  0.2291 -0.2241
  952SOD     NA14492   3.371   3.037  17.080  0.2690  0.6754 -0.3224
  953SOD     NA14493   2.135   2.478  13.803 -0.1741 -0.5314 -0.0293
  954SOL     OW14494   4.330   2.473   3.610  0.1120  0.3515  0.1049
  954SOL    HW114495   4.260   2.408   3.606  0.9118 -0.5769  1.3826
  954SOL    HW214496   4.409   2.422   3.629  0.6749  1.7451  1.5098
  955SOL     OW14497   4.055   2.863   4.112  0.5944 -0.2941  0.2727
  955SOL    HW114498   4.016   2.922   4.048  0.2180 -0.7823  0.0612
  955SOL    HW214499   4.148   2.877   4.092  0.2614  0.8771 -0.4589
  956SOL     OW14500   3.938   4.627   5.881  0.2940 -0.5875  0.1810
  956SOL    HW114501   3.893   4.543   5.894 -1.1880  0.2601  0.4834
  956SOL    HW214502   3.909   4.662   5.797 -0.9716  2.7736  2.0172
  957SOL     OW14503   0.362   3.537  15.295  0.4035  0.2651  0.2763
  957SOL    HW114504   0.438   3.595  15.302  0.4745  0.1553  0.4033
  957SOL    HW214505   0.404   3.458  15.330  2.5102  1.3891  0.2704
  958SOL     OW14506   2.757   3.173   5.214 -0.1943 -0.0851  0.0903
  958SOL    HW114507   2.848   3.153   5.192  0.2624  0.0483  1.9278
  958SOL    HW214508   2.721   3.177   5.125  1.1820  0.5072 -0.4328
  959SOL     OW14509   2.305   4.301   6.836 -0.3432  0.1696 -0.6006
  959SOL    HW114510   2.347   4.269   6.916 -0.7783 -0.8560 -0.7789
  959SOL    HW214511   2.356   4.381   6.827  2.0187 -1.5493 -2.5810
  960SOL     OW14512   2.571   4.674   8.344  0.1325  0.1979  0.0209
  960SOL    HW114513   2.549   4.595   8.294  0.0385 -0.6308  1.3741
  960SOL    HW214514   2.512   4.672   8.419 -1.1935  1.1936 -0.9828
  961SOL     OW14515   3.540   2.721  11.195  0.7516 -0.0957 -0.2769
  961SOL    HW114516   3.446   2.737  11.196  0.6674 -0.7294  1.6378
  961SOL    HW214517   3.560   2.694  11.285 -0.0019  0.2955  0.0095
  962SOL     OW14518   4.080   1.802   7.257 -0.4108  0.5114 -0.1540
  962SOL    HW114519   4.079   1.741   7.330 -0.4797  0.9510  0.2107
  962SOL    HW214520   3.993   1.841   7.254 -0.6875 -0.1153 -0.3652
  963SOL     OW14521   2.390   4.135   3.223 -0.1548  0.9719 -0.2822
  963SOL    HW114522   2.424   4.051   3.253 -1.8043  0.2005 -0.5818
  963SOL    HW214523   2.368   4.113   3.132  0.1761 -1.8869  0.3144
  964SOL     OW14524   1.596   0.085   8.449 -0.1183  0.1254  0.1324
  964SOL    HW114525   1.542   0.163   8.458 -0.9219 -0.1841 -1.9959
  964SOL    HW214526   1.527   0.026   8.419  0.5360 -0.2512 -0.6416
  965SOL     OW14527   2.387   2.904  14.111  0.6525 -0.1098  0.1394
  965SOL    HW114528   2.416   2.989  14.079 -0.2830 -0.8341 -2.6760
  965SOL    HW214529   2.335   2.877  14.035 -1.2114  0.0354  1.3810
  966SOL     OW14530   2.145   2.618  16.351  0.1934 -0.7570 -0.1047
  966SOL    HW114531   2.124   2.537  16.398  0.1805  0.1902  1.5412
  966SOL    HW214532   2.171   2.666  16.430 -2.0065  0.3518 -0.0651
  967SOL     OW14533   3.940   3.871   6.734  0.3154 -0.1173 -0.0486
  967SOL    HW114534   3.916   3.872   6.827 -0.4884  0.0808 -0.2508
  967SOL    HW214535   3.962   3.962   6.712 -1.1787  0.3494  0.3309
  968SOL     OW14536   3.125   1.776   4.445  0.3005  0.2693 -0.2906
  968SOL    HW114537   3.141   1.869   4.426 -3.8334  1.0738  0.1511
  968SOL    HW214538   3.189   1.756   4.513 -0.2857  0.0974  0.2070
  969SOL     OW14539   0.200   0.811   8.331 -0.3285  0.0665  0.2656
  969SOL    HW114540   0.289   0.776   8.330  0.3308  1.7211  1.6598
  969SOL    HW214541   0.184   0.820   8.425 -2.1077 -2.1283  0.1823
  970SOL     OW14542   2.713   0.292   3.832  0.9504 -0.2722 -0.3085
  970SOL    HW114543   2.761   0.375   3.835 -0.1778  0.2546  3.3212
  970SOL    HW214544   2.764   0.234   3.777 -0.8953 -0.9573 -1.2964
  971SOL     OW14545   4.010   3.415   8.992  0.0081  0.3792 -0.9612
  971SOL    HW114546   3.998   3.494   8.939  2.1678  1.4029  0.0661
  971SOL    HW214547   4.105   3.413   9.001 -0.0879  0.8690  0.1957
  972SOL     OW14548   0.193   1.619  11.557  0.1350  0.6834 -0.5171
  972SOL    HW114549   0.111   1.592  11.598  1.7204 -0.2450  2.0197
  972SOL    HW214550   0.166   1.690  11.498 -0.1992  0.9600 -0.0356
  973SOL     OW14551   0.671   0.897  14.090  0.0967  0.4648  0.7004
  973SOL    HW114552   0.655   0.919  13.998  0.7862  0.4724  0.5812
  973SOL    HW214553   0.671   0.980  14.139 -1.3444  1.1161 -0.3925
  974SOL     OW14554   0.474   2.105   2.378 -0.1923  0.0092  0.1318
  974SOL    HW114555   0.404   2.065   2.326  0.8557  0.0476 -1.3272
  974SOL    HW214556   0.484   2.188   2.331 -0.4118 -0.7828 -1.3442
  975SOL     OW14557   1.805   2.725   7.588 -0.4674 -0.1467  0.2604
  975SOL    HW114558   1.711   2.735   7.575  0.1173  3.1846 -1.3993
  975SOL    HW214559   1.830   2.815   7.566  0.6513 -0.5078  0.0824
  976SOL     OW14560   3.248   0.447   6.195 -0.0046  0.1370  0.1509
  976SOL    HW114561   3.311   0.416   6.260 -0.8006  0.3202  1.0110
  976SOL    HW214562   3.234   0.366   6.147  0.1592  0.5069 -0.5330
  977SOL     OW14563   4.678   1.732   4.570  0.5120  0.1336 -0.0880
  977SOL    HW114564   4.654   1.732   4.477 -2.0670  1.2592  0.5741
  977SOL    HW214565   4.593   1.739   4.614  0.8038  1.1129  0.3184
  978SOL     OW14566   1.663   3.072   1.569  0.2316  0.0677 -0.0379
  978SOL    HW114567   1.696   3.003   1.511  1.2478  1.3656 -0.9765
  978SOL    HW214568   1.711   3.058   1.651  0.1068 -2.1187 -0.3273
  979SOL     OW14569   3.161   0.651   4.906 -0.1400 -0.5224  0.3075
  979SOL    HW114570   3.077   0.696   4.915  0.1360  0.1698 -0.6670
  979SOL    HW214571   3.222   0.722   4.924 -0.9460 -0.1883  1.7191
  980SOL     OW14572   2.445   4.698   7.242 -0.3627 -0.4933  0.5625
  980SOL    HW114573   2.371   4.638   7.228 -0.4708 -0.2494  0.0882
  980SOL    HW214574   2.515   4.644   7.206 -0.2178 -1.2872  2.0143
  981SOL     OW14575   0.617   2.661  15.212 -0.3525 -0.2385  0.0860
  981SOL    HW114576   0.677   2.671  15.286 -0.5310  0.8367  0.0908
  981SOL    HW214577   0.538   2.654  15.266 -0.2809  2.3957  0.5306
  982SOL     OW14578   4.334   2.594   3.013 -0.1589  0.3988 -0.2596
  982SOL    HW114579   4.393   2.572   3.085  0.3217  1.4158 -0.3331
  982SOL    HW214580   4.395   2.639   2.955  1.0444 -0.4068  0.3721
  983SOL     OW14581   0.125   4.182   7.774 -0.7181  0.2080  0.1446
  983SOL    HW114582   0.061   4.115   7.750 -1.4338  0.9629 -0.0408
  983SOL    HW214583   0.101   4.205   7.864  0.2019  0.3955  0.3393
  984SOL     OW14584   3.234   0.895   4.433  0.6632 -0.3639  0.6850
  984SOL    HW114585   3.209   0.917   4.523  0.9405  0.8583  0.4623
  984SOL    HW214586   3.166   0.949   4.393  1.3655 -0.1598 -0.2303
  985SOL     OW14587   0.234   1.650   7.060  0.5101 -0.3740 -0.7457
  985SOL    HW114588   0.320   1.653   7.102  0.4552  0.7656 -0.7003
  985SOL    HW214589   0.208   1.561   7.085 -2.5905 -0.1297 -2.9966
  986SOL     OW14590   3.872   0.274   0.610 -0.0088  0.7645  0.6054
  986SOL    HW114591   3.894   0.320   0.691 -0.9829  0.0636  1.2727
  986SOL    HW214592   3.945   0.213   0.617 -0.4199  0.1751 -0.3161
  987SOL     OW14593   4.235   1.748   8.358 -0.5431 -0.2246 -0.2288
  987SOL    HW114594   4.201   1.779   8.442  0.0496 -1.1445  0.3456
  987SOL    HW214595   4.182   1.793   8.292  1.0183  3.0686  0.7500
  988SOL     OW14596   1.933   4.650   6.672  0.4411  0.3425 -0.1647
  988SOL    HW114597   1.954   4.676   6.583  0.1097 -1.5614 -0.7828
  988SOL    HW214598   1.933   4.555   6.664 -1.1122  0.2622  0.7488
  989SOL     OW14599   1.257   0.920   6.657  0.0198 -0.4658 -0.1470
  989SOL    HW114600   1.182   0.948   6.604  0.5135 -1.0745 -1.1515
  989SOL    HW214601   1.218   0.894   6.740 -2.9565 -0.0064 -1.4086
  990SOL     OW14602   3.700   0.085  12.547  0.2229  0.0504 -0.4475
  990SOL    HW114603   3.645   0.066  12.471  0.4543 -2.1432 -0.0748
  990SOL    HW214604   3.753   0.147  12.499  0.2669  0.0638 -0.3823
  991SOL     OW14605   3.275   2.400   2.663 -0.0044  0.6277  0.3809
  991SOL    HW114606   3.303   2.464   2.597 -0.3623 -0.2092 -0.5842
  991SOL    HW214607   3.362   2.364   2.677 -0.8910 -1.4885  0.3455
  992SOL     OW14608   1.399   3.750   1.821  0.0466 -0.2578 -0.2558
  992SOL    HW114609   1.376   3.842   1.833  1.1065 -0.2532  1.7140
  992SOL    HW214610   1.406   3.754   1.726  2.1078  2.2410 -0.0001
  993SOL     OW14611   2.206   2.666   4.967 -0.1690  0.3530  0.1296
  993SOL    HW114612   2.233   2.583   4.930 -0.2035 -0.0858  1.0774
  993SOL    HW214613   2.289   2.713   4.968 -0.4841  0.9275 -0.9476
  994SOL     OW14614   2.356   1.937   9.074 -0.1079  0.5262  0.5075
  994SOL    HW114615   2.284   1.980   9.028 -0.6845 -0.8027  0.1786
  994SOL    HW214616   2.312   1.875   9.132  0.9733 -1.1829 -0.4978
  995SOL     OW14617   4.448   3.240   8.719  0.5566 -0.3471  0.4252
  995SOL    HW114618   4.529   3.249   8.668 -1.1922  1.8324 -1.9423
  995SOL    HW214619   4.458   3.157   8.765 -1.6033 -0.2324  1.0965
  996SOL     OW14620   0.591   3.322  17.513  0.3737 -0.1750  0.0938
  996SOL    HW114621   0.614   3.315  17.605 -0.9892 -0.3265  0.4350
  996SOL    HW214622   0.680   3.336  17.481 -0.3183 -1.1066 -2.2725
  997SOL     OW14623   3.035   1.210   4.530 -0.2825  0.3526  0.0685
  997SOL    HW114624   2.957   1.211   4.587 -1.9788  3.7567 -2.3087
  997SOL    HW214625   3.037   1.301   4.502 -1.4605  0.0548 -0.9704
  998SOL     OW14626   2.447   3.154  10.466  0.5251  0.2320  0.6574
  998SOL    HW114627   2.474   3.081  10.411  1.8313  0.8297  0.5128
  998SOL    HW214628   2.529   3.199  10.446 -0.3833  1.5429 -0.1600
  999SOL     OW14629   3.984   3.768   9.072  0.0987  0.8235 -0.0682
  999SOL    HW114630   3.925   3.735   9.140 -1.6209  2.1253 -0.9441
  999SOL    HW214631   3.921   3.818   9.021 -0.8703  0.0038  0.3141
 1000SOL     OW14632   3.607   2.259   4.871  0.4400 -0.6205 -0.3697
 1000SOL    HW114633   3.595   2.187   4.809  0.5158 -1.1895  0.2740
 1000SOL    HW214634   3.655   2.218   4.943 -0.0200  1.4726  1.1255
 1001SOL     OW14635   4.254   0.484   8.479 -0.3384 -0.2156 -0.2046
 1001SOL    HW114636   4.299   0.511   8.559 -0.6823 -0.3189  0.0273
 1001SOL    HW214637   4.285   0.557   8.426 -0.2725  1.1932  1.7492
 1002SOL     OW14638   3.695   0.301   7.149 -0.2144 -0.2972 -0.1478
 1002SOL    HW114639   3.608   0.292   7.111  0.2274 -0.5706 -1.0844
 1002SOL    HW214640   3.745   0.343   7.079 -0.7813  1.6698  0.6065
 1003SOL     OW14641   4.481   0.794  17.420 -0.3589  0.2952  0.8697
 1003SOL    HW114642   4.568   0.832  17.420 -1.2357  2.2817 -0.3221
 1003SOL    HW214643   4.467   0.769  17.512 -3.6904  1.5155  0.6935
 1004SOL     OW14644   0.189   1.954   5.586 -0.8683  0.5676 -0.0769
 1004SOL    HW114645   0.260   2.009   5.551  0.6201  0.1482  2.3101
 1004SOL    HW214646   0.152   2.000   5.660 -1.0614 -1.3992  1.0483
 1005SOL     OW14647   4.124   1.951  16.583 -0.5658 -1.2568  0.8328
 1005SOL    HW114648   4.184   2.022  16.607 -0.6908 -1.8062  2.7545
 1005SOL    HW214649   4.167   1.873  16.618  0.3681 -0.9168  0.4527
 1006SOL     OW14650   1.648   2.372  11.387 -0.1123  0.3723 -0.2377
 1006SOL    HW114651   1.656   2.462  11.419 -3.0357  0.0528  1.3681
 1006SOL    HW214652   1.641   2.381  11.292  1.2203  2.2442 -0.1434
 1007SOL     OW14653   3.787   3.404   3.849  0.6026 -0.3746 -0.1698
 1007SOL    HW114654   3.826   3.356   3.776  0.9182 -0.9523  0.3696
 1007SOL    HW214655   3.833   3.487   3.844  1.5273 -0.8361  0.6555
 1008SOL     OW14656   2.186   3.971  17.211  0.5063  0.4181 -0.2020
 1008SOL    HW114657   2.193   4.006  17.122 -1.4908  1.6827  0.1230
 1008SOL    HW214658   2.110   3.913  17.201 -1.3430  2.9180 -0.5804
 1009SOL     OW14659   0.050   2.948  12.239  0.0809 -0.1907 -0.0776
 1009SOL    HW114660   0.004   2.908  12.165  0.5777  0.9286 -0.9773
 1009SOL    HW214661   0.006   3.032  12.249  0.0802 -0.2271  0.2256
 1010SOL     OW14662   1.376   3.781   2.595 -0.2613 -0.1336 -0.0784
 1010SOL    HW114663   1.470   3.772   2.578 -0.4790 -2.2737 -0.1365
 1010SOL    HW214664   1.342   3.840   2.529  1.0231  1.4915  0.7036
 1011SOL     OW14665   3.416   1.636   3.219 -0.3413  0.1052  0.1808
 1011SOL    HW114666   3.449   1.662   3.305 -0.4111  1.4816 -0.2042
 1011SOL    HW214667   3.440   1.714   3.168 -1.7774  0.5442  0.1999
 1012SOL     OW14668   3.281   0.259  12.408 -0.8167  0.5545  0.0633
 1012SOL    HW114669   3.325   0.228  12.487  0.0489  0.7495 -0.3419
 1012SOL    HW214670   3.277   0.170  12.373 -0.6768  0.2295  0.9000
 1013SOL     OW14671   0.304   2.876  17.260 -0.0203 -0.2014 -0.2027
 1013SOL    HW114672   0.308   2.929  17.339 -0.4985 -0.6435  0.1173
 1013SOL    HW214673   0.392   2.881  17.222 -0.3376  2.2452 -0.6462
 1014SOL     OW14674   2.985   4.478   7.604  0.5933  0.2046  0.6096
 1014SOL    HW114675   3.075   4.451   7.622  0.2997 -1.7506 -0.9007
 1014SOL    HW214676   3.006   4.568   7.579 -1.8375  1.2253  2.3106
 1015SOL     OW14677   3.056   1.051   3.178  0.3551 -0.0674 -0.1537
 1015SOL    HW114678   3.036   0.957   3.172  0.6711 -0.1334 -0.1663
 1015SOL    HW214679   3.152   1.052   3.169  0.1565  1.0133 -2.2554
 1016SOL     OW14680   2.373   3.910   1.331  0.4221  0.1587 -0.0155
 1016SOL    HW114681   2.284   3.920   1.297  0.6488  1.7246 -0.1675
 1016SOL    HW214682   2.362   3.879   1.420 -0.8337  1.4646  0.2854
 1017SOL     OW14683   1.208   1.465   8.748 -0.1398  0.2913 -0.1148
 1017SOL    HW114684   1.212   1.559   8.730  1.2849  0.5935  1.8175
 1017SOL    HW214685   1.140   1.431   8.689  1.1436 -0.9750 -0.8439
 1018SOL     OW14686   4.247   0.000   7.260 -0.6159  0.0271  0.0646
 1018SOL    HW114687   4.333   4.727   7.221 -1.0102  1.1678 -1.2136
 1018SOL    HW214688   4.193   4.713   7.185  2.0343 -1.1197 -1.4363
 1019SOL     OW14689   0.850   0.384   2.011  0.4455 -0.3085 -0.2363
 1019SOL    HW114690   0.935   0.417   1.983  0.2328  1.7220  1.4988
 1019SOL    HW214691   0.789   0.424   1.949  0.4258  0.8661  0.5302
 1020SOL     OW14692   3.837   1.897   8.331 -0.1516 -0.2809  0.6384
 1020SOL    HW114693   3.915   1.906   8.276 -0.4354  1.1838  0.4677
 1020SOL    HW214694   3.852   1.813   8.373 -0.4828  0.1654  1.6523
 1021SOL     OW14695   1.594   2.157   8.002 -0.6065  0.0204 -0.3538
 1021SOL    HW114696   1.621   2.076   7.959 -1.6385 -0.5751  0.1040
 1021SOL    HW214697   1.673   2.173   8.053 -1.1288  0.2075  0.4016
 1022SOL     OW14698   3.756   2.335   6.750  0.2834 -0.2030 -0.2836
 1022SOL    HW114699   3.663   2.315   6.757  0.4087 -0.6433  0.1605
 1022SOL    HW214700   3.783   2.324   6.842 -1.8044  0.6254  0.4314
 1023SOL     OW14701   0.085   2.107  16.820 -0.1970 -0.1330 -0.2890
 1023SOL    HW114702   0.159   2.065  16.864 -0.3918 -1.2753 -1.0579
 1023SOL    HW214703   0.087   2.189  16.868 -1.6505  0.1733 -0.7727
 1024SOL     OW14704   3.558   2.649   5.636  0.0908  0.0009  0.4260
 1024SOL    HW114705   3.464   2.632   5.649  0.2079  0.1452  1.4896
 1024SOL    HW214706   3.577   2.729   5.685 -0.1235 -0.2625  0.9384
 1025SOL     OW14707   4.493   1.016   7.856 -0.1206  0.4026  0.6461
 1025SOL    HW114708   4.575   1.054   7.889 -0.5452 -1.1793  3.5412
 1025SOL    HW214709   4.533   0.981   7.776  1.6132  1.6155  0.9777
 1026SOL     OW14710   1.764   2.885   6.545 -0.1924 -0.0332 -0.4941
 1026SOL    HW114711   1.792   2.800   6.579 -0.9374 -1.0742 -2.4896
 1026SOL    HW214712   1.785   2.938   6.622 -1.3765 -0.3055  0.0131
 1027SOL     OW14713   1.012   2.267   7.133 -0.6489 -0.4860 -0.0835
 1027SOL    HW114714   0.964   2.232   7.058  0.0159 -1.5253 -0.0188
 1027SOL    HW214715   1.097   2.230   7.110  0.0973 -0.2234  2.2845
 1028SOL     OW14716   4.590   0.434  10.254  0.4782  0.2550 -0.5347
 1028SOL    HW114717   4.677   0.467  10.234  0.0400  1.9403  0.3803
 1028SOL    HW214718   4.518   0.497  10.252 -0.9340 -1.3543 -0.4792
 1029SOL     OW14719   1.020   0.505   1.806  0.0948 -0.4212 -0.1926
 1029SOL    HW114720   0.976   0.447   1.744 -0.4469 -0.9655  0.6927
 1029SOL    HW214721   1.009   0.591   1.768 -2.0604 -0.5669  0.0913
 1030SOL     OW14722   2.218   3.839   7.228  0.0753 -0.5597  0.3563
 1030SOL    HW114723   2.127   3.813   7.212  0.7120 -3.7791  1.8587
 1030SOL    HW214724   2.261   3.772   7.176  0.5446 -0.6612  0.8778
 1031SOL     OW14725   2.591   2.256  14.793 -0.2508  0.2873 -0.1383
 1031SOL    HW114726   2.627   2.272  14.706  1.9623  1.6708  1.0315
 1031SOL    HW214727   2.522   2.321  14.777 -0.4899 -0.2830 -1.3800
 1032SOL     OW14728   2.228   0.205  11.251  0.5890  0.1220  0.1075
 1032SOL    HW114729   2.274   0.164  11.324  2.6810  0.9870 -0.6926
 1032SOL    HW214730   2.273   0.289  11.239  0.3509  0.4920  1.8435
 1033SOL     OW14731   0.715   0.204   9.494 -0.3228 -0.0618  0.0837
 1033SOL    HW114732   0.722   0.203   9.399  2.6310 -0.4418  0.3223
 1033SOL    HW214733   0.719   0.113   9.524  1.5673  0.1975  0.5985
 1034SOL     OW14734   2.507   0.700   9.226 -0.2577 -0.1986 -0.2807
 1034SOL    HW114735   2.453   0.621   9.218  0.1350 -0.4048 -0.8734
 1034SOL    HW214736   2.472   0.745   9.303  1.5921  2.2290 -0.8699
 1035SOL     OW14737   2.284   2.302   6.336 -0.1248 -0.0135 -0.8633
 1035SOL    HW114738   2.336   2.314   6.257  2.3296  2.0164  1.0445
 1035SOL    HW214739   2.347   2.339   6.398 -1.5599 -3.0657  2.4748
 1036SOL     OW14740   1.959   3.723  12.656  0.3822  0.0638  0.0342
 1036SOL    HW114741   1.930   3.652  12.599  2.1678  0.3385 -1.2157
 1036SOL    HW214742   1.937   3.688  12.742 -2.7459  0.4645 -0.5927
 1037SOL     OW14743   3.984   0.026  14.255  0.1112 -0.2406 -0.1822
 1037SOL    HW114744   4.021   0.088  14.192 -1.3316  1.3920  0.5913
 1037SOL    HW214745   3.935   0.084  14.313  1.7731 -0.2011  1.1839
 1038SOL     OW14746   0.057   4.138   7.334 -0.3061 -0.5787 -0.6078
 1038SOL    HW114747   4.720   4.087   7.307 -0.9437 -0.3136  0.7316
 1038SOL    HW214748   0.093   4.074   7.395  0.6976 -2.5554 -3.2486
 1039SOL     OW14749   1.998   2.793  17.281 -0.1615  0.1736  0.4209
 1039SOL    HW114750   2.006   2.816  17.188  0.2403  2.0477  0.9139
 1039SOL    HW214751   1.939   2.865  17.304  2.0655  1.9103  0.6892
 1040SOL     OW14752   4.356   2.668   2.371 -0.0844 -0.0538 -0.4730
 1040SOL    HW114753   4.349   2.672   2.276  2.0173  0.0896 -0.6160
 1040SOL    HW214754   4.274   2.704   2.406  1.6661  2.7029  0.7744
 1041SOL     OW14755   3.146   0.795   0.987 -0.2160  0.1195  0.6702
 1041SOL    HW114756   3.148   0.881   1.028 -0.3407 -0.4082  1.7817
 1041SOL    HW214757   3.208   0.795   0.915 -2.3042  0.5347 -1.1432
 1042SOL     OW14758   2.867   2.093   4.898  0.1913  0.6053  0.1541
 1042SOL    HW114759   2.952   2.135   4.906 -0.3516  1.2054  2.9155
 1042SOL    HW214760   2.861   2.102   4.803 -1.0914 -0.4854  0.1316
 1043SOL     OW14761   2.081   1.850  16.763 -0.1278 -0.2652 -0.2133
 1043SOL    HW114762   2.020   1.801  16.819 -0.2272  1.1873  0.9547
 1043SOL    HW214763   2.156   1.846  16.823  0.4779 -2.3426 -1.1149
 1044SOL     OW14764   2.474   0.494  12.039 -0.2142  0.0907  0.3340
 1044SOL    HW114765   2.508   0.424  12.096 -0.1088  0.6787  0.9841
 1044SOL    HW214766   2.415   0.527  12.106  1.1163  0.0825  1.5234
 1045SOL     OW14767   4.361   4.701   2.763  0.4990 -0.6685 -0.2279
 1045SOL    HW114768   4.434   0.021   2.749 -0.4382  0.1169 -1.8617
 1045SOL    HW214769   4.353   4.661   2.676  0.9193 -0.3153 -0.4321
 1046SOL     OW14770   2.030   4.300   6.037 -0.0028  0.2268  0.1623
 1046SOL    HW114771   2.060   4.236   5.972 -2.0800  2.1790 -2.7074
 1046SOL    HW214772   2.115   4.326   6.072  0.2870 -0.1881 -0.2412
 1047SOL     OW14773   4.425   0.701   6.794  0.6912  0.3969 -0.6479
 1047SOL    HW114774   4.437   0.682   6.887  0.7173  0.0357 -0.7249
 1047SOL    HW214775   4.498   0.761   6.781  0.6029  0.6891  0.1888
 1048SOL     OW14776   0.212   4.352  11.613 -0.3559  0.1400 -0.3124
 1048SOL    HW114777   0.178   4.439  11.631  1.5429  0.6774  0.7063
 1048SOL    HW214778   0.169   4.295  11.676 -0.5848 -0.2852 -0.8498
 1049SOL     OW14779   0.752   1.811   7.358  0.1821  0.0772 -0.7349
 1049SOL    HW114780   0.672   1.857   7.383  0.0791 -0.8431  0.6191
 1049SOL    HW214781   0.749   1.743   7.425 -0.4003  0.7232 -0.1136
 1050SOL     OW14782   0.671   3.023  10.528 -0.1316 -0.3877  0.0566
 1050SOL    HW114783   0.730   3.099  10.526 -1.3225  0.5527  0.2398
 1050SOL    HW214784   0.741   2.959  10.520  0.8271  0.6373  0.2141
 1051SOL     OW14785   1.324   1.048   2.591 -0.0871 -0.2135  0.3878
 1051SOL    HW114786   1.346   1.080   2.504 -0.7453  0.4721  0.4737
 1051SOL    HW214787   1.254   0.988   2.564 -1.0346  0.5317  1.1827
 1052SOL     OW14788   1.716   3.816   2.745  0.0355 -0.1015  0.6637
 1052SOL    HW114789   1.657   3.889   2.762 -2.8208 -2.0472 -0.8641
 1052SOL    HW214790   1.677   3.775   2.668 -0.7341 -1.0613  1.5654
 1053SOL     OW14791   2.134   0.504  10.052  0.1980 -0.3319 -0.1495
 1053SOL    HW114792   2.203   0.457  10.004  0.8829 -0.0107  0.5147
 1053SOL    HW214793   2.129   0.436  10.120  1.6777 -1.2174 -0.9213
 1054SOL     OW14794   1.213   2.254  13.144 -0.4089 -0.0812 -0.2300
 1054SOL    HW114795   1.218   2.162  13.121 -0.6240  0.3681 -2.0886
 1054SOL    HW214796   1.288   2.276  13.088  1.4696 -1.0238  1.9095
 1055SOL     OW14797   2.268   1.869   1.451 -0.3300 -0.0583 -0.0265
 1055SOL    HW114798   2.272   1.936   1.519 -1.4370 -1.2707  1.2191
 1055SOL    HW214799   2.255   1.788   1.500 -0.3808  0.4196  0.7410
 1056SOL     OW14800   2.757   2.389   7.819 -0.1015 -0.5650  0.0342
 1056SOL    HW114801   2.721   2.477   7.826  0.1496 -0.4469 -0.1770
 1056SOL    HW214802   2.743   2.353   7.907  2.3124 -0.5649  0.3999
 1057SOL     OW14803   3.420   1.954   1.936  0.8107  0.2683 -0.0609
 1057SOL    HW114804   3.449   2.003   2.012 -1.3526  2.4072 -0.6250
 1057SOL    HW214805   3.347   2.006   1.903  0.0405 -1.1581 -0.6064
 1058SOL     OW14806   0.129   4.101   8.212 -1.0119 -0.1993  0.2248
 1058SOL    HW114807   0.189   4.063   8.148  1.4592  0.8620  1.9149
 1058SOL    HW214808   0.189   4.103   8.286 -1.0795  0.3801  0.2678
 1059SOL     OW14809   4.082   2.485   2.417  0.1970  0.6917  0.9915
 1059SOL    HW114810   4.135   2.473   2.496  0.8428  0.8030  0.5732
 1059SOL    HW214811   4.123   2.424   2.355  0.2610 -0.2906  1.9780
 1060SOL     OW14812   0.598   0.226  15.233 -0.2375  0.8172 -0.3292
 1060SOL    HW114813   0.628   0.140  15.203 -0.8889  0.5824 -0.3158
 1060SOL    HW214814   0.601   0.280  15.154  0.0467 -0.7142 -1.3685
 1061SOL     OW14815   0.850   2.394   3.889 -0.0916 -0.3420 -0.0228
 1061SOL    HW114816   0.894   2.370   3.808  1.4404 -0.1535  0.7475
 1061SOL    HW214817   0.809   2.477   3.866  0.5129  0.7738  2.8634
 1062SOL     OW14818   3.642   0.313   9.815 -0.4008  0.1576 -0.2152
 1062SOL    HW114819   3.612   0.299   9.725 -1.1764 -0.1774  0.0912
 1062SOL    HW214820   3.636   0.408   9.820 -1.2041  0.0747  0.3987
 1063SOL     OW14821   3.621   1.085   5.598  0.2251  0.0239 -0.0477
 1063SOL    HW114822   3.638   0.993   5.619  2.1101  0.2304 -0.6415
 1063SOL    HW214823   3.554   1.102   5.664  0.5480  0.1987  0.2412
 1064SOL     OW14824   2.214   1.892  12.704 -0.1304 -0.5114  0.3542
 1064SOL    HW114825   2.301   1.854  12.694 -0.2072 -0.6190  0.1096
 1064SOL    HW214826   2.174   1.818  12.751 -3.3456 -1.2535 -3.4957
 1065SOL     OW14827   0.656   2.594  16.985 -0.5773 -0.1326 -0.2465
 1065SOL    HW114828   0.749   2.616  16.979 -0.9398  1.1332 -1.1342
 1065SOL    HW214829   0.618   2.638  16.909  0.5798  1.2365 -0.0285
 1066SOL     OW14830   3.696   2.529   1.164  0.1742  0.3153  0.5939
 1066SOL    HW114831   3.782   2.492   1.188 -0.9711 -0.8237  2.9334
 1066SOL    HW214832   3.644   2.458   1.202  1.5051 -0.1956  1.4687
 1067SOL     OW14833   3.937   1.262   5.317  0.0208 -0.6561  0.1071
 1067SOL    HW114834   3.971   1.225   5.236 -2.0247 -2.3022 -0.0053
 1067SOL    HW214835   3.997   1.333   5.340  0.1919 -0.1369 -1.9156
 1068SOL     OW14836   4.207   0.136  12.277  0.3099 -0.3031  0.0288
 1068SOL    HW114837   4.178   0.207  12.334 -2.8289 -0.5603 -1.2976
 1068SOL    HW214838   4.262   0.196  12.226  1.7505 -1.5461  0.1065
 1069SOL     OW14839   0.302   2.104   7.791  0.6934 -0.4297 -0.1172
 1069SOL    HW114840   0.209   2.087   7.779  1.0107 -1.3303 -1.2264
 1069SOL    HW214841   0.297   2.199   7.802  1.8084 -0.2653 -1.1162
 1070SOL     OW14842   0.244   4.224   9.615  0.2331 -0.2190 -0.7630
 1070SOL    HW114843   0.278   4.269   9.537 -0.9993  3.2998  0.7150
 1070SOL    HW214844   0.202   4.145   9.581 -0.3013 -0.6673  0.9397
 1071SOL     OW14845   2.498   0.898   2.201 -0.8080  0.3534 -0.0510
 1071SOL    HW114846   2.456   0.825   2.246 -0.0451  2.1110  3.5435
 1071SOL    HW214847   2.478   0.874   2.110  2.0297 -0.5627 -0.4331
 1072SOL     OW14848   3.799   4.654  14.472  0.2844  0.4397 -0.3815
 1072SOL    HW114849   3.870   4.717  14.464  0.3459  0.4536  0.2548
 1072SOL    HW214850   3.728   4.707  14.506 -2.3432 -2.0131 -1.9614
 1073SOL     OW14851   1.891   4.551  13.504  0.3650  0.1998 -0.3969
 1073SOL    HW114852   1.806   4.522  13.537  0.3329 -0.9166 -1.4292
 1073SOL    HW214853   1.956   4.513  13.563 -1.2616 -2.8155 -0.5274
 1074SOL     OW14854   4.281   3.236   5.789 -0.3175 -0.3054  0.0169
 1074SOL    HW114855   4.232   3.159   5.761 -0.8692 -0.1047  0.4444
 1074SOL    HW214856   4.223   3.312   5.777 -1.0740 -0.7091  1.1531
 1075SOL     OW14857   0.171   3.233  15.170 -0.2199  0.1772  0.5265
 1075SOL    HW114858   0.232   3.159  15.182 -1.1938 -0.6327  0.5107
 1075SOL    HW214859   0.140   3.251  15.258 -1.0557 -0.1269  0.2953
 1076SOL     OW14860   2.695   2.888   9.215  0.4748  0.1682 -0.1988
 1076SOL    HW114861   2.725   2.867   9.126  0.2499 -1.3149  0.0739
 1076SOL    HW214862   2.707   2.982   9.227  1.7529 -0.0651  0.4669
 1077SOL     OW14863   2.772   3.806  11.523 -0.1693  0.0104  0.1172
 1077SOL    HW114864   2.793   3.735  11.462 -1.7780 -1.0606  0.8050
 1077SOL    HW214865   2.683   3.780  11.548 -0.2522 -0.4471 -0.6537
 1078SOL     OW14866   3.814   2.532   9.788 -0.0894 -0.1682 -0.1787
 1078SOL    HW114867   3.898   2.567   9.817 -1.0245  1.5403  0.4945
 1078SOL    HW214868   3.798   2.579   9.706 -2.2623  0.8054  0.7899
 1079SOL     OW14869   0.324   2.700   1.381  0.1716 -0.0692 -0.2740
 1079SOL    HW114870   0.243   2.702   1.329 -0.0353  0.0174  0.0511
 1079SOL    HW214871   0.320   2.772   1.444 -1.8720  0.4755 -1.0284
 1080SOL     OW14872   0.552   1.277   9.131 -0.3272 -0.5168  0.2793
 1080SOL    HW114873   0.594   1.322   9.058 -1.1977 -0.4997 -0.2173
 1080SOL    HW214874   0.468   1.252   9.092  0.4523  0.6994 -2.1871
 1081SOL     OW14875   3.130   3.644   5.541  0.4045 -0.0017 -0.2152
 1081SOL    HW114876   3.136   3.683   5.628 -1.3387  1.2031 -0.6354
 1081SOL    HW214877   3.041   3.610   5.540  0.7333 -0.8601 -0.8484
 1082SOL     OW14878   2.644   1.517   6.889 -0.0149 -0.9364  0.1365
 1082SOL    HW114879   2.588   1.464   6.832 -1.5285  0.0814  0.6860
 1082SOL    HW214880   2.586   1.530   6.963 -0.8747 -1.9028 -0.3677
 1083SOL     OW14881   3.383   3.068   7.142 -0.1154 -0.2263  0.0502
 1083SOL    HW114882   3.446   3.001   7.170 -0.6747 -1.0957 -0.7975
 1083SOL    HW214883   3.342   3.004   7.084 -0.4689  0.1814 -0.1534
 1084SOL     OW14884   1.565   3.753   9.580 -0.3113 -0.0682  0.0926
 1084SOL    HW114885   1.636   3.806   9.618  0.6117 -0.2807 -1.3474
 1084SOL    HW214886   1.585   3.773   9.488 -0.0262 -1.3366 -0.1115
 1085SOL     OW14887   3.982   1.927   5.962  0.1966 -0.0787  0.6932
 1085SOL    HW114888   3.895   1.914   5.999 -0.6096  1.6628 -0.5843
 1085SOL    HW214889   3.996   2.022   5.964  0.7999 -0.2277  2.6860
 1086SOL     OW14890   0.992   2.871  11.326  0.2929 -0.0031 -0.4947
 1086SOL    HW114891   0.902   2.844  11.307 -0.3260  2.1047 -0.5733
 1086SOL    HW214892   1.003   2.961  11.293 -2.0185  0.4550  0.0351
 1087SOL     OW14893   2.911   2.122   2.851  0.3387 -0.2729 -0.4960
 1087SOL    HW114894   2.882   2.203   2.809 -1.5074 -0.3662  0.6138
 1087SOL    HW214895   2.998   2.147   2.883  1.0603  0.3690 -2.9718
 1088SOL     OW14896   3.744   3.060   5.024 -0.2258 -0.5982  0.4755
 1088SOL    HW114897   3.803   3.127   5.059 -1.4325  0.9479 -0.4043
 1088SOL    HW214898   3.663   3.111   5.038  0.3706  0.5200 -0.1771
 1089SOL     OW14899   4.479   2.166   2.846  0.5811  0.0927 -0.2567
 1089SOL    HW114900   4.496   2.231   2.778 -1.9460  0.9490 -0.0791
 1089SOL    HW214901   4.394   2.132   2.819  0.4959  0.9862 -1.1156
 1090SOL     OW14902   2.766   4.402  10.732 -0.3229 -0.5080 -0.0549
 1090SOL    HW114903   2.756   4.425  10.639  0.7905 -2.5620 -0.6765
 1090SOL    HW214904   2.711   4.464  10.781 -1.7397 -2.8929  1.3814
 1091SOL     OW14905   0.523   1.228   8.199  0.1011  0.3955  0.0628
 1091SOL    HW114906   0.548   1.222   8.107  2.3714 -0.1250  0.7055
 1091SOL    HW214907   0.486   1.315   8.212 -0.4239  0.2310 -0.3096
 1092SOL     OW14908   3.105   3.601   9.094 -0.0996 -0.3043  0.7106
 1092SOL    HW114909   3.104   3.665   9.022  0.8064  0.4751  1.3965
 1092SOL    HW214910   3.043   3.537   9.059  2.1822 -2.4703  0.7172
 1093SOL     OW14911   0.695   1.659   9.836  0.7508 -0.3288  0.2809
 1093SOL    HW114912   0.756   1.715   9.788  1.1317 -0.1404  0.9842
 1093SOL    HW214913   0.665   1.710   9.912  2.6417  0.6340  0.3822
 1094SOL     OW14914   2.962   3.321   7.749 -0.1173 -0.6270 -0.7173
 1094SOL    HW114915   2.952   3.242   7.696 -1.7400  0.1959 -1.6711
 1094SOL    HW214916   2.881   3.370   7.731 -0.3131 -0.1481  1.3990
 1095SOL     OW14917   3.323   1.524   4.585  0.0370  0.3454 -0.3483
 1095SOL    HW114918   3.389   1.591   4.568  2.0129 -1.2620  0.9201
 1095SOL    HW214919   3.260   1.584   4.624  2.1321  1.3561  1.5184
 1096SOL     OW14920   3.653   4.129  11.233 -0.4908 -0.2531 -0.3577
 1096SOL    HW114921   3.722   4.087  11.283  0.9642 -0.2033 -2.3357
 1096SOL    HW214922   3.654   4.081  11.150 -0.4050  0.3164 -0.6839
 1097SOL     OW14923   1.623   4.485   4.392 -0.9637 -0.5804 -0.6496
 1097SOL    HW114924   1.577   4.534   4.324  0.0922  1.0057 -0.2368
 1097SOL    HW214925   1.557   4.426   4.428 -2.0201 -0.1146 -1.8188
 1098SOL     OW14926   0.919   4.677  11.478  0.1273  0.4380 -0.0143
 1098SOL    HW114927   0.987   4.625  11.435  1.1269 -0.6293  2.8224
 1098SOL    HW214928   0.867   4.683  11.398  0.7966  0.7341 -0.4321
 1099SOL     OW14929   0.027   0.016   3.277 -0.4979  0.5802 -0.0952
 1099SOL    HW114930   0.097   4.731   3.216 -1.2396 -0.8018 -0.3723
 1099SOL    HW214931   4.708   0.069   3.223  1.0949 -0.1566 -2.5557
 1100SOL     OW14932   3.101   1.985   4.698  0.1454  0.8435 -0.0295
 1100SOL    HW114933   3.031   2.029   4.649  0.5302  1.2202 -0.2493
 1100SOL    HW214934   3.174   2.029   4.654 -0.1355  0.2730 -1.0656
 1101SOL     OW14935   0.281   3.482   7.797  0.4194  1.0818  0.1291
 1101SOL    HW114936   0.263   3.428   7.874 -1.0385  0.1263 -0.8648
 1101SOL    HW214937   0.197   3.483   7.751  0.8545  2.0004 -0.6460
 1102SOL     OW14938   4.505   0.746   3.989  0.5316 -0.6589  0.2216
 1102SOL    HW114939   4.546   0.699   4.061  1.7085 -0.1625 -0.1098
 1102SOL    HW214940   4.555   0.705   3.919  0.8012  0.1880 -0.0922
 1103SOL     OW14941   4.640   1.471   2.142  0.2807  0.5113 -0.2235
 1103SOL    HW114942   4.609   1.395   2.094 -0.1898  1.4646 -1.4122
 1103SOL    HW214943   4.706   1.426   2.195  0.6403  1.7756  0.4006
 1104SOL     OW14944   4.034   0.779  12.030 -0.2030  0.7605 -0.3301
 1104SOL    HW114945   4.105   0.841  12.012 -0.2070  1.1469  0.9828
 1104SOL    HW214946   4.070   0.711  12.087 -0.5879  3.3769  3.0943
 1105SOL     OW14947   0.091   2.547   9.791  0.0581 -0.3275  0.6231
 1105SOL    HW114948   0.053   2.598   9.720 -1.0299 -1.2628  0.5409
 1105SOL    HW214949   0.123   2.619   9.845  1.9151 -0.1499 -0.7046
 1106SOL     OW14950   2.234   3.999   3.558  0.2001  0.0173  0.4501
 1106SOL    HW114951   2.257   4.071   3.616 -1.7926  1.3120 -0.3674
 1106SOL    HW214952   2.318   3.985   3.516  0.8925  0.2139  1.7822
 1107SOL     OW14953   4.369   1.205   1.827 -0.5128 -0.1939 -0.0649
 1107SOL    HW114954   4.391   1.123   1.783 -1.9202  0.8867 -2.8052
 1107SOL    HW214955   4.387   1.264   1.755  0.8978  0.3814  0.7643
 1108SOL     OW14956   1.105   3.453  14.890  0.2653  0.0211 -0.3156
 1108SOL    HW114957   1.167   3.446  14.817  0.6705  0.3446  0.0003
 1108SOL    HW214958   1.078   3.361  14.891  1.1990 -0.2682 -1.5575
 1109SOL     OW14959   4.305   3.446   9.267  0.6483  0.2747  0.2841
 1109SOL    HW114960   4.274   3.357   9.250 -1.4671  1.3617 -1.4832
 1109SOL    HW214961   4.258   3.496   9.200  1.4075 -0.5107 -0.8284
 1110SOL     OW14962   1.771   0.454   4.202 -0.0444  0.2224  0.5756
 1110SOL    HW114963   1.789   0.365   4.171  3.2622  0.4866  1.7550
 1110SOL    HW214964   1.830   0.507   4.150 -0.0018 -1.8521 -1.4642
 1111SOL     OW14965   2.918   3.868   3.070 -1.0206  0.6113 -0.0128
 1111SOL    HW114966   2.823   3.865   3.073 -1.0263 -0.4285 -0.9820
 1111SOL    HW214967   2.923   3.954   3.027  1.2555  0.6427  0.2970
 1112SOL     OW14968   3.134   1.412   6.580  0.1027 -0.0173 -0.2150
 1112SOL    HW114969   3.155   1.444   6.668 -0.9327 -2.0491  0.7612
 1112SOL    HW214970   3.183   1.468   6.520 -2.0096  2.3262  0.2569
 1113SOL     OW14971   2.841   1.702   6.497 -0.0916  0.5314 -0.4980
 1113SOL    HW114972   2.809   1.612   6.489  0.1823  0.5733 -2.0123
 1113SOL    HW214973   2.762   1.754   6.484 -0.2938  0.5241  0.7389
 1114SOL     OW14974   1.364   2.231  17.750 -0.8123  0.6393  0.1976
 1114SOL    HW114975   1.412   2.221   0.075 -0.1607  0.3490 -0.2159
 1114SOL    HW214976   1.436   2.248  17.689 -0.2345 -0.3936  0.5974
 1115SOL     OW14977   3.060   0.767   7.326 -0.0416 -0.5058  0.1955
 1115SOL    HW114978   3.062   0.822   7.404  0.9518 -0.0173 -0.1778
 1115SOL    HW214979   3.017   0.828   7.266  0.5505  2.4137  2.7206
 1116SOL     OW14980   4.160   3.620   4.296 -0.4688  0.1905 -0.6007
 1116SOL    HW114981   4.206   3.696   4.260  0.3338  0.6976  1.5320
 1116SOL    HW214982   4.103   3.653   4.365 -0.5894  2.9283 -2.0152
 1117SOL     OW14983   4.404   4.735   4.335  0.2917  0.3019 -0.1949
 1117SOL    HW114984   4.378   0.033   4.419 -0.2868 -0.9375  0.1827
 1117SOL    HW214985   4.488   0.040   4.334  1.0533 -1.1756 -3.6339
 1118SOL     OW14986   2.522   3.480   7.281  0.8374 -0.0178  0.2935
 1118SOL    HW114987   2.609   3.518   7.293  1.3795 -0.9789 -0.6594
 1118SOL    HW214988   2.476   3.565   7.282  1.3417  0.2435  1.5330
 1119SOL     OW14989   3.121   4.703   7.959 -0.6156  0.0752  0.1764
 1119SOL    HW114990   3.166   0.011   7.889 -2.1760 -1.0158 -1.5464
 1119SOL    HW214991   3.046   0.017   7.983  0.4119  1.4774  0.2509
 1120SOL     OW14992   3.734   4.412   0.665 -0.2755 -0.2404 -0.2364
 1120SOL    HW114993   3.770   4.469   0.596 -0.7509  0.5689  0.1803
 1120SOL    HW214994   3.644   4.444   0.661  0.0331  0.4604 -1.7154
 1121SOL     OW14995   2.903   1.485  10.161  0.2053  0.3477 -0.5584
 1121SOL    HW114996   2.901   1.521  10.250  0.9047  1.1484 -0.8740
 1121SOL    HW214997   2.832   1.534  10.119 -0.3174  1.5929  1.7740
 1122SOL     OW14998   1.630   1.283   2.831  0.0156  0.1651  0.1162
 1122SOL    HW114999   1.620   1.273   2.926 -1.1617  0.1049 -0.0128
 1122SOL    HW215000   1.552   1.330   2.804  1.4232  3.0026  0.9861
 1123SOL     OW15001   4.616   3.665  15.480 -0.1836  0.1468 -0.1445
 1123SOL    HW115002   4.700   3.701  15.451 -0.2040  1.2551  1.1397
 1123SOL    HW215003   4.560   3.718  15.422 -2.0680  0.1357  1.6718
 1124SOL     OW15004   0.977   2.355   5.803 -0.5992  0.6716 -0.4664
 1124SOL    HW115005   1.018   2.374   5.719 -2.1933 -0.8618 -1.5884
 1124SOL    HW215006   1.006   2.265   5.817 -0.0450  0.9817  0.3513
 1125SOL     OW15007   1.456   2.902   1.122  0.0901  0.0759 -0.0934
 1125SOL    HW115008   1.394   2.952   1.175 -0.8883 -1.3412  0.1283
 1125SOL    HW215009   1.463   2.816   1.164 -1.0580 -1.0355 -2.1912
 1126SOL     OW15010   4.541   3.233  14.829  0.0314 -0.1009 -0.0615
 1126SOL    HW115011   4.621   3.260  14.784 -0.3088 -0.8701 -1.1296
 1126SOL    HW215012   4.520   3.164  14.765  4.0484 -1.5492  0.1794
 1127SOL     OW15013   4.061   3.543  10.168 -0.2998 -0.3889 -0.1955
 1127SOL    HW115014   4.058   3.578  10.257 -1.1710 -2.4165  0.5792
 1127SOL    HW215015   4.109   3.461  10.172 -0.0960 -0.3175 -1.1791
 1128SOL     OW15016   2.324   1.055   0.010  0.2455  0.0801 -0.5202
 1128SOL    HW115017   2.296   1.146   0.002 -0.1691 -0.0704 -0.7419
 1128SOL    HW215018   2.240   1.018  17.742  0.1416 -0.4153  0.5501
 1129SOL     OW15019   3.832   3.483   5.351 -0.1790 -0.2875  0.0644
 1129SOL    HW115020   3.778   3.469   5.429  1.0930 -0.8390  0.8467
 1129SOL    HW215021   3.798   3.421   5.286  2.3983 -1.2082 -0.4060
 1130SOL     OW15022   4.180   2.792   9.179 -0.1553 -0.5828 -0.2430
 1130SOL    HW115023   4.138   2.707   9.171 -0.0809 -0.6822  0.3887
 1130SOL    HW215024   4.270   2.769   9.200 -0.3351 -0.0503  1.1515
 1131SOL     OW15025   4.673   0.185   2.432  0.0927  0.0594  0.3781
 1131SOL    HW115026   4.646   0.122   2.366  2.2683 -1.0024  0.4979
 1131SOL    HW215027   0.012   0.226   2.395  1.4258 -0.6340  2.4490
 1132SOL     OW15028   4.167   4.504   3.879  0.3301  0.4215 -0.0350
 1132SOL    HW115029   4.099   4.442   3.907 -0.4197  0.3413 -1.9984
 1132SOL    HW215030   4.187   4.550   3.960  4.5126 -0.0087 -0.8492
 1133SOL     OW15031   0.593   1.328   6.943  0.2858  0.6857 -0.2845
 1133SOL    HW115032   0.524   1.364   6.887 -0.4565  0.1527  0.2667
 1133SOL    HW215033   0.560   1.238   6.953  1.1421  0.1502 -2.2696
 1134SOL     OW15034   0.101   3.171   2.048 -0.2551 -0.9085  0.5786
 1134SOL    HW115035   0.120   3.081   2.073  3.2907 -0.0019  1.0665
 1134SOL    HW215036   0.114   3.222   2.128  1.5306 -0.8992  0.2902
 1135SOL     OW15037   0.856   0.267  17.518 -0.8875  0.5150 -0.1798
 1135SOL    HW115038   0.796   0.194  17.530  0.4645 -0.8497 -1.6140
 1135SOL    HW215039   0.794   0.339  17.530  1.5812  2.6115  0.1310
 1136SOL     OW15040   1.409   1.222   7.010  0.3426  0.1832 -0.1753
 1136SOL    HW115041   1.434   1.252   7.097  1.9410 -2.6649  0.3308
 1136SOL    HW215042   1.485   1.168   6.987  0.7380  0.1251  1.3143
 1137SOL     OW15043   4.246   3.320   1.429  0.1095 -0.0298  0.0099
 1137SOL    HW115044   4.296   3.285   1.502  2.1085 -0.8804 -1.7685
 1137SOL    HW215045   4.316   3.323   1.363 -0.3093  0.7077 -0.4148
 1138SOL     OW15046   4.670   2.156   8.472 -0.1423 -0.8098  0.1758
 1138SOL    HW115047   4.587   2.115   8.495 -0.8825  0.6243  0.0477
 1138SOL    HW215048   4.673   2.212   8.550  0.6906 -2.1024  1.0609
 1139SOL     OW15049   2.218   3.199  16.741  0.2261  0.7667  0.0110
 1139SOL    HW115050   2.140   3.242  16.775  0.3497  1.1526 -0.1913
 1139SOL    HW215051   2.195   3.177  16.651 -2.4557  0.6934  0.7257
 1140SOL     OW15052   1.093   1.933  10.077  0.8534  0.2002  0.2339
 1140SOL    HW115053   1.125   1.997  10.140 -0.5782  0.5860  0.5657
 1140SOL    HW215054   1.088   1.852  10.127 -2.0194  0.2622  0.0360
 1141SOL     OW15055   2.902   1.651  12.757  0.8734 -0.0262  0.2593
 1141SOL    HW115056   2.810   1.639  12.735  1.5060 -1.7747 -1.3898
 1141SOL    HW215057   2.937   1.680  12.673  0.5387  1.3086  0.5779
 1142SOL     OW15058   0.352   4.458   8.572 -0.0503 -0.5714 -0.2073
 1142SOL    HW115059   0.445   4.468   8.553  0.2273 -2.0090  0.3447
 1142SOL    HW215060   0.313   4.471   8.486  0.1825  0.4162 -0.1618
 1143SOL     OW15061   3.075   0.650  15.936 -0.5863  0.3516  0.2918
 1143SOL    HW115062   3.005   0.599  15.978  0.5541 -2.8102 -1.6226
 1143SOL    HW215063   3.086   0.731  15.986 -1.8375 -0.1006  1.3290
 1144SOL     OW15064   0.227   1.766  13.118 -0.4861  0.0847 -0.5403
 1144SOL    HW115065   0.183   1.735  13.197 -0.0403 -0.0057 -0.3247
 1144SOL    HW215066   0.200   1.858  13.122  0.5174  0.4181 -1.6029
 1145SOL     OW15067   0.070   0.557   3.948 -0.3898  0.2095 -0.3321
 1145SOL    HW115068   0.131   0.630   3.941  1.5301 -1.3334  0.2832
 1145SOL    HW215069   0.102   0.518   4.029 -2.6100 -0.7583  0.0840
 1146SOL     OW15070   2.629   0.925   3.983  0.2771 -0.2713  0.3100
 1146SOL    HW115071   2.546   0.943   3.939  0.0066 -1.2422  0.4093
 1146SOL    HW215072   2.672   1.010   3.983 -1.4455  0.6017  0.2702
 1147SOL     OW15073   2.020   3.198   7.840 -0.1629  0.1405  0.4371
 1147SOL    HW115074   2.094   3.138   7.852  1.3074  1.7220 -0.7831
 1147SOL    HW215075   2.028   3.216   7.746 -2.3759 -1.3891 -0.0613
 1148SOL     OW15076   3.798   3.420   4.500 -0.5484 -0.7452  0.3707
 1148SOL    HW115077   3.886   3.402   4.534 -0.2254 -1.0894 -0.6618
 1148SOL    HW215078   3.794   3.515   4.490  2.6737 -0.8795 -2.3024
 1149SOL     OW15079   2.815   0.924   9.766 -0.0027  0.1638  0.4918
 1149SOL    HW115080   2.879   0.971   9.819 -0.7406  1.1084  0.5633
 1149SOL    HW215081   2.858   0.921   9.680 -2.4310 -0.6842 -0.7077
 1150SOL     OW15082   1.162   3.989   2.172  0.3737 -0.5112  0.3831
 1150SOL    HW115083   1.155   3.927   2.099 -0.4669  0.4477 -0.3457
 1150SOL    HW215084   1.116   4.062   2.131  1.0059  0.6118  1.6983
 1151SOL     OW15085   1.396   1.676   3.365 -0.5417 -0.0401 -0.3481
 1151SOL    HW115086   1.453   1.692   3.440 -1.3459 -1.2675  0.5172
 1151SOL    HW215087   1.356   1.597   3.401  2.2732 -1.8227 -1.0591
 1152SOL     OW15088   2.633   2.688   3.442 -0.1795 -0.5201  0.4454
 1152SOL    HW115089   2.707   2.656   3.494  0.4979 -1.5261 -1.1014
 1152SOL    HW215090   2.608   2.608   3.395 -0.1935 -0.7868  0.9032
 1153SOL     OW15091   3.311   2.916  15.138 -0.0362  0.2064 -0.0146
 1153SOL    HW115092   3.288   2.826  15.115  1.3488 -0.1054 -0.1799
 1153SOL    HW215093   3.368   2.899  15.213 -1.3884 -0.6685  0.8111
 1154SOL     OW15094   4.066   4.295  15.172  0.0903  0.1934 -0.2904
 1154SOL    HW115095   4.129   4.267  15.106  2.0328  0.4598  1.4541
 1154SOL    HW215096   4.120   4.263  15.244 -0.7379  1.4671  0.8944
 1155SOL     OW15097   1.149   2.526   2.042 -0.2938  0.1648 -0.3326
 1155SOL    HW115098   1.205   2.476   1.982 -1.8818 -0.8675 -0.9507
 1155SOL    HW215099   1.109   2.454   2.090  0.5642  1.3262  2.0883
 1156SOL     OW15100   4.199   0.361   0.356 -0.1333  0.8735 -0.1548
 1156SOL    HW115101   4.270   0.383   0.416  0.6090  1.4631 -1.2446
 1156SOL    HW215102   4.228   0.273   0.333  1.6489  1.4068  0.0600
 1157SOL     OW15103   3.638   3.010  15.144 -0.3467  0.1823 -0.1645
 1157SOL    HW115104   3.665   3.088  15.193 -1.0554  0.6339 -0.4825
 1157SOL    HW215105   3.587   2.954  15.202 -1.2494  0.5460 -0.6051
 1158SOL     OW15106   2.773   1.670  15.688  0.0389  0.2000 -0.0503
 1158SOL    HW115107   2.845   1.664  15.751 -1.2000 -1.5395  1.1613
 1158SOL    HW215108   2.778   1.585  15.645  1.6056 -0.5502  1.6281
 1159SOL     OW15109   2.742   4.030   7.659 -0.0969  0.0429  0.4207
 1159SOL    HW115110   2.806   3.959   7.660 -1.2956 -1.0124  3.0676
 1159SOL    HW215111   2.744   4.062   7.749  1.8795  0.2502  0.3135
 1160SOL     OW15112   1.009   3.245  17.570  0.4345 -0.8100 -0.3699
 1160SOL    HW115113   0.942   3.294  17.523  1.1849  0.4053 -0.1641
 1160SOL    HW215114   1.081   3.306  17.578 -0.1925  0.0461 -1.2657
 1161SOL     OW15115   0.555   2.839   7.778  0.0846 -0.0931 -0.2928
 1161SOL    HW115116   0.533   2.930   7.799  1.3609  0.1330  0.0671
 1161SOL    HW215117   0.502   2.800   7.848 -2.1756  2.2395 -0.7158
 1162SOL     OW15118   2.299   4.402   3.468  0.3004  0.8980 -0.4023
 1162SOL    HW115119   2.377   4.395   3.412 -0.2767  1.1361 -1.2364
 1162SOL    HW215120   2.236   4.363   3.408 -1.3102 -1.2302  2.6461
 1163SOL     OW15121   4.542   1.450  15.575  0.0112  0.1872  0.2026
 1163SOL    HW115122   4.519   1.539  15.602  0.0870  0.7691 -1.6491
 1163SOL    HW215123   4.469   1.421  15.521 -0.4304  0.8393  0.4614
 1164SOL     OW15124   4.509   0.306   6.101 -0.3496 -0.6378  0.2854
 1164SOL    HW115125   4.540   0.260   6.024  1.1456 -0.2595  0.6720
 1164SOL    HW215126   4.523   0.394   6.067  1.6786 -0.4186  1.6890
 1165SOL     OW15127   1.280   1.310   0.461  0.7081  0.2839 -0.4657
 1165SOL    HW115128   1.300   1.353   0.545  1.5042 -0.7758 -0.1229
 1165SOL    HW215129   1.188   1.297   0.483 -0.1176  1.2148 -3.4786
 1166SOL     OW15130   3.813   0.155   3.752  0.0318  0.3620  0.0899
 1166SOL    HW115131   3.897   0.199   3.739  0.0082  0.6417  0.8316
 1166SOL    HW215132   3.758   0.215   3.701 -0.0820  0.3071  0.1469
 1167SOL     OW15133   4.150   3.486   2.792  0.2173 -0.2924  0.0586
 1167SOL    HW115134   4.084   3.417   2.783 -0.0314  0.2827 -2.5546
 1167SOL    HW215135   4.221   3.437   2.750 -1.5903 -2.3339 -0.6364
 1168SOL     OW15136   0.204   2.979  13.504  0.2764 -0.3454 -0.5262
 1168SOL    HW115137   0.291   3.017  13.494  0.7528 -1.7047 -1.5995
 1168SOL    HW215138   0.222   2.905  13.562 -0.4895 -0.2879 -0.2096
 1169SOL     OW15139   0.418   1.972   3.955  0.1917  0.4577 -0.3640
 1169SOL    HW115140   0.436   2.059   3.991  2.0310  0.5541 -1.5377
 1169SOL    HW215141   0.355   2.001   3.889 -0.3788 -1.6758 -0.7560
 1170SOL     OW15142   0.046   3.437   9.389  0.1651  0.1173  0.1165
 1170SOL    HW115143   0.125   3.491   9.400  0.6734 -0.4180 -0.8134
 1170SOL    HW215144   0.012   3.423   9.477 -0.5161  0.5741 -0.0739
 1171SOL     OW15145   2.896   0.119   6.622  0.0242 -0.0335  0.5794
 1171SOL    HW115146   2.891   0.077   6.536  0.9801  0.8107  0.1049
 1171SOL    HW215147   2.962   0.184   6.596 -0.1593 -0.9149 -2.0466
 1172SOL     OW15148   0.766   4.189   8.387 -0.2211 -0.3102  0.2523
 1172SOL    HW115149   0.856   4.160   8.374  0.3184  1.6921 -0.4256
 1172SOL    HW215150   0.762   4.269   8.335  1.5159  0.9129  1.9756
 1173SOL     OW15151   4.516   0.693  11.276 -0.5443  0.0706 -0.6071
 1173SOL    HW115152   4.569   0.753  11.224  1.7956 -0.4887  1.1671
 1173SOL    HW215153   4.483   0.637  11.205  0.8901 -0.2279 -1.0336
 1174SOL     OW15154   2.593   1.926   3.471 -0.1851  0.2824  0.5490
 1174SOL    HW115155   2.685   1.951   3.474 -0.8390  2.7856  0.0959
 1174SOL    HW215156   2.582   1.916   3.377 -1.2285 -0.8016  0.7806
 1175SOL     OW15157   1.525   3.609  16.230 -0.0213 -0.2592  0.1023
 1175SOL    HW115158   1.487   3.533  16.186  1.5472 -1.6860  1.2403
 1175SOL    HW215159   1.452   3.671  16.229  1.1110  1.0622  0.1476
 1176SOL     OW15160   0.399   4.283   2.784  0.7486 -0.6141  1.2510
 1176SOL    HW115161   0.483   4.268   2.741  0.6518  0.9296  0.5314
 1176SOL    HW215162   0.384   4.192   2.810 -1.0846 -0.2345  1.5738
 1177SOL     OW15163   4.523   2.764  11.377 -0.4004 -0.5099  0.2364
 1177SOL    HW115164   4.470   2.690  11.348 -1.0677 -0.0250  0.1961
 1177SOL    HW215165   4.460   2.803  11.438  1.2471  0.2014  1.4903
 1178SOL     OW15166   3.441   2.701   3.261  0.0454  0.0450 -0.4424
 1178SOL    HW115167   3.392   2.783   3.269 -0.4892 -0.4909  1.7252
 1178SOL    HW215168   3.530   2.733   3.272  0.8824 -2.1200 -0.9812
 1179SOL     OW15169   2.675   0.763   3.251 -0.2244 -0.7741 -0.0720
 1179SOL    HW115170   2.681   0.785   3.344 -2.3083 -0.0492 -0.1271
 1179SOL    HW215171   2.770   0.764   3.234 -0.4757 -0.3854 -1.4155
 1180SOL     OW15172   2.965   0.894   3.952  0.3705 -0.3539  0.1593
 1180SOL    HW115173   2.916   0.970   3.984 -2.6502 -2.5953  0.8319
 1180SOL    HW215174   2.960   0.895   3.856  0.5086  0.2336  0.1565
 1181SOL     OW15175   0.926   2.980  16.233 -0.5922 -0.4151 -0.3961
 1181SOL    HW115176   0.868   2.906  16.246  0.3201 -0.9229  0.8021
 1181SOL    HW215177   1.003   2.979  16.291  0.8884  2.1215 -2.3153
 1182SOL     OW15178   4.323   2.249   4.399  0.7342 -0.2248 -0.4136
 1182SOL    HW115179   4.384   2.293   4.340  0.9657  0.1297  0.0864
 1182SOL    HW215180   4.249   2.235   4.340 -0.0540  0.3462  0.4385
 1183SOL     OW15181   1.422   2.755   6.671 -0.1274 -0.4130  0.0432
 1183SOL    HW115182   1.474   2.810   6.729  0.4566  0.4108 -1.2456
 1183SOL    HW215183   1.429   2.670   6.713 -0.7196 -0.4404  0.0832
 1184SOL     OW15184   1.544   0.661   4.254 -0.5524 -0.0968 -0.3322
 1184SOL    HW115185   1.615   0.599   4.240  1.1015  1.8272 -0.4075
 1184SOL    HW215186   1.473   0.597   4.254 -0.1636 -0.5150  1.1809
 1185SOL     OW15187   2.205   1.767   1.142 -0.2920  0.0976 -0.3474
 1185SOL    HW115188   2.154   1.686   1.154 -2.2020  1.3029 -0.3657
 1185SOL    HW215189   2.253   1.781   1.224  1.2504 -1.8578 -0.9267
 1186SOL     OW15190   1.745   1.455   8.829  0.0300 -0.1425  0.4862
 1186SOL    HW115191   1.757   1.374   8.877  0.7874 -0.6537 -0.5495
 1186SOL    HW215192   1.777   1.526   8.885  1.5713 -0.6961  0.2997
 1187SOL     OW15193   0.441   4.719   6.846  0.0178  0.1026 -0.1252
 1187SOL    HW115194   0.397   4.666   6.779 -1.0676 -0.3483  0.9446
 1187SOL    HW215195   0.421   4.676   6.929  1.4032  1.1327  0.7391
 1188SOL     OW15196   0.670   2.981  15.790  0.1201 -0.4617 -0.5056
 1188SOL    HW115197   0.742   2.937  15.834  0.1025 -1.5196 -1.5354
 1188SOL    HW215198   0.716   3.034  15.725 -1.8072  0.4092 -1.1808
 1189SOL     OW15199   3.408   3.878   3.722 -0.2843 -0.5187 -0.3338
 1189SOL    HW115200   3.441   3.797   3.761 -0.1930 -0.6619 -0.7069
 1189SOL    HW215201   3.472   3.941   3.756  0.5776 -0.4318 -2.1025
 1190SOL     OW15202   1.576   1.682   4.851  0.2111  0.5354  1.2690
 1190SOL    HW115203   1.504   1.684   4.788  1.8349 -2.0409 -0.6466
 1190SOL    HW215204   1.646   1.720   4.798  0.7235  0.5045  1.9258
 1191SOL     OW15205   4.447   0.430   6.430 -0.0279 -0.0076  0.0144
 1191SOL    HW115206   4.538   0.401   6.424  0.1434  1.0265 -2.9714
 1191SOL    HW215207   4.396   0.349   6.432 -1.3656  0.8315 -0.0082
 1192SOL     OW15208   1.243   1.586   6.285  0.6144  0.5951  0.2028
 1192SOL    HW115209   1.208   1.647   6.350  0.6612  0.5830  0.2396
 1192SOL    HW215210   1.301   1.536   6.342  1.0265 -0.0468 -0.7777
 1193SOL     OW15211   0.722   3.710   3.033 -0.1415  0.3165 -0.0402
 1193SOL    HW115212   0.803   3.745   2.996  0.4589  0.0715  1.0528
 1193SOL    HW215213   0.688   3.660   2.958  0.7457 -1.7461  0.9430
 1194SOL     OW15214   2.866   2.674   7.113 -0.1943 -0.0219 -0.1425
 1194SOL    HW115215   2.921   2.657   7.190  0.4848  0.5122 -0.5120
 1194SOL    HW215216   2.848   2.767   7.122  0.8333 -0.0570  2.3817
 1195SOL     OW15217   4.228   1.067   8.607 -0.0717 -0.1551  0.0319
 1195SOL    HW115218   4.247   1.048   8.699 -2.2689 -0.5724  0.3960
 1195SOL    HW215219   4.317   1.085   8.576  0.8551  0.0499  2.7880
 1196SOL     OW15220   1.584   4.207   3.242  0.6037 -0.1473 -0.2619
 1196SOL    HW115221   1.618   4.211   3.331 -0.2383  0.4089  0.0378
 1196SOL    HW215222   1.493   4.226   3.266  0.3456 -0.7328 -0.7654
 1197SOL     OW15223   1.724   0.961   5.203  0.2862 -0.2206  0.6224
 1197SOL    HW115224   1.670   0.985   5.278  2.1092  0.6347  1.6660
 1197SOL    HW215225   1.715   1.047   5.162 -1.5933 -0.2515  1.0038
 1198SOL     OW15226   0.723   2.896   9.207 -0.2726  0.0619  0.6401
 1198SOL    HW115227   0.654   2.919   9.144 -0.3137  0.2149  0.7393
 1198SOL    HW215228   0.688   2.914   9.294  0.6815  0.6080  0.9097
 1199SOL     OW15229   1.734   3.075   5.055 -0.5436 -0.0107 -0.1985
 1199SOL    HW115230   1.778   3.048   5.135 -0.7733 -2.0272 -0.7661
 1199SOL    HW215231   1.652   3.110   5.090 -0.4509 -0.9446  0.9215
 1200SOL     OW15232   1.084   0.256   5.797 -0.4318 -0.5462  0.7868
 1200SOL    HW115233   1.169   0.217   5.779 -0.2966  0.5593 -1.0255
 1200SOL    HW215234   1.065   0.213   5.880 -1.5527  3.1270  2.4238
 1201SOL     OW15235   2.943   4.170  13.903  0.1527  0.2946 -0.3074
 1201SOL    HW115236   2.929   4.136  13.814 -0.4825  0.9946 -0.4769
 1201SOL    HW215237   2.906   4.257  13.918 -0.6869  0.0399 -0.8898
 1202SOL     OW15238   1.962   4.129   2.387  0.9984 -0.6943 -0.1965
 1202SOL    HW115239   1.869   4.151   2.388  1.2633  0.3566  0.4443
 1202SOL    HW215240   2.002   4.202   2.341  0.0139 -0.8009 -1.2407
 1203SOL     OW15241   1.114   3.420  11.980 -0.0116  0.2878  0.0897
 1203SOL    HW115242   1.037   3.382  11.940  1.3250 -1.4142 -0.8532
 1203SOL    HW215243   1.068   3.484  12.035  1.0306 -0.3869  1.7637
 1204SOL     OW15244   2.490   1.499   7.585 -0.2329 -0.2244 -0.4286
 1204SOL    HW115245   2.513   1.528   7.497  0.3519  0.0193 -0.1957
 1204SOL    HW215246   2.572   1.459   7.614 -0.8426 -0.4486  0.9988
 1205SOL     OW15247   0.186   0.496   3.388  0.4856  0.0307  0.2882
 1205SOL    HW115248   0.199   0.401   3.398  2.8722  0.5672  2.5561
 1205SOL    HW215249   0.100   0.512   3.426 -0.1735 -0.3395 -1.0829
 1206SOL     OW15250   1.670   4.239   7.690  0.1481  0.2025 -0.0338
 1206SOL    HW115251   1.656   4.296   7.765 -0.7940 -0.1221  0.0492
 1206SOL    HW215252   1.744   4.270   7.638  1.0747 -2.7519 -0.4684
 1207SOL     OW15253   3.601   3.301   1.266  0.3600 -0.1853 -0.2976
 1207SOL    HW115254   3.648   3.234   1.216 -1.5613 -1.4966 -0.3351
 1207SOL    HW215255   3.540   3.245   1.314 -0.6462  0.4625 -0.8252
 1208SOL     OW15256   1.739   1.396   4.024 -0.0126  0.2422 -0.0521
 1208SOL    HW115257   1.668   1.458   4.010  0.3354  0.7107  0.2682
 1208SOL    HW215258   1.721   1.372   4.114  1.0900 -1.5471 -0.3135
 1209SOL     OW15259   0.408   0.565   9.328 -0.4180 -0.2266 -0.5204
 1209SOL    HW115260   0.424   0.495   9.392 -0.9136 -0.3542 -0.5311
 1209SOL    HW215261   0.497   0.598   9.319  0.4337 -2.4702 -0.4390
 1210SOL     OW15262   0.220   0.683   9.174  0.6956 -0.0567 -0.3769
 1210SOL    HW115263   0.278   0.757   9.189  2.1879 -1.4569  0.7093
 1210SOL    HW215264   0.262   0.619   9.231 -1.4209  0.1275  1.3746
 1211SOL     OW15265   4.328   1.428  11.048 -0.4689  0.6908  0.4093
 1211SOL    HW115266   4.293   1.395  11.130 -0.2044  2.4917  1.2545
 1211SOL    HW215267   4.275   1.383  10.982  0.8346  0.4466 -0.4737
 1212SOL     OW15268   2.237   2.616  13.950  0.1078 -0.0942  0.2102
 1212SOL    HW115269   2.223   2.704  13.916 -0.7950 -0.2453  0.1858
 1212SOL    HW215270   2.192   2.647  14.029  1.7234  1.5018  0.4896
 1213SOL     OW15271   4.093   2.952   4.412  0.0429 -0.2749 -0.1384
 1213SOL    HW115272   4.168   2.902   4.380  1.0448  1.5981 -0.7337
 1213SOL    HW215273   4.025   2.920   4.353 -1.7664  1.6703  0.8583
 1214SOL     OW15274   3.692   3.552  11.984 -0.1084 -0.3328  0.0009
 1214SOL    HW115275   3.647   3.467  11.980 -1.3318  0.3995 -1.3972
 1214SOL    HW215276   3.654   3.597  12.059  2.6187  0.3028  0.9958
 1215SOL     OW15277   3.390   1.229   3.057 -0.6699  0.2861  0.0130
 1215SOL    HW115278   3.453   1.217   2.986 -0.7525  0.8940 -0.1563
 1215SOL    HW215279   3.398   1.146   3.105  2.1305  0.0840 -0.8233
 1216SOL     OW15280   1.517   1.435   5.797  0.8894  1.0202  0.1759
 1216SOL    HW115281   1.470   1.443   5.880 -1.3796  0.3753 -1.0246
 1216SOL    HW215282   1.460   1.495   5.749 -1.2991 -1.5535 -0.4728
 1217SOL     OW15283   3.008   4.380   1.878 -0.2621  0.1842  0.4367
 1217SOL    HW115284   3.048   4.382   1.965 -0.4012 -0.5763  0.5176
 1217SOL    HW215285   2.938   4.317   1.895 -0.8810  0.3909 -1.2940
 1218SOL     OW15286   1.835   1.570  10.446  0.1638 -0.5134 -0.4623
 1218SOL    HW115287   1.883   1.504  10.395 -3.3840 -2.2285 -1.5834
 1218SOL    HW215288   1.844   1.527  10.531  1.5323 -0.5224 -0.6059
 1219SOL     OW15289   2.046   4.078   3.361 -0.7498 -0.2502  0.6102
 1219SOL    HW115290   2.101   4.060   3.438  2.1542  0.0723 -1.4135
 1219SOL    HW215291   2.096   4.149   3.322  0.6646 -1.2431  0.6262
 1220SOL     OW15292   1.434   2.780   6.417 -0.0507  0.6573 -0.1430
 1220SOL    HW115293   1.343   2.756   6.403  0.5332 -1.3339 -0.5782
 1220SOL    HW215294   1.441   2.762   6.511  0.7346  0.4070 -0.2461
 1221SOL     OW15295   0.753   0.089   4.723  0.4278  0.4094 -0.2212
 1221SOL    HW115296   0.720   0.177   4.740  3.1018  1.1401  1.2132
 1221SOL    HW215297   0.821   0.099   4.657 -0.4656  0.6006 -1.1015
 1222SOL     OW15298   2.789   3.581   6.624 -0.0160 -0.3409 -0.1939
 1222SOL    HW115299   2.878   3.557   6.597  0.1092  0.2983 -0.3521
 1222SOL    HW215300   2.807   3.620   6.710 -1.6132 -1.3765  0.6025
 1223SOL     OW15301   4.309   0.218   8.195 -0.3020  0.5643 -0.1738
 1223SOL    HW115302   4.366   0.290   8.166  1.4717  0.3045  2.6853
 1223SOL    HW215303   4.364   0.149   8.230 -1.1708  0.0925  0.2715
 1224SOL     OW15304   1.743   2.868   1.884 -0.0501 -0.7341 -0.4268
 1224SOL    HW115305   1.779   2.940   1.831  0.0043  0.2153  0.9137
 1224SOL    HW215306   1.798   2.874   1.962  1.9046  3.0576 -2.0755
 1225SOL     OW15307   0.823   4.094   2.969 -0.2616  0.1975  1.0108
 1225SOL    HW115308   0.733   4.096   3.004  0.6835  3.2537  3.2621
 1225SOL    HW215309   0.866   4.064   3.049  0.5346 -0.6275  0.2649
 1226SOL     OW15310   3.926   2.530  12.368 -0.1848  0.0921  0.6220
 1226SOL    HW115311   3.838   2.555  12.397 -0.0204  0.5366  0.7460
 1226SOL    HW215312   3.944   2.449  12.416 -0.2113 -0.9622 -1.1678
 1227SOL     OW15313   3.828   4.456   2.967  0.2173 -0.0343  0.2596
 1227SOL    HW115314   3.784   4.377   2.998  0.4810 -1.0363 -1.9288
 1227SOL    HW215315   3.834   4.451   2.871 -0.7477  1.5426  0.1254
 1228SOL     OW15316   0.992   3.610   5.243  0.3817 -0.1671 -0.1604
 1228SOL    HW115317   0.935   3.554   5.191  0.9384  1.3922 -2.4287
 1228SOL    HW215318   0.963   3.563   5.322  3.8560 -1.2495  0.5029
 1229SOL     OW15319   2.349   1.632   9.024  0.7262  0.4525  0.4980
 1229SOL    HW115320   2.369   1.602   9.112  1.2610 -0.3485  0.1007
 1229SOL    HW215321   2.282   1.700   9.032 -0.6333 -0.8279 -0.1375
 1230SOL     OW15322   4.289   3.081   1.822  0.5499 -0.0472 -0.0261
 1230SOL    HW115323   4.256   2.993   1.842  2.2770 -0.3373  1.5284
 1230SOL    HW215324   4.209   3.133   1.831  0.5608 -0.1103  0.4371
 1231SOL     OW15325   0.401   3.402   8.341 -0.7863  0.1742  0.4585
 1231SOL    HW115326   0.359   3.469   8.286 -0.2007  0.9864  0.9947
 1231SOL    HW215327   0.489   3.439   8.353 -1.1830  0.6351  1.9416
 1232SOL     OW15328   1.570   1.251   6.647  0.1417 -0.0623 -0.2815
 1232SOL    HW115329   1.480   1.252   6.678  0.1991  0.7492 -0.1348
 1232SOL    HW215330   1.578   1.171   6.594  1.6447  0.0319 -0.2103
 1233SOL     OW15331   1.677   3.770  16.557  0.3121 -0.3667 -0.2497
 1233SOL    HW115332   1.708   3.840  16.614  0.1877 -1.1378  0.7587
 1233SOL    HW215333   1.692   3.810  16.471  2.7814  0.3784  0.5196
 1234SOL     OW15334   4.479   3.523  15.298  0.1511  0.3138 -0.2725
 1234SOL    HW115335   4.537   3.490  15.230  1.6045  3.0626 -0.3646
 1234SOL    HW215336   4.537   3.534  15.374 -0.1199  0.9969 -0.1668
 1235SOL     OW15337   1.504   4.502   7.578 -0.0390 -0.2883 -0.0728
 1235SOL    HW115338   1.503   4.470   7.668 -1.8081 -3.1172 -1.1029
 1235SOL    HW215339   1.430   4.454   7.540  1.4180 -1.9927 -0.7451
 1236SOL     OW15340   2.836   1.087   6.458  0.0493  0.3782  1.0468
 1236SOL    HW115341   2.838   0.996   6.486 -0.1714 -0.4176 -1.5620
 1236SOL    HW215342   2.929   1.108   6.460  0.3286 -0.8178  0.0944
 1237SOL     OW15343   0.768   2.165   2.139 -0.0583  0.2511 -1.1276
 1237SOL    HW115344   0.829   2.106   2.185 -1.5471  0.8447  1.6163
 1237SOL    HW215345   0.704   2.105   2.101  1.0327 -0.8233 -1.2986
 1238SOL     OW15346   4.551   2.017   4.565  0.3516  0.8436  0.1569
 1238SOL    HW115347   4.497   1.942   4.590 -0.0349  0.5593 -1.5283
 1238SOL    HW215348   4.537   2.020   4.470  0.1309  1.0972  0.1972
 1239SOL     OW15349   3.401   1.055   7.076  0.2454 -0.3181  0.0962
 1239SOL    HW115350   3.436   1.144   7.080 -0.2426 -0.1434  0.3817
 1239SOL    HW215351   3.467   0.988   7.095 -0.6608 -1.4063 -0.6549
 1240SOL     OW15352   2.940   0.001   6.383  0.3666 -0.3345 -0.1596
 1240SOL    HW115353   2.935   4.646   6.369  1.5924 -0.5479  0.8178
 1240SOL    HW215354   3.019   0.022   6.332  0.6977 -0.8631  0.1333
 1241SOL     OW15355   3.427   1.149   9.440  0.0034  0.0372  0.1448
 1241SOL    HW115356   3.426   1.102   9.524  1.7838 -0.1573  0.0624
 1241SOL    HW215357   3.502   1.208   9.445  0.8154 -0.8866 -1.2833
 1242SOL     OW15358   3.061   4.591   1.682  0.3584  0.6574  0.9188
 1242SOL    HW115359   3.105   4.559   1.760  0.0141  1.8123  1.5925
 1242SOL    HW215360   2.972   4.604   1.716  0.2859 -0.8772  1.2821
 1243SOL     OW15361   3.773   0.488   7.335 -0.4240  0.2620 -0.4344
 1243SOL    HW115362   3.720   0.443   7.402  0.7698  0.7144  0.8174
 1243SOL    HW215363   3.754   0.426   7.264  2.3321 -0.8913 -0.1459
 1244SOL     OW15364   3.874   1.353   5.844  0.4682 -0.1643 -0.1534
 1244SOL    HW115365   3.874   1.327   5.752 -0.6996 -3.5886  0.8133
 1244SOL    HW215366   3.862   1.267   5.885 -1.8205 -1.0638 -2.6750
 1245SOL     OW15367   4.415   1.793   7.181  0.6724 -0.2103 -0.0773
 1245SOL    HW115368   4.432   1.789   7.086 -2.3908  2.2673 -0.7112
 1245SOL    HW215369   4.355   1.867   7.195  1.4659  0.0630  1.8740
 1246SOL     OW15370   0.619   1.719   0.217 -0.1899  0.1367 -0.2347
 1246SOL    HW115371   0.688   1.654   0.229 -0.4272  0.0238  0.4817
 1246SOL    HW215372   0.555   1.675   0.272 -0.5995  3.1517  1.6691
 1247SOL     OW15373   1.538   1.844  10.954  0.2823 -0.5087 -0.2862
 1247SOL    HW115374   1.474   1.780  10.986 -0.9211  0.0486 -1.5856
 1247SOL    HW215375   1.557   1.814  10.865 -0.1562 -0.1762 -0.4885
 1248SOL     OW15376   1.981   0.186  11.085  0.1427 -0.5339 -0.2411
 1248SOL    HW115377   1.923   0.130  11.137 -2.6288  1.4676 -1.1570
 1248SOL    HW215378   2.063   0.188  11.135 -0.9922 -0.2968  1.6312
 1249SOL     OW15379   3.561   0.534   5.489  0.2282 -0.3691 -1.1181
 1249SOL    HW115380   3.481   0.481   5.482  0.0749 -0.4107  0.7242
 1249SOL    HW215381   3.596   0.495   5.569  0.4556 -0.2159 -1.1450
 1250SOL     OW15382   3.957   3.489   9.295 -0.0416  0.0108  0.5284
 1250SOL    HW115383   3.871   3.452   9.315 -0.1975 -0.3544 -0.8473
 1250SOL    HW215384   3.950   3.494   9.200  0.0462  2.3859  0.6491
 1251SOL     OW15385   2.714   0.123   2.876 -0.5548 -0.1737  0.5795
 1251SOL    HW115386   2.630   0.165   2.895  1.4212  3.9694  0.2540
 1251SOL    HW215387   2.758   0.153   2.955  0.6677 -1.9770  0.5701
 1252SOL     OW15388   3.278   0.119   0.360  0.0886  0.1411 -0.5152
 1252SOL    HW115389   3.243   0.181   0.425 -0.7393 -1.4135  0.5206
 1252SOL    HW215390   3.368   0.121   0.395 -0.0512  1.7437 -0.2418
 1253SOL     OW15391   3.439   3.313   1.629 -0.2402 -0.3395  0.0102
 1253SOL    HW115392   3.367   3.317   1.693  0.2529 -1.9256  0.6416
 1253SOL    HW215393   3.492   3.390   1.648  0.8731 -1.5536  1.8076
 1254SOL     OW15394   4.000   0.365   3.017  0.5713 -0.0731  0.5246
 1254SOL    HW115395   4.066   0.420   3.060  0.9554  0.7714 -1.1578
 1254SOL    HW215396   3.963   0.431   2.959  3.1393 -0.7675 -1.8647
 1255SOL     OW15397   0.569   0.192   5.858  0.3278  0.3222 -0.0173
 1255SOL    HW115398   0.649   0.172   5.810  1.5573  0.4197  1.9847
 1255SOL    HW215399   0.563   0.108   5.904  1.0356  0.2270 -0.0933
 1256SOL     OW15400   4.613   0.649   8.509  0.0189 -0.7740  0.6574
 1256SOL    HW115401   4.554   0.665   8.582 -0.9791  0.9104 -0.5047
 1256SOL    HW215402   4.551   0.630   8.438  0.8796 -0.0980 -0.2803
 1257SOL     OW15403   1.652   2.897  17.477 -0.4167 -0.7285  0.2592
 1257SOL    HW115404   1.669   2.802  17.473  2.1350 -0.2382 -0.3013
 1257SOL    HW215405   1.579   2.897  17.539 -0.3173 -1.2323  0.3796
 1258SOL     OW15406   3.842   1.050   6.619 -0.1533  0.3100  1.1130
 1258SOL    HW115407   3.797   1.047   6.535  2.9257 -0.7455 -0.5056
 1258SOL    HW215408   3.935   1.066   6.604 -0.5018  0.9921 -0.3818
 1259SOL     OW15409   1.203   2.893   2.568  0.3452  0.4167 -0.4513
 1259SOL    HW115410   1.281   2.857   2.526  0.0634 -1.1349  0.3534
 1259SOL    HW215411   1.246   2.928   2.646  0.1901  0.7659 -0.5236
 1260SOL     OW15412   2.225   2.378  15.433 -0.4497 -0.4371 -0.2339
 1260SOL    HW115413   2.308   2.383  15.385 -1.2576 -0.6534 -1.6705
 1260SOL    HW215414   2.206   2.285  15.419  1.0198 -0.3987 -2.4336
 1261SOL     OW15415   0.553   4.217   9.383  0.7921 -0.6088 -0.9260
 1261SOL    HW115416   0.587   4.231   9.295  0.5244  1.3500 -0.7412
 1261SOL    HW215417   0.481   4.156   9.371  0.8400 -0.9672  0.6295
 1262SOL     OW15418   1.873   1.369  14.459 -0.1374  0.2691  0.0021
 1262SOL    HW115419   1.964   1.365  14.429 -0.0115 -1.4821  0.6120
 1262SOL    HW215420   1.825   1.314  14.398  1.6458 -4.6427  3.0754
 1263SOL     OW15421   2.782   4.315   7.554 -0.0100  0.4839  0.3259
 1263SOL    HW115422   2.836   4.246   7.515 -2.8415 -0.7201 -1.5127
 1263SOL    HW215423   2.846   4.385   7.570  0.7926 -0.5228  1.4451
 1264SOL     OW15424   3.469   1.085   8.445 -0.0655  0.0649 -0.0067
 1264SOL    HW115425   3.503   1.166   8.484  0.9681 -1.8245  2.9682
 1264SOL    HW215426   3.419   1.127   8.375 -1.2397 -2.6226 -0.7868
 1265SOL     OW15427   3.297   3.752  11.751  0.3986  0.2948  0.4276
 1265SOL    HW115428   3.320   3.671  11.796 -1.6192 -0.5843 -0.1400
 1265SOL    HW215429   3.283   3.723  11.661  0.0548 -0.7793  0.8294
 1266SOL     OW15430   0.140   4.142   9.122 -0.3998  0.3895 -0.6720
 1266SOL    HW115431   0.232   4.138   9.097 -0.5511  0.6146 -1.2773
 1266SOL    HW215432   0.136   4.157   9.216 -1.5500 -2.7048 -0.2131
 1267SOL     OW15433   2.210   0.646   0.030  0.2809 -0.2208  0.1836
 1267SOL    HW115434   2.247   0.605  17.709  0.5976 -1.5906  1.0608
 1267SOL    HW215435   2.279   0.636   0.096  1.0195  1.4458 -0.3243
 1268SOL     OW15436   2.186   1.820  15.107  0.5916  0.5387 -0.1391
 1268SOL    HW115437   2.256   1.882  15.088  0.4745  0.5295 -0.6091
 1268SOL    HW215438   2.139   1.868  15.175 -0.5710 -1.5706  0.5523
 1269SOL     OW15439   3.375   2.582  17.062  0.2018  0.1065  0.5030
 1269SOL    HW115440   3.456   2.617  17.024 -0.6188 -1.5499 -2.8031
 1269SOL    HW215441   3.328   2.659  17.094 -0.7971 -0.4628  0.4279
 1270SOL     OW15442   2.204   4.297  15.948 -0.2338 -0.0043 -0.1443
 1270SOL    HW115443   2.296   4.308  15.922 -0.1807 -0.2896 -0.0763
 1270SOL    HW215444   2.160   4.345  15.877  3.8401  1.4232 -1.7305
 1271SOL     OW15445   2.747   1.782   0.689 -0.2396  0.1278 -0.0025
 1271SOL    HW115446   2.757   1.735   0.606 -1.6583  0.7106 -0.5042
 1271SOL    HW215447   2.686   1.850   0.660  1.0340  1.4541  0.4544
 1272SOL     OW15448   0.609   0.667   5.782 -0.3449 -0.2914 -0.0309
 1272SOL    HW115449   0.652   0.608   5.844 -0.6156 -0.9623 -0.4744
 1272SOL    HW215450   0.524   0.624   5.768 -1.2728  1.8184 -0.8509
 1273SOL     OW15451   4.702   2.552   0.223 -0.0349  0.1313  0.0679
 1273SOL    HW115452   4.728   2.465   0.194 -0.6613 -0.5648  1.5974
 1273SOL    HW215453   4.609   2.554   0.199 -0.1666 -3.1568  0.3105
 1274SOL     OW15454   1.178   0.241   3.455 -0.0326  0.3510  0.5543
 1274SOL    HW115455   1.235   0.278   3.523  0.2960 -0.9183  0.9596
 1274SOL    HW215456   1.194   0.287   3.372 -0.2136 -0.6955 -0.0590
 1275SOL     OW15457   4.308   1.748   1.501 -0.2950  0.2600  0.0347
 1275SOL    HW115458   4.391   1.760   1.547  0.0348  0.0300 -0.4967
 1275SOL    HW215459   4.246   1.709   1.563 -0.5402  1.5586  0.5982
 1276SOL     OW15460   2.294   4.575   2.428  0.2255  0.5203 -0.2804
 1276SOL    HW115461   2.255   4.562   2.514  1.5483  1.4321  0.4406
 1276SOL    HW215462   2.385   4.596   2.447  0.4963 -0.1499 -0.8609
 1277SOL     OW15463   2.840   0.260   1.010 -0.2228 -0.6200  0.5421
 1277SOL    HW115464   2.872   0.347   1.035  1.8825 -0.6614 -2.0056
 1277SOL    HW215465   2.876   0.206   1.080 -0.0995 -0.6246  0.4736
 1278SOL     OW15466   2.406   0.825   1.956  0.1325 -0.4321  0.1625
 1278SOL    HW115467   2.461   0.747   1.955 -0.4168 -0.7473 -3.1811
 1278SOL    HW215468   2.449   0.872   1.885  1.8080 -1.6122  0.3874
 1279SOL     OW15469   0.201   2.855   6.308 -0.2025  0.3289  0.2566
 1279SOL    HW115470   0.151   2.920   6.358 -1.6847 -1.1349  0.6963
 1279SOL    HW215471   0.136   2.794   6.272  0.2781 -0.1098  0.1354
 1280SOL     OW15472   1.042   3.786   3.977 -0.2889  0.1282  0.0122
 1280SOL    HW115473   1.075   3.708   3.932  2.6625  0.0960  2.2659
 1280SOL    HW215474   1.009   3.760   4.063 -1.4971 -0.6840 -0.6985
 1281SOL     OW15475   0.786   3.457   5.137 -1.0255  0.7273  0.0166
 1281SOL    HW115476   0.710   3.509   5.161 -1.4795 -0.0306  0.2170
 1281SOL    HW215477   0.756   3.425   5.052 -0.4823  0.8875 -0.2376
 1282SOL     OW15478   1.306   1.356   6.449  0.1310 -0.2456  0.2756
 1282SOL    HW115479   1.319   1.331   6.357 -1.2959 -0.6617  0.1865
 1282SOL    HW215480   1.225   1.309   6.466 -0.9013  2.1961  2.1368
 1283SOL     OW15481   1.085   0.410  17.036  0.6902  0.2526  0.6925
 1283SOL    HW115482   1.028   0.386  17.110  1.8176 -0.2358  1.3971
 1283SOL    HW215483   1.171   0.372  17.052  1.6325  1.2111 -2.1944
 1284SOL     OW15484   1.794   4.513   4.945 -0.0195  0.3148  0.4192
 1284SOL    HW115485   1.832   4.453   5.008  0.0936  0.0457  0.0984
 1284SOL    HW215486   1.873   4.522   4.891  0.4070  2.0210  1.3371
 1285SOL     OW15487   3.979   2.751   3.565  0.0241  0.3778  0.0340
 1285SOL    HW115488   4.034   2.684   3.606 -1.4982 -0.0854  1.3317
 1285SOL    HW215489   3.901   2.704   3.535 -0.1674 -0.1631  1.3583
 1286SOL     OW15490   1.480   2.255   5.676  0.0954 -0.5668  0.4446
 1286SOL    HW115491   1.508   2.256   5.585 -0.4826  0.1812  0.2748
 1286SOL    HW215492   1.398   2.206   5.666 -1.0835  1.0199  2.5528
 1287SOL     OW15493   2.329   1.432   3.022  0.6626  0.3641 -0.1644
 1287SOL    HW115494   2.317   1.510   2.967 -1.4884  0.2869  0.2026
 1287SOL    HW215495   2.384   1.380   2.964  0.8152  0.5912 -0.2239
 1288SOL     OW15496   1.880   3.583   2.095 -0.4803 -0.2329 -0.5523
 1288SOL    HW115497   1.926   3.548   2.018  1.7021 -1.2283  1.2009
 1288SOL    HW215498   1.797   3.543   2.070 -0.5668 -1.2519  1.4157
 1289SOL     OW15499   0.060   2.184  12.015  0.1401 -0.4918 -0.0168
 1289SOL    HW115500   0.013   2.199  11.933  1.9401  0.7157 -0.8499
 1289SOL    HW215501   0.076   2.275  12.041 -2.1033  0.0214 -0.4373
 1290SOL     OW15502   0.705   3.590  17.221  0.2620 -0.0587  0.4753
 1290SOL    HW115503   0.784   3.594  17.168 -0.0085  0.7117  0.1416
 1290SOL    HW215504   0.653   3.655  17.175 -0.7547  0.4397  2.3029
 1291SOL     OW15505   1.615   0.352  16.125 -0.5398  0.3405 -0.2332
 1291SOL    HW115506   1.704   0.347  16.162 -1.3303 -2.2258  1.2945
 1291SOL    HW215507   1.588   0.442  16.140  0.2597  0.1159  2.7013
 1292SOL     OW15508   0.991   3.148  15.401 -0.1874  0.4114  0.0236
 1292SOL    HW115509   1.032   3.068  15.433  0.8420  1.3633  1.1070
 1292SOL    HW215510   0.976   3.128  15.309  0.4346 -1.5528  0.3376
 1293SOL     OW15511   2.609   1.126   9.687  0.3617 -0.1844  0.3618
 1293SOL    HW115512   2.685   1.078   9.719  0.4920 -0.2431 -0.0374
 1293SOL    HW215513   2.561   1.067   9.628  0.7868 -0.8951  0.7253
 1294SOL     OW15514   2.422   4.308  10.474  1.0822 -0.5586 -0.2357
 1294SOL    HW115515   2.413   4.353  10.559  0.3027 -0.0213 -0.6012
 1294SOL    HW215516   2.338   4.263  10.476  0.8133  0.0003  1.3465
 1295SOL     OW15517   0.856   0.454   9.610 -0.3780 -0.3231  0.3888
 1295SOL    HW115518   0.879   0.382   9.669  2.3895 -0.5767 -0.9899
 1295SOL    HW215519   0.761   0.463   9.617 -0.1252  1.2935  1.7097
 1296SOL     OW15520   3.157   3.740   8.634 -0.2043 -0.0181 -0.2438
 1296SOL    HW115521   3.090   3.676   8.610 -0.3133  0.1538 -0.3966
 1296SOL    HW215522   3.151   3.803   8.562 -1.1930  0.3431  0.1590
 1297SOL     OW15523   0.152   1.675   5.597  0.3685 -0.1568 -0.0919
 1297SOL    HW115524   0.151   1.771   5.595 -0.1252 -0.0900  2.6573
 1297SOL    HW215525   0.234   1.652   5.640  0.4639 -1.8286 -1.1902
 1298SOL     OW15526   1.763   4.373  11.878  0.1971 -0.7201 -0.0575
 1298SOL    HW115527   1.791   4.452  11.832 -2.4398  0.7262  0.8458
 1298SOL    HW215528   1.690   4.405  11.932  1.8575  1.6677  0.8135
 1299SOL     OW15529   2.315   0.455   2.134  0.3533 -0.1767 -0.9788
 1299SOL    HW115530   2.350   0.450   2.223 -2.8706  1.2267  0.3431
 1299SOL    HW215531   2.370   0.522   2.094 -0.4472  1.2793  0.4234
 1300SOL     OW15532   0.936   1.842   4.119 -0.4954 -0.3429  0.0132
 1300SOL    HW115533   0.859   1.895   4.103 -0.2689  0.0344  0.1540
 1300SOL    HW215534   0.886   1.785   4.177 -0.1580 -0.2551  0.3940
 1301SOL     OW15535   1.446   4.512  13.268  0.5765 -0.2042  0.1100
 1301SOL    HW115536   1.408   4.563  13.196 -0.4020 -1.2459 -0.1257
 1301SOL    HW215537   1.512   4.576  13.294  1.4566 -0.2483 -2.0487
 1302SOL     OW15538   3.766   2.426   7.330 -0.3132 -0.0498  0.0335
 1302SOL    HW115539   3.749   2.392   7.418 -0.7637 -3.9585 -1.5368
 1302SOL    HW215540   3.840   2.482   7.354 -0.5364  0.5898 -0.7931
 1303SOL     OW15541   0.711   3.203  12.369  0.2336  0.4733 -0.3796
 1303SOL    HW115542   0.727   3.280  12.423 -0.9463  0.6938 -0.3499
 1303SOL    HW215543   0.634   3.234  12.322 -0.0143  0.3594 -0.0481
 1304SOL     OW15544   4.193   1.283  13.796 -0.2036 -0.0732 -0.3565
 1304SOL    HW115545   4.137   1.212  13.764  0.7633 -0.9154 -0.2076
 1304SOL    HW215546   4.154   1.359  13.754 -1.1120 -0.1996  0.2359
 1305SOL     OW15547   1.565   4.470   7.874 -0.0897 -0.6237  0.5683
 1305SOL    HW115548   1.485   4.486   7.924 -0.3431  1.6625 -0.5807
 1305SOL    HW215549   1.612   4.549   7.899 -1.3627  0.1350  0.5757
 1306SOL     OW15550   4.117   2.109   2.501  0.0718 -0.2340 -0.1231
 1306SOL    HW115551   4.176   2.122   2.427 -1.5383  0.7045 -1.2298
 1306SOL    HW215552   4.154   2.160   2.573 -0.8879 -1.3676  1.1890
 1307SOL     OW15553   1.380   0.831   5.943  1.0787  0.3725 -0.1465
 1307SOL    HW115554   1.391   0.833   5.848 -1.3786  1.8879 -0.4118
 1307SOL    HW215555   1.400   0.738   5.953 -2.0141 -0.6025 -2.7769
 1308SOL     OW15556   0.519   3.412   4.179 -0.9044  0.7055  0.4219
 1308SOL    HW115557   0.548   3.401   4.269  0.8748 -3.8095 -0.6768
 1308SOL    HW215558   0.601   3.418   4.129 -1.3591  1.5138 -0.2222
 1309SOL     OW15559   1.640   1.870   9.887 -0.2053  0.7192  0.7156
 1309SOL    HW115560   1.564   1.850   9.833  0.4306  0.2386 -0.0147
 1309SOL    HW215561   1.603   1.920   9.959  2.1320  0.8597  1.8375
 1310SOL     OW15562   0.410   4.130   3.423 -0.0505 -0.1095 -0.1413
 1310SOL    HW115563   0.395   4.169   3.510  1.0534 -1.5316  0.6771
 1310SOL    HW215564   0.350   4.056   3.428 -2.0072  1.5055  0.3790
 1311SOL     OW15565   0.291   1.786   2.607 -0.2657  0.2131  0.2057
 1311SOL    HW115566   0.295   1.853   2.676 -2.4042  0.8385 -0.2822
 1311SOL    HW215567   0.379   1.748   2.617 -0.4026 -0.2662 -0.4663
 1312SOL     OW15568   3.508   0.063   3.233  0.8382 -0.2992  0.6265
 1312SOL    HW115569   3.556   0.002   3.177  0.7748  0.6914 -0.4914
 1312SOL    HW215570   3.490   0.134   3.173  0.0623 -1.5819 -0.6556
 1313SOL     OW15571   0.096   3.219   3.523 -0.0841  1.1510  0.0205
 1313SOL    HW115572   0.063   3.131   3.502  1.8278  0.0310  1.6695
 1313SOL    HW215573   0.141   3.194   3.604  2.6898  1.8348 -1.3153
 1314SOL     OW15574   1.236   2.719   8.414 -0.0436 -0.5106 -0.1493
 1314SOL    HW115575   1.269   2.790   8.359  1.1795 -0.5485  0.5193
 1314SOL    HW215576   1.319   2.675   8.436 -0.8915 -1.1979  1.7116
 1315SOL     OW15577   4.214   2.437   8.941  1.1545  0.5380 -0.6181
 1315SOL    HW115578   4.155   2.477   8.877 -0.2203  0.2162  0.4674
 1315SOL    HW215579   4.168   2.439   9.024  1.1614 -3.2968 -0.5003
 1316SOL     OW15580   1.619   3.792  11.597 -0.6121  0.2663 -0.4319
 1316SOL    HW115581   1.653   3.829  11.515 -2.1507  1.0130 -0.7509
 1316SOL    HW215582   1.534   3.765  11.562 -0.6910  1.2080 -0.9907
 1317SOL     OW15583   2.660   3.003   7.799 -0.1416  0.3821  0.6176
 1317SOL    HW115584   2.735   2.990   7.857  0.8634  1.3823 -0.4449
 1317SOL    HW215585   2.653   2.914   7.764  0.6034  0.4295  0.3402
 1318SOL     OW15586   2.903   2.757  12.516 -0.4154 -0.3195  0.2804
 1318SOL    HW115587   2.857   2.674  12.531  0.8871 -0.9696  0.6708
 1318SOL    HW215588   2.847   2.813  12.569 -1.2992  0.1458 -1.1485
 1319SOL     OW15589   3.855   3.413   6.240  0.5835  0.1171  0.2720
 1319SOL    HW115590   3.840   3.321   6.261 -1.4385  0.1952 -0.7895
 1319SOL    HW215591   3.927   3.435   6.299  0.2340  0.9082  0.4033
 1320SOL     OW15592   2.983   2.745   1.618  0.0843  0.6984 -0.6227
 1320SOL    HW115593   2.906   2.704   1.657  0.1482  0.4345 -0.7779
 1320SOL    HW215594   3.003   2.673   1.559 -1.6909  1.2806 -1.9441
 1321SOL     OW15595   1.779   3.121   4.642 -0.1831  0.4053  0.5061
 1321SOL    HW115596   1.840   3.126   4.715 -0.7656 -0.7905  1.0694
 1321SOL    HW215597   1.841   3.119   4.569  0.3044 -0.6473  0.9522
 1322SOL     OW15598   1.105   4.348   2.360  0.2384  1.0601 -0.7696
 1322SOL    HW115599   1.159   4.296   2.419  1.4967  1.1506 -1.8316
 1322SOL    HW215600   1.106   4.436   2.397 -0.9026  0.3805  0.8602
 1323SOL     OW15601   3.039   2.540   3.346 -0.5715 -0.0111  0.0778
 1323SOL    HW115602   3.115   2.515   3.294 -1.2598 -1.2148 -0.3558
 1323SOL    HW215603   2.974   2.482   3.307 -0.1718 -0.2254 -0.2604
 1324SOL     OW15604   3.521   3.895   5.335  0.0611  0.2771 -0.1679
 1324SOL    HW115605   3.599   3.850   5.369  0.2724 -1.3123 -2.7765
 1324SOL    HW215606   3.453   3.876   5.400 -0.8433  1.9551 -0.6373
 1325SOL     OW15607   3.574   2.159  10.985  0.1286 -0.5452 -0.2103
 1325SOL    HW115608   3.619   2.229  10.939 -2.8185  1.6840  0.3289
 1325SOL    HW215609   3.558   2.196  11.072 -0.2716  0.2569 -0.6228
 1326SOL     OW15610   0.466   2.695  16.329  0.7700 -0.2928 -0.4448
 1326SOL    HW115611   0.408   2.670  16.401  0.6909 -1.6216 -0.9741
 1326SOL    HW215612   0.542   2.650  16.365  0.9035  0.8791  0.7474
 1327SOL     OW15613   2.570   3.844  12.409 -0.1503 -0.0040  0.4382
 1327SOL    HW115614   2.581   3.937  12.427  1.0753  0.1027 -0.8764
 1327SOL    HW215615   2.646   3.828  12.353  0.5124 -2.2289  1.9536
 1328SOL     OW15616   1.867   0.644   4.002  0.0845 -0.1361 -0.1121
 1328SOL    HW115617   1.948   0.649   3.952 -1.0495  0.0030 -1.9655
 1328SOL    HW215618   1.819   0.599   3.932 -0.4157 -0.9688  0.7837
 1329SOL     OW15619   4.706   3.322  17.362 -0.1163 -0.3251 -0.3705
 1329SOL    HW115620   4.725   3.269  17.440 -1.4822  2.5448  1.9141
 1329SOL    HW215621   0.049   3.309  17.315 -1.1212 -1.8769 -1.7282
 1330SOL     OW15622   4.019   3.443   6.460 -0.1438 -0.0366  0.1296
 1330SOL    HW115623   4.042   3.385   6.532  2.1750  0.4584 -0.1985
 1330SOL    HW215624   3.948   3.497   6.493 -1.3430 -1.2563 -0.4938
 1331SOL     OW15625   4.398   1.647   4.407  0.1929 -0.4945 -0.4277
 1331SOL    HW115626   4.330   1.710   4.381  0.7025 -0.1166 -0.8393
 1331SOL    HW215627   4.475   1.697   4.382  1.3571 -1.0530  2.0703
 1332SOL     OW15628   4.034   3.235   5.578  0.4186  0.0083 -0.1216
 1332SOL    HW115629   3.966   3.188   5.624  1.8174 -1.5919  0.3123
 1332SOL    HW215630   4.029   3.321   5.620 -2.2457  1.2934 -3.0339
 1333SOL     OW15631   4.209   3.885   2.751 -0.3214 -0.6331 -0.3307
 1333SOL    HW115632   4.169   3.958   2.704 -0.6055 -1.2288 -1.0182
 1333SOL    HW215633   4.173   3.892   2.839 -2.2262 -1.6247 -1.0310
 1334SOL     OW15634   3.415   4.504  10.117 -0.1035 -0.1930 -0.2512
 1334SOL    HW115635   3.501   4.478  10.150  0.5717  2.7143  0.3113
 1334SOL    HW215636   3.377   4.426  10.078  1.4503 -2.6354  3.1550
 1335SOL     OW15637   2.249   3.001   4.592  0.0362 -0.3554  0.1340
 1335SOL    HW115638   2.183   3.057   4.551  1.5946  1.1835 -0.2719
 1335SOL    HW215639   2.192   2.933   4.628 -0.9199  0.6484  0.5127
 1336SOL     OW15640   0.425   0.922  13.709 -0.2014  0.2951 -0.1352
 1336SOL    HW115641   0.389   0.873  13.635 -2.1855  0.6446  0.6045
 1336SOL    HW215642   0.418   0.856  13.778 -1.4882  2.0419  1.4234
 1337SOL     OW15643   0.951   1.475  16.047 -0.2375 -0.2643  0.2960
 1337SOL    HW115644   1.029   1.519  16.015 -0.9573  1.5003  0.9533
 1337SOL    HW215645   0.990   1.453  16.131 -1.7117 -2.2009  0.4781
 1338SOL     OW15646   3.508   0.019  13.039  0.2840 -0.4627 -0.1231
 1338SOL    HW115647   3.538   4.670  13.060 -2.7950 -0.6522  3.4147
 1338SOL    HW215648   3.428   0.018  13.090  0.0413 -0.1406 -0.4985
 1339SOL     OW15649   0.501   1.802  16.971 -0.0701  0.0263  0.3932
 1339SOL    HW115650   0.594   1.823  16.987  0.0612 -0.5279  0.3498
 1339SOL    HW215651   0.501   1.712  16.940  2.7620  0.4422 -0.8713
 1340SOL     OW15652   0.909   0.828   8.206 -0.2417  0.1870  0.1265
 1340SOL    HW115653   0.851   0.858   8.136 -0.9823 -0.6785  0.3700
 1340SOL    HW215654   0.863   0.840   8.289  0.7180  1.2498  0.5074
 1341SOL     OW15655   1.963   2.424   4.258  0.2454  0.2682 -0.5315
 1341SOL    HW115656   1.894   2.378   4.305  0.5140  0.9480  0.5199
 1341SOL    HW215657   1.961   2.514   4.292 -1.1011 -0.2195  0.6636
 1342SOL     OW15658   0.016   0.733   5.083  0.0955 -0.1208  0.0102
 1342SOL    HW115659   0.069   0.660   5.050  2.2435  0.9451  1.0833
 1342SOL    HW215660   4.705   0.751   5.004  0.7701  1.2459 -0.1039
 1343SOL     OW15661   4.156   2.833   2.503  0.0215  0.7520  0.1942
 1343SOL    HW115662   4.178   2.858   2.593  1.2297  2.9306 -0.7006
 1343SOL    HW215663   4.070   2.792   2.516 -0.9477  2.6486 -0.2193
 1344SOL     OW15664   3.670   4.084   5.721 -0.1443 -0.1338  0.8861
 1344SOL    HW115665   3.708   3.997   5.729 -1.4998 -0.6586  1.5809
 1344SOL    HW215666   3.579   4.064   5.703 -0.7106 -0.8049  4.3681
 1345SOL     OW15667   3.705   2.760   7.119  0.2522  0.2249 -0.5385
 1345SOL    HW115668   3.684   2.834   7.062  1.0853 -0.3360 -1.5702
 1345SOL    HW215669   3.707   2.807   7.203  1.2552  2.3552 -1.7450
 1346SOL     OW15670   0.412   2.753   7.992 -0.4081  0.5918 -0.4795
 1346SOL    HW115671   0.415   2.792   8.080  0.1244 -0.5798  0.0104
 1346SOL    HW215672   0.357   2.676   8.005  1.4187 -0.4774  0.9626
 1347SOL     OW15673   0.957   2.220   8.902 -0.1270  0.0388 -0.0055
 1347SOL    HW115674   0.968   2.245   8.993  1.2038 -0.5759  0.0030
 1347SOL    HW215675   1.049   2.236   8.879 -0.2917  3.4437  1.7371
 1348SOL     OW15676   3.622   0.334  14.514 -0.4764  0.0340 -0.2206
 1348SOL    HW115677   3.528   0.328  14.496 -0.4096 -1.6987 -0.0038
 1348SOL    HW215678   3.646   0.242  14.518 -0.9834  0.1423  4.4322
 1349SOL     OW15679   0.132   4.391   5.458 -0.4167  0.2094 -0.0497
 1349SOL    HW115680   0.071   4.318   5.468 -1.5372  1.3616  1.2751
 1349SOL    HW215681   0.098   4.438   5.381  0.9631  0.6405 -0.4019
 1350SOL     OW15682   0.997   3.221  12.220 -0.0601 -0.2176  0.4291
 1350SOL    HW115683   0.972   3.295  12.165  1.5071  0.1056  0.1580
 1350SOL    HW215684   0.916   3.201  12.266 -1.2372  0.3492 -1.4048
 1351SOL     OW15685   4.654   3.626   1.631  0.7558 -0.0875  0.3546
 1351SOL    HW115686   4.700   3.646   1.549  1.6732  1.4073  1.2255
 1351SOL    HW215687   4.648   3.707   1.682 -2.1158  0.7405 -1.3088
 1352SOL     OW15688   3.052   3.095   8.814 -0.6537  0.7005  0.0092
 1352SOL    HW115689   3.005   3.080   8.896 -1.5030 -1.7076 -0.8962
 1352SOL    HW215690   3.041   3.006   8.780  0.5630 -0.5911  3.0313
 1353SOL     OW15691   2.718   3.079  11.543 -0.2028 -0.0075 -0.3407
 1353SOL    HW115692   2.774   3.152  11.570 -0.6735 -0.1835  1.0804
 1353SOL    HW215693   2.698   3.032  11.624  1.7238 -0.2260 -0.0007
 1354SOL     OW15694   0.617   3.145   4.641  0.3034 -0.2980 -0.6169
 1354SOL    HW115695   0.670   3.131   4.719  2.0955 -2.5073 -2.2049
 1354SOL    HW215696   0.670   3.112   4.568  0.5123  0.0183 -0.6084
 1355SOL     OW15697   3.639   0.348  15.829 -0.0479  0.0852  0.2010
 1355SOL    HW115698   3.591   0.418  15.873 -0.2334  0.3994 -0.4999
 1355SOL    HW215699   3.645   0.280  15.896  0.3850 -0.7414 -0.6768
 1356SOL     OW15700   3.264   1.443   8.615  0.3412 -0.2786  0.4111
 1356SOL    HW115701   3.252   1.498   8.693 -0.7232 -0.5582  0.4563
 1356SOL    HW215702   3.174   1.411   8.601 -0.6652  3.1397 -0.9064
 1357SOL     OW15703   0.544   2.175   2.892 -0.0434  0.1683  0.3898
 1357SOL    HW115704   0.603   2.237   2.933 -0.7048  0.8949  0.2432
 1357SOL    HW215705   0.600   2.099   2.877 -1.7759 -0.8174 -1.0829
 1358SOL     OW15706   0.127   0.855   4.249  0.0888 -0.0053  0.0024
 1358SOL    HW115707   0.148   0.895   4.164 -1.0490  1.0389  0.2260
 1358SOL    HW215708   0.212   0.812   4.263  0.0098 -0.6704 -1.5216
 1359SOL     OW15709   2.269   4.650  11.473 -0.1597  1.0389  0.0245
 1359SOL    HW115710   2.259   4.731  11.522  2.3142  1.3006  0.0945
 1359SOL    HW215711   2.315   4.678  11.393  0.7709  0.6527  0.4197
 1360SOL     OW15712   2.206   2.751   6.952  0.0156  1.1623  0.2613
 1360SOL    HW115713   2.141   2.733   7.020  0.7351  1.0368  0.9067
 1360SOL    HW215714   2.244   2.664   6.941 -2.0580 -0.0939  3.0213
 1361SOL     OW15715   4.143   2.305  12.208 -0.4356  0.9773  0.1273
 1361SOL    HW115716   4.144   2.290  12.302  1.0435  0.4554  0.0347
 1361SOL    HW215717   4.203   2.242  12.167 -1.2783 -0.6747  1.4554
 1362SOL     OW15718   3.413   0.691   5.055  0.1176 -0.1393  0.0376
 1362SOL    HW115719   3.491   0.737   5.084  0.5320 -1.8220  1.5098
 1362SOL    HW215720   3.410   0.608   5.102 -1.1704  0.4061  0.9122
 1363SOL     OW15721   3.745   1.784   5.982  0.5121 -0.1029 -0.0867
 1363SOL    HW115722   3.812   1.723   5.951  0.5243 -0.3141  0.3538
 1363SOL    HW215723   3.692   1.730   6.040  1.0913  0.3504  0.8600
 1364SOL     OW15724   0.890   0.571  17.370  0.0419  0.5176 -0.1308
 1364SOL    HW115725   0.985   0.573  17.364 -0.0510  0.9808 -1.4303
 1364SOL    HW215726   0.874   0.665  17.380  3.8696  0.9354  1.8784
 1365SOL     OW15727   0.760   3.707   7.486 -0.3187 -0.6214  0.4676
 1365SOL    HW115728   0.819   3.782   7.497  0.5672 -1.6029  2.4714
 1365SOL    HW215729   0.701   3.726   7.558 -0.5859  1.8007 -0.3879
 1366SOL     OW15730   3.500   2.166  12.205  0.2956 -0.0412 -0.5710
 1366SOL    HW115731   3.458   2.102  12.147 -2.5839  1.0760  0.2712
 1366SOL    HW215732   3.476   2.247  12.160  1.6916  0.1164 -1.0238
 1367SOL     OW15733   2.492   3.006   8.822  0.2413 -0.0857 -0.2428
 1367SOL    HW115734   2.445   2.955   8.888 -1.9294  0.7820 -1.1196
 1367SOL    HW215735   2.417   3.057   8.790  1.9652  1.5899 -1.6818
 1368SOL     OW15736   2.022   0.306  14.713 -0.2324  0.0195  0.1016
 1368SOL    HW115737   1.929   0.288  14.695 -0.6837  1.1143  1.3288
 1368SOL    HW215738   2.070   0.297  14.631  0.4324 -2.0683  0.7144
 1369SOL     OW15739   2.064   1.717   3.758  0.2964  0.1460  0.6950
 1369SOL    HW115740   2.033   1.807   3.768  2.7078  1.0385  0.0879
 1369SOL    HW215741   2.152   1.718   3.796  0.6050 -0.5532 -0.0203
 1370SOL     OW15742   4.050   1.405   8.158  0.1989  0.2950  0.0329
 1370SOL    HW115743   4.081   1.433   8.244  0.0746 -0.3602  0.2966
 1370SOL    HW215744   3.956   1.425   8.161  0.2449  0.1791  2.2690
 1371SOL     OW15745   2.053   2.021  12.503  0.0758 -0.2651 -0.1024
 1371SOL    HW115746   2.130   1.996  12.554  1.5124  0.7232 -1.7540
 1371SOL    HW215747   1.993   1.993  12.572  0.8260 -0.2173  0.5806
 1372SOL     OW15748   0.465   1.305   4.366 -0.4256  0.0812 -0.4871
 1372SOL    HW115749   0.390   1.328   4.422  1.5770  2.4882  1.1736
 1372SOL    HW215750   0.544   1.311   4.418 -0.2431 -0.6517 -0.6746
 1373SOL     OW15751   2.764   4.454  11.494 -0.1862 -0.2588 -0.5806
 1373SOL    HW115752   2.728   4.366  11.506  0.4455 -0.4637 -0.1704
 1373SOL    HW215753   2.819   4.456  11.572 -0.4273 -1.1609 -0.3898
 1374SOL     OW15754   0.566   0.457   9.051  0.2167 -0.1422  0.2397
 1374SOL    HW115755   0.550   0.366   9.026 -0.8658 -0.3004  1.5239
 1374SOL    HW215756   0.509   0.468   9.127  1.6455  0.0415  1.2678
 1375SOL     OW15757   3.202   4.075   2.972  0.1605  0.0930  0.2941
 1375SOL    HW115758   3.214   4.054   3.065  0.5790  2.2066  0.7159
 1375SOL    HW215759   3.202   4.171   2.977  1.5055  0.1528 -0.9666
 1376SOL     OW15760   1.297   1.012   2.301  0.9788 -0.3544  0.0988
 1376SOL    HW115761   1.349   0.932   2.310 -0.3411 -1.1379  0.6360
 1376SOL    HW215762   1.370   1.072   2.286  0.0355  0.5171 -1.0131
 1377SOL     OW15763   0.729   1.777   2.139  0.6009 -0.5273 -0.2882
 1377SOL    HW115764   0.714   1.706   2.201  3.8667  0.2436  1.3799
 1377SOL    HW215765   0.696   1.731   2.061  0.7548  3.2138 -2.5573
 1378SOL     OW15766   2.234   2.041   6.490  0.1270  0.8003 -0.0280
 1378SOL    HW115767   2.209   1.957   6.453  1.0937  0.5949 -0.2119
 1378SOL    HW215768   2.148   2.065   6.527 -0.6896 -0.8216 -0.9049
 1379SOL     OW15769   0.957   4.636   8.828  0.3693  0.3607  0.3653
 1379SOL    HW115770   1.015   4.564   8.853  0.3797  0.4862  0.7101
 1379SOL    HW215771   0.876   4.587   8.816 -0.2540  1.4727 -0.0171
 1380SOL     OW15772   2.964   0.027  11.399  0.2967 -0.3590 -0.4175
 1380SOL    HW115773   3.030   0.052  11.464 -0.8846 -1.5318  1.2309
 1380SOL    HW215774   2.896   4.732  11.456  0.2649 -0.0737 -0.2822
 1381SOL     OW15775   1.438   2.035   9.330 -0.3461  0.2188  0.0946
 1381SOL    HW115776   1.371   2.100   9.349 -0.6781 -0.7093  2.1043
 1381SOL    HW215777   1.454   1.991   9.413 -0.0669  0.1380 -0.0004
 1382SOL     OW15778   4.119   4.694   4.233 -0.0805 -0.7394 -0.8712
 1382SOL    HW115779   4.130   0.026   4.171  0.9007 -1.9504 -2.0944
 1382SOL    HW215780   4.211   4.680   4.256  0.1791  2.2663 -0.0694
 1383SOL     OW15781   1.726   3.511   5.268 -0.0642  0.3905 -0.2018
 1383SOL    HW115782   1.723   3.446   5.198  1.5431 -0.5489  0.5996
 1383SOL    HW215783   1.779   3.462   5.331 -0.6045  2.2283  1.6668
 1384SOL     OW15784   3.050   1.310   5.593 -0.3828  0.0264 -0.3270
 1384SOL    HW115785   3.043   1.405   5.584  1.3720 -0.0439 -2.4145
 1384SOL    HW215786   2.987   1.276   5.530  0.2313 -1.8715  0.0785
 1385SOL     OW15787   3.406   0.121  16.236  0.4671  0.3781 -0.2687
 1385SOL    HW115788   3.324   0.080  16.262  0.7296 -0.8927 -1.4435
 1385SOL    HW215789   3.435   0.167  16.315 -0.4530  0.2342  0.1552
 1386SOL     OW15790   2.342   1.707   7.324 -0.3087 -0.1003 -0.7176
 1386SOL    HW115791   2.421   1.748   7.358 -0.8187  0.7407 -0.5449
 1386SOL    HW215792   2.293   1.786   7.301  0.5864  0.4052 -0.9035
 1387SOL     OW15793   3.215   4.566   1.999  0.0525 -0.6234 -0.9589
 1387SOL    HW115794   3.132   4.605   2.024  1.6641  1.1990  1.4898
 1387SOL    HW215795   3.208   4.485   2.049 -0.0304 -0.7623 -1.1973
 1388SOL     OW15796   1.802   2.360   2.877 -0.3526 -0.1846  0.1534
 1388SOL    HW115797   1.827   2.367   2.969 -0.6664 -0.2357  0.2443
 1388SOL    HW215798   1.716   2.400   2.890 -0.5825 -1.6538  3.1746
 1389SOL     OW15799   1.448   0.696   8.226  0.1787 -0.0818  0.5706
 1389SOL    HW115800   1.370   0.733   8.269  0.3903 -0.6459  1.4440
 1389SOL    HW215801   1.494   0.674   8.307 -0.3581 -0.4797  0.7700
 1390SOL     OW15802   4.245   2.989   5.994 -0.1989  0.1020 -0.0071
 1390SOL    HW115803   4.302   2.916   6.019 -1.3861 -0.6719  0.3974
 1390SOL    HW215804   4.233   2.980   5.899 -0.9804  0.2014  0.0833
 1391SOL     OW15805   3.890   2.004  13.975 -0.3519 -0.0293 -0.4232
 1391SOL    HW115806   3.869   2.080  13.922  1.6381  0.9227  0.1536
 1391SOL    HW215807   3.966   1.972  13.926 -0.0533 -0.2378  0.1685
 1392SOL     OW15808   4.170   3.383   4.163 -0.0714 -0.1599  0.3489
 1392SOL    HW115809   4.122   3.305   4.193 -1.3949  0.7103  0.5068
 1392SOL    HW215810   4.165   3.442   4.238 -2.9177 -0.1196  0.1148
 1393SOL     OW15811   0.875   1.830  12.059  0.6455 -0.0095 -0.4663
 1393SOL    HW115812   0.936   1.842  12.132  1.1593 -2.4317 -0.5008
 1393SOL    HW215813   0.871   1.735  12.059  0.3057  0.0039 -0.4731
 1394SOL     OW15814   1.987   0.296  10.662 -0.1866 -0.2208 -0.2106
 1394SOL    HW115815   1.956   0.317  10.751  1.1572  1.5036 -0.1461
 1394SOL    HW215816   2.079   0.323  10.658 -0.6177  1.0517 -1.6936
 1395SOL     OW15817   1.404   0.668  13.215 -0.0108 -0.6501 -0.0257
 1395SOL    HW115818   1.356   0.722  13.153  0.7816 -1.5908 -1.4615
 1395SOL    HW215819   1.488   0.666  13.169 -0.3097  1.2782 -0.6416
 1396SOL     OW15820   4.184   3.975   8.089 -0.2458 -0.7896 -0.4071
 1396SOL    HW115821   4.252   4.005   8.029  0.1216 -1.1146 -0.1527
 1396SOL    HW215822   4.143   3.909   8.032 -1.4885 -0.9498  0.6796
 1397SOL     OW15823   1.702   0.865   0.428  0.8367 -0.1769 -0.2475
 1397SOL    HW115824   1.657   0.941   0.464 -1.9985 -1.2350 -1.5304
 1397SOL    HW215825   1.651   0.801   0.479 -3.1564  0.9806 -2.7518
 1398SOL     OW15826   0.891   0.206  13.635 -0.2153 -0.0216  0.0205
 1398SOL    HW115827   0.829   0.273  13.665 -1.1791 -1.5484  1.4750
 1398SOL    HW215828   0.956   0.255  13.586 -2.0482  2.2651 -0.0926
 1399SOL     OW15829   1.430   0.054   3.216 -0.0050  0.3086 -0.6651
 1399SOL    HW115830   1.361   0.120   3.211  0.5487  1.0725  1.4077
 1399SOL    HW215831   1.474   0.055   3.131  0.8845 -1.7887 -0.2376
 1400SOL     OW15832   4.377   4.321  11.920 -0.5218 -1.0404  0.0578
 1400SOL    HW115833   4.314   4.283  11.860 -0.4406 -1.3645  0.1808
 1400SOL    HW215834   4.440   4.249  11.925  2.0152  1.2342  1.0636
 1401SOL     OW15835   1.871   0.904   1.965 -0.3622 -0.3655 -0.3072
 1401SOL    HW115836   1.831   0.818   1.962 -0.1746 -0.4037 -1.7282
 1401SOL    HW215837   1.946   0.892   1.906 -1.3581 -0.6035 -1.5346
 1402SOL     OW15838   1.227   2.236   8.902 -0.0344  0.3566 -0.1467
 1402SOL    HW115839   1.280   2.277   8.833  1.5239 -1.4785 -0.0524
 1402SOL    HW215840   1.283   2.169   8.941  0.9891  0.1876 -1.8923
 1403SOL     OW15841   2.506   1.852  15.236  0.9443 -0.1036  1.0263
 1403SOL    HW115842   2.458   1.922  15.191  1.5475 -1.0721 -1.1233
 1403SOL    HW215843   2.524   1.902  15.315  0.0302  1.1036  0.4701
 1404SOL     OW15844   3.901   0.160   4.383 -0.2961  0.2207 -0.1008
 1404SOL    HW115845   3.817   0.184   4.343 -0.1296  0.5253 -0.2709
 1404SOL    HW215846   3.951   0.105   4.324 -0.3474 -1.1877  1.1660
 1405SOL     OW15847   0.129   1.867  17.229 -0.3617  0.5245 -0.1604
 1405SOL    HW115848   0.126   1.840  17.137 -0.5024 -1.1710  0.3371
 1405SOL    HW215849   0.076   1.946  17.224 -0.2011  0.5875 -0.8165
 1406SOL     OW15850   3.367   1.183   2.342  0.1429 -0.1605 -0.2995
 1406SOL    HW115851   3.318   1.229   2.274  0.4961 -0.0342 -0.4726
 1406SOL    HW215852   3.344   1.230   2.422  0.1343 -0.7134  0.0246
 1407SOL     OW15853   0.841   1.634   3.055  0.1911  0.1440 -0.5589
 1407SOL    HW115854   0.920   1.667   3.097  0.8891 -3.2216  0.8189
 1407SOL    HW215855   0.878   1.614   2.969 -0.3550  1.5380 -1.1097
 1408SOL     OW15856   1.198   4.734   9.664  0.2292  0.0564  0.1863
 1408SOL    HW115857   1.113   4.736   9.621  0.6699  1.6757 -0.6217
 1408SOL    HW215858   1.181   0.002   9.757  0.0899  1.0399  0.0725
 1409SOL     OW15859   3.222   1.471  16.339 -0.0307  0.1110 -0.0661
 1409SOL    HW115860   3.249   1.482  16.429  3.3897  0.3779 -1.1251
 1409SOL    HW215861   3.276   1.396  16.314 -1.0423 -0.2704 -1.1166
 1410SOL     OW15862   4.255   3.330   4.835  0.0684  0.7417 -0.1503
 1410SOL    HW115863   4.329   3.311   4.778 -0.7643 -1.4521 -0.4560
 1410SOL    HW215864   4.235   3.418   4.802  0.8358  0.8350 -0.3554
 1411SOL     OW15865   0.429   0.184  13.629 -0.9117  0.6193 -0.4977
 1411SOL    HW115866   0.334   0.192  13.621 -0.9064  1.5556  0.5906
 1411SOL    HW215867   0.448   0.145  13.714  0.6138 -0.2161 -1.2177
 1412SOL     OW15868   3.050   2.857   4.478  0.4687 -0.1209 -0.2968
 1412SOL    HW115869   3.145   2.861   4.485  0.6430 -2.5520 -1.4274
 1412SOL    HW215870   3.025   2.779   4.527  1.3823 -0.2768 -0.0794
 1413SOL     OW15871   2.333   0.235   1.737 -0.4353  0.4011 -0.0679
 1413SOL    HW115872   2.366   0.150   1.765 -0.3678  0.5466  0.2929
 1413SOL    HW215873   2.372   0.247   1.651  0.3772 -1.6127  0.0238
 1414SOL     OW15874   1.217   3.387   2.602 -0.3345 -0.2088 -0.4752
 1414SOL    HW115875   1.287   3.378   2.667  0.1324  0.8587 -0.8336
 1414SOL    HW215876   1.167   3.447   2.657  1.6695  1.0818 -0.0378
 1415SOL     OW15877   0.301   1.998  16.923  0.1242  0.7603 -0.0811
 1415SOL    HW115878   0.323   2.064  16.988  1.2045 -0.6019  0.9274
 1415SOL    HW215879   0.372   1.934  16.922 -1.7981 -1.4117  2.8362
 1416SOL     OW15880   1.390   0.890   5.682 -0.6705  0.5143  0.0429
 1416SOL    HW115881   1.389   0.979   5.646 -0.3568  0.7899  0.7131
 1416SOL    HW215882   1.406   0.834   5.606 -0.8401  2.5848 -1.5088
 1417SOL     OW15883   0.054   1.406  10.417 -0.6910 -0.0538 -0.3307
 1417SOL    HW115884   0.119   1.336  10.409  0.9241  1.5485 -1.3423
 1417SOL    HW215885   4.738   1.381  10.344 -0.0620 -0.5824 -0.6371
 1418SOL     OW15886   3.130   2.141  12.869 -0.3015 -0.3648  0.0840
 1418SOL    HW115887   3.074   2.071  12.836  2.0090 -2.1839  0.0254
 1418SOL    HW215888   3.070   2.197  12.919 -0.9640 -0.2573 -0.8337
 1419SOL     OW15889   1.648   1.944   5.894 -0.4169 -1.1579 -0.5184
 1419SOL    HW115890   1.699   1.867   5.922 -2.3259 -1.8341  1.0774
 1419SOL    HW215891   1.659   1.943   5.799 -1.3846 -0.4603 -0.6360
 1420SOL     OW15892   1.411   1.529   7.050  0.7624 -0.0767 -0.4342
 1420SOL    HW115893   1.356   1.581   6.991 -1.2043 -0.1118  1.3669
 1420SOL    HW215894   1.395   1.444   7.008  0.1565 -0.4807  0.6265
 1421SOL     OW15895   2.201   4.659   8.315 -0.3207 -0.1116  0.7014
 1421SOL    HW115896   2.260   4.604   8.264 -1.9401 -1.8905  0.7648
 1421SOL    HW215897   2.261   4.730   8.340 -0.4977 -0.7604  2.9515
 1422SOL     OW15898   2.007   4.710   4.855 -0.1223 -0.3578 -0.3352
 1422SOL    HW115899   2.075   4.679   4.915 -1.0758 -0.0138  0.9327
 1422SOL    HW215900   2.061   4.729   4.779 -1.5459  0.2931 -1.1899
 1423SOL     OW15901   3.449   1.148   6.661  0.0604  0.1163 -0.5203
 1423SOL    HW115902   3.368   1.157   6.712 -1.2121 -1.8285 -2.1762
 1423SOL    HW215903   3.465   1.238   6.634 -0.0085  0.1754 -0.3641
 1424SOL     OW15904   2.343   3.892  17.539  0.2792  0.7388  0.2931
 1424SOL    HW115905   2.424   3.908  17.586  1.1086  2.4387 -1.7194
 1424SOL    HW215906   2.281   3.899  17.612  0.5709 -2.9493  0.8518
 1425SOL     OW15907   3.784   1.292   4.269 -0.3661  0.5792 -0.3547
 1425SOL    HW115908   3.690   1.277   4.254  0.1462  0.1076 -3.1605
 1425SOL    HW215909   3.809   1.270   4.179 -0.2286 -0.1926 -0.1294
 1426SOL     OW15910   1.597   2.373   9.357  0.9006 -0.2142 -0.1306
 1426SOL    HW115911   1.651   2.311   9.308  1.2171 -0.8169  0.9721
 1426SOL    HW215912   1.665   2.395   9.421  0.5344  1.5464 -0.3521
 1427SOL     OW15913   2.885   2.235   8.558 -0.3103 -0.5940  0.1454
 1427SOL    HW115914   2.964   2.284   8.582  1.1622 -1.2460 -3.2734
 1427SOL    HW215915   2.928   2.152   8.579  1.0841  0.7597  2.6365
 1428SOL     OW15916   0.901   3.435   7.551 -0.2555  0.2588  0.0949
 1428SOL    HW115917   0.850   3.416   7.630 -0.1366  3.1578  0.8697
 1428SOL    HW215918   0.872   3.526   7.540  0.9100  0.5137 -0.8228
 1429SOL     OW15919   4.089   1.042   7.759 -0.4618  0.4610  0.1478
 1429SOL    HW115920   4.178   1.060   7.787  0.3838 -1.6499 -1.1459
 1429SOL    HW215921   4.100   0.958   7.714 -1.5173  0.2837  0.2074
 1430SOL     OW15922   0.010   2.272   8.706 -0.1146 -0.8002 -0.4551
 1430SOL    HW115923   0.030   2.365   8.695 -0.1967 -0.7436 -0.1310
 1430SOL    HW215924   4.718   2.265   8.796 -1.6485 -0.3661 -0.9770
 1431SOL     OW15925   0.820   1.690  16.224 -0.1548  0.2645  0.5028
 1431SOL    HW115926   0.852   1.627  16.160  1.4407  0.2050  1.3660
 1431SOL    HW215927   0.769   1.640  16.287  0.2073  0.6474  1.0945
 1432SOL     OW15928   1.012   0.852   7.539 -0.4998 -0.0592  0.5196
 1432SOL    HW115929   1.012   0.947   7.551  2.3889 -0.0423  0.2259
 1432SOL    HW215930   1.096   0.816   7.566 -1.4122 -0.2629  3.0698
 1433SOL     OW15931   0.224   2.458   4.130 -0.0026  0.3706  0.4847
 1433SOL    HW115932   0.243   2.366   4.151 -0.2885  0.1669 -0.1424
 1433SOL    HW215933   0.294   2.507   4.172 -0.6041  1.1587  0.5554
 1434SOL     OW15934   3.529   4.388   7.202 -0.1580  0.4182 -0.2349
 1434SOL    HW115935   3.436   4.365   7.196 -0.2381  0.1888  2.0090
 1434SOL    HW215936   3.533   4.461   7.139  1.3682  0.5701  0.0431
 1435SOL     OW15937   2.602   4.017   5.052 -0.1502 -0.0022 -0.3485
 1435SOL    HW115938   2.607   4.090   4.991  0.1664 -1.4131 -1.9983
 1435SOL    HW215939   2.626   4.048   5.140  2.5995  1.4047 -1.5706
 1436SOL     OW15940   4.066   2.164   8.719  0.2300 -0.8556  0.3576
 1436SOL    HW115941   4.009   2.111   8.663 -1.0126  1.0031 -0.1479
 1436SOL    HW215942   4.053   2.253   8.685  2.4060 -0.7235 -0.1244
 1437SOL     OW15943   1.188   4.142   8.472 -0.4306  0.1645 -0.4569
 1437SOL    HW115944   1.197   4.208   8.403  0.2677 -1.0502 -1.5415
 1437SOL    HW215945   1.249   4.076   8.438  0.7807 -0.3569  2.7464
 1438SOL     OW15946   2.517   4.483   5.057  0.7171 -0.0330  0.2859
 1438SOL    HW115947   2.531   4.401   5.010  0.7577  0.1207  0.0329
 1438SOL    HW215948   2.518   4.451   5.148  0.1632  1.3498  0.7808
 1439SOL     OW15949   1.070   4.328   8.077  0.3832  0.2357  0.9856
 1439SOL    HW115950   1.101   4.239   8.096  1.8880  0.1731 -1.6896
 1439SOL    HW215951   1.023   4.322   7.994  0.3341  0.7065  0.9786
 1440SOL     OW15952   0.279   4.699   2.008  0.2938  0.7195 -0.5838
 1440SOL    HW115953   0.346   4.658   1.953  0.4930 -1.5773  1.3859
 1440SOL    HW215954   0.296   0.052   1.994 -1.2932  1.5494  2.9307
 1441SOL     OW15955   1.112   2.755   2.222 -0.3528  0.2378 -0.0738
 1441SOL    HW115956   1.132   2.745   2.315 -1.4149 -1.2446 -0.0032
 1441SOL    HW215957   1.171   2.688   2.189 -0.4257 -0.3407  0.9556
 1442SOL     OW15958   1.983   1.870   4.725  0.1451 -0.0165 -0.1909
 1442SOL    HW115959   1.964   1.814   4.801 -2.5016 -0.1125 -0.9336
 1442SOL    HW215960   1.994   1.956   4.766  0.7790  0.2246 -0.8732
 1443SOL     OW15961   1.529   4.717   6.672  0.0748  0.0568  0.1407
 1443SOL    HW115962   1.541   4.687   6.762  0.5217 -0.0004  0.0594
 1443SOL    HW215963   1.529   4.634   6.624  0.1097  0.8035 -1.1344
 1444SOL     OW15964   0.273   1.841   9.279  0.2587  0.0321  0.5552
 1444SOL    HW115965   0.314   1.922   9.311 -1.1943  1.1872 -0.5119
 1444SOL    HW215966   0.219   1.859   9.202  3.4902  0.5968 -1.6061
 1445SOL     OW15967   2.559   2.970   5.188  0.6719  0.5656 -0.0475
 1445SOL    HW115968   2.590   2.881   5.205  0.4652  0.3887 -0.6014
 1445SOL    HW215969   2.634   3.027   5.203 -0.2814  1.8086  0.0292
 1446SOL     OW15970   3.784   2.981  14.888  0.4652 -0.3511  0.3900
 1446SOL    HW115971   3.725   2.917  14.848 -1.3617  1.2040  0.5932
 1446SOL    HW215972   3.763   2.963  14.980 -1.8688  1.5442  0.2199
 1447SOL     OW15973   3.096   1.956   5.291  0.6240  0.2479 -0.0966
 1447SOL    HW115974   3.056   1.877   5.254  0.1106  0.2949  0.3550
 1447SOL    HW215975   3.178   1.925   5.329  1.3148  1.0914 -0.9072
 1448SOL     OW15976   0.551   3.044   0.944 -0.8684  0.3244 -0.5899
 1448SOL    HW115977   0.505   3.107   0.887 -1.1665 -1.3529 -2.1956
 1448SOL    HW215978   0.489   3.029   1.015  1.6553  1.1291  1.7631
 1449SOL     OW15979   0.310   2.317   9.067  0.0399  0.0229 -0.1243
 1449SOL    HW115980   0.403   2.303   9.081 -0.7111 -2.7962  1.9514
 1449SOL    HW215981   0.271   2.345   9.150  1.5491 -0.8381  0.8671
 1450SOL     OW15982   2.311   1.346   5.414  0.7289  0.2054 -0.0236
 1450SOL    HW115983   2.272   1.269   5.456 -0.4627  0.1906 -1.1517
 1450SOL    HW215984   2.239   1.406   5.395  0.7307  0.2926  0.2388
 1451SOL     OW15985   4.270   1.246   4.958 -0.3330  0.2111 -0.0588
 1451SOL    HW115986   4.229   1.203   4.883 -1.7879 -0.5963  1.1943
 1451SOL    HW215987   4.301   1.330   4.923  0.3982  1.6258  3.9707
 1452SOL     OW15988   3.532   4.203   5.440  0.9784  0.1059  0.4783
 1452SOL    HW115989   3.580   4.285   5.454  0.1871  0.6789 -0.1821
 1452SOL    HW215990   3.450   4.242   5.411  0.9037  0.7156  1.5237
 1453SOL     OW15991   3.016   0.312  12.024 -0.5173  0.2579  0.1230
 1453SOL    HW115992   3.095   0.356  12.054 -0.2244 -0.0433 -0.1980
 1453SOL    HW215993   2.957   0.340  12.094  0.0285  0.9111  0.3253
 1454SOL     OW15994   0.063   0.971   4.005  0.2388  0.1312 -0.1874
 1454SOL    HW115995   4.729   0.997   4.059  2.3042  3.2807  1.1351
 1454SOL    HW215996   0.023   0.993   3.921 -1.0688  0.9251  0.6419
 1455SOL     OW15997   1.626   3.048   8.942  0.2371  0.3594  0.5332
 1455SOL    HW115998   1.561   2.978   8.944  0.3509  0.2685  1.2950
 1455SOL    HW215999   1.689   3.027   9.011 -0.9887  3.9285  2.7722
 1456SOL     OW16000   2.377   0.110   2.814  1.4103  0.1710 -0.2707
 1456SOL    HW116001   2.354   0.161   2.892  0.0967  2.0360 -1.8552
 1456SOL    HW216002   2.332   0.028   2.834 -1.1710  1.3502 -1.1272
 1457SOL     OW16003   1.657   0.702   5.978  1.1193 -0.4326 -0.0741
 1457SOL    HW116004   1.585   0.639   5.969 -0.4844  1.6067 -1.5460
 1457SOL    HW216005   1.652   0.708   6.073  2.7352 -1.6340  0.0665
 1458SOL     OW16006   1.628   2.554  12.795  0.0308  0.0367  0.3413
 1458SOL    HW116007   1.547   2.589  12.758  0.2345 -0.3651 -0.4648
 1458SOL    HW216008   1.619   2.591  12.883 -1.5918 -1.5848  0.8453
 1459SOL     OW16009   4.503   1.055   8.629  0.0360 -0.2191  0.3610
 1459SOL    HW116010   4.560   0.990   8.587  3.7761  3.7489 -0.6897
 1459SOL    HW216011   4.543   1.123   8.576  1.0075 -0.8002  0.3551
 1460SOL     OW16012   1.203   0.250   6.306  0.5635  0.1000 -0.3493
 1460SOL    HW116013   1.239   0.334   6.277  0.0624  0.4555  0.0721
 1460SOL    HW216014   1.117   0.282   6.331  1.1425  1.7161 -0.4410
 1461SOL     OW16015   2.322   1.320   3.460  0.1988  1.0164  0.2658
 1461SOL    HW116016   2.412   1.347   3.479  0.3650 -0.1744  1.1228
 1461SOL    HW216017   2.334   1.280   3.374 -2.7091 -1.2487  0.9130
 1462SOL     OW16018   2.437   1.215   2.419 -0.1856  0.6617 -0.0115
 1462SOL    HW116019   2.410   1.240   2.330 -1.2088 -2.1691 -0.5097
 1462SOL    HW216020   2.400   1.281   2.478  1.3200  1.9582 -0.5396
 1463SOL     OW16021   0.394   2.910   6.147  0.6038 -0.0759  0.0070
 1463SOL    HW116022   0.359   2.892   6.235  1.2359  0.0082  0.2772
 1463SOL    HW216023   0.417   2.819   6.126  0.7488  0.6652 -3.0129
 1464SOL     OW16024   2.605   1.301  11.860 -0.1329  0.0018 -0.3310
 1464SOL    HW116025   2.595   1.338  11.772 -0.4873 -0.5221 -0.5133
 1464SOL    HW216026   2.616   1.212  11.827 -1.3073  0.6399 -2.4621
 1465SOL     OW16027   0.394   0.932   9.197  0.1383 -0.0080  0.2806
 1465SOL    HW116028   0.442   0.883   9.131  1.3279  0.4543  0.7965
 1465SOL    HW216029   0.371   1.010   9.146  1.4617  0.4416  0.3815
 1466SOL     OW16030   3.577   1.728   6.217 -0.6511 -0.0719 -0.0636
 1466SOL    HW116031   3.491   1.750   6.252 -0.7939 -0.8146  0.0477
 1466SOL    HW216032   3.630   1.798   6.256  0.1770 -1.3645  1.1192
 1467SOL     OW16033   3.449   0.372   0.154  0.2121 -0.7297  1.0735
 1467SOL    HW116034   3.393   0.374   0.231  0.0110  0.8601  0.8958
 1467SOL    HW216035   3.521   0.315   0.180  1.1074  0.6808  1.6836
 1468SOL     OW16036   1.444   0.177   5.027 -0.2140  0.4063 -0.5738
 1468SOL    HW116037   1.385   0.229   5.082 -0.7633  1.1457 -1.8895
 1468SOL    HW216038   1.426   0.091   5.066  0.6200 -0.4592 -2.1114
 1469SOL     OW16039   2.731   1.806   2.360 -0.5331 -0.4680  0.1869
 1469SOL    HW116040   2.736   1.901   2.367 -4.1951 -0.2933  0.4877
 1469SOL    HW216041   2.669   1.781   2.429 -0.9559 -0.5186 -0.2070
 1470SOL     OW16042   4.088   1.219   2.012  0.2576 -0.1888 -0.4161
 1470SOL    HW116043   4.053   1.302   1.979  0.7904 -0.5795 -1.9635
 1470SOL    HW216044   4.064   1.231   2.104 -3.7989 -1.5185 -1.2686
 1471SOL     OW16045   0.390   3.208  10.292 -0.5092 -0.1238 -0.0895
 1471SOL    HW116046   0.338   3.138  10.251  1.7535  0.5620 -4.1317
 1471SOL    HW216047   0.333   3.246  10.359  2.1239  1.5294  1.1905
 1472SOL     OW16048   0.593   3.811  11.418  0.1063  0.7365  0.1691
 1472SOL    HW116049   0.553   3.874  11.358 -3.0366  0.1093  1.6147
 1472SOL    HW216050   0.646   3.762  11.355  0.9297  0.3361  1.1688
 1473SOL     OW16051   0.716   4.026   8.610  0.2968  0.4502  0.1032
 1473SOL    HW116052   0.780   3.997   8.544  0.5170  2.0055 -0.3523
 1473SOL    HW216053   0.710   4.116   8.581  0.7536  0.4598  0.0300
 1474SOL     OW16054   1.165   3.604   7.466  0.0793  0.8637  0.2509
 1474SOL    HW116055   1.203   3.529   7.420  1.6780  1.1116  1.1603
 1474SOL    HW216056   1.121   3.557   7.536  0.8055  0.5341  0.4946
 1475SOL     OW16057   1.861   1.424   1.962 -0.6525  0.2698 -0.5743
 1475SOL    HW116058   1.892   1.504   1.919 -0.1629  0.9865  1.1219
 1475SOL    HW216059   1.878   1.362   1.892  1.4974 -1.0297  1.0869
 1476SOL     OW16060   1.536   3.662  10.373 -0.3455  0.0281  0.6806
 1476SOL    HW116061   1.481   3.591  10.406 -1.8395  0.5711 -0.6516
 1476SOL    HW216062   1.465   3.723  10.355 -0.7890 -0.5268  0.5563
 1477SOL     OW16063   3.958   4.336   5.472  0.1357  0.5661 -0.3904
 1477SOL    HW116064   3.985   4.426   5.454 -0.5445  1.3742  2.6665
 1477SOL    HW216065   3.872   4.341   5.512  0.4508  0.2189  0.3428
 1478SOL     OW16066   1.878   0.879  11.311 -0.2073 -0.1462  0.6871
 1478SOL    HW116067   1.814   0.903  11.378 -1.0337 -0.0315 -0.1342
 1478SOL    HW216068   1.936   0.821  11.361  1.0041 -0.3239 -0.9388
 1479SOL     OW16069   4.418   3.395   3.827 -0.0052 -0.0142  0.2524
 1479SOL    HW116070   4.379   3.345   3.755  0.0579  0.5901 -0.1976
 1479SOL    HW216071   4.509   3.372   3.808 -0.6236 -2.8523  0.7292
 1480SOL     OW16072   0.028   2.327   1.777 -0.0273 -0.3280  0.4723
 1480SOL    HW116073   0.056   2.270   1.848  1.1524  0.1686  0.4098
 1480SOL    HW216074   0.095   2.323   1.708  0.3029  2.6184  0.5903
 1481SOL     OW16075   3.123   2.813   8.254  0.1506  0.0001  0.6817
 1481SOL    HW116076   3.072   2.736   8.231 -0.9028  1.1829 -0.8966
 1481SOL    HW216077   3.175   2.823   8.174 -0.1739 -1.6096  0.2776
 1482SOL     OW16078   4.263   3.688   0.980  0.3806  0.4479  0.1936
 1482SOL    HW116079   4.221   3.607   1.011  0.8252  0.4425  0.8007
 1482SOL    HW216080   4.342   3.648   0.943 -0.2391 -2.1385  1.5954
 1483SOL     OW16081   2.859   1.837   1.730  0.0936  0.1410 -0.2886
 1483SOL    HW116082   2.889   1.774   1.665 -0.5056 -0.3028 -0.1330
 1483SOL    HW216083   2.914   1.814   1.805 -0.3833  2.4184  0.7824
 1484SOL     OW16084   2.542   3.852   8.311 -0.1341  0.1811  0.5749
 1484SOL    HW116085   2.550   3.936   8.267  0.2135 -0.9423 -1.4787
 1484SOL    HW216086   2.457   3.819   8.282  0.4495  1.7659 -2.9004
 1485SOL     OW16087   2.725   0.989   1.968 -0.8476  0.2120  0.5689
 1485SOL    HW116088   2.724   0.950   1.880 -0.4651  0.9090  0.2592
 1485SOL    HW216089   2.776   0.922   2.015 -0.0532  0.7453  0.4592
 1486SOL     OW16090   0.922   0.871  13.952 -0.1272  0.5450  0.0816
 1486SOL    HW116091   0.999   0.823  13.984  1.1171  1.3277 -1.7695
 1486SOL    HW216092   0.860   0.854  14.023 -0.4964 -1.0009 -0.6248
 1487SOL     OW16093   4.192   2.501  15.737  0.2996 -0.6902 -0.5242
 1487SOL    HW116094   4.140   2.474  15.661 -1.2609 -3.3566  1.4693
 1487SOL    HW216095   4.255   2.566  15.707  1.0016 -0.4073  1.5499
 1488SOL     OW16096   2.308   1.975  11.192 -0.7599  0.1178  0.2242
 1488SOL    HW116097   2.332   1.918  11.119  2.0400  2.7383 -0.9239
 1488SOL    HW216098   2.357   2.054  11.169 -0.7222 -0.6205 -2.2622
 1489SOL     OW16099   1.785   2.060   9.646 -0.3588 -0.0252  0.1271
 1489SOL    HW116100   1.875   2.073   9.618 -0.2905 -0.9197 -0.0563
 1489SOL    HW216101   1.793   2.026   9.735  0.2284  1.4651  0.6429
 1490SOL     OW16102   2.876   2.622   3.543  0.3414  0.2471 -0.0891
 1490SOL    HW116103   2.928   2.573   3.480 -0.3755 -0.0403 -0.4572
 1490SOL    HW216104   2.912   2.710   3.530  0.9509 -0.2403 -1.6748
 1491SOL     OW16105   1.970   3.030   8.725  0.5229  0.5155  0.0969
 1491SOL    HW116106   2.017   2.949   8.742 -0.2390  0.1921  0.6681
 1491SOL    HW216107   1.879   2.998   8.722  0.4829  0.5665  0.7162
 1492SOL     OW16108   1.442   1.451   3.599 -0.1234  0.3043 -0.5284
 1492SOL    HW116109   1.488   1.535   3.594  2.2258 -1.0905 -1.7312
 1492SOL    HW216110   1.422   1.445   3.693  3.1376 -0.7602  0.0758
 1493SOL     OW16111   0.603   3.333   5.615  0.5189 -0.0008  0.2763
 1493SOL    HW116112   0.671   3.310   5.552 -0.4705  0.1445 -0.8480
 1493SOL    HW216113   0.652   3.309   5.693  0.2373 -0.9473  0.1568
 1494SOL     OW16114   2.168   4.314  12.919 -0.0222 -0.2645 -0.5621
 1494SOL    HW116115   2.233   4.373  12.957 -0.5196  0.4345 -0.7811
 1494SOL    HW216116   2.193   4.224  12.940 -0.8989 -0.7448 -1.5506
 1495SOL     OW16117   3.926   1.381   7.666 -0.3791 -0.6850 -0.0727
 1495SOL    HW116118   3.982   1.459   7.671 -0.2657 -0.7732  0.0538
 1495SOL    HW216119   3.974   1.325   7.727  1.7281 -0.4802 -1.5479
 1496SOL     OW16120   0.030   3.319   2.789  0.5651 -0.2057 -0.4940
 1496SOL    HW116121   4.694   3.371   2.817  0.9188 -1.4656  2.8579
 1496SOL    HW216122   0.088   3.389   2.762 -1.5176  1.9324  0.5369
 1497SOL     OW16123   2.083   2.222  12.327 -0.1672 -0.6670  0.1350
 1497SOL    HW116124   2.000   2.255  12.360  0.4419  0.3695  0.6468
 1497SOL    HW216125   2.089   2.151  12.390 -0.4207  0.0972  1.0123
 1498SOL     OW16126   3.934   2.259  10.473 -0.3549  0.0521  0.5682
 1498SOL    HW116127   3.902   2.249  10.383  1.1308 -3.5745  0.4228
 1498SOL    HW216128   4.024   2.234  10.455 -1.1603 -2.0296 -0.5802
 1499SOL     OW16129   3.785   3.422   5.029 -0.2126 -0.0764  0.2466
 1499SOL    HW116130   3.784   3.420   4.934 -2.9564  2.1957  0.2325
 1499SOL    HW216131   3.879   3.433   5.043 -0.4237  0.7535  1.0430
 1500SOL     OW16132   4.675   3.992   7.754  0.2981 -0.0080 -0.4232
 1500SOL    HW116133   4.605   3.978   7.691 -0.4086 -2.2291  0.8441
 1500SOL    HW216134   4.662   3.923   7.820  1.2949  0.1318 -0.0702
 1501SOL     OW16135   2.770   2.399   4.236  0.4293 -0.4767  0.2996
 1501SOL    HW116136   2.767   2.458   4.161 -1.5055  0.0653  0.8141
 1501SOL    HW216137   2.714   2.445   4.299 -1.7467 -2.9184  0.1439
 1502SOL     OW16138   2.066   3.927   4.571  0.0625 -0.6302 -0.3144
 1502SOL    HW116139   2.022   3.963   4.494 -2.5144 -1.7927  0.6142
 1502SOL    HW216140   2.009   3.948   4.645 -0.4504 -1.1753 -0.5528
 1503SOL     OW16141   2.408   4.508   8.164 -0.1299  0.1796  0.1627
 1503SOL    HW116142   2.466   4.442   8.201 -1.8364 -1.0753  0.6156
 1503SOL    HW216143   2.407   4.485   8.071 -0.0244 -0.0227  0.2126
 1504SOL     OW16144   2.698   3.272  11.990 -0.0549 -0.0943 -0.0500
 1504SOL    HW116145   2.665   3.349  11.943  0.1629 -0.7035 -1.2195
 1504SOL    HW216146   2.616   3.223  11.998 -1.5376  2.1621 -1.5481
 1505SOL     OW16147   0.149   1.563   4.713 -0.1767 -0.2968  0.1142
 1505SOL    HW116148   0.090   1.500   4.757  0.0138  0.3655  1.3255
 1505SOL    HW216149   0.105   1.553   4.629 -0.4170  0.1826  0.1855
 1506SOL     OW16150   2.280   4.630   2.960 -1.0208 -0.4497  0.1374
 1506SOL    HW116151   2.291   4.597   3.049  0.9521 -1.5735 -0.5121
 1506SOL    HW216152   2.201   4.683   2.965 -1.2490 -0.8451  0.7580
 1507SOL     OW16153   0.795   0.567   6.698  0.2384 -0.4280  0.0267
 1507SOL    HW116154   0.885   0.534   6.689 -0.0297 -0.9644 -0.7915
 1507SOL    HW216155   0.820   0.658   6.681  0.2589 -0.3953  0.2419
 1508SOL     OW16156   1.733   3.289   7.201 -0.1178  0.2362  0.1355
 1508SOL    HW116157   1.798   3.228   7.235 -0.9629 -0.8496 -0.1738
 1508SOL    HW216158   1.757   3.378   7.225 -1.5411  0.7410 -0.3412
 1509SOL     OW16159   4.584   0.537  11.045 -0.1818  0.2263  0.7234
 1509SOL    HW116160   4.615   0.626  11.034 -0.0230  0.0315 -0.4062
 1509SOL    HW216161   4.666   0.493  11.025  0.0946  1.5028 -0.9118
 1510SOL     OW16162   0.926   3.899   7.580  0.9492 -0.1386  0.3739
 1510SOL    HW116163   0.970   3.871   7.500 -0.0340  1.1481 -0.6248
 1510SOL    HW216164   0.996   3.917   7.642  0.8635 -1.9769  0.9999
 1511SOL     OW16165   3.093   1.287   4.249  0.6692 -0.1198 -0.1410
 1511SOL    HW116166   3.182   1.322   4.252  1.2043 -1.4684 -0.5698
 1511SOL    HW216167   3.036   1.365   4.249  1.1425  0.2575  3.0766
 1512SOL     OW16168   3.608   4.735   1.106  0.1296 -0.2499 -0.3048
 1512SOL    HW116169   3.641   0.002   1.017  0.2803 -3.2646 -0.4982
 1512SOL    HW216170   3.681   0.022   1.162 -3.1825 -1.1849  4.4242
 1513SOL     OW16171   1.499   1.694   4.341  0.6993 -0.3500 -0.0893
 1513SOL    HW116172   1.491   1.787   4.319 -1.0603 -0.3386  0.6289
 1513SOL    HW216173   1.591   1.685   4.366  0.2867 -1.3996  1.0297
 1514SOL     OW16174   0.800   4.600   7.399 -0.2939  0.6094 -0.1692
 1514SOL    HW116175   0.844   4.664   7.344 -0.0647  1.5717  1.1231
 1514SOL    HW216176   0.870   4.536   7.412 -1.3065 -0.2289  1.2839
 1515SOL     OW16177   2.159   1.156   3.604 -0.1465  0.6404 -0.2240
 1515SOL    HW116178   2.159   1.189   3.693 -0.6879 -0.4180  0.1681
 1515SOL    HW216179   2.186   1.226   3.544 -3.0583  1.5157 -0.5146
 1516SOL     OW16180   2.267   2.975   7.739 -0.3769 -0.2684  0.3624
 1516SOL    HW116181   2.246   2.890   7.699  0.1610  0.2076 -0.9264
 1516SOL    HW216182   2.341   2.950   7.794 -2.2161  0.4127  3.1135
 1517SOL     OW16183   2.321   2.088  10.898  0.1723 -0.4814  0.3611
 1517SOL    HW116184   2.254   2.152  10.921  0.3898 -0.0548 -0.1966
 1517SOL    HW216185   2.265   2.014  10.876 -2.9301  1.9449  0.0777
 1518SOL     OW16186   2.523   3.022   6.963 -0.2917 -0.9888 -0.0296
 1518SOL    HW116187   2.433   3.035   6.934  0.2261  3.5849  0.3605
 1518SOL    HW216188   2.521   2.948   7.024 -0.5132  0.5934  1.8907
 1519SOL     OW16189   4.035   1.215   6.087 -0.1248 -0.0749  0.0044
 1519SOL    HW116190   4.001   1.167   6.012 -2.0179 -0.0279  0.8557
 1519SOL    HW216191   3.981   1.194   6.163 -0.9389 -0.2271 -0.6230
 1520SOL     OW16192   2.082   4.030   6.956  0.2924  0.1544 -0.6374
 1520SOL    HW116193   2.061   3.949   7.002  1.2618  0.7652  0.8730
 1520SOL    HW216194   2.145   3.982   6.901  0.9484 -1.3584  1.4444
 1521SOL     OW16195   3.747   2.531   2.767 -0.0238 -0.0847  0.3215
 1521SOL    HW116196   3.821   2.559   2.821  1.3577  2.2549 -2.7640
 1521SOL    HW216197   3.676   2.560   2.825 -1.4787  0.1369 -1.5598
 1522SOL     OW16198   0.878   4.225   7.909  0.3880 -0.5212  0.4286
 1522SOL    HW116199   0.788   4.190   7.910 -0.1563  0.8385 -0.5291
 1522SOL    HW216200   0.897   4.265   7.824  0.5127  0.8272  1.0893
 1523SOL     OW16201   3.524   3.320  11.916  0.0523  0.0435  0.2365
 1523SOL    HW116202   3.556   3.243  11.962 -0.0095 -0.4452 -0.5447
 1523SOL    HW216203   3.493   3.277  11.836 -0.7890 -0.2166  0.7117
 1524SOL     OW16204   3.348   4.487   6.236 -0.0030  1.1183 -0.2360
 1524SOL    HW116205   3.299   4.569   6.244 -1.2341  0.3053  0.5521
 1524SOL    HW216206   3.285   4.416   6.225  0.3908  0.8722 -0.8703
 1525SOL     OW16207   1.486   3.624   4.360  0.3956  0.1119  0.1923
 1525SOL    HW116208   1.540   3.700   4.338  1.3964 -0.5948  0.2441
 1525SOL    HW216209   1.424   3.631   4.287  0.7091 -3.6517 -0.4057
 1526SOL     OW16210   3.220   1.448   6.875  0.2652  0.3017  0.1183
 1526SOL    HW116211   3.218   1.353   6.861  0.2999  0.5338 -1.4726
 1526SOL    HW216212   3.184   1.455   6.964 -1.2113  3.1731 -0.7041
 1527SOL     OW16213   2.179   0.931   7.711 -0.0959 -0.2508 -0.3647
 1527SOL    HW116214   2.197   0.993   7.640  1.6396 -0.3413 -0.0019
 1527SOL    HW216215   2.084   0.943   7.719 -0.0471 -0.3933  0.4263
 1528SOL     OW16216   3.736   3.055   8.015  0.1210 -0.8288 -0.1041
 1528SOL    HW116217   3.809   3.082   8.071  0.2970 -0.9177 -0.2930
 1528SOL    HW216218   3.777   3.003   7.946  1.7736 -0.3316  0.4848
 1529SOL     OW16219   3.906   3.710   4.660 -0.4773  0.1777 -0.2192
 1529SOL    HW116220   3.856   3.779   4.703 -0.2159  1.2335 -1.6098
 1529SOL    HW216221   3.845   3.704   4.586 -2.5427  0.4298  1.4666
 1530SOL     OW16222   2.615   4.398   5.322 -0.2922 -0.0681  0.5808
 1530SOL    HW116223   2.659   4.329   5.272 -0.9447 -1.8116  2.4081
 1530SOL    HW216224   2.613   4.357   5.409  3.4804 -1.8674 -0.1540
 1531SOL     OW16225   1.828   0.552   2.110  0.4209 -0.3947 -0.2754
 1531SOL    HW116226   1.916   0.561   2.075  0.7760  2.1599  1.2533
 1531SOL    HW216227   1.791   0.496   2.042 -1.1323  0.3969 -0.0875
 1532SOL     OW16228   3.085   3.357  15.663 -1.1001 -0.5675  0.2868
 1532SOL    HW116229   3.100   3.285  15.724 -0.7582 -0.1632  0.6836
 1532SOL    HW216230   3.064   3.305  15.586  1.6142 -1.2822  0.0155
 1533SOL     OW16231   4.153   4.244   8.756 -0.1191  0.7530  0.8305
 1533SOL    HW116232   4.144   4.192   8.836  2.6020 -0.4233  0.4020
 1533SOL    HW216233   4.140   4.331   8.792 -2.2079  0.6934  0.2371
 1534SOL     OW16234   1.325   4.703   8.650 -0.2100 -0.2205  0.2878
 1534SOL    HW116235   1.239   0.005   8.650  0.2125  0.6243  1.7127
 1534SOL    HW216236   1.352   4.702   8.557 -1.6013  1.8451 -0.1211
 1535SOL     OW16237   2.143   3.123   2.296  0.1853 -0.1622  0.3214
 1535SOL    HW116238   2.170   3.036   2.267  3.2210  0.6671  0.5756
 1535SOL    HW216239   2.126   3.106   2.388  1.0141  1.9703  0.8741
 1536SOL     OW16240   3.595   4.491  13.050  0.4699  0.5044 -0.1410
 1536SOL    HW116241   3.583   4.398  13.068 -0.5412  0.1876 -2.3839
 1536SOL    HW216242   3.553   4.494  12.964 -2.3632 -1.8599  1.1529
 1537SOL     OW16243   0.068   1.139   2.025 -0.2006 -0.2273  0.1253
 1537SOL    HW116244   0.099   1.221   1.987  0.9859 -1.0422 -0.6791
 1537SOL    HW216245   0.141   1.106   2.079 -0.9082 -1.4804  0.3027
 1538SOL     OW16246   3.104   2.542  12.554  0.1734 -0.1069  0.2727
 1538SOL    HW116247   3.189   2.584  12.548  0.0552  0.2481  1.0556
 1538SOL    HW216248   3.049   2.607  12.510 -0.6095 -1.3165 -0.5524
 1539SOL     OW16249   3.439   1.900   7.093 -0.5029 -0.4329 -0.0493
 1539SOL    HW116250   3.439   1.865   7.182  0.9038 -3.2897 -1.1844
 1539SOL    HW216251   3.393   1.984   7.097 -0.8614 -0.7150  1.6911
 1540SOL     OW16252   0.748   3.610  14.813 -0.5805 -0.3015  0.2792
 1540SOL    HW116253   0.815   3.585  14.748  1.7324  3.4337  1.1963
 1540SOL    HW216254   0.680   3.623  14.748 -0.0666  0.5893 -0.0805
 1541SOL     OW16255   4.520   4.431  17.416  0.1430  0.3266 -0.3377
 1541SOL    HW116256   4.450   4.371  17.444  0.9808  0.4639  2.0344
 1541SOL    HW216257   4.542   4.393  17.331 -1.5255  3.6624 -2.2419
 1542SOL     OW16258   1.209   3.924   6.896 -0.0077 -0.1966 -0.1987
 1542SOL    HW116259   1.282   3.966   6.850  0.2535 -0.5450 -0.0987
 1542SOL    HW216260   1.163   4.002   6.928 -1.6453 -2.4082  2.8860
 1543SOL     OW16261   0.180   0.886  13.126 -0.7299 -0.0915 -0.6463
 1543SOL    HW116262   0.164   0.844  13.042 -0.1925 -0.9804 -0.2985
 1543SOL    HW216263   0.255   0.832  13.152 -0.2185  0.9953  0.1269
 1544SOL     OW16264   2.006   1.531   4.104 -0.4290 -0.8637 -0.6002
 1544SOL    HW116265   2.001   1.519   4.199 -0.1933  1.6731 -0.2751
 1544SOL    HW216266   1.938   1.596   4.089  0.2934 -0.2199 -1.0969
 1545SOL     OW16267   2.853   1.049   5.134 -0.1572  0.1872  0.1373
 1545SOL    HW116268   2.924   1.000   5.175 -0.7578  0.8257  1.9201
 1545SOL    HW216269   2.778   1.022   5.186  0.1861  0.3076  0.6941
 1546SOL     OW16270   0.118   1.857   6.089 -0.5056  0.2140  0.4455
 1546SOL    HW116271   0.045   1.805   6.056 -0.8467 -0.5346  2.3303
 1546SOL    HW216272   0.179   1.852   6.016  1.3679  0.3107  2.0034
 1547SOL     OW16273   2.824   0.412   3.440  0.1537  0.1787  0.0548
 1547SOL    HW116274   2.783   0.478   3.497 -1.0685  0.3042 -0.9620
 1547SOL    HW216275   2.756   0.399   3.373 -1.5652 -1.2446  2.0534
 1548SOL     OW16276   1.035   1.029  10.412  0.0233  0.6095  0.1085
 1548SOL    HW116277   0.975   1.030  10.487 -0.9379 -0.2181 -0.6714
 1548SOL    HW216278   1.008   1.105  10.361  0.3035  0.2907 -0.5057
 1549SOL     OW16279   1.191   1.265   8.009  0.7539 -0.2837 -0.2500
 1549SOL    HW116280   1.197   1.197   7.942  1.5873  0.8739 -1.3456
 1549SOL    HW216281   1.206   1.202   8.080  1.3464  0.2419  0.0921
 1550SOL     OW16282   1.617   3.431   3.512  0.1757 -0.2076  0.4096
 1550SOL    HW116283   1.581   3.378   3.442  1.6595 -1.7539  0.8305
 1550SOL    HW216284   1.702   3.391   3.529  0.4582  0.1507 -0.1611
 1551SOL     OW16285   2.995   4.469  16.938  0.5325  0.1088  0.2974
 1551SOL    HW116286   3.061   4.492  17.004 -3.4093  0.3091  4.1501
 1551SOL    HW216287   2.931   4.537  16.960 -0.9486 -0.2007 -2.9664
 1552SOL     OW16288   0.156   2.153   8.027  0.1149 -0.0135 -0.2776
 1552SOL    HW116289   0.126   2.185   8.112 -1.3206  0.9404 -1.1538
 1552SOL    HW216290   0.229   2.213   8.019  0.3160 -0.0964  0.9830
 1553SOL     OW16291   4.438   1.487   3.910 -0.1576 -0.3988 -0.0107
 1553SOL    HW116292   4.441   1.551   3.980  1.5943  1.0416 -1.4106
 1553SOL    HW216293   4.524   1.450   3.929 -0.0734  0.5425  1.3945
 1554SOL     OW16294   2.874   4.040   1.698 -0.1381 -0.1593  0.1599
 1554SOL    HW116295   2.936   4.029   1.626 -0.0798 -2.3482  0.5605
 1554SOL    HW216296   2.933   4.035   1.774 -0.7634 -1.9402  0.5293
 1555SOL     OW16297   3.291   3.351   6.534 -0.0008 -0.1200  0.0780
 1555SOL    HW116298   3.260   3.284   6.595  1.9362 -0.4808  0.6862
 1555SOL    HW216299   3.362   3.382   6.591  0.8437 -3.1621  0.6702
 1556SOL     OW16300   0.075   2.697   1.860 -0.2451  0.2107 -0.6918
 1556SOL    HW116301   0.048   2.630   1.797 -1.2663 -0.9403  0.9703
 1556SOL    HW216302   0.125   2.753   1.801  1.5023 -1.7457 -1.0628
 1557SOL     OW16303   4.708   1.650   9.085 -0.4863 -0.6269 -0.1826
 1557SOL    HW116304   0.022   1.579   9.121  0.7122 -0.5040 -1.7148
 1557SOL    HW216305   4.667   1.684   9.164 -0.2811 -1.8995  0.4839
 1558SOL     OW16306   0.455   0.351   6.423 -0.2364  0.4378 -0.2956
 1558SOL    HW116307   0.371   0.387   6.452 -0.6001  0.3310 -1.1852
 1558SOL    HW216308   0.518   0.381   6.488 -0.4423  0.1086  0.0511
 1559SOL     OW16309   4.076   1.378  12.058 -0.0000 -0.3354  0.1661
 1559SOL    HW116310   4.091   1.376  12.152  0.2919 -2.4996  0.0863
 1559SOL    HW216311   4.009   1.445  12.051  0.1947 -0.1705 -0.1199
 1560SOL     OW16312   1.284   0.051   6.466  0.8109  0.2730 -0.4234
 1560SOL    HW116313   1.344   0.086   6.531  0.1417 -1.7196  1.2920
 1560SOL    HW216314   1.248   0.131   6.428 -1.1188 -0.6398 -0.5658
 1561SOL     OW16315   0.935   2.263   2.374 -0.3642 -0.5899 -0.1007
 1561SOL    HW116316   0.877   2.249   2.449  0.3747  2.0818  0.9336
 1561SOL    HW216317   0.874   2.267   2.300 -0.7731 -1.2809  0.1962
 1562SOL     OW16318   3.220   3.244   5.688 -0.1624 -0.0786  0.4094
 1562SOL    HW116319   3.196   3.336   5.696  0.0849  0.0381 -0.2321
 1562SOL    HW216320   3.150   3.208   5.743 -1.6253  2.5890  0.3100
 1563SOL     OW16321   2.916   4.266   2.323 -0.1147  0.0668  0.1214
 1563SOL    HW116322   2.941   4.186   2.369  3.4123  0.8462 -0.5118
 1563SOL    HW216323   2.841   4.295   2.376 -0.0389  2.4771 -1.0976
 1564SOL     OW16324   0.670   3.135   2.974 -0.3568  0.2780  0.2234
 1564SOL    HW116325   0.758   3.170   2.962 -0.2079 -0.1589  0.0419
 1564SOL    HW216326   0.636   3.193   3.043 -0.7143 -0.3361  0.5679
 1565SOL     OW16327   1.336   0.600  14.369 -0.7271  0.1546 -0.3349
 1565SOL    HW116328   1.418   0.572  14.330 -0.3986 -1.3384  1.4145
 1565SOL    HW216329   1.305   0.670  14.311  1.6336  0.7823 -0.8117
 1566SOL     OW16330   0.416   2.881   7.494  0.4232 -0.0458  0.3082
 1566SOL    HW116331   0.509   2.884   7.516  0.0877 -2.1432  1.9739
 1566SOL    HW216332   0.385   2.936   7.566  0.2936  0.7548 -0.3511
 1567SOL     OW16333   2.561   1.612  17.554 -0.5900 -0.1573 -0.1815
 1567SOL    HW116334   2.527   1.568  17.632  1.2480  2.0553  1.8385
 1567SOL    HW216335   2.651   1.628  17.582  0.4075 -1.6843 -2.5121
 1568SOL     OW16336   1.059   0.784   7.231 -0.3929 -0.3607 -0.7635
 1568SOL    HW116337   1.113   0.845   7.282 -0.5012 -0.3820 -0.6230
 1568SOL    HW216338   0.990   0.769   7.295  0.5996  2.5271  0.9870
 1569SOL     OW16339   2.028   1.513   2.616  0.5742  0.1523  0.4222
 1569SOL    HW116340   2.093   1.577   2.585  1.0333 -0.4734  0.0853
 1569SOL    HW216341   2.001   1.539   2.704 -1.0009 -1.5963  0.4418
 1570SOL     OW16342   2.517   0.393  13.042  0.3705 -1.6309 -0.3892
 1570SOL    HW116343   2.506   0.359  13.131  2.2414 -1.4369 -0.0895
 1570SOL    HW216344   2.572   0.469  13.062 -0.5523 -0.3783 -2.6178
 1571SOL     OW16345   1.856   2.335   3.969 -0.2104  0.4490  0.0714
 1571SOL    HW116346   1.919   2.385   4.021  1.3467  0.3900 -1.7640
 1571SOL    HW216347   1.897   2.343   3.883  1.7973  0.9666  1.0752
 1572SOL     OW16348   2.135   3.727  16.126 -0.1686  0.3851 -0.0128
 1572SOL    HW116349   2.088   3.783  16.187 -0.5682 -0.4004  0.3970
 1572SOL    HW216350   2.071   3.693  16.064  1.8566 -0.0920 -1.8770
 1573SOL     OW16351   0.123   0.246   5.776 -0.1285 -0.0426  0.5187
 1573SOL    HW116352   0.196   0.270   5.833 -1.1458 -0.0339  1.8407
 1573SOL    HW216353   0.166   0.175   5.728  3.0147  1.8400  0.5832
 1574SOL     OW16354   0.045   3.340   0.185  0.4148 -0.0657 -0.1294
 1574SOL    HW116355   0.099   3.285   0.128 -0.2959 -2.1486  1.2005
 1574SOL    HW216356   0.106   3.371   0.251 -0.2337  0.8753  0.0290
 1575SOL     OW16357   4.500   0.493   0.287  0.1608  0.1741  0.6976
 1575SOL    HW116358   4.422   0.526   0.242 -0.2018  0.7797  1.7724
 1575SOL    HW216359   4.472   0.412   0.329  0.1847  0.5243  1.3882
 1576SOL     OW16360   4.256   1.242   5.571  0.8179  0.1014 -0.0393
 1576SOL    HW116361   4.225   1.299   5.641  4.1993 -0.0891  1.6332
 1576SOL    HW216362   4.203   1.164   5.584 -1.2741  1.7847  1.6141
 1577SOL     OW16363   2.352   3.761  14.707 -0.1109 -0.0064 -0.0106
 1577SOL    HW116364   2.322   3.728  14.792  2.7930  0.5304  1.2386
 1577SOL    HW216365   2.278   3.738  14.651 -0.6774  0.1229  0.6793
 1578SOL     OW16366   0.026   1.599   3.921 -0.0590  0.1589 -0.3727
 1578SOL    HW116367   0.095   1.571   3.861 -0.2107 -0.7420 -0.1222
 1578SOL    HW216368   4.719   1.520   3.948  0.8247 -0.7356 -1.4563
 1579SOL     OW16369   1.906   2.471   7.611  0.1277 -0.3075 -0.3635
 1579SOL    HW116370   1.875   2.560   7.628 -0.3193 -0.3880 -0.7265
 1579SOL    HW216371   1.837   2.446   7.549 -0.2560  2.4344 -1.0659
 1580SOL     OW16372   3.472   4.523   4.714  0.2376  0.0143  0.0450
 1580SOL    HW116373   3.547   4.565   4.672  0.1469  1.0267  0.9156
 1580SOL    HW216374   3.468   4.577   4.793 -2.1996 -0.1842  0.0331
 1581SOL     OW16375   1.716   1.161  15.223  0.2971  0.2841  0.2292
 1581SOL    HW116376   1.784   1.111  15.177 -1.6385 -1.7814 -0.3948
 1581SOL    HW216377   1.663   1.099  15.274  2.1274 -2.6811 -1.4400
 1582SOL     OW16378   1.316   3.501  16.014  0.1594 -0.0720 -0.1301
 1582SOL    HW116379   1.317   3.596  16.004  0.4570 -0.0335  0.2464
 1582SOL    HW216380   1.261   3.481  15.938 -1.5740  1.2254  0.7884
 1583SOL     OW16381   1.495   0.035   7.656  0.1967 -0.0146 -0.5890
 1583SOL    HW116382   1.547   4.713   7.604  2.1156  0.2072  1.0218
 1583SOL    HW216383   1.412   4.729   7.662  0.8371 -0.9775  1.1630
 1584SOL     OW16384   4.476   4.389   4.526 -0.5648 -0.8435  0.6016
 1584SOL    HW116385   4.498   4.463   4.470  0.8420 -2.5232 -1.0771
 1584SOL    HW216386   4.446   4.428   4.608  1.2452  1.4105  0.1885
 1585SOL     OW16387   3.632   3.229   7.496 -0.2710  0.0628  0.4285
 1585SOL    HW116388   3.622   3.306   7.552 -2.7525 -0.0123  0.0872
 1585SOL    HW216389   3.543   3.196   7.486  0.6909 -2.2881 -0.4772
 1586SOL     OW16390   4.009   3.651   1.912 -0.1729 -0.9516 -0.0951
 1586SOL    HW116391   4.034   3.698   1.992 -1.6320 -2.2292  1.1216
 1586SOL    HW216392   4.079   3.586   1.915 -1.5748 -2.3868  1.3812
 1587SOL     OW16393   4.544   1.556  11.107 -0.4234 -0.0705  0.6965
 1587SOL    HW116394   4.567   1.613  11.034  1.7055  0.6750  1.9289
 1587SOL    HW216395   4.470   1.502  11.081 -1.8498  1.5057  1.4985
 1588SOL     OW16396   0.959   0.785  16.013  0.1596  0.0200  0.1898
 1588SOL    HW116397   0.918   0.811  15.931 -0.0134 -2.5052 -0.5416
 1588SOL    HW216398   0.933   0.862  16.064 -0.7164  1.7525 -2.8969
 1589SOL     OW16399   3.460   3.589  17.504  0.6251  0.3224 -0.3451
 1589SOL    HW116400   3.541   3.636  17.486  0.6497  1.4611  2.7430
 1589SOL    HW216401   3.454   3.597  17.600  1.4689 -1.9818 -0.0971
 1590SOL     OW16402   3.966   3.000   3.083 -0.3807  0.2088  0.5271
 1590SOL    HW116403   4.017   2.922   3.065 -2.0361 -0.9288  0.7915
 1590SOL    HW216404   3.877   2.965   3.073  0.0246 -1.2259  1.9012
 1591SOL     OW16405   1.456   3.450   2.280  0.0668  0.1677  0.0206
 1591SOL    HW116406   1.416   3.394   2.214  0.1870  0.3984 -0.2500
 1591SOL    HW216407   1.429   3.539   2.258 -0.6463 -0.0051  0.1831
 1592SOL     OW16408   4.660   2.995  11.282  0.3298 -0.1202  0.2118
 1592SOL    HW116409   4.710   2.937  11.224  0.5477  1.5419 -1.2541
 1592SOL    HW216410   4.613   2.927  11.331  0.8707  0.4386  1.4882
 1593SOL     OW16411   1.121   2.063   8.018 -0.2679  0.1663  0.3913
 1593SOL    HW116412   1.076   2.147   8.026 -2.4682 -0.8173 -1.5306
 1593SOL    HW216413   1.067   2.003   8.068 -0.8978 -0.8364 -1.4912
 1594SOL     OW16414   1.681   2.021  12.043 -0.2222  0.3041 -0.8677
 1594SOL    HW116415   1.644   2.028  11.955  1.4464  0.4038 -1.5673
 1594SOL    HW216416   1.626   2.093  12.071  0.4445  1.4499 -2.4980
 1595SOL     OW16417   4.246   3.850   7.377 -0.2539  0.2370 -0.0741
 1595SOL    HW116418   4.159   3.829   7.342  0.2241 -1.1107 -0.4395
 1595SOL    HW216419   4.292   3.832   7.295 -1.4574 -0.8734 -0.5049
 1596SOL     OW16420   0.533   4.218   4.070 -0.0473 -1.0786  0.0969
 1596SOL    HW116421   0.474   4.166   4.124 -2.1732  0.0228 -1.1559
 1596SOL    HW216422   0.513   4.307   4.101 -0.4316 -0.5722 -1.6028
 1597SOL     OW16423   0.345   0.024   8.327 -0.0756 -0.1313 -0.2720
 1597SOL    HW116424   0.263   4.740   8.283 -1.0393 -3.1345  3.2273
 1597SOL    HW216425   0.404   4.714   8.270 -0.6160 -0.8724 -0.1821
 1598SOL     OW16426   0.232   3.117   0.018 -0.0149  0.2903  0.3245
 1598SOL    HW116427   0.314   3.154   0.050  0.3546 -0.3721  0.1344
 1598SOL    HW216428   0.239   3.042   0.077 -1.2650 -0.3122 -0.2981
 1599SOL     OW16429   3.733   2.849   3.037 -0.3665 -0.1121  0.2591
 1599SOL    HW116430   3.770   2.765   3.010  0.9815 -0.0081  1.8317
 1599SOL    HW216431   3.708   2.831   3.128  1.7252  0.6058  0.9648
 1600SOL     OW16432   1.151   0.646   3.118 -0.1812  0.0500  0.2226
 1600SOL    HW116433   1.087   0.638   3.189 -1.9402  0.4137 -1.3216
 1600SOL    HW216434   1.227   0.607   3.161 -2.4845 -2.1637  2.3295
 1601SOL     OW16435   1.288   0.214  13.794  0.4129 -0.0464 -0.0995
 1601SOL    HW116436   1.366   0.197  13.846 -0.5280  0.2522  1.4099
 1601SOL    HW216437   1.315   0.302  13.767  0.1673  0.5001  1.4310
 1602SOL     OW16438   0.744   3.275   6.130 -0.0864 -0.5844 -0.3378
 1602SOL    HW116439   0.832   3.300   6.103  0.1400 -1.9575 -0.8610
 1602SOL    HW216440   0.758   3.254   6.222  0.1364 -0.5818 -0.3727
 1603SOL     OW16441   2.631   2.308   4.607  0.2370  0.3847 -0.8124
 1603SOL    HW116442   2.623   2.403   4.619  0.2771  0.0713  1.6369
 1603SOL    HW216443   2.587   2.293   4.524 -0.0794  1.2422 -0.8006
 1604SOL     OW16444   3.201   4.520   3.124  0.2495  0.6113  0.3149
 1604SOL    HW116445   3.243   4.576   3.190  1.8705  1.0735 -1.1034
 1604SOL    HW216446   3.154   4.458   3.179  0.2411 -0.3459 -0.7698
 1605SOL     OW16447   4.629   0.132   1.987  0.3566 -0.3517 -0.4090
 1605SOL    HW116448   4.644   0.076   1.911 -2.0217 -2.2818  0.5442
 1605SOL    HW216449   4.538   0.113   2.009 -0.0643  1.2424 -0.7965
 1606SOL     OW16450   4.153   3.273   3.062  0.4412  0.1174  0.2706
 1606SOL    HW116451   4.155   3.357   3.108  0.9662 -0.2793  0.9713
 1606SOL    HW216452   4.063   3.240   3.061  0.4564  0.1397 -1.0874
 1607SOL     OW16453   3.269   4.014   1.672  0.0395 -0.1949 -0.2225
 1607SOL    HW116454   3.313   3.987   1.752  0.5580  0.6075 -0.2398
 1607SOL    HW216455   3.239   3.928   1.641 -0.5984 -0.7024  1.7963
 1608SOL     OW16456   0.580   1.583   6.420  0.1897  0.1531  0.1086
 1608SOL    HW116457   0.512   1.628   6.371 -1.0399 -2.2490 -0.3997
 1608SOL    HW216458   0.640   1.656   6.433 -0.3215  0.3968  1.1018
 1609SOL     OW16459   2.078   3.731  11.581  0.2326  0.1061  0.3846
 1609SOL    HW116460   2.024   3.764  11.508  0.8461  0.6428  0.1821
 1609SOL    HW216461   2.031   3.778  11.649 -0.3203 -2.4734  1.7840
 1610SOL     OW16462   2.603   1.466  12.314  0.3988 -0.3892 -0.1853
 1610SOL    HW116463   2.681   1.508  12.351 -0.4582  1.5776 -0.6182
 1610SOL    HW216464   2.565   1.429  12.394  2.3847 -1.2937  0.3303
 1611SOL     OW16465   2.688   2.471   3.700  0.0858  0.6399 -0.2439
 1611SOL    HW116466   2.699   2.393   3.645 -0.8157  0.0404  0.4154
 1611SOL    HW216467   2.756   2.529   3.667  1.5374 -1.2807 -0.6397
 1612SOL     OW16468   2.397   1.534   2.357 -0.3299  0.6351 -0.2285
 1612SOL    HW116469   2.399   1.591   2.433  1.2923 -0.8381  0.8231
 1612SOL    HW216470   2.306   1.540   2.328 -1.0527 -4.5701  0.8497
 1613SOL     OW16471   3.756   4.361   5.665  0.1197  0.2086 -0.4225
 1613SOL    HW116472   3.746   4.412   5.745 -2.4821 -1.3755  0.2814
 1613SOL    HW216473   3.754   4.269   5.689  1.7437 -0.4636 -2.8059
 1614SOL     OW16474   3.448   1.025   2.795 -0.7175  0.0958  0.2819
 1614SOL    HW116475   3.473   0.945   2.840  0.4876 -0.0694 -0.6720
 1614SOL    HW216476   3.508   1.091   2.830 -0.8648  1.3935 -1.8287
 1615SOL     OW16477   2.510   3.005  15.033 -0.3641  0.2400  0.3653
 1615SOL    HW116478   2.601   3.008  15.061 -0.4960  1.0430  0.7237
 1615SOL    HW216479   2.479   3.086  15.075  0.8795  1.5898 -1.3008
 1616SOL     OW16480   1.846   3.064   7.006  0.4474  0.1711 -0.1758
 1616SOL    HW116481   1.870   2.992   7.065 -0.4802  1.8332  2.1878
 1616SOL    HW216482   1.841   3.132   7.073  0.8271 -0.4823  0.5158
 1617SOL     OW16483   2.249   1.390   7.730  0.2927 -0.3207 -0.5061
 1617SOL    HW116484   2.270   1.389   7.823  0.3521  0.7018 -0.5073
 1617SOL    HW216485   2.332   1.421   7.695  0.4890 -2.4649 -1.9632
 1618SOL     OW16486   1.608   2.271   9.712  0.6821  0.2668  0.1655
 1618SOL    HW116487   1.693   2.293   9.673  0.8749 -2.0499 -0.7716
 1618SOL    HW216488   1.613   2.175   9.704 -0.6761  0.0800  1.6214
 1619SOL     OW16489   1.619   0.487   3.448 -0.4221  0.2702  0.3426
 1619SOL    HW116490   1.580   0.409   3.487 -0.7707 -0.1898 -0.9396
 1619SOL    HW216491   1.604   0.548   3.521 -2.1169  0.0420  0.1731
 1620SOL     OW16492   4.357   1.106   4.630  0.1114  0.0399 -0.1162
 1620SOL    HW116493   4.356   1.081   4.538  1.3464 -0.6398  0.0525
 1620SOL    HW216494   4.264   1.120   4.648  0.7221  3.2496  0.6578
 1621SOL     OW16495   2.662   3.509   4.726  0.5211 -0.0007 -0.1754
 1621SOL    HW116496   2.735   3.493   4.666  0.6550  1.3593 -0.3652
 1621SOL    HW216497   2.645   3.602   4.718  0.1219 -0.0791 -0.2229
 1622SOL     OW16498   4.126   1.674  14.967 -0.3745  0.2903 -0.2282
 1622SOL    HW116499   4.115   1.650  14.875 -1.8955 -0.1539  0.0629
 1622SOL    HW216500   4.184   1.604  14.997 -2.0525 -0.4677  1.3016
 1623SOL     OW16501   1.964   1.523   1.655 -0.0408  0.3899  0.6878
 1623SOL    HW116502   1.939   1.434   1.680  0.0290  0.2581  0.2911
 1623SOL    HW216503   1.891   1.573   1.692  0.1738  0.8140  0.5424
 1624SOL     OW16504   3.116   2.093  12.083 -0.4936  0.0555 -0.4824
 1624SOL    HW116505   3.212   2.085  12.085 -0.4585  0.5875 -0.0320
 1624SOL    HW216506   3.113   2.147  12.005  2.9288  1.4471  0.3372
 1625SOL     OW16507   0.736   3.684   5.589 -0.1590  0.4299 -0.1745
 1625SOL    HW116508   0.697   3.645   5.667 -2.5557  0.7794 -1.2143
 1625SOL    HW216509   0.811   3.627   5.570 -1.0822 -0.6027 -0.6745
 1626SOL     OW16510   3.761   3.845   5.809  0.1709  0.1379  0.0033
 1626SOL    HW116511   3.766   3.805   5.896 -0.8662 -1.9937 -0.9039
 1626SOL    HW216512   3.767   3.762   5.761  0.1441  1.3328 -2.0465
 1627SOL     OW16513   2.867   4.389  14.865  0.3949  0.7710 -0.0783
 1627SOL    HW116514   2.786   4.342  14.848  0.2884  1.5859 -1.8314
 1627SOL    HW216515   2.881   4.364  14.956 -0.2748 -1.1172 -0.5039
 1628SOL     OW16516   3.724   0.667  14.695  0.4893 -0.0394  0.3828
 1628SOL    HW116517   3.633   0.696  14.688  0.8868  0.4159 -2.7169
 1628SOL    HW216518   3.709   0.593  14.755 -0.8936  0.2712  0.4219
 1629SOL     OW16519   3.684   2.738   0.193  0.2369  0.0399 -0.7511
 1629SOL    HW116520   3.621   2.727   0.121 -0.2662  1.4465 -0.5401
 1629SOL    HW216521   3.678   2.652   0.234 -1.3380  1.3434  1.7753
 1630SOL     OW16522   1.116   1.829   6.455 -0.3878  0.4667  0.1946
 1630SOL    HW116523   1.152   1.844   6.368  0.1898  0.8979  0.5002
 1630SOL    HW216524   1.069   1.908   6.480 -1.2106 -0.0848  0.3736
 1631SOL     OW16525   1.795   0.909  12.063  0.0232 -0.5768  0.0073
 1631SOL    HW116526   1.767   0.900  11.972  0.1545 -2.1076  0.1186
 1631SOL    HW216527   1.890   0.911  12.049 -0.0328  2.7710  0.1265
 1632SOL     OW16528   1.233   4.517   3.352  0.2760 -0.6150  0.7137
 1632SOL    HW116529   1.145   4.510   3.316 -0.0268  1.5233  1.0545
 1632SOL    HW216530   1.219   4.576   3.426  0.1433  0.6093 -0.3048
 1633SOL     OW16531   4.413   3.834   8.686  0.3570 -0.0440 -0.5752
 1633SOL    HW116532   4.446   3.923   8.703  1.1640 -1.0221  2.8435
 1633SOL    HW216533   4.392   3.842   8.593 -1.6676  1.2475 -0.0065
 1634SOL     OW16534   3.517   2.998   1.769  0.2722 -0.2113  0.2923
 1634SOL    HW116535   3.447   2.965   1.712  2.0954 -1.2285 -1.3223
 1634SOL    HW216536   3.492   3.085   1.803  0.8999  0.2420 -0.4092
 1635SOL     OW16537   0.791   3.492  11.556 -0.1461  0.1750 -0.2225
 1635SOL    HW116538   0.699   3.470  11.540 -0.1552  0.6605 -0.8428
 1635SOL    HW216539   0.823   3.407  11.586 -1.4732  0.1964  1.2718
 1636SOL     OW16540   3.503   1.885   7.479 -0.0337  0.0643 -0.4775
 1636SOL    HW116541   3.423   1.835   7.496  1.0498 -1.4380  0.2042
 1636SOL    HW216542   3.479   1.978   7.479  0.8116  0.2766  0.8783
 1637SOL     OW16543   1.711   1.525   2.336 -0.5509  0.1815 -0.0387
 1637SOL    HW116544   1.718   1.574   2.418  1.5422 -0.0429 -0.0981
 1637SOL    HW216545   1.754   1.590   2.280  0.2283 -1.0881 -0.9024
 1638SOL     OW16546   3.347   2.903   6.354  0.2424  0.4072 -0.6715
 1638SOL    HW116547   3.324   2.851   6.431  3.1094 -0.9728 -0.7471
 1638SOL    HW216548   3.286   2.977   6.359  0.0834  0.3554 -1.7859
 1639SOL     OW16549   3.747   4.482   4.082 -0.0344 -0.5923  0.8355
 1639SOL    HW116550   3.700   4.495   4.165  1.0765  1.3056  1.1615
 1639SOL    HW216551   3.742   4.568   4.039  0.0049 -1.1953 -0.3689
 1640SOL     OW16552   0.253   4.384   5.864 -0.2217 -0.2497  0.1284
 1640SOL    HW116553   0.196   4.307   5.857 -0.3373 -0.1867  0.3831
 1640SOL    HW216554   0.340   4.348   5.883 -0.0533 -0.5814 -1.2443
 1641SOL     OW16555   1.341   2.278  14.574  0.7231  0.4926 -0.1151
 1641SOL    HW116556   1.284   2.284  14.497 -0.0411  0.3432  0.4388
 1641SOL    HW216557   1.274   2.245  14.634  1.4434 -0.2579  0.2653
 1642SOL     OW16558   2.266   2.395  12.435 -0.2164 -0.1847  0.3795
 1642SOL    HW116559   2.268   2.404  12.530 -1.4792  1.0414  0.2976
 1642SOL    HW216560   2.197   2.330  12.419 -1.1529  1.0788 -0.7207
 1643SOL     OW16561   0.351   0.204   2.569 -0.6550  0.1360 -0.0950
 1643SOL    HW116562   0.302   0.139   2.518  0.1849 -0.8031  0.3044
 1643SOL    HW216563   0.301   0.285   2.557  0.4337  0.6901 -0.8587
 1644SOL     OW16564   0.500   1.984   7.647  0.0313 -0.1392 -0.9265
 1644SOL    HW116565   0.543   2.068   7.633 -3.4852  1.7257 -0.4748
 1644SOL    HW216566   0.425   2.016   7.698  0.1330  1.8416 -2.0598
 1645SOL     OW16567   3.266   3.620   2.522  0.4876  0.5909 -0.0727
 1645SOL    HW116568   3.345   3.648   2.477  0.5673 -0.3940 -0.5673
 1645SOL    HW216569   3.297   3.588   2.607 -1.0319  2.2755  1.1308
 1646SOL     OW16570   3.887   1.033   4.614 -0.0607 -0.2317  0.4239
 1646SOL    HW116571   3.802   1.077   4.619  1.2734  2.4043  0.2450
 1646SOL    HW216572   3.877   0.943   4.643  0.3515 -0.4164 -0.0109
 1647SOL     OW16573   3.107   3.165   4.073 -0.2240  0.2147  0.2225
 1647SOL    HW116574   3.056   3.102   4.022  1.4877 -0.7915 -0.2435
 1647SOL    HW216575   3.182   3.171   4.014  0.2819  0.1402  0.8519
 1648SOL     OW16576   0.170   3.161   6.580 -0.3941 -0.2280 -0.3420
 1648SOL    HW116577   0.215   3.204   6.508 -0.2251  1.0958  0.5570
 1648SOL    HW216578   0.115   3.104   6.527 -0.7342 -0.3749  0.1636
 1649SOL     OW16579   1.265   4.709  13.055 -0.2182  0.4859 -0.4525
 1649SOL    HW116580   1.223   4.629  13.023 -0.2227  0.6539 -0.8706
 1649SOL    HW216581   1.212   4.738  13.129 -1.7225 -0.7024 -1.0584
 1650SOL     OW16582   1.116   3.083   4.728  0.7175 -0.1708  0.1773
 1650SOL    HW116583   1.119   2.990   4.750 -0.7827 -0.7343 -1.9326
 1650SOL    HW216584   1.207   3.113   4.722  0.5995  0.0112 -0.8062
 1651SOL     OW16585   2.199   2.810   2.977  0.3863  0.2054 -0.3817
 1651SOL    HW116586   2.250   2.831   2.898 -1.4717 -0.8917 -1.8729
 1651SOL    HW216587   2.207   2.888   3.031 -1.0270  1.5036 -2.0404
 1652SOL     OW16588   4.331   3.745   6.181 -0.0716  0.4175 -0.0556
 1652SOL    HW116589   4.409   3.778   6.138  0.0554  1.6646  1.1261
 1652SOL    HW216590   4.289   3.830   6.192 -0.4376  0.5705 -2.5972
 1653SOL     OW16591   3.590   2.695   3.961  0.3395  0.2249  0.0390
 1653SOL    HW116592   3.652   2.657   4.024  0.5546  0.2631 -0.1479
 1653SOL    HW216593   3.576   2.783   3.996 -1.0889  1.2960 -3.1929
 1654SOL     OW16594   3.517   1.460  16.497 -0.2114  0.1618  0.4655
 1654SOL    HW116595   3.610   1.458  16.475  0.3618  1.2617  2.7227
 1654SOL    HW216596   3.487   1.382  16.544 -2.5085  0.9856  0.3512
 1655SOL     OW16597   4.627   0.407   1.977  0.6068 -0.1895  0.0921
 1655SOL    HW116598   4.627   0.319   2.016  2.2004 -1.5585 -3.0057
 1655SOL    HW216599   4.534   0.408   1.956  0.9673  0.0903 -1.4606
 1656SOL     OW16600   4.204   3.880   9.261 -0.2734  0.7433  0.8240
 1656SOL    HW116601   4.285   3.917   9.296  0.5082 -1.4144  1.2909
 1656SOL    HW216602   4.235   3.811   9.203 -1.6092  0.0853  0.8768
 1657SOL     OW16603   0.007   2.175   5.074 -0.2792 -0.2079 -0.3087
 1657SOL    HW116604   0.091   2.149   5.112  0.4080  1.1502 -0.8942
 1657SOL    HW216605   0.017   2.131   4.989 -0.5852 -0.7883 -0.0451
 1658SOL     OW16606   3.796   4.153  17.671  0.0513 -0.1365  0.2927
 1658SOL    HW116607   3.811   4.176  17.579 -2.7698 -0.7258 -0.3269
 1658SOL    HW216608   3.804   4.233  17.723 -3.3398  0.9537 -0.8673
 1659SOL     OW16609   0.476   4.292  12.489 -0.6092 -0.7946 -0.0160
 1659SOL    HW116610   0.516   4.210  12.517  0.3114 -0.4844 -0.4397
 1659SOL    HW216611   0.446   4.329  12.572 -0.9453 -0.4658 -0.2864
 1660SOL     OW16612   1.383   1.201   5.679  0.2818  0.6036  0.4010
 1660SOL    HW116613   1.334   1.240   5.607  2.4119  2.7238  0.0955
 1660SOL    HW216614   1.448   1.269   5.698  3.3535 -1.7435 -1.5546
 1661SOL     OW16615   0.588   3.190   7.398  0.3642 -0.3051  0.1911
 1661SOL    HW116616   0.677   3.202   7.363  0.4285  1.6649  1.0433
 1661SOL    HW216617   0.571   3.282   7.417  0.7359  0.2184 -2.0254
 1662SOL     OW16618   0.849   3.607  11.872 -0.4455  0.4174 -0.0810
 1662SOL    HW116619   0.761   3.582  11.900 -0.4443  0.2217 -0.2439
 1662SOL    HW216620   0.883   3.520  11.851 -0.5860  0.6560 -1.2892
 1663SOL     OW16621   2.429   2.602   6.160  0.6548 -0.3177  0.4738
 1663SOL    HW116622   2.365   2.578   6.093  0.3653  2.3423 -0.1766
 1663SOL    HW216623   2.465   2.680   6.118  1.3033 -1.4434 -1.0648
 1664SOL     OW16624   0.037   1.538  15.724  0.2803  0.2159  0.5404
 1664SOL    HW116625   0.100   1.576  15.664  1.8026 -0.1413  1.8926
 1664SOL    HW216626   4.711   1.497  15.668  0.6057  0.6516 -0.1483
 1665SOL     OW16627   0.527   3.291  15.335 -0.3202 -1.0307 -0.1185
 1665SOL    HW116628   0.555   3.201  15.349  0.2516 -1.1250 -1.9738
 1665SOL    HW216629   0.550   3.335  15.417 -2.8186  1.6022 -0.8196
 1666SOL     OW16630   2.727   4.661  16.728  0.4951 -0.0361 -0.2823
 1666SOL    HW116631   2.691   4.601  16.664 -1.0509  0.5829  0.0119
 1666SOL    HW216632   2.692   0.002  16.691 -0.9532 -0.1078  0.9502
 1667SOL     OW16633   3.832   1.521  10.704 -0.5385  0.1894  0.6633
 1667SOL    HW116634   3.751   1.494  10.747 -0.4078 -1.4988 -0.1510
 1667SOL    HW216635   3.812   1.477  10.621 -1.3505 -0.8945  1.4426
 1668SOL     OW16636   0.072   0.670  16.817  0.2585  0.2333  0.1724
 1668SOL    HW116637   0.086   0.705  16.729 -0.4362 -0.0076 -0.0316
 1668SOL    HW216638   0.140   0.724  16.858  1.2652 -0.3890 -0.6927
 1669SOL     OW16639   4.190   2.569   1.907 -0.3288  0.6737 -0.3080
 1669SOL    HW116640   4.126   2.547   1.839  0.5998 -1.1474 -0.5789
 1669SOL    HW216641   4.213   2.484   1.944 -0.5258  0.6330 -0.2798
 1670SOL     OW16642   0.026   3.640   6.092  0.2322  0.3531  0.1328
 1670SOL    HW116643   0.103   3.590   6.065  1.1552  2.3056 -0.8235
 1670SOL    HW216644   4.712   3.566   6.118 -1.1072  0.3939 -2.5135
 1671SOL     OW16645   4.151   2.427   1.478  0.1036  0.3219 -0.3312
 1671SOL    HW116646   4.089   2.479   1.427 -0.3529  0.6567  0.5565
 1671SOL    HW216647   4.152   2.342   1.433 -0.4184  1.1004 -1.7741
 1672SOL     OW16648   1.334   1.912   1.928  0.2968 -0.2916 -0.2002
 1672SOL    HW116649   1.264   1.949   1.874  0.2812 -0.1101 -0.0530
 1672SOL    HW216650   1.274   1.865   1.986 -0.0475  0.6830  0.2277
 1673SOL     OW16651   0.099   1.685   4.166 -0.1702 -0.0055 -0.2342
 1673SOL    HW116652   0.052   1.657   4.087 -2.4511  2.1658  0.3680
 1673SOL    HW216653   0.189   1.682   4.134  0.7028 -0.5661  2.2821
 1674SOL     OW16654   3.032   4.499   2.263  0.1658  0.3279 -0.1294
 1674SOL    HW116655   2.985   4.418   2.281  2.7441 -1.2500 -0.5177
 1674SOL    HW216656   2.995   4.534   2.182  0.4524 -1.5072 -1.0529
 1675SOL     OW16657   4.624   2.210   4.749 -0.0692 -0.2664 -0.5982
 1675SOL    HW116658   4.718   2.198   4.766 -0.3274  4.0001  3.9730
 1675SOL    HW216659   4.593   2.141   4.691 -1.4028 -1.1509  1.1510
 1676SOL     OW16660   0.247   4.020  16.506 -0.0397 -0.0984  0.1727
 1676SOL    HW116661   0.276   4.109  16.524  2.8414 -0.9693 -0.0486
 1676SOL    HW216662   0.258   4.022  16.411 -1.7996 -1.0115 -0.0590
 1677SOL     OW16663   1.007   4.568   2.507  0.5700  0.4463  0.6382
 1677SOL    HW116664   1.074   4.633   2.486  1.1314 -0.5330 -0.5698
 1677SOL    HW216665   0.934   4.626   2.485  0.8552  0.9444  1.0003
 1678SOL     OW16666   4.546   4.043   1.556 -0.1047 -0.2249 -0.3706
 1678SOL    HW116667   4.577   3.975   1.496 -1.2793  0.7082 -2.0387
 1678SOL    HW216668   4.512   4.108   1.494  0.2582  0.8210  0.5354
 1679SOL     OW16669   2.794   0.539  10.185  0.9439  0.3557  0.3490
 1679SOL    HW116670   2.770   0.627  10.157  2.0713  0.6445  0.3156
 1679SOL    HW216671   2.884   0.554  10.214  0.7357 -1.3207  1.9459
 1680SOL     OW16672   4.062   0.763   2.261  0.1471  0.5107  0.9031
 1680SOL    HW116673   4.130   0.773   2.196  0.2089 -0.9963  0.7241
 1680SOL    HW216674   4.086   0.839   2.314 -2.2512  2.1152 -0.3243
 1681SOL     OW16675   1.535   1.936   3.687  0.3169  0.4462  0.5084
 1681SOL    HW116676   1.488   1.967   3.764 -0.3230 -1.2169  0.7893
 1681SOL    HW216677   1.606   1.890   3.732  1.5738  0.1239 -1.8016
 1682SOL     OW16678   1.307   3.784  17.401 -0.1223  0.4016 -0.2573
 1682SOL    HW116679   1.233   3.834  17.435  1.0283  2.0278 -0.1372
 1682SOL    HW216680   1.349   3.762  17.485  0.7758 -1.3721 -1.1744
 1683SOL     OW16681   1.563   3.540   9.302  0.0380  0.4943  0.0536
 1683SOL    HW116682   1.473   3.570   9.293 -0.6528 -1.2887  0.9847
 1683SOL    HW216683   1.544   3.455   9.342 -0.2437  1.0546  1.1089
 1684SOL     OW16684   1.092   4.066  14.458  0.4679  0.8015 -0.1485
 1684SOL    HW116685   1.011   4.111  14.434  1.1288  1.6407 -0.8457
 1684SOL    HW216686   1.126   4.048  14.370  1.4141 -0.4675  0.4910
 1685SOL     OW16687   2.713   2.321   8.104 -0.2985 -0.7376  0.8032
 1685SOL    HW116688   2.627   2.298   8.067  0.8592 -0.7454 -1.8549
 1685SOL    HW216689   2.718   2.274   8.187  1.9149 -0.4448  0.8223
 1686SOL     OW16690   0.957   2.569   3.049  0.3394 -0.5131 -0.5169
 1686SOL    HW116691   1.008   2.641   3.013 -0.4392  0.3098  0.0380
 1686SOL    HW216692   1.018   2.529   3.111  1.5790  2.4754  0.2088
 1687SOL     OW16693   3.292   2.647   1.125 -0.0791  0.3434  0.4227
 1687SOL    HW116694   3.364   2.658   1.062 -1.5140 -2.1376 -1.6485
 1687SOL    HW216695   3.344   2.624   1.202  0.9463 -3.5689 -1.4133
 1688SOL     OW16696   2.691   4.030   4.662 -0.2128  0.1251  0.0100
 1688SOL    HW116697   2.785   4.017   4.651  0.2208  3.3803 -0.2946
 1688SOL    HW216698   2.676   4.088   4.587  2.3565 -0.6907 -1.1236
 1689SOL     OW16699   3.251   2.547  11.094 -0.3284 -0.3142  0.2908
 1689SOL    HW116700   3.297   2.530  11.176  0.8664 -0.1105 -0.3353
 1689SOL    HW216701   3.245   2.641  11.110 -0.3636 -0.5005  1.4123
 1690SOL     OW16702   1.382   3.444  13.729 -0.0068 -0.8598 -0.0661
 1690SOL    HW116703   1.360   3.456  13.821 -3.4808  0.5839 -1.0839
 1690SOL    HW216704   1.424   3.358  13.729  0.8274 -0.4481 -1.2979
 1691SOL     OW16705   1.946   2.609   8.588  0.5101  0.3348  0.1220
 1691SOL    HW116706   2.033   2.618   8.627 -0.5323  0.1076  2.5521
 1691SOL    HW216707   1.894   2.604   8.669  0.3397 -0.4252 -0.0284
 1692SOL     OW16708   4.556   2.491  11.911 -0.3434  0.6387 -0.4728
 1692SOL    HW116709   4.647   2.482  11.939 -0.9970  0.2152  1.5003
 1692SOL    HW216710   4.524   2.410  11.950 -0.1143  0.5376 -0.5003
 1693SOL     OW16711   4.310   3.501   0.021 -0.1061  0.6509 -0.1904
 1693SOL    HW116712   4.230   3.448   0.019  1.5913 -1.9468  0.9107
 1693SOL    HW216713   4.361   3.436   0.068  1.1222  0.7881 -1.3363
 1694SOL     OW16714   3.241   2.749   2.548 -0.2094 -0.1203 -0.1892
 1694SOL    HW116715   3.189   2.829   2.540 -0.2587  0.1951  3.0990
 1694SOL    HW216716   3.191   2.707   2.619  2.0593 -0.8157  0.9945
 1695SOL     OW16717   0.001   3.850  16.825 -0.3571  0.5975 -0.2791
 1695SOL    HW116718   0.009   3.791  16.750 -1.3301  0.3146 -0.1559
 1695SOL    HW216719   4.652   3.834  16.858 -1.2701  0.7039 -2.6703
 1696SOL     OW16720   0.943   2.197   4.438 -0.2325 -0.3584  0.2660
 1696SOL    HW116721   0.941   2.141   4.515  0.9831  0.2101  0.7097
 1696SOL    HW216722   0.853   2.204   4.405 -0.2864  1.8419  0.8664
 1697SOL     OW16723   0.627   1.006   3.546 -0.2879 -0.3266  0.0951
 1697SOL    HW116724   0.720   1.030   3.549 -0.2394 -0.5416  0.3064
 1697SOL    HW216725   0.629   0.957   3.464 -0.8961 -0.4756  0.1689
 1698SOL     OW16726   0.896   0.195  11.509  0.5940  0.0768 -0.1212
 1698SOL    HW116727   0.942   0.205  11.592 -0.2750 -0.2932  0.3987
 1698SOL    HW216728   0.868   0.104  11.510 -1.1323  0.5629 -4.0048
 1699SOL     OW16729   2.470   4.343   4.091  0.4053 -0.4670 -0.3683
 1699SOL    HW116730   2.554   4.366   4.053  1.0498  2.5914  2.8671
 1699SOL    HW216731   2.422   4.422   4.068  1.1308 -0.8758 -3.2162
 1700SOL     OW16732   1.867   3.024  17.362  0.0414  0.4017 -0.1169
 1700SOL    HW116733   1.794   2.979  17.403 -2.0898  2.1654 -1.9366
 1700SOL    HW216734   1.847   3.115  17.384  2.9425  0.5840  1.7219
 1701SOL     OW16735   2.076   4.482  10.334  0.2484 -0.4303  0.3241
 1701SOL    HW116736   2.108   4.474  10.423 -1.8031  0.4593  1.1517
 1701SOL    HW216737   2.161   4.479  10.289 -0.2454  0.1348 -0.6549
 1702SOL     OW16738   2.071   2.729   9.455 -1.0490 -0.1367  0.2365
 1702SOL    HW116739   2.089   2.788   9.529  1.6229 -0.2861 -0.2787
 1702SOL    HW216740   1.978   2.743   9.437 -1.4808 -0.9332  1.8458
 1703SOL     OW16741   4.129   2.162   1.444 -0.5991 -0.2476 -0.2883
 1703SOL    HW116742   4.105   2.096   1.379  1.3763  1.2925 -2.5846
 1703SOL    HW216743   4.181   2.120   1.512 -1.1141 -0.1116  0.1819
 1704SOL     OW16744   3.591   2.752  12.834  0.1583  0.5996  0.1640
 1704SOL    HW116745   3.671   2.724  12.788 -1.4473 -1.9514 -1.0909
 1704SOL    HW216746   3.593   2.843  12.804 -1.0705  0.9741  1.2627
 1705SOL     OW16747   3.061   4.053   0.437  0.1628 -0.3807  0.1124
 1705SOL    HW116748   2.985   4.084   0.387  0.8860  3.1988  1.2064
 1705SOL    HW216749   3.028   3.967   0.463 -1.4013  0.2117  0.1250
 1706SOL     OW16750   4.635   3.882   1.765  0.1585 -0.1303 -0.4512
 1706SOL    HW116751   4.610   3.958   1.711 -2.6055 -1.6523 -1.2882
 1706SOL    HW216752   4.691   3.924   1.830 -0.4551  0.4278 -0.2837
 1707SOL     OW16753   4.243   1.384   5.818  0.2921  0.5894  0.3858
 1707SOL    HW116754   4.319   1.348   5.862  0.6853 -0.3941 -1.0951
 1707SOL    HW216755   4.182   1.395   5.891 -1.6872 -1.3413 -0.9803
 1708SOL     OW16756   2.538   1.549   9.248  0.2287 -0.2126  0.1633
 1708SOL    HW116757   2.551   1.472   9.303  1.2100  0.2906  0.6354
 1708SOL    HW216758   2.550   1.625   9.305  3.9831 -0.1190 -0.7578
 1709SOL     OW16759   0.340   4.031   9.303 -0.0804 -0.3521 -0.1105
 1709SOL    HW116760   0.261   3.979   9.319 -0.1172 -0.1695  0.2864
 1709SOL    HW216761   0.334   4.056   9.211 -1.7863 -1.7580 -0.3940
 1710SOL     OW16762   2.534   4.260   4.892 -0.1580 -0.3545 -0.4433
 1710SOL    HW116763   2.469   4.197   4.861 -0.1778 -0.0656 -0.9992
 1710SOL    HW216764   2.586   4.283   4.815 -0.4111  0.5089 -0.3528
 1711SOL     OW16765   3.896   1.035  17.236 -0.1938  0.1127 -0.3899
 1711SOL    HW116766   3.821   0.986  17.202  0.8344  0.6767 -3.4523
 1711SOL    HW216767   3.955   1.041  17.162 -1.8191  1.5240 -1.5950
 1712SOL     OW16768   4.666   3.676   2.235  0.5725 -0.5039 -0.2673
 1712SOL    HW116769   4.611   3.598   2.236  1.4626 -1.1367 -0.3152
 1712SOL    HW216770   4.621   3.723   2.165 -2.0436  0.4876  2.0842
 1713SOL     OW16771   3.231   4.049   7.501 -0.2536  0.5817 -0.0691
 1713SOL    HW116772   3.278   3.967   7.511  2.9537  2.5635  1.0373
 1713SOL    HW216773   3.302   4.113   7.506 -0.0644  0.3035  0.8399
 1714SOL     OW16774   2.039   3.598   5.183  0.1786  0.2093 -0.4529
 1714SOL    HW116775   2.012   3.685   5.215  0.6091  0.1009  0.1968
 1714SOL    HW216776   2.094   3.576   5.258  0.2396  0.6386 -0.3706
 1715SOL     OW16777   0.987   3.510   2.387 -0.0803 -0.2139 -0.2769
 1715SOL    HW116778   1.036   3.550   2.315 -0.2641  1.4713  0.5479
 1715SOL    HW216779   1.062   3.484   2.440 -0.6152 -0.5558  0.3128
 1716SOL     OW16780   2.406   3.693   1.615  0.5142 -0.0308  0.0420
 1716SOL    HW116781   2.322   3.648   1.605  0.6415 -0.3782  0.5113
 1716SOL    HW216782   2.391   3.707   1.709 -2.1023  0.8200 -0.5085
 1717SOL     OW16783   1.854   1.015   7.198 -0.2249 -0.1666  0.4820
 1717SOL    HW116784   1.858   1.094   7.144 -0.2625 -0.6773 -0.2663
 1717SOL    HW216785   1.815   1.060   7.273 -2.5283 -2.2741  0.5463
 1718SOL     OW16786   1.446   1.665   3.952 -0.4229  0.3536 -0.5193
 1718SOL    HW116787   1.417   1.586   3.905  0.3145  0.0379 -0.4531
 1718SOL    HW216788   1.385   1.667   4.025 -0.5648 -0.1181 -0.6210
 1719SOL     OW16789   1.553   0.358   9.262 -0.4201  0.8350  0.2912
 1719SOL    HW116790   1.589   0.445   9.245 -0.2323  0.3139 -2.0087
 1719SOL    HW216791   1.516   0.373   9.349 -0.3026  0.0860  0.4732
 1720SOL     OW16792   2.719   0.606   5.806  0.2909  0.1712 -0.6106
 1720SOL    HW116793   2.711   0.700   5.822  0.2968  0.3703 -1.8139
 1720SOL    HW216794   2.642   0.577   5.758  0.4312 -0.6726 -0.3294
 1721SOL     OW16795   4.500   2.552   5.200  0.7038 -0.0273 -0.8759
 1721SOL    HW116796   4.535   2.502   5.274 -1.6103  2.2070  1.7106
 1721SOL    HW216797   4.507   2.490   5.128 -3.2435 -0.3019 -0.9952
 1722SOL     OW16798   1.592   1.148   9.799  0.3408 -0.2181 -0.1296
 1722SOL    HW116799   1.519   1.147   9.737 -0.5493  1.2921  0.8758
 1722SOL    HW216800   1.657   1.178   9.736  1.1484  0.3175  0.9634
 1723SOL     OW16801   3.021   4.732   9.629  0.6343  0.3886  0.4702
 1723SOL    HW116802   2.985   4.677   9.560 -1.5041 -0.4659  2.3085
 1723SOL    HW216803   3.115   4.713   9.626  0.7155  0.8932 -0.1909
 1724SOL     OW16804   0.611   1.696  15.065 -0.2048  0.0040 -0.1536
 1724SOL    HW116805   0.667   1.619  15.076 -1.2886 -0.6909  0.5206
 1724SOL    HW216806   0.525   1.660  15.044 -0.3505 -0.2943  0.9170
 1725SOL     OW16807   4.121   1.566   2.791  0.5553 -0.1488 -0.1280
 1725SOL    HW116808   4.143   1.485   2.836 -1.4849 -1.1836 -1.0262
 1725SOL    HW216809   4.204   1.580   2.746  0.1834  0.2576 -0.6868
 1726SOL     OW16810   1.836   4.077   1.745 -0.1786 -0.3909  0.1758
 1726SOL    HW116811   1.824   3.998   1.798 -0.4632 -1.5900 -1.6647
 1726SOL    HW216812   1.930   4.082   1.758 -0.3903 -0.9718  1.8860
 1727SOL     OW16813   3.836   3.416   1.215 -0.0382 -0.3654 -0.2553
 1727SOL    HW116814   3.746   3.389   1.231  0.5867 -1.4550  1.4194
 1727SOL    HW216815   3.851   3.482   1.283  0.0297  0.3097 -0.9162
 1728SOL     OW16816   4.015   2.150  15.940 -0.2063 -0.3934 -0.0958
 1728SOL    HW116817   4.079   2.150  15.869 -1.0012 -1.9382 -0.8308
 1728SOL    HW216818   4.053   2.082  15.995 -0.8655  0.0305  0.8821
 1729SOL     OW16819   3.140   3.823  16.447 -0.5601  0.4728  0.5202
 1729SOL    HW116820   3.171   3.912  16.430  0.5877 -0.9238 -4.5991
 1729SOL    HW216821   3.066   3.842  16.505 -1.9066 -0.6415 -0.8423
 1730SOL     OW16822   2.515   1.011   5.412  0.4232  0.8008  0.1148
 1730SOL    HW116823   2.549   1.088   5.458 -2.3542  2.1881 -0.1718
 1730SOL    HW216824   2.550   0.937   5.462  1.9517  1.7605  0.4657
 1731SOL     OW16825   2.476   0.174   5.407 -0.2657 -0.4439 -0.1578
 1731SOL    HW116826   2.554   0.219   5.377 -0.2778 -2.1698 -2.7694
 1731SOL    HW216827   2.496   0.084   5.381  0.7908 -0.1023 -0.4999
 1732SOL     OW16828   1.206   1.281   9.531 -0.0913  0.4412 -0.4078
 1732SOL    HW116829   1.115   1.308   9.529  0.1890  1.3340 -1.0188
 1732SOL    HW216830   1.243   1.335   9.461  2.2024  0.4511  0.8077
 1733SOL     OW16831   2.443   0.078  15.828 -0.0575  0.1350 -0.1936
 1733SOL    HW116832   2.430   0.063  15.735  0.2591 -0.4440 -0.1443
 1733SOL    HW216833   2.492   0.160  15.830 -1.6550  1.1207 -1.0148
 1734SOL     OW16834   3.274   3.128  14.960 -0.8188  0.5355 -0.2215
 1734SOL    HW116835   3.270   3.045  15.007 -1.3609  0.8989  0.3718
 1734SOL    HW216836   3.369   3.138  14.960 -0.8483  0.8125 -2.3319
 1735SOL     OW16837   1.824   0.232   8.525 -0.4381 -0.9457  0.3084
 1735SOL    HW116838   1.744   0.181   8.538 -0.7488 -0.4647  0.2676
 1735SOL    HW216839   1.834   0.237   8.430  0.5920  0.3356  0.4822
 1736SOL     OW16840   3.032   3.996   6.068 -0.2093  0.0115 -0.8532
 1736SOL    HW116841   2.938   4.010   6.058  0.3642  3.1142 -1.6771
 1736SOL    HW216842   3.073   4.004   5.982  0.7772 -0.3135 -0.4166
 1737SOL     OW16843   0.739   2.852   2.734 -0.1915  0.0646  0.0533
 1737SOL    HW116844   0.756   2.794   2.809  0.3022 -0.1999 -0.2664
 1737SOL    HW216845   0.825   2.884   2.706 -0.4027  0.4861 -0.1243
 1738SOL     OW16846   0.120   3.259   1.026  0.0046  0.1628 -0.0470
 1738SOL    HW116847   0.179   3.210   0.968 -2.1512  1.3657 -3.2732
 1738SOL    HW216848   0.153   3.347   1.011 -0.4819  0.1094 -1.5303
 1739SOL     OW16849   2.777   4.620   5.459  0.1842 -0.6418  0.4924
 1739SOL    HW116850   2.732   4.704   5.452  1.3137 -0.1877 -1.5148
 1739SOL    HW216851   2.798   4.594   5.369 -2.1186 -0.5139 -0.0868
 1740SOL     OW16852   1.989   3.826   5.329 -0.7046  0.2524 -0.0605
 1740SOL    HW116853   1.993   3.759   5.398  0.0118 -0.9221 -1.2364
 1740SOL    HW216854   1.951   3.904   5.368  1.8515  1.3520  0.2282
 1741SOL     OW16855   1.168   0.528  17.430 -0.7358  0.0916 -0.0806
 1741SOL    HW116856   1.209   0.445  17.406  1.4871  0.8763  0.9642
 1741SOL    HW216857   1.179   0.570  17.344 -0.6849  2.7679  1.2168
 1742SOL     OW16858   3.804   3.563   8.191 -0.3260 -0.1290 -0.3703
 1742SOL    HW116859   3.777   3.472   8.208  0.5271 -0.4857 -0.9511
 1742SOL    HW216860   3.743   3.616   8.242 -0.1628 -0.0850 -0.2197
 1743SOL     OW16861   4.387   2.910  11.548  0.5129  0.7166  0.0007
 1743SOL    HW116862   4.376   3.005  11.549  0.1457  0.6767 -0.2684
 1743SOL    HW216863   4.296   2.883  11.545  0.8725 -0.6388  1.2553
 1744SOL     OW16864   4.282   1.135   7.008  0.2120 -0.1346  0.0797
 1744SOL    HW116865   4.276   1.130   6.913 -0.3773  1.7006  0.0346
 1744SOL    HW216866   4.187   1.145   7.018 -0.0292 -1.1911 -1.1005
 1745SOL     OW16867   2.540   1.529  14.901 -0.0722  0.3802  1.1937
 1745SOL    HW116868   2.468   1.592  14.892  0.0374  0.6192  1.9883
 1745SOL    HW216869   2.602   1.561  14.836 -1.3665  2.2078  0.8586
 1746SOL     OW16870   4.031   2.455  14.337  0.2956  0.7001 -0.1604
 1746SOL    HW116871   3.996   2.366  14.326 -0.6590  1.0108  0.3138
 1746SOL    HW216872   4.122   2.446  14.366  0.1262 -1.8281 -0.3453
 1747SOL     OW16873   3.453   0.754   3.426  1.1293 -0.3837 -0.2207
 1747SOL    HW116874   3.420   0.838   3.460  2.8168  0.0024  0.4576
 1747SOL    HW216875   3.545   0.756   3.454  1.2431  0.6801 -0.6972
 1748SOL     OW16876   4.269   0.497   6.731  0.1293 -0.0028  0.0199
 1748SOL    HW116877   4.315   0.482   6.648 -1.1088  2.2380 -1.0853
 1748SOL    HW216878   4.323   0.565   6.772 -1.2188 -0.7061  2.9166
 1749SOL     OW16879   1.165   0.657   7.026  0.0526  0.3742  0.1030
 1749SOL    HW116880   1.222   0.590   7.063  0.5350  1.5310  1.4652
 1749SOL    HW216881   1.123   0.699   7.102 -1.2577 -0.4806 -0.1389
 1750SOL     OW16882   0.788   3.369  16.984  0.0305 -0.4901 -0.0578
 1750SOL    HW116883   0.856   3.426  17.020  1.2340 -1.7156 -0.3661
 1750SOL    HW216884   0.724   3.437  16.963 -0.2686 -0.9763 -0.7402
 1751SOL     OW16885   2.382   0.247  17.460 -0.3878  0.2201 -0.1670
 1751SOL    HW116886   2.294   0.210  17.468  0.7528 -2.0838  1.8237
 1751SOL    HW216887   2.435   0.175  17.495 -0.0330  0.5096 -0.1068
 1752SOL     OW16888   2.515   3.761   1.141 -0.3458 -0.5142 -0.1009
 1752SOL    HW116889   2.468   3.788   1.220 -3.3331  1.1178 -2.4535
 1752SOL    HW216890   2.588   3.817   1.167 -1.1009  0.6261 -0.4441
 1753SOL     OW16891   1.085   1.151   8.659 -0.3611  0.2091 -0.5787
 1753SOL    HW116892   1.160   1.117   8.611  0.6583  1.4412  0.1468
 1753SOL    HW216893   1.090   1.099   8.739  0.8740  1.7345  0.3313
 1754SOL     OW16894   0.496   1.314   3.778  0.2809  0.4695 -0.2832
 1754SOL    HW116895   0.474   1.406   3.766  0.4241  0.7449  1.6704
 1754SOL    HW216896   0.465   1.279   3.694  1.2444 -1.1328  0.0252
 1755SOL     OW16897   2.549   2.069   3.199 -0.1331  0.7801 -0.2030
 1755SOL    HW116898   2.596   2.091   3.118 -0.4326 -2.0934 -1.1503
 1755SOL    HW216899   2.523   2.156   3.231 -0.9413 -0.3901  2.2335
 1756SOL     OW16900   3.279   4.305   2.118 -0.7796 -0.3807 -0.1649
 1756SOL    HW116901   3.374   4.295   2.119 -0.4205  3.0826 -0.4890
 1756SOL    HW216902   3.242   4.227   2.159 -0.4046 -0.1982  0.5070
 1757SOL     OW16903   1.645   3.583  15.212 -0.4536 -0.5427  0.6018
 1757SOL    HW116904   1.700   3.505  15.201  1.9880  1.1349  0.9810
 1757SOL    HW216905   1.693   3.644  15.156 -1.8772 -0.0570 -0.0714
 1758SOL     OW16906   4.528   0.570  16.695 -0.4844 -0.5406  0.2269
 1758SOL    HW116907   4.577   0.519  16.630 -1.4198 -0.2248 -0.7368
 1758SOL    HW216908   4.590   0.619  16.748 -1.9414  0.8970  0.6056
 1759SOL     OW16909   1.861   0.092   5.553  0.3654  0.1088  0.2091
 1759SOL    HW116910   1.836   0.184   5.564  3.3414  0.9747 -0.2112
 1759SOL    HW216911   1.817   0.048   5.625  0.5731  0.3314  0.4690
 1760SOL     OW16912   1.153   2.222   0.483 -0.3302  0.1236 -0.3075
 1760SOL    HW116913   1.122   2.135   0.460 -1.7510  0.6626 -0.4676
 1760SOL    HW216914   1.104   2.276   0.420 -1.7217 -0.8966 -0.1067
 1761SOL     OW16915   4.550   0.606  13.422 -0.3879  0.1842  0.8314
 1761SOL    HW116916   4.483   0.591  13.490 -0.0817  0.1480  1.1258
 1761SOL    HW216917   4.572   0.699  13.422  0.0516  0.0709 -2.1494
 1762SOL     OW16918   0.586   1.827   3.575 -0.2563  0.4002 -0.6163
 1762SOL    HW116919   0.618   1.869   3.496 -0.3062  0.0942 -0.7967
 1762SOL    HW216920   0.577   1.734   3.555 -1.3488 -0.0501  1.9852
 1763SOL     OW16921   3.237   3.944   4.764  0.6399  0.0569  0.3177
 1763SOL    HW116922   3.196   3.881   4.706  0.6218 -0.9457  1.4137
 1763SOL    HW216923   3.292   3.878   4.806  0.8556  0.2342  0.3151
 1764SOL     OW16924   4.498   2.997   3.215  0.1468 -0.3777 -0.0366
 1764SOL    HW116925   4.475   2.956   3.298  0.7026 -0.6416 -0.0158
 1764SOL    HW216926   4.505   3.084   3.255 -1.1835  0.1497 -0.9112
 1765SOL     OW16927   2.397   0.017  15.514  0.0422  0.1653 -0.3973
 1765SOL    HW116928   2.308   4.731  15.537  0.0888  0.4529  0.1047
 1765SOL    HW216929   2.413   4.691  15.446  1.8243 -0.0969  0.2842
 1766SOL     OW16930   2.922   0.176   1.893  0.4231  0.0453 -0.0078
 1766SOL    HW116931   2.899   0.108   1.830 -0.1093  0.3731 -0.1665
 1766SOL    HW216932   2.832   0.196   1.920  0.4725 -0.2008  0.3424
 1767SOL     OW16933   1.572   4.506   6.880  0.0177  0.3935  0.2574
 1767SOL    HW116934   1.589   4.447   6.954  0.5401 -0.5457 -0.5982
 1767SOL    HW216935   1.647   4.479   6.827 -0.9839 -0.8683 -0.5268
 1768SOL     OW16936   2.685   4.335   4.667 -0.5148 -0.2294 -0.2812
 1768SOL    HW116937   2.639   4.345   4.584 -0.9629  2.7286  0.3073
 1768SOL    HW216938   2.771   4.314   4.632 -0.2062 -1.0702  0.9656
 1769SOL     OW16939   4.740   4.250   5.823 -0.4383 -0.2487 -0.4208
 1769SOL    HW116940   4.720   4.173   5.769 -2.8792  0.8348 -1.0383
 1769SOL    HW216941   4.680   4.310   5.779  0.6623  0.9567 -0.2398
 1770SOL     OW16942   4.059   1.576   3.343 -0.0919  0.0674 -0.5780
 1770SOL    HW116943   3.976   1.607   3.308 -0.3719  1.1211  0.9955
 1770SOL    HW216944   4.103   1.518   3.281  0.9423 -0.3107  0.4977
 1771SOL     OW16945   2.954   4.134   5.399 -0.6396  0.4352  0.5115
 1771SOL    HW116946   3.025   4.087   5.357 -1.8247  0.8809 -2.0018
 1771SOL    HW216947   2.977   4.121   5.491  0.8573 -1.0229 -0.0831
 1772SOL     OW16948   3.310   3.874   7.800  0.1535  0.3387  0.5069
 1772SOL    HW116949   3.359   3.804   7.843 -0.7800 -0.1777  0.7220
 1772SOL    HW216950   3.353   3.880   7.715  0.1756 -3.0946  0.2840
 1773SOL     OW16951   1.362   0.380   0.381 -0.2275  0.6027  0.6287
 1773SOL    HW116952   1.320   0.460   0.410  0.9411  1.2610  0.5034
 1773SOL    HW216953   1.358   0.397   0.286  1.3299  1.1265  0.6611
 1774SOL     OW16954   3.133   3.830   2.175  0.0208 -0.1993  0.6342
 1774SOL    HW116955   3.092   3.780   2.245 -0.3605 -0.0043  0.5495
 1774SOL    HW216956   3.225   3.810   2.194 -0.0069 -0.0626  0.9100
 1775SOL     OW16957   3.592   3.772   8.357 -0.1316  0.5422 -0.2454
 1775SOL    HW116958   3.581   3.772   8.452  1.8710  1.0000 -0.0189
 1775SOL    HW216959   3.538   3.695   8.334 -1.6543  1.9974 -1.5629
 1776SOL     OW16960   2.651   2.667   7.878 -0.4250 -0.1895  0.2403
 1776SOL    HW116961   2.570   2.693   7.921  0.8746  1.0804  1.9382
 1776SOL    HW216962   2.657   2.718   7.797  0.7601  0.9957  1.0702
 1777SOL     OW16963   1.296   1.121   2.994 -0.2743 -0.1514 -0.2942
 1777SOL    HW116964   1.300   1.146   3.086 -2.4842  2.2642 -0.8840
 1777SOL    HW216965   1.204   1.096   2.986 -0.6673  0.9797  0.7723
 1778SOL     OW16966   3.426   3.991   5.645  0.4798 -0.5271  0.2054
 1778SOL    HW116967   3.364   3.938   5.595  1.5192 -2.3488  0.8193
 1778SOL    HW216968   3.461   4.050   5.579 -1.9715 -1.2598 -1.7746
 1779SOL     OW16969   3.140   2.585  12.849  0.0629  0.9117  0.3187
 1779SOL    HW116970   3.109   2.619  12.765  0.8322 -0.8908 -0.6848
 1779SOL    HW216971   3.233   2.576  12.827  0.4081  0.2775  2.0679
 1780SOL     OW16972   3.959   3.606   3.808  0.3093 -0.1824 -0.5174
 1780SOL    HW116973   4.037   3.561   3.841  0.7545  0.8109 -0.2148
 1780SOL    HW216974   4.007   3.689   3.804  1.3742 -0.7195  0.8283
 1781SOL     OW16975   0.163   2.369   2.529 -0.0969  0.1259 -0.0637
 1781SOL    HW116976   0.101   2.406   2.592 -2.3801 -0.9926 -1.6513
 1781SOL    HW216977   0.240   2.363   2.585  0.5093  2.3258 -0.6720
 1782SOL     OW16978   2.629   0.779   7.589 -0.3988  0.0454  0.4838
 1782SOL    HW116979   2.539   0.795   7.615  0.1679  2.4099  0.9607
 1782SOL    HW216980   2.635   0.832   7.510  2.0631 -0.9087  0.0067
 1783SOL     OW16981   0.707   4.536   3.939  0.4654  0.2863 -0.3499
 1783SOL    HW116982   0.689   4.577   4.023  0.2577 -0.1726 -0.1674
 1783SOL    HW216983   0.621   4.538   3.897 -0.2999 -1.2301  1.1305
 1784SOL     OW16984   4.251   3.896   4.569  0.0881  0.9584  0.5963
 1784SOL    HW116985   4.190   3.967   4.586 -0.4548  0.8580 -0.9221
 1784SOL    HW216986   4.238   3.893   4.474 -0.0082 -0.0684  0.6314
 1785SOL     OW16987   4.495   4.287  17.163 -0.2297 -0.4989  0.0635
 1785SOL    HW116988   4.417   4.334  17.136  0.4302  0.5032 -0.1027
 1785SOL    HW216989   4.522   4.254  17.077  3.1971 -2.5835  1.9417
 1786SOL     OW16990   1.405   0.324  16.847  0.1768 -0.5240 -0.1001
 1786SOL    HW116991   1.482   0.325  16.790 -1.2177  0.5817 -1.9608
 1786SOL    HW216992   1.340   0.379  16.803 -1.3598 -2.3843 -0.1709
 1787SOL     OW16993   4.419   2.672   5.751  0.2859  0.0918 -0.2779
 1787SOL    HW116994   4.458   2.728   5.683 -0.3705 -0.2541 -0.9476
 1787SOL    HW216995   4.325   2.681   5.738  0.2300 -0.2937 -0.1236
 1788SOL     OW16996   1.208   1.147   6.226 -0.1455 -0.4902 -0.1052
 1788SOL    HW116997   1.179   1.210   6.160  1.1312  0.5883  0.3434
 1788SOL    HW216998   1.122   1.107   6.238 -0.7801  0.5520 -1.1933
 1789SOL     OW16999   0.157   0.475  11.785 -0.2522  0.4466  0.0966
 1789SOL    HW117000   0.194   0.556  11.823 -2.5534  1.3318  0.4351
 1789SOL    HW217001   0.222   0.455  11.718 -0.7413  0.2077 -0.2996
 1790SOL     OW17002   1.139   1.493   9.098  0.4368  0.4864 -0.0816
 1790SOL    HW117003   1.107   1.564   9.043  0.9114  0.3898 -0.4810
 1790SOL    HW217004   1.185   1.543   9.166  0.9097 -1.1605  0.8250
 1791SOL     OW17005   0.535   3.747   6.610  0.2996 -0.2792 -0.3619
 1791SOL    HW117006   0.600   3.752   6.680 -0.8846 -3.3774  0.9242
 1791SOL    HW217007   0.465   3.802   6.647  1.6554  2.1639 -1.3850
 1792SOL     OW17008   2.818   4.296   2.735  0.7188  0.1727 -0.8259
 1792SOL    HW117009   2.821   4.298   2.639 -2.3278 -0.4560 -0.9347
 1792SOL    HW217010   2.738   4.346   2.751  0.5897 -0.5535  0.7827
 1793SOL     OW17011   1.978   0.618  14.132 -0.2066  1.0505 -0.3980
 1793SOL    HW117012   1.942   0.690  14.081  1.9517  1.8786 -0.7862
 1793SOL    HW217013   2.072   0.626  14.113 -0.1109 -0.6379 -0.5872
 1794SOL     OW17014   0.132   2.009   8.660 -0.2458 -0.0783  0.1959
 1794SOL    HW117015   0.195   2.048   8.600  0.8074  0.7778  1.8504
 1794SOL    HW217016   0.077   2.086   8.674 -1.5198 -0.4709 -2.6268
 1795SOL     OW17017   2.998   1.669   2.325 -0.4815  0.3708 -0.7770
 1795SOL    HW117018   2.987   1.657   2.231 -1.0726  0.5981 -0.7388
 1795SOL    HW217019   2.909   1.704   2.331 -1.3286 -1.7649 -0.6717
 1796SOL     OW17020   1.852   2.633   6.609 -0.3214 -0.1095  0.2529
 1796SOL    HW117021   1.802   2.552   6.599  0.6528 -0.5962 -0.6559
 1796SOL    HW217022   1.881   2.627   6.700  1.4390  0.5717 -0.2692
 1797SOL     OW17023   3.495   0.782  10.137  0.2149  0.2478 -0.1239
 1797SOL    HW117024   3.500   0.759  10.230  1.4519 -1.6510 -0.6536
 1797SOL    HW217025   3.466   0.705  10.088 -0.1469 -0.8564  1.8043
 1798SOL     OW17026   0.887   4.362   1.757  0.0102 -0.7145 -0.4804
 1798SOL    HW117027   0.953   4.351   1.689 -1.1772  1.8103 -2.0392
 1798SOL    HW217028   0.938   4.401   1.828 -2.7059  1.3561  0.3645
 1799SOL     OW17029   4.255   0.202  17.591 -0.2109 -0.2964 -0.4297
 1799SOL    HW117030   4.273   0.259  17.666  0.4093  0.8381 -1.4529
 1799SOL    HW217031   4.221   0.123  17.633 -2.8346  0.1082 -1.7931
 1800SOL     OW17032   3.630   1.931  12.332  0.2368 -0.0747 -0.0053
 1800SOL    HW117033   3.645   1.864  12.266  0.8967  0.2090 -0.1482
 1800SOL    HW217034   3.549   1.975  12.307  0.4753 -0.4350 -1.4378
 1801SOL     OW17035   2.663   3.214   8.976  0.2352  0.3541 -0.0639
 1801SOL    HW117036   2.613   3.154   8.920 -2.7405  0.6094  2.3087
 1801SOL    HW217037   2.704   3.273   8.914  2.3316 -0.9486  0.0668
 1802SOL     OW17038   3.697   1.156  10.627 -1.0523  0.4842  0.1876
 1802SOL    HW117039   3.642   1.231  10.605 -1.3150 -0.2417 -1.6781
 1802SOL    HW217040   3.709   1.173  10.720 -2.2467 -0.4571  0.5197
 1803SOL     OW17041   4.462   1.189  17.267 -0.5128  0.2590  0.2512
 1803SOL    HW117042   4.423   1.239  17.340 -1.3505 -1.1968  0.7983
 1803SOL    HW217043   4.496   1.259  17.211  2.2240 -0.6179  0.8291
 1804SOL     OW17044   0.592   4.624   7.703  0.1410 -0.4663 -0.1049
 1804SOL    HW117045   0.553   4.572   7.633  1.7215 -0.8384 -0.7155
 1804SOL    HW217046   0.513   4.626   7.757 -0.6047 -1.5708 -1.1417
 1805SOL     OW17047   3.053   3.852  11.065  0.1615 -0.1726 -0.4767
 1805SOL    HW117048   3.050   3.944  11.090 -2.1367 -0.1742 -0.7046
 1805SOL    HW217049   3.029   3.859  10.972  4.3889  4.7233 -1.2265
 1806SOL     OW17050   4.729   2.344  10.208  0.2222  0.1963  0.1388
 1806SOL    HW117051   4.678   2.264  10.219  2.1650 -0.7597  1.9858
 1806SOL    HW217052   0.076   2.313  10.185  0.7265  1.6716  0.0418
 1807SOL     OW17053   4.526   4.398   5.721  0.2764  0.4916  0.4526
 1807SOL    HW117054   4.490   4.444   5.797 -2.1062 -1.1855  0.3342
 1807SOL    HW217055   4.511   4.464   5.653 -0.8840 -2.3072 -1.9962
 1808SOL     OW17056   0.028   4.483  13.567 -0.3257 -0.0877  0.3277
 1808SOL    HW117057   0.092   4.412  13.559 -2.0124 -1.8820  2.5723
 1808SOL    HW217058   0.073   4.562  13.537 -0.2447 -0.5329 -0.7030
 1809SOL     OW17059   3.713   2.053   5.376 -0.0787 -0.0754  0.1643
 1809SOL    HW117060   3.777   2.058   5.447  2.1964 -1.3180 -1.7697
 1809SOL    HW217061   3.711   1.959   5.360 -0.3358  0.0407 -0.4875
 1810SOL     OW17062   2.693   2.448   1.879  0.0907  0.0250 -0.4696
 1810SOL    HW117063   2.766   2.421   1.934  0.3028 -3.0527 -2.2455
 1810SOL    HW217064   2.742   2.513   1.828 -2.4272  0.2938 -2.5241
 1811SOL     OW17065   2.289   4.000  11.435 -0.1380 -0.0430  0.1850
 1811SOL    HW117066   2.232   4.006  11.512  0.5331  2.2164  0.5184
 1811SOL    HW217067   2.337   3.918  11.448  0.1334  0.2460  0.9939
 1812SOL     OW17068   3.820   2.335   8.804 -0.1808 -0.0697 -0.6020
 1812SOL    HW117069   3.872   2.388   8.743  1.6892  0.2289  1.2697
 1812SOL    HW217070   3.873   2.257   8.821 -0.5508 -0.1626  0.0990
 1813SOL     OW17071   1.352   0.364   3.615  0.6749 -0.5179  0.0100
 1813SOL    HW117072   1.344   0.413   3.697 -2.2126  1.1421 -1.2605
 1813SOL    HW217073   1.431   0.314   3.635  2.0526  1.6117 -0.1680
 1814SOL     OW17074   1.364   2.788   8.167  0.0859 -0.2070  0.5152
 1814SOL    HW117075   1.416   2.854   8.121  3.0316 -3.7757 -1.2086
 1814SOL    HW217076   1.399   2.711   8.122  0.7589 -0.1819  0.9939
 1815SOL     OW17077   0.463   4.201  16.860  0.0359 -0.5317 -0.3884
 1815SOL    HW117078   0.371   4.221  16.841 -0.6852 -3.7761 -0.4404
 1815SOL    HW217079   0.507   4.247  16.789  0.8817 -2.0163 -0.8190
 1816SOL     OW17080   4.381   2.758   1.548  0.7440 -0.3260 -0.0588
 1816SOL    HW117081   4.471   2.761   1.517  0.6178 -2.4161 -0.6112
 1816SOL    HW217082   4.385   2.673   1.592  0.7417 -0.7763 -0.9267
 1817SOL     OW17083   0.595   2.863   9.879  0.2476  0.2997 -0.1198
 1817SOL    HW117084   0.574   2.948   9.917  1.6291 -0.0269  1.3975
 1817SOL    HW217085   0.516   2.848   9.828  0.2825 -0.9372  0.1828
 1818SOL     OW17086   3.144   0.373   2.895 -0.2550  0.8352  0.0764
 1818SOL    HW117087   3.080   0.307   2.869 -0.0656  1.1090 -1.0887
 1818SOL    HW217088   3.118   0.438   2.829 -1.8444 -0.4222 -0.5310
 1819SOL     OW17089   3.593   3.414   8.829  0.2923 -0.3526  0.2726
 1819SOL    HW117090   3.633   3.451   8.750  1.0642 -0.6677  0.5110
 1819SOL    HW217091   3.507   3.455   8.824 -0.1612 -1.2074  1.2447
 1820SOL     OW17092   3.614   4.430  10.271  0.5997  0.1324  0.0520
 1820SOL    HW117093   3.633   4.342  10.304 -1.1118 -0.3992 -0.3735
 1820SOL    HW217094   3.679   4.479  10.321 -0.5111  1.4538  0.2041
 1821SOL     OW17095   4.691   2.428   6.990 -0.3295  0.2369  0.0085
 1821SOL    HW117096   0.013   2.466   6.929 -0.1235  4.2164  2.6727
 1821SOL    HW217097   4.613   2.429   6.934  1.2719  0.1912 -2.1881
 1822SOL     OW17098   3.040   2.816  13.869  0.0927  0.5896  0.0297
 1822SOL    HW117099   3.069   2.725  13.877 -0.2447  0.2873 -2.1904
 1822SOL    HW217100   3.009   2.841  13.956 -1.5487  0.2057 -0.4457
 1823SOL     OW17101   1.693   3.120   6.115 -0.3154 -0.2719 -0.3732
 1823SOL    HW117102   1.607   3.119   6.073 -0.0213  1.1190 -1.0213
 1823SOL    HW217103   1.673   3.079   6.198  0.5137  0.2461  0.0929
 1824SOL     OW17104   2.137   2.525   5.505 -0.0535  0.1656 -0.2794
 1824SOL    HW117105   2.194   2.520   5.428 -0.7534 -3.2300 -0.5764
 1824SOL    HW217106   2.176   2.591   5.563  1.3896 -0.4922 -0.4838
 1825SOL     OW17107   1.639   1.176   9.309  0.0127  0.2216 -0.5633
 1825SOL    HW117108   1.608   1.250   9.258  0.4320 -0.2906 -1.5509
 1825SOL    HW217109   1.708   1.139   9.255  1.7258 -1.6659  2.9129
 1826SOL     OW17110   3.458   1.677   9.011  0.4830  0.1585  0.3631
 1826SOL    HW117111   3.492   1.623   9.083 -0.6293 -0.7876  0.1815
 1826SOL    HW217112   3.369   1.692   9.043 -0.0592 -2.5196  0.1365
 1827SOL     OW17113   3.820   1.383   8.677 -0.2485 -0.4592  0.4725
 1827SOL    HW117114   3.824   1.435   8.758 -1.3812  0.5974 -0.1349
 1827SOL    HW217115   3.903   1.337   8.677  0.5226  0.9160  0.7591
 1828SOL     OW17116   4.313   4.354   4.143 -0.0257 -0.7836  0.7722
 1828SOL    HW117117   4.220   4.377   4.154  0.2395  0.4600  0.4346
 1828SOL    HW217118   4.354   4.440   4.148  0.8387 -1.0808 -1.6122
 1829SOL     OW17119   0.311   1.848  16.100 -0.1849 -0.2184 -0.1740
 1829SOL    HW117120   0.360   1.848  16.019  1.3094 -0.6513  0.7429
 1829SOL    HW217121   0.219   1.842  16.075 -0.1659  0.1625 -0.3412
 1830SOL     OW17122   1.992   1.352  13.979 -0.2120 -0.0494  0.3133
 1830SOL    HW117123   2.005   1.411  14.054  2.3392 -2.3066  1.5990
 1830SOL    HW217124   1.947   1.415  13.923 -1.3291 -0.5733  0.6194
 1831SOL     OW17125   3.398   4.704   2.414  0.5438  0.2686  0.7953
 1831SOL    HW117126   3.457   4.629   2.418  0.5241  0.2801  1.2234
 1831SOL    HW217127   3.335   4.662   2.472  0.2236 -0.9955 -0.4722
 1832SOL     OW17128   1.649   3.406   0.169 -0.4168  0.4838  0.3370
 1832SOL    HW117129   1.617   3.317   0.187  1.7095 -0.0586  1.5365
 1832SOL    HW217130   1.731   3.409   0.219  0.0236 -0.3912 -0.3239
 1833SOL     OW17131   0.150   1.149   7.129 -0.2078  0.1303  0.3617
 1833SOL    HW117132   0.175   1.084   7.194  0.6529 -0.7541 -0.8524
 1833SOL    HW217133   0.104   1.103   7.059  1.0627 -1.0515  0.2999
 1834SOL     OW17134   3.672   2.711  16.666 -0.0642 -0.5075  0.1678
 1834SOL    HW117135   3.636   2.697  16.753 -1.5622  0.4096 -0.2980
 1834SOL    HW217136   3.714   2.796  16.674  0.2035 -0.7975  1.7627
 1835SOL     OW17137   2.542   2.021   3.753  0.2230 -0.4091  0.0129
 1835SOL    HW117138   2.465   2.003   3.807  0.3033  1.4779  0.7587
 1835SOL    HW217139   2.508   2.001   3.666  0.5693 -3.1301  0.5115
 1836SOL     OW17140   4.355   3.085   2.997 -0.0606 -0.0966  0.0586
 1836SOL    HW117141   4.290   3.152   3.018  0.5218  0.4761  0.0245
 1836SOL    HW217142   4.346   3.023   3.069  0.4243  0.2208  0.3925
 1837SOL     OW17143   0.793   1.791   2.678  0.1419 -0.2031  0.4334
 1837SOL    HW117144   0.731   1.854   2.641 -0.0513 -0.9375 -0.4831
 1837SOL    HW217145   0.752   1.787   2.764  1.7423 -0.0651  1.1880
 1838SOL     OW17146   2.795   4.428   6.801  0.1324 -0.3425 -0.2044
 1838SOL    HW117147   2.873   4.438   6.855 -0.7995  0.5127  0.9899
 1838SOL    HW217148   2.800   4.337   6.770  1.7565 -0.3659  0.1271
 1839SOL     OW17149   4.295   1.971   2.731  0.4877  0.2868 -0.3680
 1839SOL    HW117150   4.214   1.921   2.738 -0.1812  0.7220 -4.9706
 1839SOL    HW217151   4.354   1.914   2.681  0.4827 -1.0978  1.1951
 1840SOL     OW17152   1.750   0.547   0.779  0.5812 -0.0125  0.1281
 1840SOL    HW117153   1.658   0.529   0.761  0.6393 -0.6709  0.4644
 1840SOL    HW217154   1.746   0.565   0.873 -1.5213  0.1454  0.0153
 1841SOL     OW17155   2.214   4.149   5.804  0.2373  0.4604 -0.2026
 1841SOL    HW117156   2.266   4.110   5.873  1.4022  0.6185 -0.9997
 1841SOL    HW217157   2.144   4.083   5.806  1.7503 -1.0737  1.8828
 1842SOL     OW17158   0.785   1.537  13.969 -0.4492 -0.0088 -0.0716
 1842SOL    HW117159   0.692   1.519  13.983  0.4049 -2.3690  2.5376
 1842SOL    HW217160   0.790   1.564  13.878 -0.0342  1.3573  0.3488
 1843SOL     OW17161   4.584   3.325   9.988  0.1020 -0.0378 -0.4942
 1843SOL    HW117162   4.546   3.393   9.932 -0.3258 -0.3541 -0.5853
 1843SOL    HW217163   4.540   3.254   9.941 -0.9112  1.0620 -1.2034
 1844SOL     OW17164   1.614   1.045   7.968  0.0733 -0.0183  0.6844
 1844SOL    HW117165   1.651   0.957   7.981  0.2381 -0.2896 -1.6035
 1844SOL    HW217166   1.550   1.056   8.038 -0.1837  3.1481 -0.0683
 1845SOL     OW17167   0.359   2.183   5.557  0.2407  0.0034  0.5634
 1845SOL    HW117168   0.342   2.193   5.650 -1.0539 -1.4777  0.4887
 1845SOL    HW217169   0.320   2.261   5.519 -0.4787  0.4346  2.2116
 1846SOL     OW17170   2.418   1.013   3.350  0.6803  0.0725  0.0924
 1846SOL    HW117171   2.409   1.095   3.302  0.3797  0.1278  0.2449
 1846SOL    HW217172   2.436   1.029   3.443 -2.0831 -2.8511  1.1400
 1847SOL     OW17173   0.498   0.248   2.220 -0.0471  0.1239 -0.3396
 1847SOL    HW117174   0.492   0.277   2.129 -0.6796  0.7315 -0.1041
 1847SOL    HW217175   0.510   0.331   2.266 -0.7334  0.5969 -0.9971
 1848SOL     OW17176   1.283   1.728   3.668 -0.1374 -0.6098 -0.9552
 1848SOL    HW117177   1.265   1.698   3.758  0.4512 -1.6051 -1.1644
 1848SOL    HW217178   1.360   1.783   3.676 -0.2086 -0.7905  0.9734
 1849SOL     OW17179   0.625   0.031   6.537 -0.0822  0.1347 -0.0481
 1849SOL    HW117180   0.684   4.700   6.511  1.6224  2.3027 -2.0823
 1849SOL    HW217181   0.600   0.051   6.447  0.0253 -0.6022 -0.2434
 1850SOL     OW17182   2.144   4.289   7.877 -0.1452 -0.3635  0.3549
 1850SOL    HW117183   2.072   4.335   7.921  1.4539  1.1322  1.3613
 1850SOL    HW217184   2.204   4.351   7.836 -0.3942 -0.0360  0.4855
 1851SOL     OW17185   2.739   2.307  16.297 -0.0234  0.1917  0.3131
 1851SOL    HW117186   2.731   2.240  16.229 -2.2492  0.5877  0.1743
 1851SOL    HW217187   2.738   2.386  16.244  0.2303  0.3482  0.5428
 1852SOL     OW17188   3.132   0.319   7.878  0.2591 -0.0160 -0.1115
 1852SOL    HW117189   3.205   0.259   7.866 -0.1628 -0.2786 -1.3670
 1852SOL    HW217190   3.154   0.374   7.952 -0.3104 -0.0753  0.0989
 1853SOL     OW17191   4.522   0.952   9.954  0.0966  0.1694  0.5936
 1853SOL    HW117192   4.615   0.953   9.930  0.1322  1.5522  0.8003
 1853SOL    HW217193   4.519   0.886  10.023  0.9145 -0.7804 -0.2599
 1854SOL     OW17194   2.777   2.006  15.425 -0.4143 -0.9259 -0.2747
 1854SOL    HW117195   2.848   1.949  15.454 -1.3727 -2.0815 -0.2273
 1854SOL    HW217196   2.814   2.032  15.340 -0.3499 -2.5537 -0.7485
 1855SOL     OW17197   1.343   2.242   3.232 -0.6073  0.6153 -0.2051
 1855SOL    HW117198   1.428   2.269   3.267  0.1978 -2.2443  0.0199
 1855SOL    HW217199   1.290   2.266   3.308  1.5202 -0.2516  1.5511
 1856SOL     OW17200   3.519   4.550   4.259 -0.1160 -0.0732  0.2507
 1856SOL    HW117201   3.501   4.628   4.207  0.7865 -0.3498 -0.4696
 1856SOL    HW217202   3.449   4.552   4.325  0.6023  0.4431  1.0000
 1857SOL     OW17203   3.465   3.128   1.452 -0.0008 -0.2494 -0.0298
 1857SOL    HW117204   3.471   3.190   1.525 -3.4112  3.4636 -2.9094
 1857SOL    HW217205   3.376   3.093   1.448 -0.0799 -0.2270  1.2800
 1858SOL     OW17206   4.695   1.220   7.758  0.5933  0.5618  0.6560
 1858SOL    HW117207   4.671   1.151   7.696 -1.8035  1.5916  0.4184
 1858SOL    HW217208   4.707   1.292   7.697 -0.5775  0.1940 -0.0228
 1859SOL     OW17209   2.950   4.256   5.088  0.2431 -0.3747 -0.3536
 1859SOL    HW117210   2.948   4.244   4.993 -1.8621  0.3759 -0.4065
 1859SOL    HW217211   3.021   4.320   5.095  0.9139 -1.2707  0.9052
 1860SOL     OW17212   0.348   0.747   7.760 -0.2198  0.1192 -0.4092
 1860SOL    HW117213   0.386   0.746   7.848 -0.4452 -0.9263 -0.3219
 1860SOL    HW217214   0.384   0.664   7.727 -1.4651 -0.8186  0.5723
 1861SOL     OW17215   2.090   0.368  17.722  0.1119 -0.0716 -0.2400
 1861SOL    HW117216   2.137   0.446  17.693  0.5998 -0.4426 -0.4641
 1861SOL    HW217217   2.147   0.349   0.040 -0.2488  2.3831  0.6483
 1862SOL     OW17218   3.975   2.001   2.095  0.2857  0.7829 -0.2579
 1862SOL    HW117219   3.948   1.980   2.006  1.5807 -0.7643 -0.2896
 1862SOL    HW217220   4.066   2.015   2.071  0.4422  0.6140  0.2287
 1863SOL     OW17221   3.662   3.006   7.013 -0.4413 -0.6075  0.1193
 1863SOL    HW117222   3.680   3.072   7.080  1.5459 -0.0743 -0.9267
 1863SOL    HW217223   3.614   3.053   6.944  1.8693  1.3122 -0.2090
 1864SOL     OW17224   2.792   4.190  12.199 -0.0383  0.0284 -0.0837
 1864SOL    HW117225   2.735   4.123  12.237  0.3288 -0.9175 -1.1933
 1864SOL    HW217226   2.757   4.263  12.249 -0.8111 -0.7541  0.5229
 1865SOL     OW17227   0.372   0.529   6.881 -0.8410 -0.0523  0.4345
 1865SOL    HW117228   0.422   0.498   6.806  1.7810  2.1434  1.3166
 1865SOL    HW217229   0.405   0.487   6.960 -2.2574 -1.4876  0.2745
 1866SOL     OW17230   4.287   3.682  12.174  0.0433  0.2014  0.1572
 1866SOL    HW117231   4.374   3.655  12.202 -0.3735 -1.3128 -0.0556
 1866SOL    HW217232   4.269   3.612  12.112 -0.0238 -0.9012  1.4237
 1867SOL     OW17233   0.692   4.098   6.763 -0.1195  0.3536 -0.3578
 1867SOL    HW117234   0.611   4.110   6.713 -0.0025 -0.3346 -0.7182
 1867SOL    HW217235   0.682   4.012   6.804 -1.2320  0.1316 -1.0933
 1868SOL     OW17236   2.358   2.236   6.626 -0.3783  0.4485  0.0726
 1868SOL    HW117237   2.341   2.178   6.552 -0.3998  0.3329  0.1691
 1868SOL    HW217238   2.278   2.233   6.677 -0.5120 -1.0955 -0.2369
 1869SOL     OW17239   1.060   0.058   8.626  0.2964 -0.2127  0.4518
 1869SOL    HW117240   0.973   0.091   8.602 -0.3985 -0.8400  2.1430
 1869SOL    HW217241   1.033   0.010   8.704 -0.6998  1.4408  1.1164
 1870SOL     OW17242   2.105   0.812   1.819  0.6823  0.3705  0.2522
 1870SOL    HW117243   2.082   0.795   1.728  0.7939  2.6776 -0.2106
 1870SOL    HW217244   2.201   0.819   1.817  0.5851  1.6224 -0.1089
 1871SOL     OW17245   3.858   1.273   4.884 -0.3628  0.2339  0.3927
 1871SOL    HW117246   3.781   1.230   4.922  0.0251 -0.8263 -0.0187
 1871SOL    HW217247   3.817   1.340   4.829  0.6277  0.3177 -0.2402
 1872SOL     OW17248   2.790   4.009  11.138  0.6586 -0.2447  0.3153
 1872SOL    HW117249   2.807   3.961  11.057 -1.6054 -0.1097 -0.2231
 1872SOL    HW217250   2.837   4.089  11.116  2.7335 -1.6767 -0.4663
 1873SOL     OW17251   2.776   3.752   8.442 -0.0952 -0.1841  0.1359
 1873SOL    HW117252   2.691   3.757   8.398  0.4357  0.3280 -0.8335
 1873SOL    HW217253   2.830   3.808   8.386  0.9395  1.3191  2.6139
 1874SOL     OW17254   0.482   3.105   8.130  0.4373 -0.1019 -0.4092
 1874SOL    HW117255   0.434   3.187   8.141  1.2240  0.2818  0.1762
 1874SOL    HW217256   0.414   3.037   8.129  1.4629 -1.1802  2.3358
 1875SOL     OW17257   1.538   3.550  16.671  0.6949 -0.3030 -0.1757
 1875SOL    HW117258   1.575   3.494  16.739 -0.9404 -0.7806  0.3408
 1875SOL    HW217259   1.611   3.611  16.656 -0.9076  2.3610  2.8092
 1876SOL     OW17260   1.358   3.162   2.746  0.3929 -0.1298  0.6006
 1876SOL    HW117261   1.438   3.212   2.730 -0.0171  0.6191  0.9124
 1876SOL    HW217262   1.395   3.081   2.782 -1.5718 -0.7354  1.2495
 1877SOL     OW17263   0.534   0.260   4.466  0.0569  0.1145 -0.2222
 1877SOL    HW117264   0.479   0.254   4.388 -0.1218 -1.3741  0.0186
 1877SOL    HW217265   0.500   0.343   4.498  0.3413  0.6030 -1.1965
 1878SOL     OW17266   3.445   4.531  13.336 -0.2417 -0.5584 -0.6266
 1878SOL    HW117267   3.532   4.572  13.343  0.4263 -2.1027  0.1493
 1878SOL    HW217268   3.463   4.437  13.344 -0.6179 -0.6241 -0.5879
 1879SOL     OW17269   3.294   0.156   0.097 -0.3342  0.0742  0.0966
 1879SOL    HW117270   3.320   0.247   0.086 -0.3123  0.1076  0.4146
 1879SOL    HW217271   3.290   0.146   0.192 -0.4209 -0.9175 -0.0088
 1880SOL     OW17272   2.461   3.621   9.353  0.1076 -0.1955 -0.7112
 1880SOL    HW117273   2.452   3.650   9.444  0.6420  0.8305 -0.9809
 1880SOL    HW217274   2.494   3.531   9.359 -0.3462 -0.1995  1.8274
 1881SOL     OW17275   4.388   1.233   6.766  0.4569  0.0875  0.0547
 1881SOL    HW117276   4.357   1.295   6.700 -0.6068 -2.4056 -1.8018
 1881SOL    HW217277   4.414   1.298   6.831  1.2477 -0.5024  0.3337
 1882SOL     OW17278   0.191   2.960   3.031  0.0080 -0.4810  0.1443
 1882SOL    HW117279   0.096   2.974   3.028  0.0528  0.2521  2.0449
 1882SOL    HW217280   0.227   3.048   3.014  0.0925 -0.6675 -0.6502
 1883SOL     OW17281   0.151   3.397   8.527 -0.7429 -0.0955  0.2649
 1883SOL    HW117282   0.246   3.397   8.516 -0.9327  0.4497 -1.4812
 1883SOL    HW217283   0.142   3.407   8.621 -1.9494  1.6342 -0.0292
 1884SOL     OW17284   2.114   2.970   8.097  0.0907  0.6809 -0.1514
 1884SOL    HW117285   2.184   2.920   8.054 -0.3658  0.1385 -0.2669
 1884SOL    HW217286   2.129   2.953   8.190 -1.6824 -1.3357 -0.2317
 1885SOL     OW17287   0.664   1.556  12.951  0.0315 -0.0389  0.4873
 1885SOL    HW117288   0.703   1.479  12.911  1.4608  0.2705  1.2626
 1885SOL    HW217289   0.697   1.542  13.040 -0.5471 -0.4865  0.6273
 1886SOL     OW17290   0.275   2.427  15.517  0.1836  0.1409  0.3440
 1886SOL    HW117291   0.325   2.509  15.520 -0.9165  0.9611 -3.0838
 1886SOL    HW217292   0.246   2.420  15.426 -0.8365 -0.5646  0.7238
 1887SOL     OW17293   0.100   2.304   9.539  0.1865 -0.4533 -0.4027
 1887SOL    HW117294   0.072   2.396   9.550 -1.1850 -0.9625  0.4289
 1887SOL    HW217295   0.018   2.260   9.514 -0.6690  1.3795 -0.8568
 1888SOL     OW17296   2.813   0.084  12.763 -0.2326  0.5419  0.0946
 1888SOL    HW117297   2.909   0.087  12.767 -0.2137 -0.0733  0.2177
 1888SOL    HW217298   2.800   0.162  12.817  1.0247  1.5267 -1.0157
 1889SOL     OW17299   0.787   1.229   5.330  0.3397  0.4114  0.4982
 1889SOL    HW117300   0.851   1.198   5.393 -0.0587 -0.4393  0.4823
 1889SOL    HW217301   0.791   1.157   5.267 -1.0576  0.5442  0.2543
 1890SOL     OW17302   2.547   4.592   2.564 -0.2534 -0.6110  0.5200
 1890SOL    HW117303   2.539   4.578   2.659 -1.2547 -1.3403  0.3265
 1890SOL    HW217304   2.607   4.667   2.566 -0.5721 -0.3054 -2.4809
 1891SOL     OW17305   1.842   3.727  14.152 -0.1567  0.0570 -0.1401
 1891SOL    HW117306   1.825   3.735  14.058  1.1655 -1.0120 -0.4811
 1891SOL    HW217307   1.937   3.727  14.163 -0.1199 -0.6914 -0.4604
 1892SOL     OW17308   2.441   1.716   8.166 -0.1698 -0.4000 -0.2314
 1892SOL    HW117309   2.419   1.809   8.168 -1.0613 -0.5853 -1.2891
 1892SOL    HW217310   2.533   1.729   8.143 -0.4733  0.1580 -1.1634
 1893SOL     OW17311   1.308   1.649   5.744  0.0513  0.4604  0.2345
 1893SOL    HW117312   1.282   1.696   5.665  1.3009  0.5127 -0.1386
 1893SOL    HW217313   1.312   1.720   5.808  1.2381  1.4711 -0.9860
 1894SOL     OW17314   2.249   1.084   9.554 -0.4757 -0.1834 -0.1588
 1894SOL    HW117315   2.242   1.118   9.465  2.5034 -2.5167 -1.2770
 1894SOL    HW217316   2.158   1.089   9.584 -0.8678 -1.7604 -1.0853
 1895SOL     OW17317   3.209   2.649  11.548 -0.4170 -0.5149 -0.3500
 1895SOL    HW117318   3.137   2.706  11.575  1.8208  0.6445  3.2644
 1895SOL    HW217319   3.256   2.707  11.489 -1.0084 -0.2738 -0.5747
 1896SOL     OW17320   3.520   1.987   8.945 -0.0764 -0.2235 -0.1809
 1896SOL    HW117321   3.604   1.945   8.929  0.9949  1.1271  1.9996
 1896SOL    HW217322   3.468   1.913   8.913 -1.6131  0.2294  1.2631
 1897SOL     OW17323   0.949   2.400  14.296 -0.3859 -0.9383  0.2220
 1897SOL    HW117324   0.938   2.462  14.224  2.2766 -1.3111 -0.5099
 1897SOL    HW217325   0.891   2.334  14.256 -1.2174 -0.5713  0.8275
 1898SOL     OW17326   4.019   3.837   7.161  0.2592 -0.2539 -0.1046
 1898SOL    HW117327   3.945   3.886   7.197  0.5566 -1.0748  1.6148
 1898SOL    HW217328   4.023   3.880   7.075 -0.2387  0.1877  0.0924
 1899SOL     OW17329   2.572   4.068  10.496  0.1536  0.4006 -0.0183
 1899SOL    HW117330   2.516   4.146  10.502 -0.4366 -0.1437  1.6355
 1899SOL    HW217331   2.511   4.022  10.440  2.0561 -0.8568 -1.0434
 1900SOL     OW17332   0.167   3.470   6.715 -0.0912  0.4271 -0.2761
 1900SOL    HW117333   0.223   3.508   6.648  2.1496 -1.2194  0.6318
 1900SOL    HW217334   0.087   3.520   6.700  0.2216  1.0739  0.2417
 1901SOL     OW17335   0.387   0.067  15.141 -0.3430  0.7140  0.7844
 1901SOL    HW117336   0.450   0.125  15.184  0.3706  0.8135 -0.3662
 1901SOL    HW217337   0.343   0.122  15.077 -2.4384 -0.4808  1.2118
 1902SOL     OW17338   1.593   1.873   6.919 -0.3010  0.2292  0.3647
 1902SOL    HW117339   1.596   1.923   6.837 -0.4140 -0.3283  0.0193
 1902SOL    HW217340   1.510   1.899   6.958 -1.7771  0.3320 -2.8693
 1903SOL     OW17341   0.669   0.699   6.475 -0.4204 -0.3662  0.4589
 1903SOL    HW117342   0.625   0.642   6.413  1.2869  0.2532 -1.3077
 1903SOL    HW217343   0.675   0.648   6.556 -0.8313 -1.3302 -0.1191
 1904SOL     OW17344   2.666   1.665  12.615 -0.1601  0.4559  0.4467
 1904SOL    HW117345   2.622   1.592  12.659  1.1956 -0.4186  0.3349
 1904SOL    HW217346   2.593   1.726  12.608 -0.8703 -0.6297 -1.5112
 1905SOL     OW17347   1.724   3.429  12.985 -0.3812  0.2505 -0.2499
 1905SOL    HW117348   1.801   3.477  12.955 -0.5461  0.7892  0.2052
 1905SOL    HW217349   1.657   3.468  12.929 -2.4803 -0.9065  1.4677
 1906SOL     OW17350   1.044   2.700  17.498 -0.8309  0.7483 -0.7018
 1906SOL    HW117351   1.130   2.738  17.477 -0.8547  0.2666 -1.6518
 1906SOL    HW217352   1.054   2.605  17.494 -0.5336  0.7093  0.7497
 1907SOL     OW17353   3.225   4.304   6.867  0.1703  0.0468 -0.5157
 1907SOL    HW117354   3.216   4.369   6.798  2.0799  0.0070 -0.8142
 1907SOL    HW217355   3.277   4.241   6.818 -1.2839 -1.2859 -0.3124
 1908SOL     OW17356   1.838   0.354   8.284 -0.8225 -0.0425 -0.0201
 1908SOL    HW117357   1.915   0.359   8.227 -1.4485  2.7837 -0.5998
 1908SOL    HW217358   1.844   0.435   8.334 -1.5798 -0.8015  1.3187
 1909SOL     OW17359   0.893   2.860   3.482 -0.2910  0.2951 -0.0578
 1909SOL    HW117360   0.853   2.850   3.395  2.3399  1.5692 -1.3951
 1909SOL    HW217361   0.952   2.931   3.457  0.1367  0.0756  0.3430
 1910SOL     OW17362   2.715   1.575   0.485 -0.0391 -0.0831  0.4647
 1910SOL    HW117363   2.622   1.579   0.463 -0.0015 -0.5424  0.2207
 1910SOL    HW217364   2.715   1.511   0.557  1.3145 -0.5831  0.0064
 1911SOL     OW17365   0.159   2.010   3.796 -0.5889  0.2932  0.2139
 1911SOL    HW117366   0.139   2.103   3.792 -1.1031  0.2961  2.5989
 1911SOL    HW217367   0.172   1.988   3.704  3.3390  0.3003  0.7712
 1912SOL     OW17368   0.825   0.148   5.397  0.0508 -0.7518 -0.3722
 1912SOL    HW117369   0.832   0.149   5.492 -1.0419  2.0890 -0.3321
 1912SOL    HW217370   0.783   0.062   5.390  0.9206 -1.0610 -1.8536
 1913SOL     OW17371   3.244   4.623  12.688 -0.1350  0.0240  0.1856
 1913SOL    HW117372   3.173   4.686  12.704  0.4335  0.9230 -0.7786
 1913SOL    HW217373   3.221   4.556  12.752  0.0180 -0.9124 -0.7311
 1914SOL     OW17374   4.562   2.564  11.089  0.2311  0.0841  0.3121
 1914SOL    HW117375   4.542   2.536  11.000  0.6253 -0.7661  0.4773
 1914SOL    HW217376   4.493   2.523  11.141  0.3462  1.8222  1.8204
 1915SOL     OW17377   2.811   0.388  11.862 -0.0237  0.1011  0.3650
 1915SOL    HW117378   2.828   0.402  11.769 -0.5299 -1.7665 -0.0110
 1915SOL    HW217379   2.884   0.336  11.894  2.5951  0.6730 -4.7221
 1916SOL     OW17380   0.353   2.994   1.114 -0.0918 -0.2039  0.1864
 1916SOL    HW117381   0.298   2.947   1.177  1.0117 -2.3913 -0.4599
 1916SOL    HW217382   0.312   2.976   1.029 -0.7775 -0.3572  0.5437
 1917SOL     OW17383   3.177   0.115  14.140  0.6086 -0.4450 -0.5389
 1917SOL    HW117384   3.238   0.084  14.073 -0.1047 -1.0958 -0.8869
 1917SOL    HW217385   3.207   0.206  14.137 -1.9725  0.4264 -0.6874
 1918SOL     OW17386   4.628   1.707   2.770 -0.2788 -0.1083 -0.1187
 1918SOL    HW117387   4.659   1.783   2.818  0.9748 -1.5996  1.4422
 1918SOL    HW217388   4.712   1.661   2.767  0.2941  1.0240 -1.2616
 1919SOL     OW17389   1.727   1.244   9.564 -0.0215 -0.2959 -0.3408
 1919SOL    HW117390   1.754   1.336   9.553 -2.3994  0.6066  1.2830
 1919SOL    HW217391   1.717   1.227   9.470 -0.8785  0.4264 -0.3867
 1920SOL     OW17392   3.095   4.488   4.575  0.6667  0.1161  0.4182
 1920SOL    HW117393   3.165   4.428   4.601  1.1578  0.4153 -0.2107
 1920SOL    HW217394   3.019   4.432   4.593  3.2064 -2.5261  2.9065
 1921SOL     OW17395   2.313   0.725   5.885  0.5464 -0.3135  0.2953
 1921SOL    HW117396   2.360   0.704   5.804 -0.5323  0.9195 -0.6492
 1921SOL    HW217397   2.254   0.650   5.894 -1.1811  1.1362  1.0820
 1922SOL     OW17398   3.084   0.390   4.035 -0.1065  0.3763 -0.1279
 1922SOL    HW117399   3.025   0.461   4.061  0.8913  1.5637 -1.0791
 1922SOL    HW217400   3.126   0.363   4.117  1.0425 -1.6052 -1.3619
 1923SOL     OW17401   4.553   0.835  16.887  0.3487 -0.3927  0.0192
 1923SOL    HW117402   4.627   0.875  16.841  0.1839  1.0510  1.0051
 1923SOL    HW217403   4.594   0.805  16.968 -0.3063  0.3974  0.6417
 1924SOL     OW17404   3.005   3.476   4.864  0.3732 -0.9156 -0.4894
 1924SOL    HW117405   3.006   3.564   4.902  1.8345 -0.6711 -1.0927
 1924SOL    HW217406   3.063   3.432   4.927  2.0880 -0.4840 -1.7915
 1925SOL     OW17407   3.420   2.733   7.731 -0.7045  0.8020  0.3707
 1925SOL    HW117408   3.420   2.674   7.806 -0.8656  1.5813  0.9791
 1925SOL    HW217409   3.373   2.805   7.772 -3.9537 -1.5043  0.7705
 1926SOL     OW17410   0.632   3.529   8.404  0.5281 -0.4111  0.1036
 1926SOL    HW117411   0.714   3.549   8.360  0.9158 -2.7587 -0.2017
 1926SOL    HW217412   0.664   3.464   8.466  2.5833 -0.0567 -0.6115
 1927SOL     OW17413   4.107   1.298  14.977 -0.1428 -0.5816 -0.4086
 1927SOL    HW117414   4.101   1.250  15.059 -0.4725 -0.7406 -0.5266
 1927SOL    HW217415   4.170   1.362  15.011 -1.5205 -0.9525  2.7728
 1928SOL     OW17416   1.346   2.908   7.385 -0.7161  0.4199 -0.1951
 1928SOL    HW117417   1.365   2.994   7.424 -2.0937  0.3621  0.6281
 1928SOL    HW217418   1.252   2.895   7.396 -0.5429  0.5939  1.5056
 1929SOL     OW17419   4.235   0.042  10.668  0.3197  0.7426 -0.3774
 1929SOL    HW117420   4.282   4.714  10.619  0.0904  0.0917  0.3007
 1929SOL    HW217421   4.284   0.066  10.747  1.1222 -0.4128 -0.5152
 1930SOL     OW17422   2.456   1.561   2.090  0.4025 -0.5225  0.3128
 1930SOL    HW117423   2.452   1.522   2.177 -1.0159  2.3225  1.4949
 1930SOL    HW217424   2.542   1.603   2.090  0.9980 -1.7568  2.1966
 1931SOL     OW17425   0.035   3.074   7.638 -0.3797  0.3726 -0.1790
 1931SOL    HW117426   0.107   3.029   7.681  1.4557  1.4452 -2.1761
 1931SOL    HW217427   0.006   3.019   7.565  0.0660  2.3050 -1.7918
 1932SOL     OW17428   3.783   1.617   9.138  0.1982 -0.0260  0.3430
 1932SOL    HW117429   3.719   1.659   9.195 -1.0124 -0.5196 -0.6695
 1932SOL    HW217430   3.781   1.522   9.148  1.4319 -0.1621 -0.6076
 1933SOL     OW17431   1.809   4.156   3.435 -0.0372 -0.1710  0.6780
 1933SOL    HW117432   1.890   4.123   3.395 -1.0089 -0.2771 -1.2256
 1933SOL    HW217433   1.837   4.247   3.444  0.4708 -0.1334 -1.2360
 1934SOL     OW17434   0.261   0.884  10.842 -0.1049  0.5949  0.3512
 1934SOL    HW117435   0.252   0.790  10.858  0.0815  0.4934 -0.1465
 1934SOL    HW217436   0.317   0.919  10.911 -0.2731 -1.2024  1.3975
 1935SOL     OW17437   3.017   2.542   3.853  0.5535 -0.1494  0.1763
 1935SOL    HW117438   3.053   2.602   3.787 -1.7349  1.1940  0.1517
 1935SOL    HW217439   3.028   2.457   3.809 -1.9821 -0.1623 -0.4306
 1936SOL     OW17440   0.944   1.119  10.940  0.0240  0.5858 -0.0119
 1936SOL    HW117441   0.918   1.037  10.981  1.5626  0.8653  1.5000
 1936SOL    HW217442   0.926   1.184  11.007 -1.4269  1.2669 -1.0702
 1937SOL     OW17443   2.473   0.310   8.820  0.6160 -0.6678  0.0022
 1937SOL    HW117444   2.537   0.331   8.753 -0.9647 -1.4766 -1.7555
 1937SOL    HW217445   2.524   0.309   8.901  2.2094 -1.4845 -1.0081
 1938SOL     OW17446   0.567   4.189   5.117 -0.2080  0.2163  0.4154
 1938SOL    HW117447   0.492   4.242   5.147 -2.1263 -1.8128 -0.8352
 1938SOL    HW217448   0.593   4.150   5.201 -0.3296 -0.0524  0.3280
 1939SOL     OW17449   4.030   2.643  14.158 -0.3510 -0.2355 -0.2275
 1939SOL    HW117450   4.030   2.566  14.215 -2.5278  1.1842  1.6815
 1939SOL    HW217451   3.947   2.631  14.111 -0.8173  1.5912  0.1225
 1940SOL     OW17452   4.105   4.480  17.734 -0.0042 -0.0503  0.3488
 1940SOL    HW117453   4.077   4.444  17.650 -0.5388  1.2727 -0.0398
 1940SOL    HW217454   4.039   4.453   0.040  0.0600  0.9053  0.8225
 1941SOL     OW17455   2.790   4.662  16.994  0.1781 -0.1851  0.4974
 1941SOL    HW117456   2.815   0.014  16.998 -0.7781 -0.0718  4.0259
 1941SOL    HW217457   2.774   4.665  16.900 -0.7504  0.3655  0.6750
 1942SOL     OW17458   3.905   1.038  11.900 -0.1321 -0.8141  0.1842
 1942SOL    HW117459   3.830   0.983  11.925 -1.2038  1.7869  2.6823
 1942SOL    HW217460   3.978   0.989  11.937 -1.1959 -0.9775  2.0747
 1943SOL     OW17461   4.283   1.467  15.073  0.2145 -0.2211  0.3417
 1943SOL    HW117462   4.260   1.436  15.161  0.9165  0.0029  0.6112
 1943SOL    HW217463   4.369   1.425  15.063 -0.1497 -0.7410 -0.5545
 1944SOL     OW17464   4.435   4.073   8.494  0.1199  0.1006 -0.0405
 1944SOL    HW117465   4.517   4.035   8.464  2.2540  3.0111  2.0777
 1944SOL    HW217466   4.383   4.095   8.416  0.2558 -0.4945 -0.3005
 1945SOL     OW17467   3.745   4.659   7.883  0.0819  0.1381 -0.0206
 1945SOL    HW117468   3.711   4.654   7.794  4.0983 -0.7672 -1.5192
 1945SOL    HW217469   3.836   4.690   7.880  1.0965 -2.3984  3.8504
 1946SOL     OW17470   1.971   1.230   4.080 -0.0970 -0.4479 -0.2049
 1946SOL    HW117471   1.957   1.322   4.105 -0.7776 -0.2897 -1.1687
 1946SOL    HW217472   1.884   1.193   4.088 -0.5725  0.6356 -0.3282
 1947SOL     OW17473   2.538   4.227   4.455  0.2786  0.4392 -0.0881
 1947SOL    HW117474   2.483   4.186   4.388  2.0816 -2.0092 -0.0578
 1947SOL    HW217475   2.628   4.223   4.422  0.0612  2.3872 -0.9225
 1948SOL     OW17476   3.294   4.308   1.334 -0.0614 -0.2954 -0.4013
 1948SOL    HW117477   3.363   4.374   1.324  0.3203 -0.4610  1.1291
 1948SOL    HW217478   3.346   4.239   1.376  1.4824  1.6013  0.8265
 1949SOL     OW17479   2.534   1.923   1.333  0.0918 -0.0595  0.1641
 1949SOL    HW117480   2.445   1.906   1.363  0.6068 -1.4703  0.8838
 1949SOL    HW217481   2.586   1.895   1.408 -0.3679 -0.3337  0.3770
 1950SOL     OW17482   0.260   1.816  14.793 -0.0012 -0.0431  0.2567
 1950SOL    HW117483   0.284   1.734  14.836 -0.3217  0.5094  1.5019
 1950SOL    HW217484   0.319   1.800  14.720  1.7369  0.7689  1.4973
 1951SOL     OW17485   0.028   2.531   0.480 -0.4280  0.0875  0.7460
 1951SOL    HW117486   0.032   2.558   0.388  0.1525  0.3088  0.8350
 1951SOL    HW217487   0.045   2.438   0.464  1.9291  0.8765 -1.3887
 1952SOL     OW17488   3.057   4.323   7.339  0.3430 -0.7945  0.0974
 1952SOL    HW117489   3.023   4.247   7.386 -0.1408 -2.3258 -2.7063
 1952SOL    HW217490   3.102   4.374   7.406 -2.2973  0.5822  0.8265
 1953SOL     OW17491   3.761   3.611  10.790 -0.5491  0.1008  0.6831
 1953SOL    HW117492   3.842   3.568  10.762 -0.7634 -0.1460  0.4463
 1953SOL    HW217493   3.752   3.594  10.884  0.4801 -1.9770  0.4192
 1954SOL     OW17494   2.959   2.588   8.778  0.0465 -0.0342 -0.2483
 1954SOL    HW117495   3.053   2.572   8.791 -0.1309 -1.7740 -1.0991
 1954SOL    HW217496   2.968   2.661   8.716  3.4714  0.1432  0.4375
 1955SOL     OW17497   3.582   4.723  12.316 -0.1533 -0.2573 -0.0566
 1955SOL    HW117498   3.656   4.668  12.342  0.9311 -0.1769 -2.9799
 1955SOL    HW217499   3.508   4.678  12.354  0.2497 -0.1272  0.8793
 1956SOL     OW17500   3.417   4.027  11.716 -0.3193 -0.3309  0.1938
 1956SOL    HW117501   3.384   3.982  11.638  1.3247 -0.2561 -0.5489
 1956SOL    HW217502   3.376   3.979  11.788 -0.3486  0.2960  0.5942
 1957SOL     OW17503   1.300   3.175   6.733 -0.1104 -0.3002  0.0736
 1957SOL    HW117504   1.271   3.153   6.645  1.5517 -0.3381 -0.4582
 1957SOL    HW217505   1.228   3.135   6.783 -0.7921  0.4180 -0.3445
 1958SOL     OW17506   0.580   4.330  13.487 -0.0823  0.3743  0.4867
 1958SOL    HW117507   0.574   4.263  13.555 -0.1550 -0.2150 -0.0986
 1958SOL    HW217508   0.673   4.353  13.496 -0.2502  0.8362  0.9912
 1959SOL     OW17509   3.388   4.117  17.631 -0.2216 -0.8670 -0.0892
 1959SOL    HW117510   3.294   4.128  17.615 -0.2227 -1.0634 -0.2151
 1959SOL    HW217511   3.436   4.193  17.598  0.0632 -1.3848 -0.8693
 1960SOL     OW17512   4.722   4.618   5.561  0.0514  0.0587 -0.0284
 1960SOL    HW117513   0.033   4.631   5.481  1.3254  1.1983  0.9807
 1960SOL    HW217514   0.014   4.536   5.599  0.6106  0.6802  0.8469
 1961SOL     OW17515   2.489   3.113   4.428 -0.0894 -0.0412 -0.1427
 1961SOL    HW117516   2.552   3.059   4.380  1.6375  1.9386 -0.1369
 1961SOL    HW217517   2.411   3.063   4.454 -0.4385 -0.0921 -1.2943
 1962SOL     OW17518   1.409   2.791  11.859  0.0277 -0.2557  0.9549
 1962SOL    HW117519   1.330   2.799  11.913 -0.0294  0.0382  0.8301
 1962SOL    HW217520   1.361   2.762  11.781 -1.0528  1.5014  0.9660
 1963SOL     OW17521   1.392   1.371   1.927  0.1768  0.1867  0.4275
 1963SOL    HW117522   1.336   1.433   1.972 -1.1818 -0.6901 -0.0500
 1963SOL    HW217523   1.476   1.373   1.973  0.6084  0.0261 -0.3513
 1964SOL     OW17524   2.662   0.348   1.296  0.5118 -0.0814  0.1099
 1964SOL    HW117525   2.753   0.321   1.293  0.4562 -0.1666 -0.9953
 1964SOL    HW217526   2.637   0.349   1.203 -0.2645 -1.3711  0.3143
 1965SOL     OW17527   3.896   1.783   3.199 -0.7183 -0.4369  0.0349
 1965SOL    HW117528   3.900   1.735   3.117  0.5746 -1.1020  0.4829
 1965SOL    HW217529   3.821   1.839   3.178 -1.0202 -1.5489 -1.8215
 1966SOL     OW17530   4.510   3.098   6.591  0.5386 -0.6023 -0.0157
 1966SOL    HW117531   4.589   3.048   6.571  1.8145  1.0160  0.9994
 1966SOL    HW217532   4.544   3.158   6.657  1.7146 -2.1961  0.8139
 1967SOL     OW17533   2.338   0.320  14.651  0.5028  0.2257 -0.1507
 1967SOL    HW117534   2.364   0.252  14.713 -0.7757 -0.4488 -0.3592
 1967SOL    HW217535   2.391   0.288  14.579  2.0507 -1.0948  1.5616
 1968SOL     OW17536   4.735   2.845  16.127 -0.3534  0.2517 -0.0071
 1968SOL    HW117537   0.073   2.799  16.159  0.4159  1.5155 -0.0336
 1968SOL    HW217538   0.023   2.870  16.038 -1.3026  3.1402  0.5075
 1969SOL     OW17539   2.929   4.243   4.562  0.2141  0.4591 -0.0760
 1969SOL    HW117540   3.010   4.193   4.561  0.6263  1.1870 -3.2271
 1969SOL    HW217541   2.878   4.192   4.500 -0.7784 -1.2401  2.1524
 1970SOL     OW17542   2.797   1.958   7.082 -0.2262 -0.8627 -0.1205
 1970SOL    HW117543   2.831   1.870   7.100 -0.7774 -1.2189 -0.8281
 1970SOL    HW217544   2.710   1.935   7.050 -0.4210 -1.5203  0.8803
 1971SOL     OW17545   1.263   0.084  17.479  0.2817  0.5308  0.0929
 1971SOL    HW117546   1.203   0.028  17.529 -2.2917  2.4096 -0.8863
 1971SOL    HW217547   1.348   0.061  17.515 -0.2628  1.8360  2.2398
 1972SOL     OW17548   3.721   2.302   3.008  0.6572  0.1340  0.4950
 1972SOL    HW117549   3.703   2.392   2.980 -0.3656 -0.5281 -0.9716
 1972SOL    HW217550   3.634   2.263   3.005  0.9818 -0.4297 -1.9753
 1973SOL     OW17551   2.599   3.217   6.413 -0.3516 -0.1013  0.4580
 1973SOL    HW117552   2.630   3.205   6.502 -0.3944  2.4854  0.8165
 1973SOL    HW217553   2.563   3.305   6.422 -1.3224 -0.2498 -1.9661
 1974SOL     OW17554   4.290   3.485  15.485  0.7254  0.5268  0.0736
 1974SOL    HW117555   4.361   3.480  15.421  0.8423  0.7157  0.1874
 1974SOL    HW217556   4.328   3.439  15.560  1.0095  1.6391  0.6139
 1975SOL     OW17557   3.654   2.834  13.851 -0.4386  0.1623  0.0330
 1975SOL    HW117558   3.604   2.910  13.881 -0.1470 -0.1513  1.3065
 1975SOL    HW217559   3.654   2.771  13.923  0.0115 -1.0487 -1.0323
 1976SOL     OW17560   1.689   2.734   6.278 -0.3555 -0.0227 -0.0134
 1976SOL    HW117561   1.597   2.737   6.306 -0.2966 -0.8528  0.2748
 1976SOL    HW217562   1.730   2.773   6.355 -1.4575  1.1392 -0.0296
 1977SOL     OW17563   1.090   4.072   2.583  0.1067 -0.0827  0.3836
 1977SOL    HW117564   1.165   4.125   2.559  0.6446 -0.8243  0.4270
 1977SOL    HW217565   1.116   4.053   2.673 -2.3126  0.3015  1.1793
 1978SOL     OW17566   1.870   2.624   1.582 -0.7862 -0.3815  0.2820
 1978SOL    HW117567   1.873   2.709   1.536 -1.3808 -0.2466  0.4968
 1978SOL    HW217568   1.775   2.620   1.590 -0.5849 -0.0155  2.7224
 1979SOL     OW17569   3.270   4.313   7.157 -0.6378  0.1365  0.2083
 1979SOL    HW117570   3.224   4.352   7.083  1.9332  1.2349 -0.7904
 1979SOL    HW217571   3.204   4.331   7.224  0.9490  1.8012  1.3354
 1980SOL     OW17572   0.625   0.390  17.267  0.7605 -0.7618  0.1319
 1980SOL    HW117573   0.663   0.310  17.232 -1.1986 -1.4727 -0.3728
 1980SOL    HW217574   0.653   0.453  17.200 -0.6886 -2.3927 -2.0275
 1981SOL     OW17575   0.707   4.637   5.387 -0.0450 -0.2481  0.5936
 1981SOL    HW117576   0.674   4.623   5.298  0.7336 -1.5010  0.5042
 1981SOL    HW217577   0.658   4.562   5.422 -1.6896  0.6629  0.2537
 1982SOL     OW17578   4.011   2.572  16.681 -0.8614 -0.1862 -0.0298
 1982SOL    HW117579   3.954   2.589  16.605 -1.7832 -0.1595  0.6747
 1982SOL    HW217580   4.094   2.613  16.659 -0.5247 -0.0174  1.5949
 1983SOL     OW17581   4.159   2.687   5.665  0.2457  1.1264 -0.2758
 1983SOL    HW117582   4.065   2.669   5.676  0.9636 -0.7150  2.8024
 1983SOL    HW217583   4.180   2.636   5.587 -1.6160  0.4824 -0.3782
 1984SOL     OW17584   0.516   2.752  11.984 -0.0558 -0.2969  0.2684
 1984SOL    HW117585   0.438   2.766  12.038 -0.7712  0.3769 -0.9268
 1984SOL    HW217586   0.478   2.740  11.896 -0.4030  0.4465  0.3187
 1985SOL     OW17587   2.980   1.573   3.069  0.3139  0.6607  0.1618
 1985SOL    HW117588   2.891   1.581   3.033  0.1193  0.5548  0.6208
 1985SOL    HW217589   3.028   1.577   2.987  1.3242 -2.1269  0.6173
 1986SOL     OW17590   2.754   1.439   3.337  0.4498  0.4816 -0.0687
 1986SOL    HW117591   2.822   1.371   3.329 -0.7220 -0.8243  1.0970
 1986SOL    HW217592   2.735   1.438   3.243 -1.2575 -0.0371  0.2874
 1987SOL     OW17593   1.315   2.059  15.512 -0.4119 -0.0627  0.4698
 1987SOL    HW117594   1.243   2.048  15.449  1.1762  1.4979 -1.6079
 1987SOL    HW217595   1.390   2.089  15.460 -0.2438 -1.6852 -0.2128
 1988SOL     OW17596   4.383   2.381   7.151 -0.3569 -0.0574 -0.2676
 1988SOL    HW117597   4.457   2.327   7.179  1.0764  0.8975 -2.2173
 1988SOL    HW217598   4.341   2.315   7.095  1.3025  0.2145 -1.8335
 1989SOL     OW17599   4.285   3.407   2.289  0.1638  0.3870 -0.1115
 1989SOL    HW117600   4.332   3.337   2.243  1.1339 -0.5606  2.3221
 1989SOL    HW217601   4.344   3.426   2.362  1.2587 -1.7679 -0.4394
 1990SOL     OW17602   3.801   4.511   8.358  0.0631  0.3464  0.4624
 1990SOL    HW117603   3.863   4.584   8.349 -1.7398  1.9067  0.6481
 1990SOL    HW217604   3.786   4.497   8.264  1.6440 -0.3824  0.3188
 1991SOL     OW17605   3.351   0.665   2.037  0.2359 -0.6571 -0.0224
 1991SOL    HW117606   3.380   0.577   2.063  0.0075 -0.5685  0.5342
 1991SOL    HW217607   3.433   0.706   2.010  1.4720 -2.8207  0.3762
 1992SOL     OW17608   2.258   1.880   4.771 -0.0319 -0.0076 -0.1808
 1992SOL    HW117609   2.319   1.880   4.697 -1.2663 -0.3193 -1.2105
 1992SOL    HW217610   2.192   1.945   4.748  3.1308  2.1662 -3.2720
 1993SOL     OW17611   0.054   3.702   9.821 -0.4620  0.2283  0.5394
 1993SOL    HW117612   0.019   3.679   9.907 -1.8335  0.6324  0.0955
 1993SOL    HW217613   0.128   3.642   9.825 -0.4715  0.1742 -0.0429
 1994SOL     OW17614   0.576   0.970   8.225 -0.2975  0.0568 -0.1707
 1994SOL    HW117615   0.539   1.057   8.242  0.1634  0.2307 -0.0564
 1994SOL    HW217616   0.646   0.990   8.163 -1.8685 -1.2665 -2.3876
 1995SOL     OW17617   0.634   1.014  13.864  0.0925 -0.0204 -0.3537
 1995SOL    HW117618   0.552   0.978  13.829  0.4633  1.3463 -2.6276
 1995SOL    HW217619   0.618   1.108  13.860 -0.9606 -0.2398 -1.1643
 1996SOL     OW17620   0.264   2.973   7.794 -0.1166  0.4405 -0.6772
 1996SOL    HW117621   0.313   3.055   7.802  0.9262 -0.3263  0.8237
 1996SOL    HW217622   0.309   2.915   7.856  1.3729  1.1872 -1.0462
 1997SOL     OW17623   4.658   4.186   3.691 -1.1166  0.3246 -0.4134
 1997SOL    HW117624   4.568   4.181   3.660 -1.1610 -1.9901  0.0661
 1997SOL    HW217625   4.666   4.113   3.752  0.1590  1.0991  0.3686
 1998SOL     OW17626   0.173   4.699   3.717 -0.4807 -0.0217 -0.0743
 1998SOL    HW117627   0.235   0.026   3.687 -0.5691  0.3313  0.5336
 1998SOL    HW217628   0.176   4.633   3.647  1.4499  0.7097 -0.6685
 1999SOL     OW17629   4.601   1.842  11.315 -0.6624 -0.7147  0.5983
 1999SOL    HW117630   4.623   1.750  11.326 -1.8791 -0.5822  4.0002
 1999SOL    HW217631   4.646   1.880  11.391 -0.9969 -0.1577  0.5197
 2000SOL     OW17632   0.864   3.199  13.663  0.5272 -0.3101  0.2906
 2000SOL    HW117633   0.910   3.279  13.638 -2.1018  1.1398  0.0526
 2000SOL    HW217634   0.792   3.245  13.707  0.6178  0.7126 -0.6296
 2001SOL     OW17635   2.547   3.579   8.336 -0.4597 -0.4308 -0.0455
 2001SOL    HW117636   2.550   3.672   8.312 -0.5832 -0.6232 -0.8080
 2001SOL    HW217637   2.454   3.562   8.323 -0.4548  0.2285 -0.9922
 2002SOL     OW17638   2.366   4.586   6.761 -0.2226 -0.0942  0.2496
 2002SOL    HW117639   2.347   4.591   6.667 -1.3713  1.0641  0.5463
 2002SOL    HW217640   2.460   4.599   6.766 -0.1783 -0.8228  1.4514
 2003SOL     OW17641   1.791   4.655   8.380  0.5948 -0.1943  0.0457
 2003SOL    HW117642   1.726   4.721   8.402  1.0499 -0.0037  0.8135
 2003SOL    HW217643   1.815   4.616   8.464 -2.8757  0.7713  1.4896
 2004SOL     OW17644   4.227   1.121   4.383  0.1654  0.4761 -0.1980
 2004SOL    HW117645   4.229   1.216   4.378  0.2038  0.5484  1.3368
 2004SOL    HW217646   4.132   1.108   4.373  0.5936 -2.1329 -0.8414
 2005SOL     OW17647   2.913   0.395   5.658  0.0559  0.1411 -0.0987
 2005SOL    HW117648   2.889   0.481   5.624  0.0562  0.3086  0.3359
 2005SOL    HW217649   2.824   0.358   5.654 -0.3353  0.8657  2.0447
 2006SOL     OW17650   4.432   1.383   1.620  0.2429  0.7137  0.0336
 2006SOL    HW117651   4.389   1.340   1.545 -0.8397 -0.5761  1.3919
 2006SOL    HW217652   4.499   1.435   1.575  0.5669  1.0665  0.9406
 2007SOL     OW17653   4.626   0.464  12.822  0.6204 -0.0789  0.1825
 2007SOL    HW117654   4.711   0.507  12.835  1.0016 -0.4164 -1.2742
 2007SOL    HW217655   4.642   0.386  12.876 -1.3984 -0.5749  0.0703
 2008SOL     OW17656   4.334   3.271  11.809 -0.0906 -0.1399  0.2818
 2008SOL    HW117657   4.301   3.224  11.733 -2.2800 -1.7765  2.2136
 2008SOL    HW217658   4.420   3.299  11.781 -0.0943 -0.5646 -0.1473
 2009SOL     OW17659   0.759   2.627   8.426  0.2877 -0.3249  0.4925
 2009SOL    HW117660   0.841   2.674   8.436  1.0072 -1.1505 -1.5434
 2009SOL    HW217661   0.749   2.646   8.332 -0.9663 -0.5337  0.5809
 2010SOL     OW17662   1.936   1.717   7.459  0.1944  0.3535 -0.2276
 2010SOL    HW117663   1.874   1.657   7.499  2.0446 -1.9874 -0.8307
 2010SOL    HW217664   2.020   1.686   7.493  0.6115  0.3950 -1.2087
 2011SOL     OW17665   3.942   0.474   1.264 -0.3618 -0.3875 -0.6144
 2011SOL    HW117666   3.985   0.556   1.288 -0.7515 -0.6457  0.9220
 2011SOL    HW217667   3.893   0.458   1.344 -1.1083  1.3867 -0.7254
 2012SOL     OW17668   4.579   1.589  12.732  0.2339 -0.0391  0.8203
 2012SOL    HW117669   4.560   1.600  12.825  2.8146 -0.1980  1.3538
 2012SOL    HW217670   4.554   1.675  12.698  1.4781 -0.6375 -1.6629
 2013SOL     OW17671   4.560   0.989  15.774 -0.3184  0.1268  0.2787
 2013SOL    HW117672   4.612   1.065  15.748  0.7508 -1.0611 -1.0408
 2013SOL    HW217673   4.595   0.917  15.722 -0.6518  0.6741 -0.7045
 2014SOL     OW17674   4.303   3.258  14.962 -0.3238 -0.0090  0.8804
 2014SOL    HW117675   4.264   3.187  14.911 -2.0982  0.2782  1.8349
 2014SOL    HW217676   4.393   3.260  14.929 -0.2320  0.5993  1.1780
 2015SOL     OW17677   2.702   1.182   9.147  0.2638 -0.3197 -0.5595
 2015SOL    HW117678   2.630   1.171   9.208  1.2967 -0.8971  0.5658
 2015SOL    HW217679   2.771   1.189   9.213 -0.7531 -0.1521  0.4867
 2016SOL     OW17680   4.510   1.778   6.934  0.1814  0.1979  0.2861
 2016SOL    HW117681   4.451   1.843   6.895 -0.4706 -0.2130  0.5777
 2016SOL    HW217682   4.495   1.712   6.866 -0.6525  0.2081  0.4535
 2017SOL     OW17683   0.126   0.225   6.927  0.0738 -0.0090 -0.0009
 2017SOL    HW117684   0.100   0.146   6.880 -0.6850  0.8876 -1.0854
 2017SOL    HW217685   0.177   0.277   6.864 -1.2153  1.7417  0.3994
 2018SOL     OW17686   3.872   2.117   6.483 -0.5347  0.0498  0.1741
 2018SOL    HW117687   3.938   2.141   6.418 -0.0729  0.0842  0.6556
 2018SOL    HW217688   3.921   2.112   6.565  0.5513  0.5867 -0.4478
 2019SOL     OW17689   3.944   0.526   2.363  0.1511 -0.3013  0.4806
 2019SOL    HW117690   3.937   0.548   2.456  2.1974  1.6812  0.1620
 2019SOL    HW217691   3.993   0.601   2.330  0.7249 -1.4231 -1.2279
 2020SOL     OW17692   2.949   1.961   7.438  0.0319 -0.2671  0.4204
 2020SOL    HW117693   2.964   1.974   7.531  2.6062 -0.5615  0.0223
 2020SOL    HW217694   2.884   2.030   7.421  0.2738 -0.1509 -0.0301
 2021SOL     OW17695   2.039   2.233  13.320  0.2441 -0.7926  0.6615
 2021SOL    HW117696   2.043   2.289  13.243 -0.1891 -1.7925 -0.0902
 2021SOL    HW217697   2.123   2.250  13.361  0.8012 -1.4300 -0.2271
 2022SOL     OW17698   3.820   1.578  14.212 -0.1303 -0.0141 -0.3496
 2022SOL    HW117699   3.807   1.636  14.287  1.8701  1.3563 -1.0536
 2022SOL    HW217700   3.726   1.562  14.203 -0.7024  1.5191  2.9694
 2023SOL     OW17701   0.362   4.199   3.703 -0.0842  0.4230  0.4045
 2023SOL    HW117702   0.320   4.135   3.759 -0.5852  1.9050  1.7349
 2023SOL    HW217703   0.295   4.267   3.716 -0.4763  0.3572 -1.3086
 2024SOL     OW17704   0.903   4.305   6.286  0.0898  0.1608  0.5083
 2024SOL    HW117705   0.817   4.287   6.325  0.7590 -1.3744  1.2693
 2024SOL    HW217706   0.922   4.225   6.237 -1.1078  0.5122 -0.5577
 2025SOL     OW17707   3.196   3.870   6.544 -0.3130 -0.3518  0.3806
 2025SOL    HW117708   3.275   3.836   6.586  2.2589  0.2323 -4.0221
 2025SOL    HW217709   3.173   3.804   6.478  2.3682 -0.3338 -0.5738
 2026SOL     OW17710   1.025   2.349   3.650 -0.1815  0.0424  0.1794
 2026SOL    HW117711   1.022   2.443   3.636 -1.2015  0.1028  0.8282
 2026SOL    HW217712   1.085   2.320   3.581 -0.0967 -0.5944  0.5199
 2027SOL     OW17713   3.599   1.395   2.643  0.1435 -0.0626 -0.2447
 2027SOL    HW117714   3.639   1.321   2.598 -1.6701  0.6290 -2.9383
 2027SOL    HW217715   3.681   1.431   2.679 -0.2939  0.0642  0.6357
 2028SOL     OW17716   4.370   2.889   7.431 -0.2219 -0.3726  0.1149
 2028SOL    HW117717   4.396   2.980   7.448 -0.9693 -0.1365 -0.0063
 2028SOL    HW217718   4.435   2.848   7.488  0.2563 -3.0286 -2.3388
 2029SOL     OW17719   3.756   0.824   6.341 -0.3835 -0.4461 -0.3967
 2029SOL    HW117720   3.807   0.807   6.261  0.7663  0.1503  0.2066
 2029SOL    HW217721   3.721   0.740   6.370 -2.7940  0.7603  0.1567
 2030SOL     OW17722   3.880   2.809   2.559 -0.2583 -0.0790 -0.4951
 2030SOL    HW117723   3.837   2.725   2.540  3.2132 -1.7479 -0.8573
 2030SOL    HW217724   3.825   2.826   2.636 -0.2457  0.3670 -0.5891
 2031SOL     OW17725   0.282   2.067   0.903 -0.0765 -0.1434  0.0090
 2031SOL    HW117726   0.188   2.046   0.905 -0.1586  0.2135 -0.1295
 2031SOL    HW217727   0.296   2.105   0.989  1.5715 -0.0973 -0.2824
 2032SOL     OW17728   4.117   4.463   5.158  0.3551 -0.1310 -0.0862
 2032SOL    HW117729   4.085   4.519   5.228  0.5223  1.8636 -1.5865
 2032SOL    HW217730   4.162   4.396   5.209 -1.0234  0.3446  1.7597
 2033SOL     OW17731   2.496   2.099   6.387 -0.4378  0.0166 -0.1900
 2033SOL    HW117732   2.406   2.069   6.403 -0.3586  0.0685  0.3570
 2033SOL    HW217733   2.543   2.049   6.455  3.2986  1.3520 -1.7815
 2034SOL     OW17734   3.806   3.703   6.443 -0.1875 -0.2977  1.0077
 2034SOL    HW117735   3.891   3.733   6.474 -0.3384  0.7107  0.4368
 2034SOL    HW217736   3.765   3.785   6.416 -0.4102 -0.8699 -0.4006
 2035SOL     OW17737   3.608   0.060   2.013  0.5450 -0.4226 -0.5140
 2035SOL    HW117738   3.643   0.140   2.053 -2.5434  1.0292 -0.7081
 2035SOL    HW217739   3.518   0.071   2.043  0.8616  3.3273 -0.9546
 2036SOL     OW17740   3.863   4.065   3.527 -0.2623 -0.4678 -0.1395
 2036SOL    HW117741   3.787   4.037   3.579  0.2186 -1.2771  0.1242
 2036SOL    HW217742   3.816   4.120   3.464 -1.5451 -3.5493 -1.8406
 2037SOL     OW17743   4.388   3.192   4.242 -0.5969  0.5333 -0.0719
 2037SOL    HW117744   4.331   3.151   4.176 -1.8481  0.2075  1.2031
 2037SOL    HW217745   4.346   3.188   4.328 -1.7479 -0.6000 -0.6816
 2038SOL     OW17746   2.651   4.709   3.367 -0.2460  0.5068  0.0847
 2038SOL    HW117747   2.568   4.702   3.319  1.8613 -1.2317 -3.2889
 2038SOL    HW217748   2.622   4.721   3.457 -1.6917 -2.5019  0.0004
 2039SOL     OW17749   2.851   0.529   3.867  0.1344 -0.3092 -0.2722
 2039SOL    HW117750   2.789   0.602   3.858 -0.1129 -0.6180 -1.1357
 2039SOL    HW217751   2.877   0.549   3.956 -0.6660  0.7128 -0.2674
 2040SOL     OW17752   0.028   1.052   1.561  0.1463  0.4435  0.0406
 2040SOL    HW117753   0.082   1.081   1.488 -2.4179  0.9986 -1.6054
 2040SOL    HW217754   0.070   0.974   1.598 -2.2635 -0.1333  1.5052
 2041SOL     OW17755   0.001   4.001   5.124  0.3312  0.3988 -0.4023
 2041SOL    HW117756   4.737   3.908   5.147  0.3506  0.9824  1.9035
 2041SOL    HW217757   4.663   4.007   5.068 -0.8137  0.4022  1.1987
 2042SOL     OW17758   1.350   1.496   6.679 -0.0913  0.0196  0.2440
 2042SOL    HW117759   1.324   1.419   6.729 -1.3566 -2.4056 -4.2275
 2042SOL    HW217760   1.362   1.451   6.596  2.2993  0.8147  0.1704
 2043SOL     OW17761   3.249   3.454   5.380 -0.4037 -0.2992 -0.0158
 2043SOL    HW117762   3.228   3.535   5.427 -0.5212  0.1966 -0.9276
 2043SOL    HW217763   3.158   3.424   5.374 -0.9890  1.2402  1.0147
 2044SOL     OW17764   1.204   2.014   3.186 -0.0662 -0.5659  0.8096
 2044SOL    HW117765   1.141   2.070   3.141  1.3549  1.1728  0.9688
 2044SOL    HW217766   1.273   2.080   3.189 -1.4720  0.9362  0.2915
 2045SOL     OW17767   3.303   3.197  15.306  0.2295  0.4701  0.4728
 2045SOL    HW117768   3.307   3.150  15.223 -1.6864 -3.0098  2.3445
 2045SOL    HW217769   3.222   3.246  15.301 -0.3100 -0.3103  1.4781
 2046SOL     OW17770   3.636   0.513   4.937  0.2723 -0.7019 -0.3423
 2046SOL    HW117771   3.586   0.489   4.859  0.0375  0.8041 -0.6499
 2046SOL    HW217772   3.717   0.542   4.894  1.2677 -0.8414  1.4250
 2047SOL     OW17773   1.248   3.178   9.420 -0.3716  0.1999 -0.4534
 2047SOL    HW117774   1.313   3.138   9.362 -0.4061  1.7516 -1.5768
 2047SOL    HW217775   1.305   3.238   9.468 -1.2104  0.3432  0.3472
 2048SOL     OW17776   1.453   3.343  16.172 -0.4009  0.3826  0.3363
 2048SOL    HW117777   1.387   3.370  16.108 -0.7822  2.7166  1.7129
 2048SOL    HW217778   1.502   3.280  16.118 -3.4566 -1.2900 -0.4833
 2049SOL     OW17779   2.887   1.927   2.663  0.5567 -1.1298 -0.0090
 2049SOL    HW117780   2.805   1.947   2.618  1.0531 -1.3372 -1.0153
 2049SOL    HW217781   2.911   1.998   2.722 -1.2330 -0.7091  0.2273
 2050SOL     OW17782   0.153   0.503   8.568 -0.1526  0.2869  0.2141
 2050SOL    HW117783   0.068   0.545   8.561 -0.4464 -0.4194 -0.3949
 2050SOL    HW217784   0.208   0.580   8.552  2.5211 -1.6238  0.2574
 2051SOL     OW17785   3.399   0.438  16.688  0.1745 -0.0647  0.2137
 2051SOL    HW117786   3.459   0.373  16.724  0.8893  1.6958  2.2121
 2051SOL    HW217787   3.454   0.516  16.694  0.2275 -0.0848 -0.0015
 2052SOL     OW17788   0.701   1.740  13.680  0.2845 -0.5652 -0.3374
 2052SOL    HW117789   0.769   1.795  13.718 -0.0398 -1.2225  1.2251
 2052SOL    HW217790   0.638   1.808  13.659  1.9584  1.1131  0.0996
 2053SOL     OW17791   1.013   1.999   4.694 -0.6019  0.1816  0.7576
 2053SOL    HW117792   1.057   2.080   4.720  0.7221 -0.1629 -0.4129
 2053SOL    HW217793   1.074   1.970   4.626 -0.1935 -1.1227  1.6970
 2054SOL     OW17794   3.322   3.076   8.586  0.8664  0.3078  0.0697
 2054SOL    HW117795   3.238   3.029   8.590  0.0734  1.5209 -2.7458
 2054SOL    HW217796   3.355   3.067   8.676 -1.6199 -1.7837  0.7651
 2055SOL     OW17797   3.054   3.973   6.955  0.1198 -0.3316  0.2403
 2055SOL    HW117798   2.992   3.986   7.027  0.3940 -0.1053  0.4377
 2055SOL    HW217799   3.139   3.960   6.997 -0.8053 -1.1128  1.8759
 2056SOL     OW17800   1.070   2.091   5.854  0.3049 -0.0955 -0.2004
 2056SOL    HW117801   1.136   2.108   5.922 -0.9818 -1.7335  1.4347
 2056SOL    HW217802   1.058   1.998   5.871  1.6397  0.0044  1.2652
 2057SOL     OW17803   1.331   0.840  17.345 -0.2636  0.0630  0.0637
 2057SOL    HW117804   1.280   0.773  17.300  0.4312 -1.1732  1.1017
 2057SOL    HW217805   1.407   0.791  17.376  1.8663  1.5040 -2.8945
 2058SOL     OW17806   3.778   0.001   0.888  0.4256  0.5506 -0.1710
 2058SOL    HW117807   3.842   0.065   0.918 -0.6970  1.4012  0.4272
 2058SOL    HW217808   3.822   4.657   0.903 -1.4778 -0.6671 -1.3182
 2059SOL     OW17809   1.472   0.688   4.585  0.0318 -0.3840 -0.4140
 2059SOL    HW117810   1.471   0.593   4.568 -0.9249 -0.1928 -1.4213
 2059SOL    HW217811   1.505   0.692   4.675  0.8408  2.8501 -0.8905
 2060SOL     OW17812   1.929   3.283   8.360 -0.0989 -0.1185  0.2050
 2060SOL    HW117813   1.859   3.308   8.299  0.1884 -1.0784 -0.5192
 2060SOL    HW217814   1.948   3.370   8.395  0.3140 -0.1844  0.1421
 2061SOL     OW17815   0.908   2.149   5.488  0.1953  0.0821  0.1133
 2061SOL    HW117816   0.863   2.075   5.447 -0.3793 -0.7163  2.2259
 2061SOL    HW217817   0.999   2.121   5.497  0.3780  0.8379  0.6384
 2062SOL     OW17818   3.297   3.341   8.496  0.2190 -0.0103 -0.9814
 2062SOL    HW117819   3.321   3.383   8.579 -2.0876 -1.7255  0.5265
 2062SOL    HW217820   3.313   3.248   8.514 -0.1737  0.2757  0.8943
 2063SOL     OW17821   3.448   3.095   7.948  0.3564 -0.4344  0.2695
 2063SOL    HW117822   3.539   3.066   7.945  0.1206 -1.3172  2.2481
 2063SOL    HW217823   3.407   3.029   8.004  0.0746 -0.0057  0.5704
 2064SOL     OW17824   0.682   2.689  10.130  0.5701 -0.4374 -0.1487
 2064SOL    HW117825   0.633   2.725  10.056 -0.3256 -0.4480  0.4333
 2064SOL    HW217826   0.610   2.655  10.184  0.1892  0.5988 -0.0164
 2065SOL     OW17827   0.050   3.551   5.432  1.3929  0.3008  0.3302
 2065SOL    HW117828   0.041   3.460   5.404 -0.9314  0.4544  0.5783
 2065SOL    HW217829   4.717   3.566   5.492  0.4747 -1.7555 -0.2440
 2066SOL     OW17830   1.523   4.712   3.464 -0.0213  0.5787  0.3637
 2066SOL    HW117831   1.492   4.717   3.374 -0.4684 -1.1932  0.4211
 2066SOL    HW217832   1.441   4.704   3.513 -0.2741 -1.2751 -0.3663
 2067SOL     OW17833   3.632   1.830   8.136  0.0915 -0.1224 -0.4190
 2067SOL    HW117834   3.723   1.852   8.120  0.8122 -1.0903  2.3691
 2067SOL    HW217835   3.643   1.791   8.223 -2.3668  2.7627  1.1676
 2068SOL     OW17836   2.935   3.958   1.389  0.4937 -0.0218  0.1812
 2068SOL    HW117837   2.957   3.892   1.454 -0.2550  0.1088  0.5719
 2068SOL    HW217838   3.021   3.976   1.350 -0.0283 -0.8012 -1.3291
 2069SOL     OW17839   0.302   0.064   8.601  0.9402 -0.2631  0.0437
 2069SOL    HW117840   0.287   4.738   8.533 -1.3272  0.0620  0.2442
 2069SOL    HW217841   0.362   0.015   8.657  2.1131 -0.3868 -1.3271
 2070SOL     OW17842   3.547   1.469  13.525 -0.4994 -0.4642  0.4294
 2070SOL    HW117843   3.524   1.520  13.603 -1.0401 -0.8302  0.5109
 2070SOL    HW217844   3.459   1.454  13.489 -0.2918  1.0947 -0.7013
 2071SOL     OW17845   0.670   2.050   6.424  0.5147  0.3361 -0.1318
 2071SOL    HW117846   0.685   2.140   6.397 -1.3826  1.6881  3.4179
 2071SOL    HW217847   0.582   2.044   6.387  0.4685  4.1738 -0.6556
 2072SOL     OW17848   2.693   2.569   9.280 -0.1471 -0.0281  0.0418
 2072SOL    HW117849   2.672   2.647   9.332  0.9759 -0.9963  1.9199
 2072SOL    HW217850   2.605   2.536   9.264 -0.0818 -1.4116  2.6385
 2073SOL     OW17851   3.593   1.480   3.046  0.6157  0.2778  0.2472
 2073SOL    HW117852   3.536   1.518   3.113  0.0237  0.4108 -0.3325
 2073SOL    HW217853   3.642   1.418   3.100 -0.6739  1.4560  2.7703
 2074SOL     OW17854   1.990   0.482   6.056 -0.1285 -0.2475  0.5155
 2074SOL    HW117855   2.037   0.512   5.979 -1.4857 -0.6243 -0.4539
 2074SOL    HW217856   1.983   0.566   6.101  0.5513  0.1879 -0.2084
 2075SOL     OW17857   2.253   2.501   9.691 -0.3273  0.7279  0.3730
 2075SOL    HW117858   2.207   2.575   9.732  0.8044  1.7913 -0.2653
 2075SOL    HW217859   2.266   2.438   9.762  3.0000  2.9599  1.7926
 2076SOL     OW17860   3.157   1.526   5.267 -0.3653 -0.3218 -0.2067
 2076SOL    HW117861   3.101   1.449   5.266  0.4803 -0.9245 -1.1010
 2076SOL    HW217862   3.217   1.498   5.198  0.4630 -4.0088  2.0368
 2077SOL     OW17863   1.760   3.839  10.356 -0.3476 -0.1548  0.2497
 2077SOL    HW117864   1.781   3.765  10.300  0.2879 -1.0000  1.5988
 2077SOL    HW217865   1.683   3.809  10.404  0.3605 -0.8208  0.9829
 2078SOL     OW17866   1.205   0.354   1.010  0.0683 -0.1570  0.3768
 2078SOL    HW117867   1.286   0.405   1.018  0.6736 -0.8897 -1.1738
 2078SOL    HW217868   1.144   0.425   0.987  0.4440  0.0586  0.0419
 2079SOL     OW17869   2.135   3.334   1.683 -0.3117 -0.3653 -0.2385
 2079SOL    HW117870   2.148   3.407   1.622  0.2719  0.4644  0.8883
 2079SOL    HW217871   2.163   3.263   1.625  1.5055 -1.3685  1.8982
 2080SOL     OW17872   0.114   3.445   8.048  0.0388 -0.3684  0.0138
 2080SOL    HW117873   0.103   3.367   7.994  0.8506  0.3716 -1.2092
 2080SOL    HW217874   0.121   3.419   8.139 -0.5660  2.1095  0.7800
 2081SOL     OW17875   4.739   4.301   1.457  0.3704 -0.0000 -0.5950
 2081SOL    HW117876   0.038   4.264   1.377  1.6190  1.4819 -0.6679
 2081SOL    HW217877   4.645   4.283   1.452  0.6996 -1.7878 -0.3121
 2082SOL     OW17878   1.744   3.369   3.794 -0.2233 -0.2930 -0.7648
 2082SOL    HW117879   1.753   3.290   3.848  0.5809 -0.3707 -1.0142
 2082SOL    HW217880   1.810   3.360   3.725  2.1975  2.8057  1.1680
 2083SOL     OW17881   1.105   0.771   2.711 -0.0747 -0.6836  0.2126
 2083SOL    HW117882   1.158   0.722   2.773  1.8746  1.1820  0.0434
 2083SOL    HW217883   1.079   0.709   2.643 -1.9250 -0.0555  0.3167
 2084SOL     OW17884   0.767   2.312   6.356 -0.0309  1.1124  0.2425
 2084SOL    HW117885   0.772   2.386   6.296 -2.2389  0.6787 -0.4562
 2084SOL    HW217886   0.856   2.278   6.362  0.3632  1.8671 -1.3160
 2085SOL     OW17887   1.249   3.887  12.787  0.2388  0.2135 -0.3051
 2085SOL    HW117888   1.170   3.837  12.767  1.7746 -2.3911  0.1789
 2085SOL    HW217889   1.320   3.842  12.741 -0.0175 -0.8467  0.3193
 2086SOL     OW17890   3.067   0.926   6.591 -0.1702 -0.6350  0.5287
 2086SOL    HW117891   3.082   1.002   6.534  0.0948 -0.3373  0.9943
 2086SOL    HW217892   3.152   0.888   6.573  0.4883  2.2253 -2.4059
 2087SOL     OW17893   4.229   3.193   4.458  0.2034 -0.1161  0.1763
 2087SOL    HW117894   4.168   3.120   4.446  0.7997 -0.8368  1.5513
 2087SOL    HW217895   4.170   3.264   4.487  0.1303  0.0497 -0.3771
 2088SOL     OW17896   1.129   0.867   4.191  0.1594 -0.2495  0.0451
 2088SOL    HW117897   1.060   0.803   4.209 -1.2593  0.9547 -1.0627
 2088SOL    HW217898   1.207   0.841   4.240  2.1420  0.8257 -2.5429
 2089SOL     OW17899   3.504   0.651   6.645 -0.4256  0.5138 -0.0263
 2089SOL    HW117900   3.539   0.734   6.676 -0.7452 -0.4719  2.9401
 2089SOL    HW217901   3.555   0.632   6.567 -2.2833 -1.0559 -0.8594
 2090SOL     OW17902   3.447   4.720   5.901  0.1297  0.4131  0.1121
 2090SOL    HW117903   3.442   4.626   5.917 -1.1104  0.5465  0.5003
 2090SOL    HW217904   3.535   4.725   5.939 -0.8982  0.7325  2.4508
 2091SOL     OW17905   1.622   3.279   4.779 -0.6773  0.8807 -0.1786
 2091SOL    HW117906   1.683   3.217   4.739 -1.1060  0.9880 -1.0025
 2091SOL    HW217907   1.569   3.315   4.708  0.6267  0.6223 -1.2800
 2092SOL     OW17908   0.215   1.367   5.896  0.2277 -0.2497  0.5058
 2092SOL    HW117909   0.231   1.294   5.836 -1.3176 -0.9441  0.9430
 2092SOL    HW217910   0.136   1.409   5.863 -0.5196 -1.0518  1.2863
 2093SOL     OW17911   1.985   2.986   7.636 -0.4532  0.2368 -0.2174
 2093SOL    HW117912   1.911   3.037   7.605 -0.6346  0.9155  1.3298
 2093SOL    HW217913   2.064   3.029   7.602 -0.2226 -0.0493 -0.0414
 2094SOL     OW17914   4.394   3.336   7.286  0.3327 -0.5036 -0.2799
 2094SOL    HW117915   4.399   3.431   7.289 -0.1495 -0.5353  1.2222
 2094SOL    HW217916   4.487   3.314   7.276 -0.0799 -1.6606 -1.6236
 2095SOL     OW17917   1.851   2.267   7.444 -0.6420 -0.6030 -0.3311
 2095SOL    HW117918   1.935   2.246   7.403 -1.4328 -2.8831 -0.7924
 2095SOL    HW217919   1.834   2.179   7.478 -0.5731 -0.4478  0.1035
 2096SOL     OW17920   4.672   4.319   2.191  0.0949  0.1645 -0.1045
 2096SOL    HW117921   4.585   4.331   2.152  0.1839 -0.1497 -0.4028
 2096SOL    HW217922   4.724   4.351   2.117 -0.2700  1.9717  0.4240
 2097SOL     OW17923   0.481   0.366   1.990  0.2160  0.4693 -0.0793
 2097SOL    HW117924   0.451   0.307   1.921 -3.0052  0.1495  1.5585
 2097SOL    HW217925   0.493   0.451   1.948 -2.3852  0.4011 -0.9601
 2098SOL     OW17926   3.325   1.842   8.752 -0.1463 -0.4493  0.3769
 2098SOL    HW117927   3.345   1.752   8.777 -1.1636 -0.4423  1.2098
 2098SOL    HW217928   3.306   1.879   8.838  1.2788 -2.4225  1.5455
 2099SOL     OW17929   3.658   0.911  13.579 -0.1011 -0.4588  0.3741
 2099SOL    HW117930   3.740   0.954  13.555 -0.8252  1.7225  1.8234
 2099SOL    HW217931   3.603   0.982  13.609  0.9096  0.8390 -0.8331
 2100SOL     OW17932   0.540   2.499   1.522  0.0912  0.3060  0.2605
 2100SOL    HW117933   0.456   2.479   1.481 -0.4221  1.5218  0.7109
 2100SOL    HW217934   0.589   2.417   1.520 -2.7541 -1.3466 -0.1136
 2101SOL     OW17935   1.728   3.919   3.554  0.2662  0.2053 -0.1878
 2101SOL    HW117936   1.675   3.968   3.617  0.2794  0.9597 -0.7640
 2101SOL    HW217937   1.760   3.986   3.495  1.8304 -0.4689 -0.0882
 2102SOL     OW17938   3.197   2.265   4.723 -0.0849 -0.3968 -0.6980
 2102SOL    HW117939   3.106   2.294   4.731 -0.2157 -1.2011  0.7209
 2102SOL    HW217940   3.244   2.346   4.743 -0.4784 -0.2262 -0.4676
 2103SOL     OW17941   1.313   4.639   2.446 -0.0091  0.0892  0.0556
 2103SOL    HW117942   1.364   4.637   2.366  0.2483 -0.8370  0.2415
 2103SOL    HW217943   1.271   4.725   2.446  1.4663  0.7980 -0.8546
 2104SOL     OW17944   1.312   1.882   6.991 -0.7055  0.1720  0.3310
 2104SOL    HW117945   1.259   1.853   7.065 -1.9385  0.5229 -0.4094
 2104SOL    HW217946   1.294   1.814   6.926 -0.1795  0.1330  0.2292
 2105SOL     OW17947   1.938   1.391  10.647 -0.3691  0.0692 -0.5196
 2105SOL    HW117948   1.959   1.299  10.632 -1.1394 -0.1968  0.0615
 2105SOL    HW217949   1.856   1.388  10.695 -0.5187  0.9648 -0.7106
 2106SOL     OW17950   4.608   3.795   0.375  0.1441 -0.4154 -0.4456
 2106SOL    HW117951   4.534   3.741   0.403 -0.3944  1.8576  2.4762
 2106SOL    HW217952   4.584   3.799   0.283 -1.1898 -0.3936 -0.0895
 2107SOL     OW17953   1.462   4.300   9.145 -0.1552  0.5146  0.5393
 2107SOL    HW117954   1.522   4.227   9.160  1.8098  1.6244 -1.9128
 2107SOL    HW217955   1.475   4.351   9.225 -1.2872 -1.4908  1.9913
 2108SOL     OW17956   4.234   2.577  15.985 -0.7387  0.1722  0.2942
 2108SOL    HW117957   4.294   2.648  15.964  2.0658 -2.2589  0.0983
 2108SOL    HW217958   4.230   2.543  15.896 -2.4999 -3.0338  1.6122
 2109SOL     OW17959   2.219   0.214   4.252  0.2540  0.2007  0.0544
 2109SOL    HW117960   2.189   0.257   4.172  0.9738  1.7418  0.5988
 2109SOL    HW217961   2.274   0.286   4.282  1.6205 -1.3904  1.3642
 2110SOL     OW17962   3.559   0.345   1.267  0.0223 -0.6091 -0.5680
 2110SOL    HW117963   3.557   0.433   1.306  0.9354 -1.0375  0.4435
 2110SOL    HW217964   3.596   0.293   1.338 -0.3694  0.3154  0.3119
 2111SOL     OW17965   4.390   3.773  16.188  0.2905 -0.2808  0.0724
 2111SOL    HW117966   4.322   3.711  16.163  0.2803  0.1794 -1.0332
 2111SOL    HW217967   4.350   3.850  16.147  0.0433 -0.5128 -0.1177
 2112SOL     OW17968   4.291   1.729   2.990  0.3536  0.2815 -0.0083
 2112SOL    HW117969   4.345   1.668   3.040  1.2363  2.1180  1.2969
 2112SOL    HW217970   4.303   1.703   2.898  0.9747  0.3650  0.0486
 2113SOL     OW17971   2.452   3.208   5.590  0.3741  0.1447 -0.1328
 2113SOL    HW117972   2.391   3.139   5.615 -0.9070  1.2320 -0.2359
 2113SOL    HW217973   2.441   3.201   5.495 -0.3210 -2.1758  0.1062
 2114SOL     OW17974   3.742   1.764   4.676 -0.3567  0.1484 -0.3969
 2114SOL    HW117975   3.809   1.758   4.608 -0.3194  0.5773 -0.3947
 2114SOL    HW217976   3.797   1.783   4.752 -4.5066 -1.9160  3.1395
 2115SOL     OW17977   3.115   1.322  15.834 -0.0653 -0.2470 -0.2238
 2115SOL    HW117978   3.022   1.305  15.819 -0.7247  1.9811  1.3352
 2115SOL    HW217979   3.105   1.405  15.880  2.0139 -1.2631  2.0562
 2116SOL     OW17980   0.359   3.001  15.131  0.4825 -0.0988 -0.1921
 2116SOL    HW117981   0.448   3.030  15.115  0.5504 -0.4406 -0.4309
 2116SOL    HW217982   0.354   2.933  15.063 -1.9428 -0.7372  0.6045
 2117SOL     OW17983   2.840   3.574   8.968  0.3304 -0.0904  0.1534
 2117SOL    HW117984   2.871   3.665   8.969  1.7604 -0.5644 -0.2479
 2117SOL    HW217985   2.767   3.562   9.028 -0.1448  0.2801 -0.3491
 2118SOL     OW17986   0.542   3.836   3.172 -0.1281 -0.0026  0.1327
 2118SOL    HW117987   0.613   3.814   3.112 -1.3224 -1.9332 -0.5986
 2118SOL    HW217988   0.585   3.857   3.255  0.3789 -1.8215  0.3521
 2119SOL     OW17989   2.714   1.784   6.804  0.1411 -0.2257 -0.5133
 2119SOL    HW117990   2.744   1.702   6.842  1.4446 -0.1152 -1.3282
 2119SOL    HW217991   2.647   1.819   6.863 -0.0585 -0.3275 -0.6823
 2120SOL     OW17992   4.281   2.885   4.674 -0.4445  0.7110  1.1293
 2120SOL    HW117993   4.249   2.795   4.673 -2.3437  1.4297 -1.5799
 2120SOL    HW217994   4.229   2.925   4.605  2.2389  0.7548 -0.8780
 2121SOL     OW17995   3.677   3.765  13.984  0.1659  0.0598  0.2336
 2121SOL    HW117996   3.636   3.741  13.901  1.2554  0.7711 -0.4927
 2121SOL    HW217997   3.604   3.795  14.038 -1.5320 -4.1086  0.3081
 2122SOL     OW17998   3.750   0.807   3.765 -0.5024  0.3047 -0.5428
 2122SOL    HW117999   3.704   0.876   3.812 -0.1108  0.6632 -0.6844
 2122SOL    HW218000   3.801   0.779   3.841 -0.9620 -0.0454 -0.3580
 2123SOL     OW18001   1.007   3.543   3.410 -0.3784  0.0025 -0.3930
 2123SOL    HW118002   0.984   3.572   3.321 -0.4984  0.5748 -0.1737
 2123SOL    HW218003   0.983   3.450   3.406 -0.9235 -0.0003  3.5585
 2124SOL     OW18004   2.719   0.692   8.645  0.5602 -0.0595 -0.2787
 2124SOL    HW118005   2.653   0.623   8.651  1.4378 -0.9204 -0.4777
 2124SOL    HW218006   2.790   0.652   8.694 -1.9332 -3.4075  0.5939
 2125SOL     OW18007   3.845   2.860   4.822  0.1256 -0.9716  0.0206
 2125SOL    HW118008   3.780   2.903   4.878  0.1385 -0.3665 -0.4305
 2125SOL    HW218009   3.917   2.866   4.884  1.4325 -2.5281 -1.3657
 2126SOL     OW18010   1.105   1.322  10.831 -0.4815 -0.5319 -0.2935
 2126SOL    HW118011   1.174   1.265  10.797  0.2503  0.3333 -0.2482
 2126SOL    HW218012   1.056   1.248  10.867  3.2005 -1.3818  2.8759
 2127SOL     OW18013   0.378   1.450   7.472 -0.3156 -0.7843 -0.1565
 2127SOL    HW118014   0.289   1.458   7.507  0.2879  1.3433  0.8828
 2127SOL    HW218015   0.379   1.366   7.428  0.6768  0.1557 -1.9102
 2128SOL     OW18016   3.418   3.236   5.512 -0.1994 -0.2107 -0.1439
 2128SOL    HW118017   3.381   3.234   5.600  1.5936  0.5977  0.6475
 2128SOL    HW218018   3.363   3.299   5.466  0.1965  1.3611  1.5292
 2129SOL     OW18019   0.358   0.726  13.235  0.0343  0.2005 -0.4971
 2129SOL    HW118020   0.438   0.776  13.254 -0.8237  1.2861  0.2803
 2129SOL    HW218021   0.397   0.639  13.227  0.2880  0.4582 -1.9017
 2130SOL     OW18022   1.565   3.351  13.975  0.1741 -0.2147  0.3541
 2130SOL    HW118023   1.526   3.287  14.034  2.0864 -0.6744  1.1019
 2130SOL    HW218024   1.571   3.294  13.898  1.3075 -1.1300  1.1374
 2131SOL     OW18025   4.115   1.979  16.123  0.3288 -0.1870  0.3599
 2131SOL    HW118026   4.077   1.932  16.197 -1.4564 -1.4210 -1.3485
 2131SOL    HW218027   4.187   2.021  16.170  1.3174 -1.6776  0.1728
 2132SOL     OW18028   1.894   0.881   6.940 -0.0021 -0.0136  0.1528
 2132SOL    HW118029   1.983   0.874   6.905 -0.5449 -0.3658 -1.1682
 2132SOL    HW218030   1.913   0.892   7.033  2.6923  1.4510 -0.5805
 2133SOL     OW18031   2.094   2.304  13.981 -0.1164  0.0833  0.0939
 2133SOL    HW118032   2.059   2.216  13.972  0.5050  0.0176 -1.6844
 2133SOL    HW218033   2.187   2.282  13.988 -0.2764 -0.6794 -0.2417
 2134SOL     OW18034   1.239   1.022   8.156 -0.2341 -0.8514  0.0365
 2134SOL    HW118035   1.335   1.016   8.157 -0.1600  0.2953 -0.2613
 2134SOL    HW218036   1.223   0.949   8.215 -3.8502  1.5265  2.0124
 2135SOL     OW18037   0.271   2.378   0.655 -0.3387 -0.1534 -0.3947
 2135SOL    HW118038   0.201   2.338   0.602 -1.5028 -1.4002  2.0533
 2135SOL    HW218039   0.332   2.400   0.585 -2.2692  2.0500 -1.4029
 2136SOL     OW18040   3.299   1.358  11.972 -0.5348 -0.3167  0.4644
 2136SOL    HW118041   3.265   1.443  11.999  0.8361  0.8516 -1.4708
 2136SOL    HW218042   3.309   1.383  11.880  0.6468  0.4846  0.8248
 2137SOL     OW18043   3.160   4.221  12.527  0.2411 -0.1969 -0.3076
 2137SOL    HW118044   3.205   4.265  12.455 -0.2898  0.6871 -0.0953
 2137SOL    HW218045   3.085   4.276  12.550 -0.5360 -1.1931 -0.4311
 2138SOL     OW18046   0.635   2.569   5.673  0.3134 -0.6946  0.3089
 2138SOL    HW118047   0.646   2.626   5.597  0.0406  1.4289  1.8693
 2138SOL    HW218048   0.693   2.494   5.661  1.3645  0.7429 -3.5957
 2139SOL     OW18049   2.136   1.122  10.676  0.5405 -0.1468  0.1934
 2139SOL    HW118050   2.209   1.061  10.691  2.4869  2.3804  0.9429
 2139SOL    HW218051   2.096   1.111  10.762 -0.1275  1.0394  0.0246
 2140SOL     OW18052   2.496   1.047   1.733 -0.0484 -0.3782 -0.3697
 2140SOL    HW118053   2.582   1.063   1.693  0.2097 -0.7907  0.0090
 2140SOL    HW218054   2.513   1.103   1.809  0.3024 -1.3520  0.2804
 2141SOL     OW18055   3.041   0.831  14.261  0.0924 -0.1589  0.3485
 2141SOL    HW118056   3.093   0.853  14.184  0.0537  0.2229  0.4285
 2141SOL    HW218057   2.958   0.794  14.231  0.0790  0.5335 -0.4746
 2142SOL     OW18058   4.066   4.470   2.445 -0.0345 -0.0931 -0.2772
 2142SOL    HW118059   4.139   4.408   2.442 -1.4248 -1.7031 -1.0782
 2142SOL    HW218060   4.031   4.444   2.360 -0.2324  1.1256 -0.5552
 2143SOL     OW18061   1.051   4.405   5.352 -0.8812  0.1508  0.3809
 2143SOL    HW118062   1.068   4.436   5.441 -2.1910  1.0473  0.3251
 2143SOL    HW218063   1.085   4.316   5.349 -0.5181  0.2828  0.5657
 2144SOL     OW18064   4.648   2.521   8.140 -0.4015  0.7670 -0.0017
 2144SOL    HW118065   4.661   2.426   8.147  0.3447  0.6703 -2.3871
 2144SOL    HW218066   4.610   2.542   8.225  2.2450 -0.5185  1.5115
 2145SOL     OW18067   4.396   0.614  10.267  0.3792  0.2703  0.0644
 2145SOL    HW118068   4.333   0.638  10.199  1.2019 -0.0956 -0.8275
 2145SOL    HW218069   4.338   0.604  10.342 -3.8664  0.0106 -3.3228
 2146SOL     OW18070   4.053   1.359  17.315 -0.0037 -0.1191 -0.4334
 2146SOL    HW118071   4.006   1.399  17.388  0.5013  0.3097 -0.3392
 2146SOL    HW218072   4.132   1.347  17.368 -0.1848 -0.4922 -0.2455
 2147SOL     OW18073   3.739   1.369   3.280 -0.2271  0.2201  0.3223
 2147SOL    HW118074   3.692   1.295   3.320  0.1394  0.0262  0.4068
 2147SOL    HW218075   3.731   1.426   3.356  0.3363  1.4949 -0.5789
 2148SOL     OW18076   2.284   4.164   8.090 -0.1385  0.0873 -0.1143
 2148SOL    HW118077   2.214   4.101   8.108  1.3730 -1.2904  0.8998
 2148SOL    HW218078   2.247   4.201   8.010 -0.1050  0.8007  0.1914
 2149SOL     OW18079   1.818   3.275   5.499  0.0032 -0.4894 -0.3113
 2149SOL    HW118080   1.773   3.203   5.543  0.6247  0.2715  1.5763
 2149SOL    HW218081   1.866   3.216   5.441 -2.0862 -1.0726 -1.4249
 2150SOL     OW18082   1.661   3.411   5.010 -0.2490  0.6846 -0.0051
 2150SOL    HW118083   1.748   3.372   5.008 -0.2741  0.4208  2.8864
 2150SOL    HW218084   1.623   3.376   4.930 -0.9046 -1.9647  1.4649
 2151SOL     OW18085   0.383   0.879   4.641  0.6211 -0.2884  0.8065
 2151SOL    HW118086   0.407   0.831   4.721  0.5205 -1.6629  0.0244
 2151SOL    HW218087   0.296   0.912   4.663  0.3791  0.1240 -0.8038
 2152SOL     OW18088   0.922   0.952   2.582 -0.6223 -0.0579  0.0487
 2152SOL    HW118089   0.961   0.890   2.644 -0.6168  0.0058  0.1090
 2152SOL    HW218090   0.933   1.036   2.627 -0.6548 -0.7259  1.3022
 2153SOL     OW18091   1.178   1.203   7.284 -0.1289  0.1894  0.0341
 2153SOL    HW118092   1.222   1.120   7.272  1.5715  0.9052  1.3116
 2153SOL    HW218093   1.166   1.238   7.196 -1.0876 -3.0112 -1.0807
 2154SOL     OW18094   0.216   0.025  13.741 -0.1878 -0.5844 -0.4081
 2154SOL    HW118095   0.179   0.028  13.653  1.4463 -0.6060 -1.1020
 2154SOL    HW218096   0.262   4.681  13.738  2.3485  0.7255  1.5203
 2155SOL     OW18097   1.764   2.778   8.471 -0.1326 -0.6597  0.3651
 2155SOL    HW118098   1.831   2.720   8.509  0.4309  0.6538  1.3559
 2155SOL    HW218099   1.719   2.805   8.551 -0.0480  0.4694  0.0304
 2156SOL     OW18100   2.290   1.559   4.763 -0.0116  0.0865  0.5478
 2156SOL    HW118101   2.344   1.523   4.693 -1.6900  1.5592 -1.4849
 2156SOL    HW218102   2.258   1.643   4.730 -0.4369 -0.3428 -0.1239
 2157SOL     OW18103   3.252   3.952   6.264  1.0085 -0.1929  0.0640
 2157SOL    HW118104   3.232   3.860   6.283  0.2108  0.3440  1.8118
 2157SOL    HW218105   3.208   3.965   6.180 -0.3946 -1.5344  0.5840
 2158SOL     OW18106   1.191   3.902   6.507 -0.3961  0.2201 -0.3099
 2158SOL    HW118107   1.275   3.865   6.534 -0.4690 -0.0520 -0.4498
 2158SOL    HW218108   1.203   3.996   6.516 -3.4352  0.5338  0.2927
 2159SOL     OW18109   3.586   3.806  13.050  0.4265 -0.5555 -0.1322
 2159SOL    HW118110   3.506   3.813  13.102 -1.8041 -3.0389 -3.2908
 2159SOL    HW218111   3.625   3.736  13.103 -1.6016 -0.9814  0.7697
 2160SOL     OW18112   1.837   1.991   7.455 -0.8196 -0.1534  0.2397
 2160SOL    HW118113   1.871   1.905   7.431  0.4519 -0.1328  1.9655
 2160SOL    HW218114   1.748   1.961   7.473 -0.0891 -2.8182 -0.6141
 2161SOL     OW18115   0.768   1.198   7.169  0.3187  0.1620 -0.0882
 2161SOL    HW118116   0.803   1.285   7.186 -0.7644  0.0714  2.4552
 2161SOL    HW218117   0.697   1.222   7.109 -1.0470 -2.7434  0.3353
 2162SOL     OW18118   2.081   0.381  12.363  0.2869  0.0422 -0.1721
 2162SOL    HW118119   2.011   0.439  12.392 -0.7618  0.0449 -2.7756
 2162SOL    HW218120   2.137   0.393  12.440  0.5489 -0.7653 -0.2369
 2163SOL     OW18121   1.309   2.865   7.785 -0.2813 -0.1244 -0.3721
 2163SOL    HW118122   1.264   2.948   7.801  0.2721  0.1138 -0.0373
 2163SOL    HW218123   1.246   2.834   7.720 -0.1517 -1.2432  0.0396
 2164SOL     OW18124   2.974   4.505   4.206 -0.5439 -0.2841 -0.6073
 2164SOL    HW118125   3.056   4.458   4.188 -0.7604 -0.2987 -1.5626
 2164SOL    HW218126   3.006   4.594   4.216 -0.4465 -0.4577  0.6129
 2165SOL     OW18127   0.508   2.163   1.835 -0.1219 -0.1786  0.2543
 2165SOL    HW118128   0.501   2.258   1.845 -0.0539 -0.2267  0.7785
 2165SOL    HW218129   0.537   2.138   1.922  0.9099 -2.0139 -0.6217
 2166SOL     OW18130   0.853   1.381   6.347 -0.2600  0.2166 -0.8513
 2166SOL    HW118131   0.837   1.328   6.270  0.9690  0.1189 -1.0418
 2166SOL    HW218132   0.819   1.462   6.309 -0.7250 -0.0700 -1.0448
 2167SOL     OW18133   1.685   2.395   6.502 -0.6371 -0.0629 -0.3740
 2167SOL    HW118134   1.688   2.301   6.522  2.6433 -0.2885 -1.9298
 2167SOL    HW218135   1.723   2.407   6.416 -1.0225  1.7853 -0.2780
 2168SOL     OW18136   3.259   3.698  12.721  0.1328  0.1697  0.4559
 2168SOL    HW118137   3.237   3.785  12.687 -2.4224 -0.3664  0.7817
 2168SOL    HW218138   3.353   3.713  12.713  0.4735 -2.9110 -1.4090
 2169SOL     OW18139   2.265   0.959   0.520  0.8740  0.5643 -0.0938
 2169SOL    HW118140   2.180   0.926   0.491 -0.3608  1.0196  2.9859
 2169SOL    HW218141   2.239   0.986   0.608  0.8948 -2.0003  0.6991
 2170SOL     OW18142   2.242   2.501   9.416  0.4599 -0.2999 -0.3319
 2170SOL    HW118143   2.249   2.461   9.502 -2.6946  0.5595  0.3224
 2170SOL    HW218144   2.199   2.584   9.438  1.2656  0.3007 -1.0345
 2171SOL     OW18145   0.161   2.491   6.821 -0.1981  0.5466  0.6805
 2171SOL    HW118146   0.224   2.423   6.843 -1.0460 -0.4490  0.0068
 2171SOL    HW218147   0.142   2.460   6.732 -4.1383  0.6077  1.4837
 2172SOL     OW18148   3.935   4.237   1.568  0.0306 -0.2622 -0.2462
 2172SOL    HW118149   3.842   4.243   1.548  0.3083  0.1158 -1.4379
 2172SOL    HW218150   3.952   4.144   1.553 -0.9026 -0.3090 -1.0017
 2173SOL     OW18151   2.678   3.583   2.434  0.0463 -0.1117  0.0628
 2173SOL    HW118152   2.697   3.673   2.407  2.9690 -0.6823  0.2153
 2173SOL    HW218153   2.621   3.568   2.359  1.4969  2.5735 -1.5859
 2174SOL     OW18154   0.255   2.027   9.632  0.2724  0.8231 -0.0041
 2174SOL    HW118155   0.305   2.063   9.559  3.4720  2.3902  2.9153
 2174SOL    HW218156   0.219   2.107   9.671  1.0035 -0.4663  3.3780
 2175SOL     OW18157   1.982   3.075   2.009  0.0417  0.7863  0.3902
 2175SOL    HW118158   1.968   3.015   2.082 -1.9487  0.9779  0.1659
 2175SOL    HW218159   2.067   3.111   2.035  0.0677  0.7776  0.3165
 2176SOL     OW18160   4.198   0.947   6.821  0.0930  0.1181 -0.3614
 2176SOL    HW118161   4.208   0.880   6.753 -1.3694 -1.9311  1.4521
 2176SOL    HW218162   4.165   1.020   6.769  0.6941 -0.9014 -2.1752
 2177SOL     OW18163   0.759   3.707  13.661  0.5127 -0.7414  0.2038
 2177SOL    HW118164   0.839   3.678  13.617  0.4206 -3.1169  1.6112
 2177SOL    HW218165   0.708   3.730  13.583  0.7347 -0.7819  0.0465
 2178SOL     OW18166   4.124   4.446   2.098 -0.3179 -0.3142  0.5110
 2178SOL    HW118167   4.084   4.531   2.081 -1.5316 -1.6543 -3.5293
 2178SOL    HW218168   4.049   4.391   2.074  0.9254 -2.9895  2.7273
 2179SOL     OW18169   3.546   1.839  10.669 -0.3082 -0.1873 -0.8707
 2179SOL    HW118170   3.559   1.897  10.594 -1.3425 -1.5563 -2.1148
 2179SOL    HW218171   3.569   1.753  10.633  1.1455 -0.7476  1.3930
 2180SOL     OW18172   4.636   3.143   3.975 -0.3374 -0.2576 -0.4122
 2180SOL    HW118173   4.692   3.187   4.039 -0.0453 -2.0548  0.5595
 2180SOL    HW218174   4.580   3.101   4.040  0.3505 -0.2323  0.1960
 2181SOL     OW18175   1.820   3.387   5.845  0.0789 -0.1006 -0.3544
 2181SOL    HW118176   1.864   3.321   5.899 -2.2218 -0.1192  1.4742
 2181SOL    HW218177   1.863   3.468   5.871 -3.0266  0.7737  1.9761
 2182SOL     OW18178   0.349   3.131   8.419 -0.0485  0.0522  0.7494
 2182SOL    HW118179   0.432   3.088   8.396 -1.2204 -0.8425 -1.8108
 2182SOL    HW218180   0.379   3.221   8.402 -2.1139  0.2449 -1.8098
 2183SOL     OW18181   1.334   0.194   6.730  0.1407 -0.0705  0.4511
 2183SOL    HW118182   1.303   0.157   6.813 -0.2750 -0.5475  0.0853
 2183SOL    HW218183   1.408   0.134   6.720  0.9375  0.6010  2.4437
 2184SOL     OW18184   0.819   4.143   7.636 -0.1821  0.4705  0.6690
 2184SOL    HW118185   0.746   4.153   7.575 -0.1624  0.3471  0.6259
 2184SOL    HW218186   0.845   4.053   7.615  1.2826  0.7467  1.2871
 2185SOL     OW18187   2.155   4.552   0.332  0.5159  0.1681  0.1766
 2185SOL    HW118188   2.193   4.494   0.266 -2.2232 -1.6518  0.2170
 2185SOL    HW218189   2.200   4.514   0.407 -1.4222  0.0877  1.2772
 2186SOL     OW18190   3.453   0.719  12.021  0.4568 -0.4548 -0.6417
 2186SOL    HW118191   3.506   0.646  11.991 -0.1748 -1.0725 -0.2620
 2186SOL    HW218192   3.516   0.786  11.995 -0.6575  0.6592 -0.5016
 2187SOL     OW18193   0.736   3.244   9.103 -0.7276  0.4100  0.4101
 2187SOL    HW118194   0.769   3.325   9.142 -0.1251  0.0097  0.7302
 2187SOL    HW218195   0.746   3.279   9.014  0.0797 -0.8963 -0.0163
 2188SOL     OW18196   2.822   1.272   6.232 -0.2784 -0.1960  0.2910
 2188SOL    HW118197   2.892   1.229   6.183  1.2228  3.1305 -0.5218
 2188SOL    HW218198   2.794   1.199   6.287  0.8875 -1.6251 -0.9903
 2189SOL     OW18199   3.969   3.989   9.865  0.6094  0.3935 -0.1556
 2189SOL    HW118200   4.048   4.009   9.814  0.7421 -0.5270 -0.3095
 2189SOL    HW218201   3.985   3.894   9.867  0.0440  0.3287  0.9916
 2190SOL     OW18202   1.111   2.929   8.225  0.1761  0.5885  0.0337
 2190SOL    HW118203   1.106   2.996   8.156  1.1162 -0.7413 -1.3248
 2190SOL    HW218204   1.204   2.906   8.221 -0.2276 -0.7068 -1.9583
 2191SOL     OW18205   4.444   1.559   8.314  0.4729 -0.2064  0.6737
 2191SOL    HW118206   4.419   1.507   8.238  2.9154 -1.9413  1.0418
 2191SOL    HW218207   4.368   1.616   8.321  0.0875 -0.4842 -1.5206
 2192SOL     OW18208   0.668   1.591   2.312  0.2109  0.3782 -0.1030
 2192SOL    HW118209   0.708   1.504   2.303 -1.2058 -0.6500  3.4547
 2192SOL    HW218210   0.582   1.565   2.278  0.0846 -1.8252  1.9049
 2193SOL     OW18211   4.192   1.421  17.706  0.3382 -0.4046  0.2493
 2193SOL    HW118212   4.254   1.483  17.744  0.3293  0.3838 -1.0482
 2193SOL    HW218213   4.192   1.358   0.022  1.4225 -1.3939 -0.6049
 2194SOL     OW18214   0.064   1.952   4.614 -0.1074 -0.3163 -0.4532
 2194SOL    HW118215   0.024   1.867   4.593 -0.7095 -0.7182  2.3971
 2194SOL    HW218216   4.729   2.004   4.588  1.2095  2.5930  1.6868
 2195SOL     OW18217   0.929   3.886  14.802 -0.9789  0.3342 -0.1992
 2195SOL    HW118218   0.835   3.903  14.798 -1.6840 -3.0617  1.9858
 2195SOL    HW218219   0.924   3.810  14.859  0.7160  1.9223  2.0956
 2196SOL     OW18220   0.175   2.510  11.205 -0.3806  0.0916  0.5317
 2196SOL    HW118221   0.134   2.424  11.209 -1.7529  0.7288  0.1243
 2196SOL    HW218222   0.260   2.484  11.169  0.4540  2.0770  1.0854
 2197SOL     OW18223   1.611   0.228   3.580  0.3781  0.0498  0.2655
 2197SOL    HW118224   1.618   0.158   3.514  0.6949  0.4776 -0.1551
 2197SOL    HW218225   1.609   0.191   3.668 -0.2029  0.6548  0.4987
 2198SOL     OW18226   1.935   1.513   7.096 -0.1911  0.8349  0.2387
 2198SOL    HW118227   1.847   1.528   7.131 -0.7614 -3.8861  0.8612
 2198SOL    HW218228   1.979   1.468   7.168 -0.2072  0.1692 -0.1677
 2199SOL     OW18229   0.132   2.278  16.034 -0.7535  0.6219 -0.7742
 2199SOL    HW118230   0.099   2.368  16.028  0.7448  1.4155  3.2802
 2199SOL    HW218231   0.071   2.244  15.968 -0.8931  0.2327 -0.4456
 2200SOL     OW18232   4.547   0.289   0.512  0.3958  0.4253 -0.2990
 2200SOL    HW118233   4.502   0.368   0.543 -0.1658 -0.6098  1.5567
 2200SOL    HW218234   4.621   0.287   0.573  0.6018 -0.1254 -0.5719
 2201SOL     OW18235   1.934   3.383  16.783 -0.6252  0.3449  0.3491
 2201SOL    HW118236   1.910   3.392  16.691 -0.8966  0.5446  0.4401
 2201SOL    HW218237   1.857   3.415  16.828 -0.9274  0.2017 -0.0629
 2202SOL     OW18238   3.109   1.423  17.440  0.4273 -0.0680 -0.0684
 2202SOL    HW118239   3.126   1.466  17.524  1.3560  1.0439 -0.8398
 2202SOL    HW218240   3.178   1.358  17.450  0.0463 -0.1122  2.1809
 2203SOL     OW18241   1.819   1.289   3.785 -0.0970 -0.2869 -0.1331
 2203SOL    HW118242   1.905   1.329   3.797 -0.3777 -0.0865  1.2107
 2203SOL    HW218243   1.775   1.334   3.857  4.9577  1.6460  1.7570
 2204SOL     OW18244   2.419   0.888  11.054  0.0132 -0.0143 -0.2070
 2204SOL    HW118245   2.470   0.814  11.021  0.0420 -0.6794  1.3354
 2204SOL    HW218246   2.495   0.945  11.051 -1.0696  1.3584 -1.7155
 2205SOL     OW18247   1.608   1.065   1.944 -0.1429 -0.5160 -0.0027
 2205SOL    HW118248   1.681   1.018   1.903  0.7474  0.7339  0.1508
 2205SOL    HW218249   1.641   1.074   2.033  2.4033 -0.6968 -0.9339
 2206SOL     OW18250   2.133   3.116   3.899  0.4478  0.3337  0.5445
 2206SOL    HW118251   2.130   3.207   3.928 -0.6610 -0.3834  2.6501
 2206SOL    HW218252   2.211   3.128   3.844 -1.3155 -1.1931 -2.2955
 2207SOL     OW18253   1.096   1.583   4.797 -0.2640  0.4386 -0.3362
 2207SOL    HW118254   1.016   1.597   4.746  0.1046  2.3877 -0.3788
 2207SOL    HW218255   1.069   1.617   4.882  3.2544  2.3730  0.0244
 2208SOL     OW18256   0.232   1.859   8.021 -0.4585  0.4731 -0.2046
 2208SOL    HW118257   0.183   1.869   8.103 -2.7487  1.0124 -1.6367
 2208SOL    HW218258   0.247   1.948   7.987  1.2403  0.6999  1.0926
 2209SOL     OW18259   1.814   2.968   9.113  0.0208 -0.1427 -0.5228
 2209SOL    HW118260   1.788   2.876   9.114  2.0850 -0.7172  0.8612
 2209SOL    HW218261   1.894   2.970   9.165  0.3390  1.7559 -1.0561
 2210SOL     OW18262   0.587   2.486   2.456 -0.1862 -0.6469 -0.3636
 2210SOL    HW118263   0.650   2.557   2.445 -0.3543 -0.1714  1.8252
 2210SOL    HW218264   0.588   2.482   2.552 -2.6428  1.7669 -0.2610
 2211SOL     OW18265   0.624   3.623   6.066  0.0233 -0.4384  0.3778
 2211SOL    HW118266   0.610   3.718   6.072  0.0304 -0.5574  2.3067
 2211SOL    HW218267   0.575   3.585   6.139  1.6118  0.9669  2.1838
 2212SOL     OW18268   0.888   0.369   4.201  0.4712 -0.0067 -0.2176
 2212SOL    HW118269   0.858   0.281   4.180 -0.3068 -0.4847  2.9934
 2212SOL    HW218270   0.807   0.417   4.218  1.1895  0.4516  1.8877
 2213SOL     OW18271   4.408   0.201   5.133 -0.3746  0.6474 -0.2508
 2213SOL    HW118272   4.413   0.271   5.198 -1.7916  1.6380 -1.1931
 2213SOL    HW218273   4.321   0.170   5.157 -0.7389  1.9035  0.0716
 2214SOL     OW18274   3.790   3.238   5.930  0.2970 -0.1644 -0.9035
 2214SOL    HW118275   3.756   3.181   6.000  0.9485 -0.9474 -1.2222
 2214SOL    HW218276   3.843   3.170   5.889 -0.0372 -1.0093  0.0511
 2215SOL     OW18277   4.568   3.513   9.217  0.0953 -0.2368 -0.0650
 2215SOL    HW118278   4.475   3.494   9.229 -0.6191  1.8376 -2.3238
 2215SOL    HW218279   4.604   3.468   9.294  0.8088 -3.6125 -2.3279
 2216SOL     OW18280   2.451   4.210  11.422  0.2310 -0.2160 -0.3864
 2216SOL    HW118281   2.402   4.128  11.425 -0.6831  0.2850 -1.4467
 2216SOL    HW218282   2.524   4.186  11.478  1.1330  0.2700 -1.3534
 2217SOL     OW18283   1.083   1.360  16.252  0.9115  0.3076 -0.0282
 2217SOL    HW118284   1.171   1.389  16.277  1.7498 -1.1385 -1.2349
 2217SOL    HW218285   1.076   1.281  16.307  0.3777  0.5738  0.2840
 2218SOL     OW18286   1.527   1.935   7.352  0.0857  0.8557  0.3055
 2218SOL    HW118287   1.470   1.924   7.428 -1.0287 -0.5862 -0.7534
 2218SOL    HW218288   1.509   1.860   7.296  1.1256 -0.0497  1.1705
 2219SOL     OW18289   4.035   0.768   5.764 -0.0314  0.3434  0.0765
 2219SOL    HW118290   3.946   0.751   5.795  0.7198 -2.1507  0.8781
 2219SOL    HW218291   4.087   0.775   5.844  1.5916  0.8788 -1.0263
 2220SOL     OW18292   3.482   0.630   1.123 -0.0792 -0.3048  0.3728
 2220SOL    HW118293   3.543   0.599   1.191 -2.2120  2.6318  3.6366
 2220SOL    HW218294   3.542   0.652   1.052  1.3634 -0.4741  1.5225
 2221SOL     OW18295   2.640   2.891   2.669 -0.2374 -0.6101 -0.3461
 2221SOL    HW118296   2.671   2.980   2.653  1.6198 -0.6893  2.9215
 2221SOL    HW218297   2.701   2.825   2.639  1.6160  0.0232  2.0548
 2222SOL     OW18298   3.959   0.167  15.556  0.3113 -0.0246  0.0664
 2222SOL    HW118299   3.921   0.245  15.596 -1.7685 -1.2250  0.4554
 2222SOL    HW218300   4.010   0.200  15.483  0.3432  0.8069  0.4677
 2223SOL     OW18301   2.636   0.236  13.735 -0.4601 -0.8500  0.3209
 2223SOL    HW118302   2.658   0.160  13.679 -1.5282 -1.7795  1.1724
 2223SOL    HW218303   2.552   0.256  13.695 -0.1234 -0.8463 -0.3942
 2224SOL     OW18304   2.807   1.412   4.057 -0.5944 -0.1917  0.5185
 2224SOL    HW118305   2.748   1.427   4.131 -1.3090  0.8225 -0.2560
 2224SOL    HW218306   2.757   1.454   3.987  1.7442  0.7327 -0.6113
 2225SOL     OW18307   4.503   3.178   2.227 -0.2933  0.5691 -0.9133
 2225SOL    HW118308   4.592   3.147   2.217 -0.6268 -0.9440  0.7578
 2225SOL    HW218309   4.488   3.151   2.318 -0.6913  1.0595 -0.8337
 2226SOL     OW18310   3.865   4.062   6.502  0.1024  0.1877 -0.5761
 2226SOL    HW118311   3.941   4.005   6.493  0.4308  0.8106 -1.8483
 2226SOL    HW218312   3.835   4.071   6.411 -0.3003 -0.3478 -0.5017
 2227SOL     OW18313   2.807   0.708   3.540 -0.0994 -0.1896  0.6716
 2227SOL    HW118314   2.774   0.688   3.628  0.7049 -1.5912  0.6360
 2227SOL    HW218315   2.828   0.800   3.557  2.4809 -0.7793  0.6327
 2228SOL     OW18316   0.568   1.481   8.454 -0.2444  0.1781  0.0721
 2228SOL    HW118317   0.569   1.396   8.498  0.7330 -0.1142 -0.5121
 2228SOL    HW218318   0.475   1.503   8.467 -0.4498 -1.0405  0.6376
 2229SOL     OW18319   1.779   3.317   4.212  0.1716  0.0641 -0.0667
 2229SOL    HW118320   1.710   3.320   4.278 -0.5226 -1.1737 -0.7477
 2229SOL    HW218321   1.812   3.406   4.203  0.2373  0.1291  0.7834
 2230SOL     OW18322   1.736   3.997   7.833  1.3327 -0.4077 -0.4261
 2230SOL    HW118323   1.731   4.089   7.808 -0.5165  0.5340  3.3067
 2230SOL    HW218324   1.653   3.973   7.873  0.8592  1.1155 -0.5242
 2231SOL     OW18325   3.295   1.576   3.943 -0.0992  0.1240 -0.0214
 2231SOL    HW118326   3.224   1.634   3.973 -0.9331  0.2463 -2.2098
 2231SOL    HW218327   3.314   1.512   4.011  3.0660  0.5630 -0.5238
 2232SOL     OW18328   3.820   1.169   4.000  0.2978  0.4887  0.5937
 2232SOL    HW118329   3.903   1.123   4.006 -1.3817 -2.5217  0.4929
 2232SOL    HW218330   3.777   1.138   3.920  2.4124  1.8034 -1.0633
 2233SOL     OW18331   2.915   3.396  15.012  0.1779 -0.1385 -0.3978
 2233SOL    HW118332   2.950   3.332  14.949  0.1066 -0.4696 -0.1024
 2233SOL    HW218333   2.978   3.390  15.084  0.6087  1.3548 -0.6529
 2234SOL     OW18334   3.189   3.631  13.222 -0.6716 -0.5320  0.2922
 2234SOL    HW118335   3.262   3.693  13.218 -1.6700  0.6001 -0.6184
 2234SOL    HW218336   3.153   3.663  13.304 -1.3877  2.9603 -1.3531
 2235SOL     OW18337   4.513   4.269   9.197 -0.2622 -0.7292  0.4717
 2235SOL    HW118338   4.493   4.184   9.157 -1.3371 -0.4030  0.3312
 2235SOL    HW218339   4.436   4.285   9.251  0.4158 -0.8466  1.4804
 2236SOL     OW18340   0.763   2.984  12.199 -0.3877 -0.2340  0.1067
 2236SOL    HW118341   0.805   3.033  12.270  0.6607 -0.0166 -0.6652
 2236SOL    HW218342   0.676   2.960  12.230 -0.9637  0.6974 -0.8177
 2237SOL     OW18343   2.350   4.175   2.970  0.4930 -0.5545  0.4399
 2237SOL    HW118344   2.320   4.254   2.925 -0.2431 -0.8570  0.4111
 2237SOL    HW218345   2.319   4.113   2.904 -1.6969  1.3633 -0.3345
 2238SOL     OW18346   0.939   0.595   8.979 -0.3839  0.0997  0.3781
 2238SOL    HW118347   0.988   0.524   9.021 -0.0573 -1.0321 -1.9239
 2238SOL    HW218348   0.990   0.663   9.022  1.1484  0.1165 -1.4569
 2239SOL     OW18349   4.257   3.259   3.648  0.4085 -0.5896  0.0333
 2239SOL    HW118350   4.198   3.184   3.659 -1.2063  0.6478 -0.0815
 2239SOL    HW218351   4.276   3.252   3.555  0.1258 -0.5695 -0.0282
 2240SOL     OW18352   0.882   0.094   8.020 -0.4803 -0.4664 -0.2754
 2240SOL    HW118353   0.861   0.159   8.087  2.1062 -0.0087  0.0767
 2240SOL    HW218354   0.809   0.032   8.029 -0.0964 -0.9065 -0.2093
 2241SOL     OW18355   0.215   4.498   8.334  0.5838 -0.4487 -0.4990
 2241SOL    HW118356   0.126   4.528   8.352  0.6477 -0.1829 -0.6265
 2241SOL    HW218357   0.196   4.434   8.265  1.0912  0.2961 -1.3340
 2242SOL     OW18358   1.553   2.689  10.454  0.4385  0.0055  0.3796
 2242SOL    HW118359   1.609   2.765  10.440  0.4693 -0.1301 -0.2251
 2242SOL    HW218360   1.479   2.705  10.395  0.7038 -0.8205 -0.1743
 2243SOL     OW18361   2.869   0.404   6.320  0.2522 -0.4646 -0.4762
 2243SOL    HW118362   2.883   0.472   6.254 -4.1887  1.7015  0.8063
 2243SOL    HW218363   2.803   0.344   6.285 -0.3088 -0.1804  0.0871
 2244SOL     OW18364   1.066   1.936   2.671  0.2343 -0.8846  0.7098
 2244SOL    HW118365   0.970   1.934   2.669  0.1937  2.2509 -1.7273
 2244SOL    HW218366   1.074   1.934   2.766 -1.0338  1.7514  0.8836
 2245SOL     OW18367   1.222   2.161   6.044 -0.1199  0.6282  0.3763
 2245SOL    HW118368   1.232   2.252   6.073 -0.7815  0.6917  0.4126
 2245SOL    HW218369   1.313   2.143   6.022 -0.5687  1.2008 -1.8951
 2246SOL     OW18370   4.062   4.561   6.763  0.2777 -0.1475  0.9840
 2246SOL    HW118371   4.107   4.606   6.692 -0.6867  1.7757  1.6067
 2246SOL    HW218372   4.020   4.484   6.724  0.3529  1.5493 -2.4193
 2247SOL     OW18373   2.110   3.398   3.350 -0.3160 -0.4189  0.2902
 2247SOL    HW118374   2.122   3.398   3.256  1.3065 -0.8372  0.4926
 2247SOL    HW218375   2.084   3.490   3.360 -0.8575 -0.7849  2.2337
 2248SOL     OW18376   4.635   1.561   2.519  0.1824  0.9433 -0.2729
 2248SOL    HW118377   4.718   1.547   2.473 -0.0592  3.1612 -1.4107
 2248SOL    HW218378   4.665   1.613   2.594  1.1139  0.6121 -0.4130
 2249SOL     OW18379   0.562   3.958  12.621 -0.0640  0.4136 -0.3705
 2249SOL    HW118380   0.652   3.957  12.588  0.1503  0.5682  0.2219
 2249SOL    HW218381   0.584   3.975  12.712  0.6347  0.4211 -0.5434
 2250SOL     OW18382   0.173   3.328   0.704  0.3891  0.5977  0.4005
 2250SOL    HW118383   0.179   3.422   0.693  0.9663  0.9397  3.6724
 2250SOL    HW218384   0.083   3.300   0.686  0.3267  1.2652 -0.3221
 2251SOL     OW18385   3.360   3.525   6.345 -0.8126  0.0194 -0.1603
 2251SOL    HW118386   3.450   3.542   6.375 -1.5065  0.9497  1.3482
 2251SOL    HW218387   3.326   3.475   6.419 -2.2943  0.3319 -0.6379
 2252SOL     OW18388   3.982   0.621  15.504  0.1856  0.0310 -0.2084
 2252SOL    HW118389   3.962   0.602  15.413 -0.4475  0.6400 -0.1940
 2252SOL    HW218390   3.896   0.600  15.540 -0.8016  4.4905 -0.0352
 2253SOL     OW18391   4.308   3.235  17.328 -0.0608 -0.0461 -0.8739
 2253SOL    HW118392   4.384   3.259  17.276  0.0116 -0.0995 -0.7934
 2253SOL    HW218393   4.255   3.314  17.323 -1.1389 -0.5574  2.1661
 2254SOL     OW18394   1.092   4.133   3.449  0.5028 -0.5408 -0.0136
 2254SOL    HW118395   1.004   4.142   3.486  1.6722 -1.7781  3.1537
 2254SOL    HW218396   1.143   4.186   3.510  0.1405  0.4249 -0.5541
 2255SOL     OW18397   3.009   2.393   1.932 -0.1010  0.2531 -0.2179
 2255SOL    HW118398   3.036   2.483   1.915 -0.1636 -0.1919 -2.7925
 2255SOL    HW218399   3.062   2.382   2.011  0.3281 -2.5379 -0.8637
 2256SOL     OW18400   2.106   0.793  15.669  0.0846  0.3093 -0.1937
 2256SOL    HW118401   2.054   0.793  15.588 -1.8464  1.0291  1.0417
 2256SOL    HW218402   2.162   0.871  15.668 -1.7318  1.6476  1.7685
 2257SOL     OW18403   3.126   1.469   0.217  0.7888  0.5182 -0.2049
 2257SOL    HW118404   3.079   1.538   0.264 -0.8414 -0.0054 -1.0714
 2257SOL    HW218405   3.065   1.463   0.144 -2.3687 -0.5698  2.4784
 2258SOL     OW18406   4.707   0.806   7.358 -0.2927 -0.8866  0.1501
 2258SOL    HW118407   4.675   0.891   7.326 -0.1652 -1.4687 -1.4834
 2258SOL    HW218408   0.044   0.838   7.407 -1.4853  1.4925  0.4971
 2259SOL     OW18409   3.603   2.291   5.454  0.0626 -0.2805  0.5427
 2259SOL    HW118410   3.673   2.351   5.481  0.1777  1.1518 -2.9126
 2259SOL    HW218411   3.650   2.222   5.407  3.4801 -1.0148  5.0273
 2260SOL     OW18412   4.363   3.808   1.234  0.8016 -0.2902  0.2310
 2260SOL    HW118413   4.341   3.783   1.144  1.8383 -0.3995  0.0148
 2260SOL    HW218414   4.305   3.749   1.283 -2.1018  2.1382 -0.2807
 2261SOL     OW18415   2.037   3.507   4.213 -0.7681  0.4416  0.0530
 2261SOL    HW118416   2.018   3.569   4.284 -0.8887  0.4194  0.0407
 2261SOL    HW218417   2.041   3.564   4.137 -1.6781  1.2154  0.5789
 2262SOL     OW18418   3.469   3.847  10.951 -0.0237  0.5459  0.3184
 2262SOL    HW118419   3.377   3.861  10.930 -0.5406  1.6773  3.3204
 2262SOL    HW218420   3.495   3.935  10.923  0.8948  0.9062  2.3326
 2263SOL     OW18421   3.167   2.324   6.905 -0.1712 -0.0494 -0.1483
 2263SOL    HW118422   3.104   2.282   6.963  0.1366 -0.3194 -0.0131
 2263SOL    HW218423   3.253   2.290   6.929 -0.3088 -0.0568  0.3465
 2264SOL     OW18424   1.665   0.799   8.082  0.6263 -0.3156 -0.0724
 2264SOL    HW118425   1.593   0.762   8.133 -1.1583 -0.4530 -2.7052
 2264SOL    HW218426   1.704   0.719   8.047 -0.0814 -0.4236 -0.6118
 2265SOL     OW18427   1.230   0.692   9.259  0.2252 -0.1788 -0.1061
 2265SOL    HW118428   1.205   0.681   9.351 -2.4872 -1.4623 -0.9995
 2265SOL    HW218429   1.280   0.612   9.246  0.3853 -0.0005 -0.5753
 2266SOL     OW18430   3.978   1.525   0.461 -0.0758  0.0098 -0.3897
 2266SOL    HW118431   4.021   1.445   0.428  0.0757  0.4958 -1.3606
 2266SOL    HW218432   3.889   1.495   0.479 -0.6797  1.2572 -1.3586
 2267SOL     OW18433   3.802   1.814  14.376  0.3365  0.4806  0.2890
 2267SOL    HW118434   3.720   1.832  14.422 -0.6769 -3.4797 -0.0067
 2267SOL    HW218435   3.839   1.902  14.385  1.0335  0.1818  0.3231
 2268SOL     OW18436   0.043   2.564   8.791  0.0843 -0.0296 -0.1488
 2268SOL    HW118437   4.696   2.596   8.769  0.4079  1.2004  0.3909
 2268SOL    HW218438   0.097   2.598   8.720 -0.2765 -1.5391 -1.1666
 2269SOL     OW18439   2.192   0.147   6.064 -0.3585  0.1665 -0.0665
 2269SOL    HW118440   2.161   0.200   6.137  0.5191  1.0557 -0.3377
 2269SOL    HW218441   2.111   0.139   6.013  1.3959 -0.2945 -2.7354
 2270SOL     OW18442   0.065   4.484   6.916 -0.6756 -0.0697  0.1444
 2270SOL    HW118443   0.095   4.572   6.893 -0.9571 -0.4051 -1.4684
 2270SOL    HW218444   0.143   4.455   6.963  0.8705  1.1787 -1.6763
 2271SOL     OW18445   0.313   1.984  16.322 -0.4619 -0.2926 -0.1671
 2271SOL    HW118446   0.222   2.007  16.300 -1.1770 -1.3930  1.6240
 2271SOL    HW218447   0.339   1.948  16.237  0.5601 -0.3440  0.1779
 2272SOL     OW18448   2.646   0.368   5.575 -0.3610 -0.3124  0.1657
 2272SOL    HW118449   2.614   0.401   5.492 -2.0678  0.1550  1.0071
 2272SOL    HW218450   2.606   0.281   5.576 -0.0204 -0.4454  2.5028
 2273SOL     OW18451   0.024   4.196  10.172  0.3829  0.2434 -0.1548
 2273SOL    HW118452   0.073   4.123  10.210 -1.5196 -0.3472  1.1712
 2273SOL    HW218453   4.717   4.218  10.253 -0.5659  0.7302 -0.8381
 2274SOL     OW18454   1.672   2.255   8.923  0.4866  0.1752  0.1921
 2274SOL    HW118455   1.612   2.181   8.918 -0.1592  0.5141  3.0067
 2274SOL    HW218456   1.615   2.322   8.961 -2.2817 -1.4924 -1.0352
 2275SOL     OW18457   4.686   2.555   9.261  0.5388  0.4639  0.1970
 2275SOL    HW118458   4.638   2.627   9.222 -0.8818  0.2312  1.5133
 2275SOL    HW218459   4.715   2.498   9.189 -2.2408  1.2278 -1.4997
 2276SOL     OW18460   4.154   1.408   6.369  0.4774 -0.5942 -0.3253
 2276SOL    HW118461   4.249   1.420   6.360  0.6313 -1.5283 -0.0196
 2276SOL    HW218462   4.127   1.374   6.284  1.1718 -0.4158 -0.6137
 2277SOL     OW18463   4.620   4.437   3.174  0.1112  0.2705 -0.1625
 2277SOL    HW118464   4.615   4.427   3.079 -1.3006  2.0642 -0.2657
 2277SOL    HW218465   4.705   4.404   3.205  0.2895  1.6779  0.8060
 2278SOL     OW18466   1.093   2.640   3.852 -0.5626  0.6601 -0.3678
 2278SOL    HW118467   1.088   2.723   3.804 -0.1294  0.9304  0.0523
 2278SOL    HW218468   1.065   2.583   3.780 -1.3848  1.4630 -0.6825
 2279SOL     OW18469   4.581   0.843   6.556 -0.2305 -0.0495  0.0612
 2279SOL    HW118470   4.675   0.853   6.571 -0.1050  0.0657 -0.7694
 2279SOL    HW218471   4.571   0.749   6.540 -0.6334 -0.1530  0.9297
 2280SOL     OW18472   0.055   4.570   3.484  0.0409 -0.1174 -0.3940
 2280SOL    HW118473   0.101   4.516   3.420  1.2136 -1.4335  1.5554
 2280SOL    HW218474   0.039   4.646   3.428  1.1038  0.4691  0.1114
 2281SOL     OW18475   0.532   1.646   2.623  0.6213  0.0213 -0.3247
 2281SOL    HW118476   0.614   1.624   2.579  0.3727  2.7101 -2.1596
 2281SOL    HW218477   0.558   1.686   2.706  0.2073  0.1739 -0.2644
 2282SOL     OW18478   4.479   2.066   7.346 -0.3059  0.3200  0.5178
 2282SOL    HW118479   4.394   2.074   7.302  0.1483 -0.5535 -0.5106
 2282SOL    HW218480   4.526   2.121   7.283  1.4298 -1.3283  0.3919
 2283SOL     OW18481   4.028   4.483   6.394 -0.0895 -0.3480  0.9203
 2283SOL    HW118482   4.056   4.567   6.428  0.9849  0.5262 -2.1354
 2283SOL    HW218483   3.995   4.443   6.475  0.3066  0.5297  1.5162
 2284SOL     OW18484   2.219   0.797  11.894  0.6975 -0.6792  0.4872
 2284SOL    HW118485   2.288   0.846  11.939 -0.6141  0.9454  0.7503
 2284SOL    HW218486   2.274   0.747  11.834 -0.5732 -0.9621 -0.4417
 2285SOL     OW18487   4.704   3.550   8.392 -0.3637 -0.3399  0.6473
 2285SOL    HW118488   4.628   3.497   8.417 -1.4308  1.1698  0.6131
 2285SOL    HW218489   0.027   3.516   8.456 -0.3288  0.1284  0.8585
 2286SOL     OW18490   4.401   2.636   7.758 -0.0543 -0.1493  0.5140
 2286SOL    HW118491   4.430   2.579   7.830 -0.5054  0.1617  0.9456
 2286SOL    HW218492   4.392   2.717   7.810 -1.4489  0.6787 -1.0217
 2287SOL     OW18493   1.820   1.459   6.564  0.1914 -0.0377  0.8769
 2287SOL    HW118494   1.770   1.395   6.614  0.9258 -2.3218 -1.3053
 2287SOL    HW218495   1.903   1.453   6.613  0.1852 -1.9973  0.6258
 2288SOL     OW18496   4.412   0.116  14.426 -0.2414  0.5673  0.0976
 2288SOL    HW118497   4.367   0.040  14.464  1.5169 -0.3403  0.3517
 2288SOL    HW218498   4.342   0.178  14.447 -0.4546  0.3058  0.1759
 2289SOL     OW18499   1.383   3.167   7.518  0.3866 -0.2096 -0.6075
 2289SOL    HW118500   1.458   3.181   7.576  0.8496 -0.2375 -1.1992
 2289SOL    HW218501   1.303   3.192   7.564 -0.7375 -1.8638 -1.6658
 2290SOL     OW18502   0.990   0.016   7.296 -0.5062 -0.2264  0.8307
 2290SOL    HW118503   0.982   0.106   7.264 -1.9750 -0.3286  0.9375
 2290SOL    HW218504   1.024   4.700   7.226  1.4977  2.9443 -0.7409
 2291SOL     OW18505   1.893   0.209   7.967 -0.0932 -0.8224 -0.4112
 2291SOL    HW118506   1.910   0.143   8.034  1.1872 -0.3718 -0.2830
 2291SOL    HW218507   1.802   0.232   7.982 -0.9009 -2.9530 -1.9848
 2292SOL     OW18508   4.628   3.015  15.101  0.2534  0.1208  0.5463
 2292SOL    HW118509   4.643   2.965  15.021 -2.6530  0.2785 -0.1005
 2292SOL    HW218510   4.704   3.074  15.094 -0.2579  0.3504 -2.8791
 2293SOL     OW18511   1.110   0.026  13.277 -0.3959  0.1559  0.3596
 2293SOL    HW118512   1.153   0.076  13.346 -0.4169  1.9064 -0.8865
 2293SOL    HW218513   1.050   4.719  13.334  0.6070  0.0765  1.3328
 2294SOL     OW18514   2.904   0.780   9.190  0.5357 -0.1571 -0.1078
 2294SOL    HW118515   2.875   0.740   9.272  0.8176 -0.6883 -0.2706
 2294SOL    HW218516   2.991   0.741   9.196 -0.2270 -1.3940  3.1398
 2295SOL     OW18517   3.933   4.239   7.065 -0.0272 -0.0324  0.3639
 2295SOL    HW118518   4.017   4.276   7.036 -0.9428  1.8486  0.1033
 2295SOL    HW218519   3.886   4.322   7.072  0.3620  0.3119 -1.1308
 2296SOL     OW18520   4.736   0.216   1.252 -0.3040  0.3479 -0.1061
 2296SOL    HW118521   4.704   0.250   1.336 -1.0275 -1.2767  0.2784
 2296SOL    HW218522   0.070   0.276   1.238  1.1813 -1.6931 -1.0541
 2297SOL     OW18523   2.420   1.892   5.670 -0.1850 -0.5726  0.1562
 2297SOL    HW118524   2.449   1.823   5.610 -2.2412 -1.3161  0.0226
 2297SOL    HW218525   2.504   1.934   5.690  0.2144 -0.0638 -2.6379
 2298SOL     OW18526   4.430   2.001  15.498 -0.5567 -0.1764  0.3083
 2298SOL    HW118527   4.393   1.934  15.441 -1.5301  1.2778 -0.7534
 2298SOL    HW218528   4.505   2.040  15.453  0.5935 -0.5917  1.8643
 2299SOL     OW18529   0.441   3.343   3.698  0.1241  0.0044  0.1920
 2299SOL    HW118530   0.366   3.386   3.739  0.0596 -1.9906  2.1688
 2299SOL    HW218531   0.396   3.260   3.682  0.0498  0.5601 -2.5369
 2300SOL     OW18532   1.770   1.503   9.498  0.3558  0.3012  0.1879
 2300SOL    HW118533   1.782   1.503   9.403 -1.4344 -4.0441 -0.0365
 2300SOL    HW218534   1.773   1.596   9.519 -2.1235 -0.0573  2.1104
 2301SOL     OW18535   4.356   0.399   5.298 -0.2406  0.5480  0.0565
 2301SOL    HW118536   4.270   0.423   5.262  0.3619  0.0026 -1.7455
 2301SOL    HW218537   4.361   0.473   5.358  0.2957 -0.9702  1.8586
 2302SOL     OW18538   0.159   1.234  17.328 -0.0194 -0.0184  0.1389
 2302SOL    HW118539   0.073   1.193  17.323 -0.8962  1.8545 -0.2237
 2302SOL    HW218540   0.140   1.306  17.267 -0.6707  0.3677  0.8026
 2303SOL     OW18541   2.917   3.442   5.653  0.0794  0.2610  0.2582
 2303SOL    HW118542   2.929   3.484   5.738 -0.9291 -0.2441  0.6465
 2303SOL    HW218543   2.824   3.418   5.658 -0.9794  4.3046  0.3350
 2304SOL     OW18544   4.193   0.197   5.908 -0.5022 -0.2116 -0.3023
 2304SOL    HW118545   4.166   0.155   5.990 -0.5901 -0.8943 -0.6834
 2304SOL    HW218546   4.229   0.283   5.931 -1.9517  0.0808  0.8277
 2305SOL     OW18547   1.953   3.561  10.579 -0.0504  0.1541  0.0726
 2305SOL    HW118548   1.972   3.467  10.579 -0.4224  0.0794 -0.8222
 2305SOL    HW218549   1.868   3.545  10.537 -0.4550  0.4204  0.7719
 2306SOL     OW18550   1.589   2.561   8.877 -0.6947 -0.0751  0.0166
 2306SOL    HW118551   1.496   2.539   8.875 -0.0162 -3.1368  0.9342
 2306SOL    HW218552   1.611   2.552   8.784  0.8154 -0.0161  0.3616
 2307SOL     OW18553   1.573   3.896  14.084  0.0314 -0.0724 -0.1978
 2307SOL    HW118554   1.588   3.844  14.005  0.1254 -1.6105  0.8317
 2307SOL    HW218555   1.575   3.825  14.148 -1.5578 -1.1429 -1.3548
 2308SOL     OW18556   3.882   2.148  16.591  0.7919 -0.4251  0.3378
 2308SOL    HW118557   3.811   2.143  16.527 -0.1664  1.5861  1.2538
 2308SOL    HW218558   3.905   2.056  16.577 -1.7090 -0.7471 -1.6717
 2309SOL     OW18559   2.764   3.811   4.395 -0.1089  0.0397 -0.3371
 2309SOL    HW118560   2.689   3.751   4.398  0.3724 -0.5551 -0.2727
 2309SOL    HW218561   2.821   3.750   4.349 -0.1436 -0.1592 -0.1119
 2310SOL     OW18562   3.554   2.633   6.016  0.1533 -0.4856 -0.0919
 2310SOL    HW118563   3.539   2.656   6.108  0.3504  0.4892 -0.3137
 2310SOL    HW218564   3.494   2.693   5.973  0.0925 -0.2361  0.3340
 2311SOL     OW18565   2.017   3.603   8.193 -0.3435 -0.2897 -0.0700
 2311SOL    HW118566   1.948   3.649   8.146 -1.5035  0.7507  2.6099
 2311SOL    HW218567   2.060   3.547   8.129  0.1661  1.0972 -0.9296
 2312SOL     OW18568   4.032   4.419   4.137  0.3817 -0.1429 -0.9119
 2312SOL    HW118569   4.018   4.493   4.196 -0.5042 -0.8002 -0.2988
 2312SOL    HW218570   3.943   4.420   4.103 -0.5493 -2.3673  1.4683
 2313SOL     OW18571   1.104   4.697   7.864 -0.0294 -0.0152 -0.2138
 2313SOL    HW118572   1.080   4.723   7.776  0.6581 -0.8021 -0.6365
 2313SOL    HW218573   1.050   0.019   7.912 -1.3961 -0.9761 -0.5270
 2314SOL     OW18574   0.095   3.838   7.112 -0.6289  0.4168 -0.5598
 2314SOL    HW118575   0.061   3.750   7.101 -2.0102  0.6894  1.6636
 2314SOL    HW218576   0.126   3.834   7.202  0.4295 -2.0296 -1.0279
 2315SOL     OW18577   0.732   4.106   6.008  0.0240  0.0891  0.4627
 2315SOL    HW118578   0.807   4.076   6.059  1.8429 -0.0001 -2.2703
 2315SOL    HW218579   0.762   4.069   5.925 -0.5012 -0.2628  0.4267
 2316SOL     OW18580   1.229   0.549   0.592  0.2027  0.5571  0.2513
 2316SOL    HW118581   1.145   0.545   0.637  1.3676  0.8800  2.4454
 2316SOL    HW218582   1.214   0.606   0.517  1.4751 -1.6639 -1.6866
 2317SOL     OW18583   2.854   3.156   8.241  0.2380 -0.8144 -0.1505
 2317SOL    HW118584   2.792   3.229   8.242  0.2940 -0.7705  0.1062
 2317SOL    HW218585   2.930   3.195   8.286 -0.0919 -1.1705  0.7169
 2318SOL     OW18586   1.708   2.639   3.089 -0.4707 -0.3044  0.5747
 2318SOL    HW118587   1.766   2.715   3.100  1.8384 -2.3914  2.7780
 2318SOL    HW218588   1.750   2.561   3.124  2.3033  1.5559  1.4232
 2319SOL     OW18589   1.809   1.349   6.324  0.3283  0.0944  0.0621
 2319SOL    HW118590   1.795   1.393   6.408 -0.2792  1.0889 -0.5646
 2319SOL    HW218591   1.764   1.266   6.336 -2.1277  1.3904 -0.3159
 2320SOL     OW18592   2.158   4.461  10.574  0.0093 -0.1687 -0.2046
 2320SOL    HW118593   2.152   4.445  10.669 -1.8177 -2.9521 -0.8034
 2320SOL    HW218594   2.164   4.556  10.587  2.0635 -0.4190  0.7058
 2321SOL     OW18595   4.546   1.313  11.978  0.0620  0.1192 -0.0355
 2321SOL    HW118596   4.631   1.357  11.982  0.4817 -0.6187 -0.9935
 2321SOL    HW218597   4.498   1.387  12.016  0.0934 -0.3839  1.0039
 2322SOL     OW18598   3.191   2.297   8.569 -0.3393 -0.4627  0.5333
 2322SOL    HW118599   3.257   2.365   8.583  0.6556 -1.1663 -0.8568
 2322SOL    HW218600   3.242   2.219   8.591  0.5020 -0.1967 -0.5005
 2323SOL     OW18601   2.219   4.692   5.045  0.3049 -0.2718  0.1571
 2323SOL    HW118602   2.233   4.656   5.132 -1.6524 -4.5480 -1.2630
 2323SOL    HW218603   2.178   0.037   5.062  0.0170 -0.4611  0.4102
 2324SOL     OW18604   3.058   0.567   5.217 -0.2314 -0.3847 -0.2448
 2324SOL    HW118605   3.136   0.573   5.162  0.6564  0.1182  1.0721
 2324SOL    HW218606   3.048   0.658   5.244 -1.7265  0.0509 -2.2730
 2325SOL     OW18607   0.701   1.813   3.900 -0.6557 -0.6717  0.3119
 2325SOL    HW118608   0.631   1.861   3.856 -1.7329 -2.1217  0.4473
 2325SOL    HW218609   0.785   1.850   3.872 -0.8213 -0.0120  0.6749
 2326SOL     OW18610   2.753   1.836  13.521 -0.3616  0.0426 -0.8147
 2326SOL    HW118611   2.843   1.870  13.517 -1.2076  2.3446 -0.2834
 2326SOL    HW218612   2.735   1.827  13.427 -3.6656  0.3532 -0.1954
 2327SOL     OW18613   2.630   0.447   9.522  0.5057 -0.0268 -0.0805
 2327SOL    HW118614   2.557   0.497   9.559 -1.0085 -1.6275 -0.8855
 2327SOL    HW218615   2.692   0.470   9.591  0.7949 -0.3684 -0.2263
 2328SOL     OW18616   2.392   0.336   9.720 -0.3153 -0.0140  0.3050
 2328SOL    HW118617   2.410   0.320   9.812 -0.9398  0.2356  0.4740
 2328SOL    HW218618   2.442   0.418   9.714  1.6068 -1.1533  0.8516
 2329SOL     OW18619   1.875   2.191   9.077  0.2072 -0.7028  0.1696
 2329SOL    HW118620   1.819   2.124   9.116 -0.8753 -0.3529 -0.8037
 2329SOL    HW218621   1.814   2.226   9.013  3.0379  0.5018 -1.8567
 2330SOL     OW18622   0.158   0.397   4.188  0.3445 -0.2444  0.2759
 2330SOL    HW118623   0.249   0.423   4.205 -0.0742  1.2521  0.2250
 2330SOL    HW218624   0.128   0.421   4.276 -2.4711  0.0361 -0.7627
 2331SOL     OW18625   3.794   4.112  13.114 -0.0861  0.1399 -0.2668
 2331SOL    HW118626   3.839   4.090  13.196 -1.6791 -2.9962 -0.2231
 2331SOL    HW218627   3.857   4.140  13.048  2.1664 -0.3036  1.7028
 2332SOL     OW18628   3.745   3.160   7.213  0.4254  0.6297 -0.0179
 2332SOL    HW118629   3.836   3.166   7.187 -0.0204  1.0392 -1.4706
 2332SOL    HW218630   3.740   3.194   7.303 -0.3203 -1.7344  0.8512
 2333SOL     OW18631   3.685   4.729  10.235  0.4583 -0.4681 -0.4383
 2333SOL    HW118632   3.668   4.734  10.329  1.9754 -0.5978 -0.1621
 2333SOL    HW218633   3.780   4.725  10.225  0.4793  0.4283 -0.5891
 2334SOL     OW18634   1.803   3.713   8.476  0.1078  0.3919 -0.4816
 2334SOL    HW118635   1.840   3.650   8.538 -0.7411 -0.3662 -0.7514
 2334SOL    HW218636   1.709   3.707   8.492  0.3217 -0.8103  0.3306
 2335SOL     OW18637   1.437   4.027   6.590  0.0155 -0.2289  0.5489
 2335SOL    HW118638   1.519   4.042   6.543 -0.0735 -1.4949 -0.0356
 2335SOL    HW218639   1.447   4.091   6.660  1.2827 -1.1386  1.2036
 2336SOL     OW18640   3.215   0.584   7.776  0.4321 -0.0678 -0.2120
 2336SOL    HW118641   3.156   0.532   7.722 -1.6386  1.6652  0.4211
 2336SOL    HW218642   3.208   0.538   7.860 -2.6904  1.2296  0.2036
 2337SOL     OW18643   0.168   3.482   2.112  0.1419  0.4893  0.2318
 2337SOL    HW118644   0.187   3.576   2.115  0.1441  0.4769  0.5658
 2337SOL    HW218645   0.079   3.488   2.078  1.2019  0.7162 -2.5064
 2338SOL     OW18646   0.386   2.024   4.807  0.0767 -0.0611  0.0306
 2338SOL    HW118647   0.427   2.077   4.739  1.0475 -1.1744 -0.2468
 2338SOL    HW218648   0.380   1.937   4.767  2.1816  0.3275 -1.1016
 2339SOL     OW18649   3.092   0.561   0.653  0.0157  0.3196  0.5081
 2339SOL    HW118650   3.181   0.540   0.627 -0.1864  0.3785 -0.2568
 2339SOL    HW218651   3.054   0.528   0.571  0.0587  0.4551  0.4329
 2340SOL     OW18652   1.755   0.085  17.170  0.3612 -0.7171  0.1707
 2340SOL    HW118653   1.680   0.076  17.111  0.9581 -2.3505 -0.3375
 2340SOL    HW218654   1.803   0.149  17.118 -0.4478 -0.8122 -0.7019
 2341SOL     OW18655   2.641   4.171   1.641 -0.2572 -0.4891  0.2122
 2341SOL    HW118656   2.715   4.116   1.667  0.7687  1.4292  1.3057
 2341SOL    HW218657   2.618   4.140   1.554 -1.9062 -0.5500  0.6676
 2342SOL     OW18658   2.129   3.350  13.841 -0.2951 -0.5013  0.5025
 2342SOL    HW118659   2.056   3.387  13.890  0.1288 -0.7683  1.3331
 2342SOL    HW218660   2.177   3.429  13.814 -0.6397  0.1464  1.7873
 2343SOL     OW18661   4.314   2.911  15.469  0.7185  0.3229 -0.1150
 2343SOL    HW118662   4.332   2.999  15.500 -0.9187  0.7656 -0.4034
 2343SOL    HW218663   4.394   2.896  15.419  2.1639  0.5335  2.1032
 2344SOL     OW18664   0.928   0.459  10.740  0.1617 -0.4896 -0.2411
 2344SOL    HW118665   0.969   0.400  10.804 -0.5809  0.3451  0.9994
 2344SOL    HW218666   0.934   0.406  10.660 -2.4425  0.2373 -0.9099
 2345SOL     OW18667   0.813   1.532   0.280 -0.3087 -0.1251 -0.4029
 2345SOL    HW118668   0.843   1.568   0.364 -2.0334 -0.8582  0.5190
 2345SOL    HW218669   0.765   1.453   0.306 -2.2792  1.4819  0.7922
 2346SOL     OW18670   0.360   1.622  14.977  0.3291  0.8159 -0.5078
 2346SOL    HW118671   0.313   1.593  15.055  1.1556  1.0001  0.0555
 2346SOL    HW218672   0.334   1.545  14.926 -0.4647  2.1061 -2.0608
 2347SOL     OW18673   2.514   3.493   7.607  0.1072  0.0984 -0.2785
 2347SOL    HW118674   2.424   3.484   7.575  0.3110 -1.0451 -0.5222
 2347SOL    HW218675   2.518   3.401   7.631 -2.9471  0.1241  0.3703
 2348SOL     OW18676   1.547   4.281   0.706 -1.0103 -0.1525  0.1142
 2348SOL    HW118677   1.558   4.370   0.739  0.1805 -0.3781  0.3535
 2348SOL    HW218678   1.535   4.217   0.777  0.1467  2.6496  2.8553
 2349SOL     OW18679   2.595   0.873  16.748 -0.4035 -0.7722  0.2868
 2349SOL    HW118680   2.521   0.861  16.687  0.2361 -0.9353 -0.4581
 2349SOL    HW218681   2.569   0.946  16.803  2.9188 -0.4323  1.3837
 2350SOL     OW18682   0.160   4.565  10.019 -0.5050 -0.0726  0.4636
 2350SOL    HW118683   0.100   4.626   9.976  1.4894  1.5218 -0.0318
 2350SOL    HW218684   0.230   4.555   9.954  0.3472 -0.8037  1.4976
 2351SOL     OW18685   4.736   0.457   6.372  0.2050 -0.1064 -0.4141
 2351SOL    HW118686   0.064   0.389   6.365 -0.2729 -0.7838  1.4730
 2351SOL    HW218687   4.734   0.489   6.282 -1.0239 -1.0586 -0.7269
 2352SOL     OW18688   1.583   4.286   7.045  0.8369  0.1580 -0.0004
 2352SOL    HW118689   1.678   4.273   7.045  1.1292  2.2521 -0.8438
 2352SOL    HW218690   1.566   4.272   7.138  1.7717 -0.0619  0.1420
 2353SOL     OW18691   3.288   2.187   8.225 -0.2577 -0.0965 -0.3506
 2353SOL    HW118692   3.301   2.215   8.315 -0.0405 -0.4359 -0.2737
 2353SOL    HW218693   3.245   2.264   8.187  2.0916  1.2563 -0.2644
 2354SOL     OW18694   0.469   2.366   5.123  0.3543  0.3470 -0.5854
 2354SOL    HW118695   0.486   2.460   5.119 -2.3234  0.8344 -0.1296
 2354SOL    HW218696   0.447   2.345   5.032 -0.0877  0.7979 -0.5773
 2355SOL     OW18697   1.144   2.038   9.813 -0.1605 -0.3753  0.1634
 2355SOL    HW118698   1.136   1.986   9.893 -0.9296  1.6208  1.3815
 2355SOL    HW218699   1.153   1.961   9.757 -0.8127  0.1630 -0.6691
 2356SOL     OW18700   1.708   4.223   2.346 -0.4344  0.3200 -0.2248
 2356SOL    HW118701   1.627   4.271   2.328  0.9599  2.6260 -0.3329
 2356SOL    HW218702   1.676   4.157   2.408 -0.9058 -0.1388 -0.9606
 2357SOL     OW18703   2.889   1.515   9.153 -0.1175  0.2882 -0.0434
 2357SOL    HW118704   2.952   1.496   9.221  0.7644  4.0461  0.1879
 2357SOL    HW218705   2.804   1.491   9.190 -0.2045 -1.5326 -1.4186
 2358SOL     OW18706   2.114   3.193   4.982  0.0784 -0.1229 -0.5688
 2358SOL    HW118707   2.133   3.101   4.999 -3.4655 -0.8327 -0.5624
 2358SOL    HW218708   2.197   3.238   4.996  0.0977 -0.3761  0.0926
 2359SOL     OW18709   3.137   1.624   2.814 -0.0071 -0.0532  0.2951
 2359SOL    HW118710   3.055   1.674   2.816  0.1035  0.1803 -1.1027
 2359SOL    HW218711   3.185   1.675   2.748 -0.2943  0.1389  0.2351
 2360SOL     OW18712   4.637   3.057   1.811  0.2961 -0.4443  0.2545
 2360SOL    HW118713   4.677   3.142   1.791  0.8796 -0.2484  2.2493
 2360SOL    HW218714   4.661   3.025   1.724  0.5386  3.4451 -1.1017
 2361SOL     OW18715   1.772   3.691   6.810  0.2381 -0.4078  0.0420
 2361SOL    HW118716   1.746   3.599   6.818 -1.6775  0.3116  2.1741
 2361SOL    HW218717   1.696   3.742   6.839 -1.2517 -0.8290 -3.0555
 2362SOL     OW18718   1.923   2.391  10.068  0.2092  0.4223  0.2070
 2362SOL    HW118719   1.996   2.436  10.026 -0.2152  1.7878  0.9171
 2362SOL    HW218720   1.900   2.450  10.140  1.1454 -0.4346  1.1968
 2363SOL     OW18721   4.705   3.181  15.481 -0.4788  0.6917  0.1894
 2363SOL    HW118722   0.046   3.220  15.450  0.5215 -1.6178 -0.1246
 2363SOL    HW218723   4.704   3.214  15.571 -3.3315 -1.3324  0.8972
 2364SOL     OW18724   3.277   0.152  10.482  0.3560 -0.0373  0.0683
 2364SOL    HW118725   3.304   0.068  10.445 -2.4176 -0.7385 -0.3998
 2364SOL    HW218726   3.206   0.126  10.541  1.4166 -0.4699  1.1721
 2365SOL     OW18727   2.027   2.067  16.948 -0.4401  0.1620  0.4220
 2365SOL    HW118728   2.059   1.988  16.905 -1.2475 -0.8946  1.7542
 2365SOL    HW218729   2.018   2.044  17.041  2.1423 -0.0692  0.6057
 2366SOL     OW18730   0.479   0.428   5.321 -0.4668 -0.3033  0.1408
 2366SOL    HW118731   0.417   0.452   5.390  0.8756  0.8186  0.9723
 2366SOL    HW218732   0.491   0.335   5.338  0.8360 -0.0214  0.7269
 2367SOL     OW18733   4.298   1.391   4.295 -0.2954 -0.6538  0.2645
 2367SOL    HW118734   4.295   1.477   4.335 -1.6379 -0.6745  0.2107
 2367SOL    HW218735   4.392   1.384   4.279  0.1312 -0.7836  2.8578
 2368SOL     OW18736   4.507   4.433   8.335 -0.9318  0.2706 -0.0001
 2368SOL    HW118737   4.466   4.380   8.404  0.3359 -0.6722  0.0168
 2368SOL    HW218738   4.434   4.483   8.299 -0.8954 -1.4189 -2.4663
 2369SOL     OW18739   0.258   2.126  16.604  0.2926 -0.5928  0.0960
 2369SOL    HW118740   0.184   2.111  16.662 -0.6138 -0.7263 -1.0937
 2369SOL    HW218741   0.218   2.111  16.518 -0.3603  2.2892 -0.1273
 2370SOL     OW18742   1.664   1.626   2.931 -0.1398  1.1927  0.2460
 2370SOL    HW118743   1.617   1.629   3.015 -1.9351  0.7620 -0.7569
 2370SOL    HW218744   1.651   1.720   2.915 -0.4686  1.3091  1.1741
 2371SOL     OW18745   3.227   2.056  13.346 -0.1982 -0.3075  0.3449
 2371SOL    HW118746   3.292   2.058  13.275 -0.0311 -0.2253  0.5021
 2371SOL    HW218747   3.253   2.138  13.387  1.9228 -2.9568  4.2453
 2372SOL     OW18748   2.020   3.089   4.458 -0.7746  0.0235  0.0430
 2372SOL    HW118749   2.039   3.053   4.371  0.0637 -0.6198  0.5026
 2372SOL    HW218750   2.013   3.184   4.442  2.8436  0.2649 -0.2021
 2373SOL     OW18751   1.243   2.860   7.036 -0.1441 -0.4058  0.0985
 2373SOL    HW118752   1.165   2.804   7.029 -0.3432 -0.2303  0.8910
 2373SOL    HW218753   1.290   2.814   7.106  2.8929  3.7608  0.7580
 2374SOL     OW18754   1.271   1.134   4.336 -0.2603 -0.5186  0.1195
 2374SOL    HW118755   1.180   1.109   4.351 -0.7942  0.2731 -1.7594
 2374SOL    HW218756   1.293   1.184   4.415 -0.1143 -2.6002  1.3898
 2375SOL     OW18757   1.424   1.392   4.427 -0.1130 -0.1545  0.3042
 2375SOL    HW118758   1.405   1.380   4.520 -0.3712  0.4820  0.3360
 2375SOL    HW218759   1.419   1.488   4.426 -0.1020 -0.1333  3.4368
 2376SOL     OW18760   0.448   0.122   5.182  0.1397  0.6825 -0.0090
 2376SOL    HW118761   0.372   0.110   5.125 -1.3872  2.4445  1.7001
 2376SOL    HW218762   0.496   0.192   5.138  1.6069 -0.1133  0.3250
 2377SOL     OW18763   2.770   1.448   8.359 -0.2520 -0.4187 -1.2715
 2377SOL    HW118764   2.763   1.448   8.454 -0.8964 -1.9777 -1.3308
 2377SOL    HW218765   2.815   1.366   8.339  0.1697 -0.3977 -0.4042
 2378SOL     OW18766   3.025   2.380  12.967 -0.8309  0.0538 -0.6916
 2378SOL    HW118767   3.065   2.457  12.928  2.1427 -1.9058 -1.5605
 2378SOL    HW218768   2.953   2.407  13.024 -0.9866 -1.0079 -0.3714
 2379SOL     OW18769   2.462   0.899  12.430 -1.1498  0.2075  0.0177
 2379SOL    HW118770   2.505   0.937  12.353  1.1980  0.8284  1.6670
 2379SOL    HW218771   2.517   0.916  12.506  0.4085  0.4815 -1.1669
 2380SOL     OW18772   4.698   3.116  10.827 -0.2730  0.2047  0.0444
 2380SOL    HW118773   0.033   3.156  10.783 -1.5567 -0.1160 -2.4465
 2380SOL    HW218774   4.736   3.089  10.911  1.6780  0.9164 -0.6121
 2381SOL     OW18775   4.717   0.922  17.288  0.4907  0.2343  0.4307
 2381SOL    HW118776   4.650   0.968  17.238  1.0237  0.2198 -0.2969
 2381SOL    HW218777   0.002   0.851  17.229  2.4786  1.3354 -0.0672
 2382SOL     OW18778   4.259   0.121  16.804  0.0429  0.6199 -0.1527
 2382SOL    HW118779   4.256   0.079  16.718  1.2267  1.3707 -0.5603
 2382SOL    HW218780   4.276   0.210  16.773 -0.1314  0.9351  0.6540
 2383SOL     OW18781   2.358   4.409  10.223 -0.2322 -0.1467 -0.2505
 2383SOL    HW118782   2.392   4.351  10.292 -0.1928  1.2249  0.8967
 2383SOL    HW218783   2.441   4.420  10.176 -0.1556  1.1674  0.1942
 2384SOL     OW18784   0.664   3.178   9.572  0.1570  0.0596  0.4939
 2384SOL    HW118785   0.676   3.273   9.571  1.1103 -0.0687  0.5089
 2384SOL    HW218786   0.576   3.179   9.610  0.9617 -2.4786  2.3881
 2385SOL     OW18787   3.815   3.631   3.559  0.5585 -0.6336 -0.4550
 2385SOL    HW118788   3.859   3.703   3.514  2.0998 -1.6783 -0.6147
 2385SOL    HW218789   3.839   3.643   3.650 -0.1812 -0.0435 -0.3350
 2386SOL     OW18790   1.576   0.807   4.004 -0.0953  0.4008 -0.5500
 2386SOL    HW118791   1.485   0.835   3.995 -0.6832 -0.4817  2.4947
 2386SOL    HW218792   1.566   0.778   4.095  2.1691  0.6963 -0.1955
 2387SOL     OW18793   0.682   3.099   3.820 -0.4641  0.4630 -0.0825
 2387SOL    HW118794   0.756   3.070   3.767 -1.1563 -1.1174 -0.1876
 2387SOL    HW218795   0.703   3.190   3.839 -0.7153 -0.1666  3.2227
 2388SOL     OW18796   0.665   2.551  12.619 -0.0771 -1.1494 -0.0061
 2388SOL    HW118797   0.675   2.587  12.532 -1.6017 -0.3147  0.1714
 2388SOL    HW218798   0.752   2.537  12.656  0.0414  0.7961  0.4293
 2389SOL     OW18799   3.894   1.158   2.909 -0.3493  0.1750 -0.5882
 2389SOL    HW118800   3.896   1.096   2.981  1.2812  1.1997  0.2419
 2389SOL    HW218801   3.958   1.119   2.849  0.3456 -0.9420  0.8722
 2390SOL     OW18802   0.738   1.811   9.047  0.3174  0.0634  0.1244
 2390SOL    HW118803   0.794   1.752   8.996 -1.8257 -2.9601  1.2634
 2390SOL    HW218804   0.684   1.740   9.079  0.2402  0.2675  0.4403
 2391SOL     OW18805   4.270   0.120   0.253  0.0313 -0.1197  0.4877
 2391SOL    HW118806   4.227   0.037   0.235 -0.5752  0.3441 -0.2238
 2391SOL    HW218807   4.357   0.086   0.274  0.2742 -0.3041 -0.8062
 2392SOL     OW18808   0.850   4.385   8.819 -0.0585  0.0780 -0.3550
 2392SOL    HW118809   0.931   4.364   8.773 -0.6250 -0.0688 -1.2940
 2392SOL    HW218810   0.855   4.328   8.895  0.7708  4.1173  2.6406
 2393SOL     OW18811   4.155   4.000  17.409  0.2784 -0.2152  0.5028
 2393SOL    HW118812   4.225   4.040  17.358 -0.4268  2.4551  1.6318
 2393SOL    HW218813   4.126   3.939  17.341  0.9365  0.5208 -0.4294
 2394SOL     OW18814   0.867   2.169   7.765 -0.2570 -0.5018  0.2274
 2394SOL    HW118815   0.901   2.187   7.852  0.4243  1.8796 -0.5196
 2394SOL    HW218816   0.949   2.162   7.716 -0.5008 -0.0512 -0.2590
 2395SOL     OW18817   1.322   1.928   0.733 -0.5749 -0.0668 -0.0676
 2395SOL    HW118818   1.417   1.932   0.730 -0.4166 -1.8988  2.5852
 2395SOL    HW218819   1.300   2.021   0.744  0.5682  0.2053 -0.1427
 2396SOL     OW18820   4.086   1.279  13.470  0.1810  0.4466  0.1181
 2396SOL    HW118821   3.999   1.265  13.508 -0.4640  0.3964 -1.4025
 2396SOL    HW218822   4.071   1.263  13.377  1.3007 -0.6796  0.1412
 2397SOL     OW18823   2.181   2.819  14.950  0.0265 -0.2020 -0.1424
 2397SOL    HW118824   2.164   2.900  14.999  0.4362 -0.6376  0.7233
 2397SOL    HW218825   2.093   2.802  14.917 -1.5460  1.0739  3.4219
 2398SOL     OW18826   4.496   0.403   2.451 -0.0417 -0.4342  0.3322
 2398SOL    HW118827   4.561   0.334   2.439  1.2432  0.4131  2.3133
 2398SOL    HW218828   4.438   0.386   2.377 -0.2116  1.6846 -0.0347
 2399SOL     OW18829   1.449   0.523   0.728 -0.5281  0.1498 -0.0125
 2399SOL    HW118830   1.487   0.487   0.648 -1.1178  0.1857 -0.3087
 2399SOL    HW218831   1.365   0.552   0.692 -0.6243 -1.8187 -1.3403
 2400SOL     OW18832   1.379   4.443   1.013  0.1642 -0.2721 -0.1274
 2400SOL    HW118833   1.307   4.480   0.962  0.3777 -0.8487 -0.8472
 2400SOL    HW218834   1.453   4.461   0.954 -1.9788  0.3503 -2.6036
 2401SOL     OW18835   0.233   2.607  17.653 -0.1041  0.0246  0.1594
 2401SOL    HW118836   0.244   2.596  17.748 -1.5844  0.4766  0.3906
 2401SOL    HW218837   0.151   2.657  17.649 -0.7110 -1.1521 -1.7193
 2402SOL     OW18838   3.869   0.573  13.767 -0.0488 -0.6172 -0.8451
 2402SOL    HW118839   3.785   0.606  13.735 -0.3159 -0.7357 -0.2690
 2402SOL    HW218840   3.851   0.480  13.751  1.1882 -1.2798  1.5369
 2403SOL     OW18841   2.921   1.126   2.963 -0.6624  0.0486 -0.1141
 2403SOL    HW118842   2.960   1.109   3.049  1.0054  2.3409 -0.4001
 2403SOL    HW218843   2.993   1.123   2.899  1.9032 -0.4141  2.7951
 2404SOL     OW18844   0.642   1.539  11.132  0.7288  0.0500 -0.0860
 2404SOL    HW118845   0.556   1.499  11.144  1.5619 -1.3615  1.1445
 2404SOL    HW218846   0.673   1.539  11.223  2.3119 -0.4806 -0.6378
 2405SOL     OW18847   1.456   3.250  12.752  0.4728  0.1638 -0.1874
 2405SOL    HW118848   1.540   3.235  12.710  0.5078  1.8346 -0.7249
 2405SOL    HW218849   1.404   3.267  12.673 -0.2059 -0.8237  0.0568
 2406SOL     OW18850   0.200   0.283  15.928  0.2292  0.0958 -0.2476
 2406SOL    HW118851   0.267   0.346  15.903  0.0864  0.5264  0.4337
 2406SOL    HW218852   0.198   0.291  16.023  1.3777  1.5837 -0.3488
 2407SOL     OW18853   1.084   4.085  12.594  0.3789 -0.1912  0.0488
 2407SOL    HW118854   1.173   4.051  12.603  0.8159  0.7131 -0.7988
 2407SOL    HW218855   1.100   4.179  12.602  2.2670 -0.4096 -1.1430
 2408SOL     OW18856   3.414   2.221   7.852  0.2082 -0.3958  0.3346
 2408SOL    HW118857   3.487   2.178   7.808 -0.1470 -1.1046  0.4378
 2408SOL    HW218858   3.417   2.187   7.941 -1.2643 -0.3545  0.3995
 2409SOL     OW18859   3.440   4.445   5.984  0.4605 -0.0734  0.0976
 2409SOL    HW118860   3.401   4.476   6.065  0.6185 -0.7551  0.4291
 2409SOL    HW218861   3.411   4.356   5.963  1.1269  0.2128 -2.1287
 2410SOL     OW18862   2.815   2.055   9.779  0.4711 -0.2247 -0.0103
 2410SOL    HW118863   2.850   1.969   9.756  1.3582  0.4922 -1.3665
 2410SOL    HW218864   2.876   2.067   9.851 -1.3245  3.7839  0.8929
 2411SOL     OW18865   0.268   3.501   2.669  0.2477  0.5889  0.2141
 2411SOL    HW118866   0.300   3.481   2.757 -3.3693 -2.7560  0.7794
 2411SOL    HW218867   0.321   3.440   2.616  0.0368  1.3637 -0.8835
 2412SOL     OW18868   3.429   1.470   5.458  0.2699  0.2635 -0.1691
 2412SOL    HW118869   3.514   1.496   5.494  0.8628 -0.7312 -0.8421
 2412SOL    HW218870   3.379   1.546   5.487  2.9802  1.5725  1.1014
 2413SOL     OW18871   4.418   0.234   5.609  0.6821 -0.3297 -0.1930
 2413SOL    HW118872   4.476   0.306   5.581  3.0128 -2.8961 -1.9906
 2413SOL    HW218873   4.329   0.266   5.593 -0.2390 -1.9487  1.6938
 2414SOL     OW18874   4.053   2.935   7.680  0.0111 -0.0476 -0.6985
 2414SOL    HW118875   4.053   3.022   7.640  1.1886 -0.3579 -1.3476
 2414SOL    HW218876   3.975   2.897   7.638 -0.1777 -1.0650  0.5686
 2415SOL     OW18877   1.411   1.710   9.448  0.6067  0.3986 -0.2681
 2415SOL    HW118878   1.482   1.772   9.466 -1.3305  2.7203 -0.7418
 2415SOL    HW218879   1.455   1.624   9.452  1.0909  0.7094  1.1367
 2416SOL     OW18880   1.507   4.330   5.466  0.5572 -0.0958 -0.1582
 2416SOL    HW118881   1.455   4.288   5.535  0.5708 -1.0970 -0.7524
 2416SOL    HW218882   1.526   4.259   5.405 -0.1870  1.1060 -1.7847
 2417SOL     OW18883   1.597   3.649   2.515  0.3065 -0.0971  0.1073
 2417SOL    HW118884   1.544   3.586   2.467 -0.4220  0.6887 -0.1266
 2417SOL    HW218885   1.663   3.654   2.445  0.9422 -0.8379  0.6552
 2418SOL     OW18886   3.993   2.790   6.348 -0.2563  0.4133 -0.1511
 2418SOL    HW118887   4.017   2.699   6.359 -0.8918  0.1299 -1.0351
 2418SOL    HW218888   3.910   2.797   6.395  0.7500 -1.2339  1.7995
 2419SOL     OW18889   1.244   3.167  13.496  0.0299 -0.1000  0.1811
 2419SOL    HW118890   1.337   3.162  13.475  0.3091  2.6582  0.7985
 2419SOL    HW218891   1.242   3.156  13.591  0.2509  1.3172  0.3482
 2420SOL     OW18892   2.175   4.630   7.179 -0.1583  0.1923  0.2006
 2420SOL    HW118893   2.098   4.687   7.171 -0.4403  0.0788  1.9328
 2420SOL    HW218894   2.182   4.621   7.084 -0.9105  0.5822  0.1074
 2421SOL     OW18895   3.907   3.293   0.590  0.4887  0.6120  0.1221
 2421SOL    HW118896   3.832   3.339   0.628  0.9419  1.0483  0.4861
 2421SOL    HW218897   3.981   3.352   0.602 -0.3921  1.4624  1.3366
 2422SOL     OW18898   3.320   2.171   3.241  0.0367  0.1233  0.3768
 2422SOL    HW118899   3.278   2.234   3.300  2.4524  1.3590  0.7373
 2422SOL    HW218900   3.377   2.124   3.302 -0.0672  2.6421  2.3833
 2423SOL     OW18901   4.467   2.143   2.126  0.2997  0.1093 -0.0429
 2423SOL    HW118902   4.517   2.126   2.205 -1.8135 -1.8298  0.8467
 2423SOL    HW218903   4.497   2.227   2.090 -0.4195  1.0349  1.5145
 2424SOL     OW18904   3.424   2.500   4.140  0.2215  0.1810  0.5121
 2424SOL    HW118905   3.361   2.569   4.165 -0.5494 -0.5317  0.5346
 2424SOL    HW218906   3.495   2.536   4.193  0.3698 -0.0656  0.4803
 2425SOL     OW18907   1.121   1.732   5.119 -0.2892 -0.0655 -0.1182
 2425SOL    HW118908   1.105   1.790   5.193 -0.5851  0.9994 -1.0158
 2425SOL    HW218909   1.074   1.654   5.148  1.2518 -2.0323 -2.9137
 2426SOL     OW18910   4.311   3.445  12.408  0.3457 -0.7309 -0.2012
 2426SOL    HW118911   4.295   3.414  12.498 -0.1182  1.2995  0.4249
 2426SOL    HW218912   4.255   3.375  12.376  0.4659 -1.1708  0.5467
 2427SOL     OW18913   0.335   0.132   7.600  0.4340 -0.3707 -0.0472
 2427SOL    HW118914   0.262   0.126   7.662  1.3230  2.1999  1.2687
 2427SOL    HW218915   0.412   0.145   7.655  0.8571 -1.5205 -0.3767
 2428SOL     OW18916   0.718   1.195   3.037  0.4311 -0.2141  0.5604
 2428SOL    HW118917   0.635   1.167   3.000  1.1638 -0.9472 -0.5345
 2428SOL    HW218918   0.768   1.113   3.039  2.3167  0.8975 -0.6818
 2429SOL     OW18919   2.269   0.597   7.401  0.5341 -0.1485 -0.2549
 2429SOL    HW118920   2.230   0.661   7.341  0.7279  0.8529  0.6771
 2429SOL    HW218921   2.293   0.650   7.477 -1.9609  2.5564 -1.3246
 2430SOL     OW18922   2.269   0.847   1.574 -0.7986 -0.6765  0.1697
 2430SOL    HW118923   2.354   0.892   1.572 -0.9065 -0.3942  2.4046
 2430SOL    HW218924   2.235   0.876   1.489 -0.0039  1.6828  0.6427
 2431SOL     OW18925   4.735   0.546  15.541  0.1040 -0.3742  0.1651
 2431SOL    HW118926   4.646   0.514  15.527 -0.8703  1.6289  1.7587
 2431SOL    HW218927   0.042   0.463  15.525  1.9249  0.9621 -1.4586
 2432SOL     OW18928   4.639   4.268   4.178 -0.4218  0.1034 -0.8115
 2432SOL    HW118929   4.547   4.258   4.205 -0.3401  0.7439 -0.2997
 2432SOL    HW218930   4.632   4.315   4.095 -0.9077 -0.6650 -1.2056
 2433SOL     OW18931   0.012   2.848   5.353  0.3759  0.1210  0.1164
 2433SOL    HW118932   4.696   2.843   5.275 -0.8982  1.2049  0.9716
 2433SOL    HW218933   4.683   2.841   5.418  0.7562  1.2659  0.6449
 2434SOL     OW18934   0.007   0.987  16.751  0.4746  0.5377 -0.0363
 2434SOL    HW118935   4.683   1.015  16.685 -0.0687 -1.1377 -0.2193
 2434SOL    HW218936   0.086   0.960  16.704  0.5319 -0.2710  0.5170
 2435SOL     OW18937   4.035   2.229   8.044 -0.0207  0.2927  0.2010
 2435SOL    HW118938   4.066   2.314   8.012  0.9278 -0.7186 -1.5873
 2435SOL    HW218939   3.969   2.252   8.109 -0.7286  2.2468 -1.1775
 2436SOL     OW18940   4.315   3.663  10.022  0.5609  0.0494  0.6370
 2436SOL    HW118941   4.278   3.751  10.023  1.9958  0.6706 -0.0686
 2436SOL    HW218942   4.246   3.609  10.061 -1.1748 -0.4732 -3.1745
 2437SOL     OW18943   3.042   4.677   8.591 -0.1518  0.5359 -0.0824
 2437SOL    HW118944   3.000   4.631   8.663  3.6671 -2.2770  0.3641
 2437SOL    HW218945   2.975   4.654   8.528  0.0239 -2.4929  0.8586
 2438SOL     OW18946   4.120   1.262   1.679 -0.7570 -0.1956  0.0059
 2438SOL    HW118947   4.092   1.350   1.653  0.2202  0.3907  0.9757
 2438SOL    HW218948   4.052   1.240   1.743 -0.4455  0.2573  0.4906
 2439SOL     OW18949   1.977   4.309  17.358  0.3868  0.1531  0.2363
 2439SOL    HW118950   1.896   4.357  17.374  1.3112  2.0338 -0.6493
 2439SOL    HW218951   1.953   4.245  17.291  1.8640  1.2443 -1.3528
 2440SOL     OW18952   3.614   3.877   6.361 -0.3069  0.1938  0.0948
 2440SOL    HW118953   3.572   3.865   6.275 -0.6708  0.7517  0.1946
 2440SOL    HW218954   3.615   3.973   6.368 -1.7512  0.2191  0.0786
 2441SOL     OW18955   0.918   0.570   8.617  0.4817 -0.1764  0.5082
 2441SOL    HW118956   0.824   0.553   8.621  0.2247  0.7032 -1.6282
 2441SOL    HW218957   0.918   0.657   8.655  0.3349 -0.6249  1.5396
 2442SOL     OW18958   1.900   2.965   5.257  0.1652  0.2123 -0.0574
 2442SOL    HW118959   1.952   2.885   5.259  0.3251  0.3672  2.3427
 2442SOL    HW218960   1.950   3.023   5.315 -0.8949 -0.7218  1.7946
 2443SOL     OW18961   2.945   3.332   6.941 -0.0054 -0.1409 -0.2128
 2443SOL    HW118962   3.013   3.282   6.987  0.9907  1.6719  0.2509
 2443SOL    HW218963   2.870   3.272   6.937  0.8356 -1.1642 -0.7542
 2444SOL     OW18964   4.336   4.559   4.737  0.3044  0.4241  0.5612
 2444SOL    HW118965   4.331   4.491   4.804 -2.9254  1.6524  1.5719
 2444SOL    HW218966   4.427   4.587   4.743  0.4306  0.1482 -0.0397
 2445SOL     OW18967   3.864   0.458   0.812 -0.1419  0.0865 -0.0970
 2445SOL    HW118968   3.959   0.446   0.823 -0.1161  3.4194  3.4839
 2445SOL    HW218969   3.834   0.487   0.899 -3.1160 -0.2526 -1.0213
 2446SOL     OW18970   1.684   0.646   9.209 -0.5522 -0.0725 -0.0142
 2446SOL    HW118971   1.643   0.723   9.249 -1.1595  0.4140 -1.5459
 2446SOL    HW218972   1.771   0.643   9.248  0.3388 -0.2042 -1.9782
 2447SOL     OW18973   3.138   2.989   2.568 -0.0950  0.4019 -0.2858
 2447SOL    HW118974   3.113   3.070   2.524 -3.4457  0.0995  1.0688
 2447SOL    HW218975   3.068   2.979   2.632  0.5286  0.5628  0.4267
 2448SOL     OW18976   2.606   2.960  11.772 -0.2807  0.8526  0.9786
 2448SOL    HW118977   2.608   2.871  11.734 -0.3078  0.4940  1.8266
 2448SOL    HW218978   2.632   2.948  11.863  2.5866 -0.9442 -0.0713
 2449SOL     OW18979   4.123   3.017   3.611 -0.0408 -0.0299 -0.4112
 2449SOL    HW118980   4.083   3.025   3.524  2.0880  1.4567 -1.2603
 2449SOL    HW218981   4.084   2.931   3.624  0.2787 -0.1488 -0.2245
 2450SOL     OW18982   3.164   0.880   7.739 -0.1846 -0.1173  0.0588
 2450SOL    HW118983   3.221   0.932   7.797  2.7301 -1.5340 -1.5425
 2450SOL    HW218984   3.184   0.791   7.767  1.5891  0.8830  2.0060
 2451SOL     OW18985   0.040   0.532   7.655  0.5116 -0.3002  0.5110
 2451SOL    HW118986   0.101   0.464   7.683 -2.4766 -2.6994  1.2937
 2451SOL    HW218987   0.060   0.609   7.707 -0.4368  1.4386 -1.7363
 2452SOL     OW18988   2.535   0.558   6.746 -0.3183  0.6318 -0.0843
 2452SOL    HW118989   2.599   0.531   6.812  0.2472 -1.2684 -1.3930
 2452SOL    HW218990   2.553   0.499   6.672  4.0311  0.7958  0.8449
 2453SOL     OW18991   0.371   3.121   4.429  0.2663  0.0111  0.3061
 2453SOL    HW118992   0.445   3.123   4.489 -0.9414  5.1848  1.6724
 2453SOL    HW218993   0.335   3.208   4.448  1.5011  0.4213  0.7815
 2454SOL     OW18994   3.845   3.472   2.236 -0.3579 -0.0534 -0.6899
 2454SOL    HW118995   3.939   3.485   2.247 -0.6975  0.7402  1.2443
 2454SOL    HW218996   3.808   3.466   2.324  0.9562 -1.4756 -0.2242
 2455SOL     OW18997   1.545   2.248  17.560 -0.1751 -0.1522 -0.3000
 2455SOL    HW118998   1.631   2.234  17.523  0.4624  0.2300  1.0174
 2455SOL    HW218999   1.490   2.189  17.509  1.1528 -1.3756 -0.2853
 2456SOL     OW19000   0.981   0.966   9.293  0.1696  0.5054  0.3048
 2456SOL    HW119001   0.918   1.000   9.356  0.2079  1.5741 -0.2388
 2456SOL    HW219002   1.018   1.050   9.266  2.3317 -1.1093 -1.8401
 2457SOL     OW19003   0.937   2.207  10.672  0.7286 -0.2193 -0.3505
 2457SOL    HW119004   0.924   2.121  10.631 -1.2638 -0.2585  0.3992
 2457SOL    HW219005   0.933   2.261  10.593  0.4435  0.2482 -0.0143
 2458SOL     OW19006   0.463   0.796   9.837  0.0633 -0.4688 -0.2455
 2458SOL    HW119007   0.375   0.760   9.827 -0.1116 -0.4556  1.3392
 2458SOL    HW219008   0.439   0.888   9.822 -0.7023 -0.9885 -2.3463
 2459SOL     OW19009   3.307   0.603   2.557 -0.2705  0.1009  0.2836
 2459SOL    HW119010   3.391   0.600   2.511  1.1014 -1.4914  2.9262
 2459SOL    HW219011   3.315   0.693   2.589  0.3143  0.3529 -0.5620
 2460SOL     OW19012   1.972   0.595   8.363 -0.2179 -0.0485 -0.0834
 2460SOL    HW119013   2.064   0.587   8.387 -0.5043  0.8613  1.3034
 2460SOL    HW219014   1.943   0.658   8.429  0.1043  0.4589 -0.4253
 2461SOL     OW19015   0.426   1.128   3.195  0.1587 -0.1628  0.0169
 2461SOL    HW119016   0.464   1.045   3.224 -2.7648 -1.2670  0.6971
 2461SOL    HW219017   0.426   1.117   3.100  0.4498 -0.1580  0.0158
 2462SOL     OW19018   4.522   2.094   9.965  0.2789  0.4663 -0.1412
 2462SOL    HW119019   4.612   2.092   9.932  1.0355  0.8760  1.8573
 2462SOL    HW219020   4.542   2.077  10.058 -1.3506  0.1209  0.1495
 2463SOL     OW19021   4.598   1.961   2.350 -0.1219  0.2613  0.6113
 2463SOL    HW119022   4.570   1.901   2.280 -1.7622 -0.1962  1.6399
 2463SOL    HW219023   4.690   1.937   2.354 -0.2471 -0.4506 -0.8847
 2464SOL     OW19024   1.955   0.294   9.462  0.1659 -0.2284 -0.3606
 2464SOL    HW119025   1.966   0.241   9.383 -0.9500 -4.7060  2.4870
 2464SOL    HW219026   1.861   0.287   9.481  0.3062  1.2869  0.8672
 2465SOL     OW19027   2.155   3.031   3.493  0.0920 -0.2216  0.6819
 2465SOL    HW119028   2.221   2.966   3.519  0.6162  1.1178  2.7497
 2465SOL    HW219029   2.185   3.107   3.543 -0.1302  0.3022  0.0102
 2466SOL     OW19030   4.293   1.067  10.094 -0.2476 -0.3019 -0.0068
 2466SOL    HW119031   4.364   1.092  10.035 -0.1115 -1.2855 -0.2703
 2466SOL    HW219032   4.348   1.053  10.171 -1.2930 -1.8074  0.4814
 2467SOL     OW19033   4.555   1.217   2.069 -0.1626  0.3937  0.0939
 2467SOL    HW119034   4.631   1.159   2.063 -1.3301 -1.0607 -0.6773
 2467SOL    HW219035   4.511   1.200   1.986 -0.4199  2.1640 -0.1182
 2468SOL     OW19036   0.643   1.937   6.112  0.0608 -0.3603 -0.4070
 2468SOL    HW119037   0.734   1.940   6.142 -0.1554  2.8279 -0.1396
 2468SOL    HW219038   0.622   2.025   6.081 -2.1798 -0.2862  1.2347
 2469SOL     OW19039   3.303   2.694   0.607  0.6064 -0.4119  0.2363
 2469SOL    HW119040   3.307   2.625   0.673  1.6125 -0.3416  0.2541
 2469SOL    HW219041   3.252   2.768   0.641  0.4834  1.2370 -3.4292
 2470SOL     OW19042   3.458   2.021   8.062  0.5568  0.3979  0.2496
 2470SOL    HW119043   3.502   1.939   8.085 -0.4290 -0.7069 -1.8125
 2470SOL    HW219044   3.436   2.055   8.149 -0.8529 -1.3032  0.5509
 2471SOL     OW19045   3.688   2.029   3.863  0.5814 -0.2108 -0.2251
 2471SOL    HW119046   3.662   2.091   3.795  1.4728  0.4516  0.0446
 2471SOL    HW219047   3.745   1.966   3.817  1.4305 -0.2117  0.8286
 2472SOL     OW19048   2.825   0.731   2.864  0.4046  0.3622  0.1453
 2472SOL    HW119049   2.794   0.767   2.781  0.8328  0.0595 -0.1453
 2472SOL    HW219050   2.917   0.752   2.854 -0.0400  1.0213 -2.4712
 2473SOL     OW19051   1.669   2.701   6.950 -0.2061 -0.4717  0.1569
 2473SOL    HW119052   1.575   2.715   6.961 -0.1810  0.2736 -0.5360
 2473SOL    HW219053   1.687   2.782   6.903 -0.0383 -1.3964 -1.3879
 2474SOL     OW19054   2.211   4.327   5.170  0.0558 -0.3850  0.4250
 2474SOL    HW119055   2.222   4.232   5.170  0.8224 -0.3074  1.3403
 2474SOL    HW219056   2.200   4.349   5.078  0.5422  2.0979  0.9422
 2475SOL     OW19057   3.457   1.072   4.083  0.5110 -0.2560  0.2218
 2475SOL    HW119058   3.461   1.140   4.150 -2.9996 -0.1880  0.3556
 2475SOL    HW219059   3.366   1.075   4.055  1.1485  0.9205 -1.7539
 2476SOL     OW19060   4.378   2.225   3.115 -0.7350  0.3773 -0.0399
 2476SOL    HW119061   4.420   2.141   3.134  1.1169  1.0821 -1.1065
 2476SOL    HW219062   4.407   2.242   3.025 -0.5978 -1.1980 -0.2975
 2477SOL     OW19063   1.186   3.523  12.612  0.3511 -0.7924  0.0624
 2477SOL    HW119064   1.211   3.437  12.645  0.7729 -0.4711  0.5907
 2477SOL    HW219065   1.210   3.517  12.520  0.7255 -2.4347  0.2673
 2478SOL     OW19066   2.809   3.855  12.283 -0.1456  0.1806 -0.5339
 2478SOL    HW119067   2.882   3.876  12.342 -0.8659 -2.1244  1.1474
 2478SOL    HW219068   2.835   3.891  12.197  2.4832  2.4711  1.2020
 2479SOL     OW19069   3.203   2.176   6.299  0.3583  0.0353 -0.2060
 2479SOL    HW119070   3.183   2.121   6.375  0.5102 -0.5445 -0.5800
 2479SOL    HW219071   3.146   2.133   6.234 -0.5663 -0.7732  1.1457
 2480SOL     OW19072   1.660   2.300   3.753 -0.6886 -0.0212  0.4188
 2480SOL    HW119073   1.696   2.213   3.735  0.4326  0.5476 -0.0211
 2480SOL    HW219074   1.700   2.322   3.837 -1.3239 -3.5880  1.6870
 2481SOL     OW19075   2.465   2.351   7.103 -0.0760 -0.1263  0.3719
 2481SOL    HW119076   2.425   2.337   7.189  1.9431 -0.1045  1.3189
 2481SOL    HW219077   2.407   2.295   7.052 -1.6482  1.0463  0.8668
 2482SOL     OW19078   3.308   0.177  17.006 -0.5933  0.3184 -0.7265
 2482SOL    HW119079   3.366   0.109  17.043 -1.8191 -0.6167 -0.5256
 2482SOL    HW219080   3.347   0.205  16.923  1.1823  0.8212  0.2651
 2483SOL     OW19081   4.689   0.818  15.568 -0.0065 -0.1492 -0.4105
 2483SOL    HW119082   0.019   0.811  15.503  0.2426 -0.6534 -0.0872
 2483SOL    HW219083   4.627   0.752  15.538  0.4724  0.5214 -2.9360
 2484SOL     OW19084   1.970   2.472   8.347  0.2826  0.2711  0.2581
 2484SOL    HW119085   1.970   2.495   8.440  0.0153  1.1152  0.0434
 2484SOL    HW219086   2.042   2.408   8.349 -0.2623 -0.3474  0.1274
 2485SOL     OW19087   1.737   2.086   9.291  0.5076  0.8672  0.3466
 2485SOL    HW119088   1.766   2.082   9.382 -0.3606  0.0842  0.5877
 2485SOL    HW219089   1.645   2.061   9.294  0.2713  1.6485 -0.3483
 2486SOL     OW19090   0.652   3.367   0.086 -0.7111  0.0382 -0.2018
 2486SOL    HW119091   0.606   3.309   0.147 -0.8062 -0.0222 -0.3305
 2486SOL    HW219092   0.741   3.339   0.103 -0.5910 -0.4147 -1.5388
 2487SOL     OW19093   3.715   3.128   3.870  0.1617  0.5100 -0.0730
 2487SOL    HW119094   3.732   3.188   3.797  0.3018  0.6948  0.1096
 2487SOL    HW219095   3.703   3.188   3.944  1.3248  0.0959  0.4487
 2488SOL     OW19096   0.997   1.492   5.611  0.0782 -0.5091 -0.5424
 2488SOL    HW119097   1.025   1.583   5.599  0.7775 -0.6731 -0.1367
 2488SOL    HW219098   1.068   1.441   5.571 -0.8097 -2.4022  0.3380
 2489SOL     OW19099   0.873   1.576   8.956  0.4529  0.2904 -0.0548
 2489SOL    HW119100   0.889   1.514   8.886  1.7910  0.9909 -0.3753
 2489SOL    HW219101   0.843   1.512   9.020  0.9673  0.5477  0.4440
 2490SOL     OW19102   2.798   0.358   8.434 -0.1049  0.3839  0.5179
 2490SOL    HW119103   2.736   0.378   8.364  0.0070  0.3778  0.4174
 2490SOL    HW219104   2.828   0.272   8.406  1.3680  0.3261  2.3106
 2491SOL     OW19105   0.104   1.467  13.742  0.2219  0.7410  0.2593
 2491SOL    HW119106   0.161   1.541  13.765  1.7726 -1.1204  2.4950
 2491SOL    HW219107   0.114   1.472  13.647 -0.0855  0.4071  0.2094
 2492SOL     OW19108   0.589   4.428   5.502  0.4534 -0.6314 -0.2994
 2492SOL    HW119109   0.623   4.350   5.459 -0.7883 -1.5202  0.3117
 2492SOL    HW219110   0.496   4.408   5.493  0.1762 -0.6159  2.2806
 2493SOL     OW19111   0.971   4.052   5.195 -0.3104 -0.4214  0.3301
 2493SOL    HW119112   0.932   3.965   5.192 -1.0129 -0.0867 -0.1001
 2493SOL    HW219113   0.911   4.087   5.261  1.4809 -0.0832  1.7898
 2494SOL     OW19114   3.321   3.610   7.589 -0.5266 -0.0154  0.6352
 2494SOL    HW119115   3.398   3.554   7.600  1.4008  2.2917 -1.2658
 2494SOL    HW219116   3.360   3.697   7.585  1.1950 -0.7678  0.8907
 2495SOL     OW19117   2.429   4.470  10.700 -0.3382  0.0338  0.1981
 2495SOL    HW119118   2.358   4.534  10.707 -1.1244 -0.8229  0.0929
 2495SOL    HW219119   2.509   4.515  10.726 -0.1328  0.6608 -1.5928
 2496SOL     OW19120   0.515   0.428  12.905  0.3303 -0.4758  0.3663
 2496SOL    HW119121   0.554   0.360  12.961 -1.3746 -0.8978  1.0302
 2496SOL    HW219122   0.460   0.376  12.846  0.3313 -0.7034  0.5666
 2497SOL     OW19123   2.745   3.830   7.320  0.0489 -0.0133  0.0437
 2497SOL    HW119124   2.795   3.767   7.269  0.0338 -1.8002  2.2028
 2497SOL    HW219125   2.713   3.769   7.387 -2.3279  1.9939  0.7519
 2498SOL     OW19126   3.849   4.125   4.240 -0.2264  0.0538  0.0830
 2498SOL    HW119127   3.935   4.146   4.205 -1.2867  2.1389 -1.3165
 2498SOL    HW219128   3.843   4.190   4.310  0.3061  0.9197 -0.6662
 2499SOL     OW19129   0.519   3.636  14.638  0.6131 -0.3319 -0.3785
 2499SOL    HW119130   0.514   3.688  14.558  0.5574 -0.4295 -0.4385
 2499SOL    HW219131   0.460   3.673  14.704  3.1947  1.4043  0.9830
 2500SOL     OW19132   1.160   3.291   3.682  0.5075  0.0273 -0.4875
 2500SOL    HW119133   1.186   3.371   3.729  1.5698 -0.0726 -0.9002
 2500SOL    HW219134   1.241   3.243   3.701  0.7293  1.6829  2.8399
 2501SOL     OW19135   3.531   2.271   2.716  0.7074 -0.4254  0.0418
 2501SOL    HW119136   3.551   2.195   2.662  1.1692  0.3479 -0.8904
 2501SOL    HW219137   3.613   2.321   2.716  1.0141 -0.9399 -1.6901
 2502SOL     OW19138   4.423   3.194  15.215  0.2970  0.2808  0.4343
 2502SOL    HW119139   4.381   3.223  15.134  0.7898 -1.5662 -0.4657
 2502SOL    HW219140   4.496   3.139  15.190  0.2965 -0.1432  1.3613
 2503SOL     OW19141   2.549   4.065   8.147  0.4750  0.2851  0.7330
 2503SOL    HW119142   2.587   4.053   8.060  1.4214 -0.7664  1.2911
 2503SOL    HW219143   2.465   4.103   8.121 -0.5648 -1.1940  1.9295
 2504SOL     OW19144   3.655   0.343   3.958 -0.0656 -0.4034 -0.3698
 2504SOL    HW119145   3.641   0.288   3.880 -0.5222  0.6746 -1.0458
 2504SOL    HW219146   3.568   0.378   3.978  0.0515 -0.6247  0.5329
 2505SOL     OW19147   4.625   3.137   1.474  0.1611 -0.7853  0.3960
 2505SOL    HW119148   4.604   3.059   1.422  0.4082 -0.4158 -0.2653
 2505SOL    HW219149   4.704   3.166   1.428 -0.1093  0.1826  0.5613
 2506SOL     OW19150   2.375   2.481  11.700  0.1274  0.1826  0.3698
 2506SOL    HW119151   2.330   2.487  11.785 -2.0403  0.3217 -0.7761
 2506SOL    HW219152   2.408   2.392  11.716  2.1668  0.6164 -1.5924
 2507SOL     OW19153   2.592   2.092   5.006 -0.3649 -0.4821 -0.4284
 2507SOL    HW119154   2.671   2.089   4.953  0.4242  0.8183  0.6523
 2507SOL    HW219155   2.579   2.008   5.050  0.3249 -0.3906 -0.0353
 2508SOL     OW19156   2.727   0.745   0.383  0.0020 -0.2171  0.3728
 2508SOL    HW119157   2.704   0.652   0.394  1.1455 -0.5256  0.1908
 2508SOL    HW219158   2.654   0.783   0.431 -0.8992 -2.4819  0.8071
 2509SOL     OW19159   2.842   2.065   5.915  0.2528  0.1633 -0.1381
 2509SOL    HW119160   2.851   2.138   5.854  1.8927  0.3789  0.3755
 2509SOL    HW219161   2.932   2.032   5.905 -0.3770 -1.7604  0.4420
 2510SOL     OW19162   1.035   4.541   7.141  0.1621  0.2238  0.8855
 2510SOL    HW119163   1.128   4.529   7.122 -0.5179 -1.6301 -1.3217
 2510SOL    HW219164   0.997   4.453   7.147  1.4633 -0.4987 -1.5335
 2511SOL     OW19165   0.129   3.890   9.382  0.0728  0.1563  0.1956
 2511SOL    HW119166   0.047   3.870   9.337  0.1052  1.2684 -0.3805
 2511SOL    HW219167   0.175   3.807   9.391  0.0269  0.3004  1.7656
 2512SOL     OW19168   3.052   3.951   1.930  0.7052  0.5717  0.0272
 2512SOL    HW119169   3.084   3.907   2.008  1.6843 -3.3435 -2.5426
 2512SOL    HW219170   3.085   3.896   1.858  0.1795 -0.4035  0.5329
 2513SOL     OW19171   2.545   3.695  11.130 -1.2189 -0.3118 -0.3931
 2513SOL    HW119172   2.456   3.680  11.101 -0.6018 -1.6727 -1.5464
 2513SOL    HW219173   2.540   3.784  11.167  0.7234  0.1836 -1.3360
 2514SOL     OW19174   4.674   3.542   4.261 -0.9221  0.2743 -0.0245
 2514SOL    HW119175   4.704   3.539   4.353  3.6716  0.0075 -1.5114
 2514SOL    HW219176   4.585   3.508   4.272  0.1223 -2.1638  0.9345
 2515SOL     OW19177   0.058   1.276   5.268 -0.2182 -0.0390 -0.0987
 2515SOL    HW119178   4.719   1.224   5.251 -1.4444  0.7061  3.2380
 2515SOL    HW219179   0.057   1.321   5.184  0.5942 -0.1222 -0.1483
 2516SOL     OW19180   1.852   1.093   5.457 -0.0752 -0.1325 -0.1348
 2516SOL    HW119181   1.771   1.060   5.417 -0.7721 -0.9688  2.0016
 2516SOL    HW219182   1.871   1.028   5.524 -0.7849  0.3395  0.5260
 2517SOL     OW19183   0.819   2.368   2.848  0.2115  0.1145 -0.2438
 2517SOL    HW119184   0.842   2.290   2.900 -0.5181 -1.3156 -2.0832
 2517SOL    HW219185   0.875   2.435   2.888  1.7816 -0.5273 -1.3877
 2518SOL     OW19186   2.810   0.481   9.747 -0.0325  0.0981  0.2000
 2518SOL    HW119187   2.897   0.463   9.711 -0.5618 -1.7895 -0.0918
 2518SOL    HW219188   2.829   0.567   9.786 -1.7019  0.6382 -0.2060
 2519SOL     OW19189   1.740   4.725  17.424  0.8141  0.3731 -0.3475
 2519SOL    HW119190   1.665   4.704  17.369  1.5956 -0.0366 -1.2551
 2519SOL    HW219191   1.781   0.054  17.372 -2.3657  1.0885 -1.8975
 2520SOL     OW19192   3.892   0.261   5.561  0.2500 -0.0015 -0.1004
 2520SOL    HW119193   3.983   0.275   5.586  1.0086 -3.6702 -0.7601
 2520SOL    HW219194   3.855   0.334   5.611 -2.0287 -0.8001 -0.6481
 2521SOL     OW19195   1.902   3.345  10.249  0.2092 -0.4394 -0.0653
 2521SOL    HW119196   1.868   3.404  10.316 -0.7307 -2.1980  1.0035
 2521SOL    HW219197   1.819   3.314  10.213 -0.4999  0.4348  0.8088
 2522SOL     OW19198   3.645   4.713   4.657  0.5508  0.0895  1.2465
 2522SOL    HW119199   3.687   0.059   4.643  2.1700 -1.3666 -2.9549
 2522SOL    HW219200   3.619   4.721   4.748  3.1788 -2.8040  2.2348
 2523SOL     OW19201   2.957   0.993   1.530 -0.3374  0.4131  0.4030
 2523SOL    HW119202   3.001   0.910   1.510 -2.0059 -0.2765 -0.4070
 2523SOL    HW219203   3.010   1.013   1.607 -1.2671 -0.1917  1.1952
 2524SOL     OW19204   1.115   1.452   5.851 -0.1242 -0.1539 -0.0994
 2524SOL    HW119205   1.178   1.509   5.805 -0.6160 -0.0182 -0.6064
 2524SOL    HW219206   1.055   1.428   5.780 -2.0522  0.8933  1.1641
 2525SOL     OW19207   4.495   3.028   8.986  0.1541 -0.1512 -0.5117
 2525SOL    HW119208   4.570   3.071   8.945  0.6181 -0.5659 -0.0876
 2525SOL    HW219209   4.473   2.959   8.924 -1.0591  1.9069 -2.3586
 2526SOL     OW19210   4.518   3.588   7.739 -0.0800  0.2261  0.5987
 2526SOL    HW119211   4.455   3.622   7.676 -1.2845  1.2627  2.3685
 2526SOL    HW219212   4.465   3.515   7.769  1.0656 -0.2027  1.6018
 2527SOL     OW19213   1.601   2.015   3.129 -0.4416 -0.0297  0.3038
 2527SOL    HW119214   1.658   2.090   3.144 -0.1261 -0.4814  1.3532
 2527SOL    HW219215   1.645   1.944   3.177  1.9407  1.6312  0.5759
 2528SOL     OW19216   1.168   0.442   7.642  0.1962 -0.1451 -0.3991
 2528SOL    HW119217   1.260   0.420   7.629 -0.1359 -0.1720 -2.6338
 2528SOL    HW219218   1.131   0.419   7.557 -1.2466 -1.2101  0.5183
 2529SOL     OW19219   3.492   4.690   4.908 -0.3486 -0.6408  0.1999
 2529SOL    HW119220   3.530   4.717   4.992  0.8548 -1.4652 -0.0794
 2529SOL    HW219221   3.417   0.009   4.908 -1.8388 -2.5207 -1.1946
 2530SOL     OW19222   0.457   0.320  17.474 -0.5435  0.1720  0.1127
 2530SOL    HW119223   0.439   0.411  17.497  4.4002  0.9202  0.9770
 2530SOL    HW219224   0.519   0.339  17.404  1.4238 -3.7885  0.8085
 2531SOL     OW19225   3.908   1.687  15.976 -0.8125 -0.0287  0.4545
 2531SOL    HW119226   3.897   1.644  16.060  0.8714 -0.1823  0.6078
 2531SOL    HW219227   3.999   1.718  15.981 -0.5412 -0.9474  1.3485
 2532SOL     OW19228   0.552   3.340   7.737 -0.3158  0.7680  0.1672
 2532SOL    HW119229   0.506   3.421   7.716 -0.1835  0.5521 -1.0049
 2532SOL    HW219230   0.638   3.372   7.764 -0.2242 -0.0423  0.8466
 2533SOL     OW19231   1.930   1.559   3.116 -0.5937  0.0248 -0.1768
 2533SOL    HW119232   1.851   1.517   3.151 -0.5548 -0.1255 -0.2717
 2533SOL    HW219233   1.950   1.506   3.039 -0.6973 -1.1643  0.6107
 2534SOL     OW19234   3.288   1.252   3.606  0.0478 -0.1034 -0.0120
 2534SOL    HW119235   3.213   1.311   3.609  0.4824  0.4795 -0.6083
 2534SOL    HW219236   3.348   1.298   3.665  1.5707  0.3816 -1.9176
 2535SOL     OW19237   0.535   2.903  12.359 -0.2052 -0.1568  0.2872
 2535SOL    HW119238   0.503   2.843  12.426 -1.8643 -0.2613 -0.6195
 2535SOL    HW219239   0.458   2.956  12.340  0.7882  1.3729  0.4622
 2536SOL     OW19240   0.736   2.677  12.381 -0.0755  0.0039 -0.2230
 2536SOL    HW119241   0.695   2.742  12.325 -0.8145 -1.4932 -1.4040
 2536SOL    HW219242   0.812   2.644  12.333 -1.0371 -1.0047 -1.0310
 2537SOL     OW19243   3.029   1.411  16.900 -0.0947  0.4550 -0.8057
 2537SOL    HW119244   2.961   1.385  16.838 -0.5304  3.0822 -1.4115
 2537SOL    HW219245   2.998   1.354  16.971 -0.2309  0.6423 -0.7153
 2538SOL     OW19246   1.633   4.670  11.231 -0.3440 -0.0923  0.1835
 2538SOL    HW119247   1.724   4.691  11.254 -0.8578  0.5165  1.6459
 2538SOL    HW219248   1.622   4.723  11.152 -1.4057  1.2818  1.2719
 2539SOL     OW19249   3.445   0.598   6.013  0.0456  0.0926  0.0574
 2539SOL    HW119250   3.482   0.521   6.057 -0.4693  0.1776  0.6386
 2539SOL    HW219251   3.384   0.628   6.080 -0.5348  0.8629 -0.8244
 2540SOL     OW19252   3.016   2.886   9.026  0.5220  0.2273 -0.0314
 2540SOL    HW119253   2.940   2.831   9.006  0.1102  0.8278 -0.1116
 2540SOL    HW219254   2.976   2.970   9.046  0.2370  0.1334 -0.2040
 2541SOL     OW19255   1.218   3.179   8.072 -0.6302 -0.2839  0.3076
 2541SOL    HW119256   1.307   3.211   8.085 -0.7774  0.6501 -1.0346
 2541SOL    HW219257   1.213   3.153   7.980  1.0104 -0.6290  0.3320
 2542SOL     OW19258   0.200   0.520   7.402 -0.4011 -0.2212  0.3660
 2542SOL    HW119259   0.146   0.522   7.482 -1.5693  1.6795 -0.4553
 2542SOL    HW219260   0.247   0.603   7.413 -2.2515  0.7411  1.0832
 2543SOL     OW19261   0.887   1.626   1.628  0.4386 -0.0542 -0.0178
 2543SOL    HW119262   0.836   1.572   1.688 -0.2456 -0.1555 -0.6919
 2543SOL    HW219263   0.966   1.644   1.679 -0.7455  0.9467  1.4545
 2544SOL     OW19264   4.165   2.644   4.781  0.0328  0.1666  0.3094
 2544SOL    HW119265   4.240   2.636   4.840 -2.0145  0.7117  3.0058
 2544SOL    HW219266   4.113   2.570   4.811 -0.9922  1.4225  1.6421
 2545SOL     OW19267   4.374   0.378   1.872  0.5375  0.1949 -0.0886
 2545SOL    HW119268   4.322   0.438   1.925 -0.5599 -0.5844 -0.2851
 2545SOL    HW219269   4.343   0.397   1.783  0.6762  1.6382  0.1666
 2546SOL     OW19270   3.427   4.227   7.565  0.2146  0.2428 -0.5790
 2546SOL    HW119271   3.424   4.205   7.658 -3.7601 -0.5633 -0.8880
 2546SOL    HW219272   3.506   4.180   7.535  1.1301 -0.5359  3.0186
 2547SOL     OW19273   2.703   0.081   6.026  0.1099  0.0156 -0.0937
 2547SOL    HW119274   2.722   0.031   5.947 -1.4932 -1.5703  0.5301
 2547SOL    HW219275   2.607   0.082   6.022  0.1434 -1.0442 -0.9500
 2548SOL     OW19276   4.462   3.316   1.260 -0.2365  0.0292  0.3248
 2548SOL    HW119277   4.516   3.266   1.321  1.6840  0.0313 -1.3412
 2548SOL    HW219278   4.460   3.268   1.176 -0.9392 -1.5205  1.2228
 2549SOL     OW19279   0.801   2.151   0.522 -0.1567  0.3425 -0.3348
 2549SOL    HW119280   0.733   2.104   0.475 -1.0802  0.9073  0.4447
 2549SOL    HW219281   0.877   2.108   0.481 -0.9410 -0.1019 -1.3338
 2550SOL     OW19282   0.715   1.943   4.653 -0.2544  0.1048  0.4479
 2550SOL    HW119283   0.696   1.892   4.732  1.5900  2.1096  2.2225
 2550SOL    HW219284   0.810   1.945   4.645 -0.4063  0.5546 -1.1791
 2551SOL     OW19285   4.243   1.904   7.545 -0.2270 -0.5972  0.1215
 2551SOL    HW119286   4.288   1.820   7.537 -0.1125 -0.7631  2.5502
 2551SOL    HW219287   4.238   1.940   7.456 -0.8449 -0.5509  0.1702
 2552SOL     OW19288   0.767   4.146   1.844 -0.7275 -0.2425  0.4844
 2552SOL    HW119289   0.780   4.237   1.816 -0.2119 -0.9551 -1.5691
 2552SOL    HW219290   0.858   4.117   1.848 -1.0597 -1.0894  1.9626
 2553SOL     OW19291   4.314   3.429  13.351  0.4645  0.0684  0.3906
 2553SOL    HW119292   4.365   3.497  13.305 -1.2942  0.2547 -1.3013
 2553SOL    HW219293   4.383   3.372  13.386 -0.7557 -1.4746  0.2351
 2554SOL     OW19294   3.421   1.776   4.539 -0.1954 -0.1618  0.1267
 2554SOL    HW119295   3.515   1.785   4.557  0.3203 -2.2739 -1.4493
 2554SOL    HW219296   3.421   1.778   4.444  0.5544  0.9491  0.1483
 2555SOL     OW19297   2.049   2.490  12.230 -0.3044  0.2824  0.7604
 2555SOL    HW119298   2.039   2.493  12.326  3.3165 -0.5390  1.1897
 2555SOL    HW219299   2.059   2.398  12.207  2.7304  0.7238  0.3085
 2556SOL     OW19300   3.605   3.456   2.409 -0.3282 -0.0655 -0.6060
 2556SOL    HW119301   3.675   3.435   2.471  1.5006 -0.1559 -2.6895
 2556SOL    HW219302   3.583   3.544   2.440 -1.0114 -1.0423  1.6487
 2557SOL     OW19303   2.830   0.109   3.687 -0.3549  0.0747  0.3854
 2557SOL    HW119304   2.893   0.043   3.717  0.3380 -0.1846 -1.6437
 2557SOL    HW219305   2.867   0.120   3.600 -1.7148  0.6756 -0.1125
 2558SOL     OW19306   4.066   4.716  11.625 -0.1128 -0.2221  0.0294
 2558SOL    HW119307   4.052   4.680  11.538 -1.7143  1.9593 -0.5985
 2558SOL    HW219308   4.068   4.637  11.679 -0.5452  0.5851  1.2479
 2559SOL     OW19309   4.287   4.359   2.755 -0.0194  0.2788  0.3558
 2559SOL    HW119310   4.375   4.387   2.729 -0.4450  0.9398 -0.3708
 2559SOL    HW219311   4.319   4.308   2.829 -0.7642  0.8007  1.0429
 2560SOL     OW19312   3.255   4.444   5.646 -0.2540 -0.3545 -0.0070
 2560SOL    HW119313   3.307   4.377   5.689  0.8953  0.4467 -0.1602
 2560SOL    HW219314   3.244   4.416   5.555  1.2206  3.9147 -1.5306
 2561SOL     OW19315   3.676   4.192   6.024 -0.0183  0.2140 -0.0132
 2561SOL    HW119316   3.759   4.166   6.062  1.2414  1.9285 -1.5559
 2561SOL    HW219317   3.683   4.145   5.941  0.2004  3.9345 -2.1040
 2562SOL     OW19318   4.251   0.147  11.377  0.2633 -0.0978 -0.1744
 2562SOL    HW119319   4.297   0.227  11.351 -0.4185  0.4072  0.1737
 2562SOL    HW219320   4.303   0.114  11.451  1.1257  1.9232  0.1163
 2563SOL     OW19321   1.662   1.290  14.971  0.1386 -0.2515 -0.1302
 2563SOL    HW119322   1.680   1.234  15.046 -0.2184  1.7530  1.4524
 2563SOL    HW219323   1.743   1.340  14.958  0.6579 -1.0898 -0.0936
 2564SOL     OW19324   0.431   3.229   0.774  0.1570  0.7252  0.0694
 2564SOL    HW119325   0.496   3.288   0.737 -1.1921  1.0615 -1.7628
 2564SOL    HW219326   0.347   3.267   0.749  0.6802  1.4887 -0.5531
 2565SOL     OW19327   2.132   4.711  15.599 -0.6151  0.3791  0.1707
 2565SOL    HW119328   2.105   4.660  15.675  2.3993 -1.7647 -0.1748
 2565SOL    HW219329   2.072   0.044  15.612 -0.4921  0.1461  1.9905
 2566SOL     OW19330   1.488   1.811  12.155  0.0106 -0.0961  0.4625
 2566SOL    HW119331   1.457   1.803  12.245  0.1796  0.9401  0.6119
 2566SOL    HW219332   1.552   1.880  12.172  0.8703 -1.2424  1.9333
 2567SOL     OW19333   0.627   3.547   5.796  0.2289 -0.7006 -0.7438
 2567SOL    HW119334   0.635   3.585   5.883 -1.4571 -1.4416 -0.2800
 2567SOL    HW219335   0.610   3.453   5.808  2.3299 -0.8588  0.9760
 2568SOL     OW19336   1.098   4.184   3.155  0.0226 -0.0185 -0.5512
 2568SOL    HW119337   1.127   4.093   3.147  0.3604  0.1125 -0.8561
 2568SOL    HW219338   1.090   4.197   3.249 -1.0844  0.9867 -0.7829
 2569SOL     OW19339   1.195   0.880   2.071 -0.6987  0.5154 -0.3481
 2569SOL    HW119340   1.268   0.818   2.073 -1.2135 -0.1063 -1.4890
 2569SOL    HW219341   1.245   0.959   2.049  1.0136 -0.4314  0.0831
 2570SOL     OW19342   3.112   1.989   5.844  0.7010  0.8938  0.6606
 2570SOL    HW119343   3.141   1.917   5.901 -2.0337  2.2017  3.7060
 2570SOL    HW219344   3.195   2.031   5.821  1.3696  0.2585  1.8808
 2571SOL     OW19345   1.691   4.676   6.136 -0.8953  0.2114  0.4672
 2571SOL    HW119346   1.693   0.024   6.098 -1.6907 -0.3483 -0.8538
 2571SOL    HW219347   1.648   4.691   6.220 -0.9503  1.7034  0.1794
 2572SOL     OW19348   2.542   0.403  16.979 -0.3450 -0.0927  0.3387
 2572SOL    HW119349   2.537   0.462  17.054 -0.6283 -3.2977  2.8431
 2572SOL    HW219350   2.473   0.437  16.922 -0.7254 -2.7797 -0.8167
 2573SOL     OW19351   1.507   4.657   8.153 -0.0393  0.5759  0.0279
 2573SOL    HW119352   1.451   4.594   8.107 -1.5099  2.7250 -1.1026
 2573SOL    HW219353   1.546   4.699   8.077 -0.6436  1.7782  0.3859
 2574SOL     OW19354   0.607   4.689  12.365 -0.0711  0.1138  0.5185
 2574SOL    HW119355   0.513   4.705  12.368 -0.3336 -1.7407  2.6278
 2574SOL    HW219356   0.641   0.022  12.416  0.9270  0.0820 -0.0907
 2575SOL     OW19357   3.108   4.677   3.852 -0.0578 -0.4741 -0.4088
 2575SOL    HW119358   3.161   4.623   3.910  0.4687 -0.7894 -1.1805
 2575SOL    HW219359   3.054   4.722   3.917  1.3170  0.7268 -0.1151
 2576SOL     OW19360   0.027   2.263   4.470 -0.4148  0.0116  0.4651
 2576SOL    HW119361   4.740   2.327   4.404  1.2878 -1.7445 -1.9849
 2576SOL    HW219362   4.684   2.243   4.512 -0.9189 -0.8149 -0.8906
 2577SOL     OW19363   2.667   4.066  15.602 -0.0748  0.1448 -0.2048
 2577SOL    HW119364   2.682   4.102  15.689 -2.8937  1.1411 -0.1552
 2577SOL    HW219365   2.759   4.053  15.578 -0.2966  1.3619 -1.7519
 2578SOL     OW19366   1.355   1.085   1.903 -0.2175  0.2987 -0.1150
 2578SOL    HW119367   1.449   1.070   1.913 -0.2693  0.4456  0.6010
 2578SOL    HW219368   1.363   1.180   1.916 -0.8165  0.3382 -0.0207
 2579SOL     OW19369   1.667   1.017   6.915 -0.7614  0.9217  0.3882
 2579SOL    HW119370   1.719   1.082   6.962 -0.0086 -0.3207  1.2853
 2579SOL    HW219371   1.725   0.940   6.918 -2.3113 -0.2984 -0.7338
 2580SOL     OW19372   0.819   1.302   2.510 -0.1731  0.5031 -0.0797
 2580SOL    HW119373   0.821   1.395   2.532 -1.9779  0.7823 -1.0179
 2580SOL    HW219374   0.861   1.263   2.586 -0.8084  1.0591  0.5451
 2581SOL     OW19375   3.579   4.090  16.799 -0.0158  0.2173 -0.0215
 2581SOL    HW119376   3.501   4.131  16.761  0.3263  0.4983 -0.4272
 2581SOL    HW219377   3.616   4.040  16.726  0.0775  1.3277 -0.7396
 2582SOL     OW19378   1.077   0.177   3.810 -0.0588 -0.7624  0.0659
 2582SOL    HW119379   1.162   0.133   3.802  0.7615  0.4813  2.0622
 2582SOL    HW219380   1.020   0.115   3.856 -0.0382  0.7823  2.1958
 2583SOL     OW19381   3.170   0.937  11.112  0.0092 -0.2463  0.2557
 2583SOL    HW119382   3.221   1.013  11.141  1.9049 -1.3742 -0.1336
 2583SOL    HW219383   3.236   0.868  11.120 -0.8687 -1.3564 -2.1163
 2584SOL     OW19384   4.080   4.637   8.277 -0.0514 -0.3270  0.4658
 2584SOL    HW119385   4.110   4.623   8.187  1.3837 -1.4971  1.1280
 2584SOL    HW219386   4.128   4.576   8.333  0.2031  1.0760  1.7686
 2585SOL     OW19387   4.710   2.788   1.020  0.0111 -0.4675 -0.0502
 2585SOL    HW119388   4.698   2.704   0.976  1.9621 -0.9729  0.4161
 2585SOL    HW219389   0.058   2.775   1.054  0.5393 -1.2786 -1.7352
 2586SOL     OW19390   4.235   0.115  16.081  0.0019  0.5641 -0.0539
 2586SOL    HW119391   4.241   0.039  16.138 -0.5691 -0.7454 -1.7383
 2586SOL    HW219392   4.159   0.103  16.024  1.3120  1.6524 -2.0798
 2587SOL     OW19393   3.734   0.538  14.405 -0.3289  0.3656  0.9755
 2587SOL    HW119394   3.684   0.481  14.464  0.9072  0.5320  2.1894
 2587SOL    HW219395   3.822   0.504  14.422  0.4835  0.0942 -3.7623
 2588SOL     OW19396   2.004   3.691   5.565 -0.0354 -0.0086 -0.2230
 2588SOL    HW119397   2.044   3.657   5.645 -0.0290  1.8281  0.5486
 2588SOL    HW219398   1.925   3.638   5.574  0.3846 -0.1204  2.7588
 2589SOL     OW19399   4.294   4.626   9.297  0.3281 -0.4290  0.3709
 2589SOL    HW119400   4.249   4.671   9.226  0.7196  0.2034  0.5241
 2589SOL    HW219401   4.250   4.541   9.294  0.2493 -0.2459 -3.8212
 2590SOL     OW19402   2.179   2.692   2.442 -0.9284 -0.2070 -0.2715
 2590SOL    HW119403   2.147   2.705   2.532 -0.9133 -1.5892 -0.0763
 2590SOL    HW219404   2.263   2.737   2.450 -1.5407  0.9722 -0.4481
 2591SOL     OW19405   0.606   1.707   1.898 -0.3508  0.6090  0.1433
 2591SOL    HW119406   0.624   1.773   1.830 -0.0632  0.8796  0.4803
 2591SOL    HW219407   0.645   1.629   1.859 -0.1748  1.2141 -0.8975
 2592SOL     OW19408   2.980   3.828   7.986  0.2044  0.1169  0.1617
 2592SOL    HW119409   3.067   3.791   8.000  0.5063  1.3600  1.5007
 2592SOL    HW219410   2.939   3.741   7.992  2.5650 -0.7989  2.7968
 2593SOL     OW19411   4.597   2.766   9.103  0.0723  0.4947 -0.1536
 2593SOL    HW119412   4.618   2.859   9.115 -0.3237  0.5086  0.3701
 2593SOL    HW219413   4.642   2.746   9.021  2.2582  1.4014  0.8206
 2594SOL     OW19414   1.245   4.558  13.694  0.3851  0.0724  0.1697
 2594SOL    HW119415   1.187   4.626  13.728  1.4905  1.1711 -0.1247
 2594SOL    HW219416   1.262   4.595  13.607  1.1951 -1.0275 -0.1425
 2595SOL     OW19417   4.051   1.329   7.902 -0.0613  0.3710  0.0462
 2595SOL    HW119418   4.059   1.359   7.993  2.4887 -1.7189  0.5131
 2595SOL    HW219419   4.138   1.291   7.893  1.0534  3.4487 -2.0994
 2596SOL     OW19420   0.951   2.532   7.697 -0.8013 -0.3492 -0.7168
 2596SOL    HW119421   0.994   2.600   7.646  0.4766 -1.7604 -1.4843
 2596SOL    HW219422   0.966   2.461   7.635 -0.2707 -1.2246  0.4139
 2597SOL     OW19423   3.787   1.395   3.612  0.2756  0.5752  0.1127
 2597SOL    HW119424   3.754   1.472   3.566  2.1630  1.5992  0.5080
 2597SOL    HW219425   3.873   1.429   3.636  0.2528  0.2342  0.6726
 2598SOL     OW19426   2.763   2.409   6.012 -0.2853  0.4132  0.8629
 2598SOL    HW119427   2.729   2.377   5.929  3.2005  0.6259 -0.6715
 2598SOL    HW219428   2.689   2.465   6.036 -0.1333  0.8757  0.2737
 2599SOL     OW19429   0.416   2.697   9.228 -0.1518  0.2546 -0.2140
 2599SOL    HW119430   0.497   2.645   9.228  0.0759  0.6063 -2.4297
 2599SOL    HW219431   0.377   2.661   9.149 -3.4764 -1.7965  2.3632
 2600SOL     OW19432   4.394   0.057   7.588 -0.6105 -0.3838  0.5169
 2600SOL    HW119433   4.342   0.137   7.586  1.2572  0.8300  0.8196
 2600SOL    HW219434   4.399   0.045   7.683 -2.8563 -1.3971  0.5033
 2601SOL     OW19435   4.236   3.856   1.549  0.2875  0.7553 -0.0353
 2601SOL    HW119436   4.288   3.865   1.629  2.3836 -1.1175 -1.1605
 2601SOL    HW219437   4.224   3.761   1.538  2.2632  0.4271  0.5727
 2602SOL     OW19438   2.000   4.549   5.491  0.1208  0.0103  0.1316
 2602SOL    HW119439   1.989   4.625   5.548  2.1368 -1.6931  2.7689
 2602SOL    HW219440   1.923   4.563   5.435  1.0249  1.1882 -0.8197
 2603SOL     OW19441   3.921   3.911   2.451 -0.3852  0.6898 -0.3824
 2603SOL    HW119442   3.946   3.984   2.395  0.7668 -0.7949 -1.8055
 2603SOL    HW219443   3.826   3.919   2.444 -0.5760 -0.7125  0.5477
 2604SOL     OW19444   1.181   1.526  11.922 -0.3243  0.1934  0.4660
 2604SOL    HW119445   1.195   1.448  11.976  0.6819 -0.7049 -1.0950
 2604SOL    HW219446   1.178   1.598  11.985  1.3199  1.1765 -0.5837
 2605SOL     OW19447   4.099   0.420   4.335  0.8195 -0.2304 -0.0409
 2605SOL    HW119448   4.124   0.413   4.427 -0.2612  0.2481  0.2958
 2605SOL    HW219449   4.010   0.385   4.333  0.8697 -0.4046  0.7052
 2606SOL     OW19450   2.223   3.025   6.901 -0.0972  0.0638  0.4630
 2606SOL    HW119451   2.201   2.933   6.911  0.9492 -0.4096 -1.6448
 2606SOL    HW219452   2.244   3.026   6.807 -1.8851  0.0258  0.0586
 2607SOL     OW19453   1.764   3.239   7.925 -0.1381 -0.0786 -0.2260
 2607SOL    HW119454   1.759   3.174   7.995  0.8342 -1.7310 -1.6677
 2607SOL    HW219455   1.851   3.219   7.890  0.0433  1.2563 -0.5119
 2608SOL     OW19456   4.691   1.136   2.452  0.5174 -0.7011  0.3387
 2608SOL    HW119457   4.657   1.214   2.497 -1.5401 -1.8809  0.8520
 2608SOL    HW219458   0.007   1.090   2.515 -0.2281 -0.0856  1.4576
 2609SOL     OW19459   3.666   3.315  13.862  0.3591  0.0240  0.1251
 2609SOL    HW119460   3.619   3.338  13.943 -2.8578  0.5056 -1.8937
 2609SOL    HW219461   3.751   3.277  13.885  1.3525  1.4959 -1.1567
 2610SOL     OW19462   4.490   2.456   3.211 -0.6523  0.1379  0.5215
 2610SOL    HW119463   4.432   2.380   3.207  0.4395 -0.6981  0.4957
 2610SOL    HW219464   4.478   2.487   3.300  0.4343  0.0876  0.6878
 2611SOL     OW19465   4.226   1.678   4.997  0.4371 -0.0669  0.2773
 2611SOL    HW119466   4.135   1.694   5.023  1.3794  1.7764  2.3099
 2611SOL    HW219467   4.196   1.614   4.932 -1.0081  2.9188 -2.0111
 2612SOL     OW19468   4.676   3.661   2.686  0.2599 -1.0169 -0.8665
 2612SOL    HW119469   0.019   3.668   2.639  1.5737 -0.0368  1.6063
 2612SOL    HW219470   4.617   3.684   2.615  1.1760 -0.1937 -1.3613
 2613SOL     OW19471   3.602   0.525   4.530 -0.1582 -0.3226 -0.4410
 2613SOL    HW119472   3.568   0.523   4.441 -0.2880 -2.0193 -0.3650
 2613SOL    HW219473   3.696   0.533   4.513  0.0065 -0.1802  0.4947
 2614SOL     OW19474   4.151   3.191   1.113  0.8862  0.3905  0.8249
 2614SOL    HW119475   4.243   3.169   1.099  1.2844  1.5088  1.6973
 2614SOL    HW219476   4.140   3.145   1.197  0.6517 -0.4094  0.3487
 2615SOL     OW19477   3.623   2.632   0.599  0.3122  0.1906  0.3682
 2615SOL    HW119478   3.636   2.575   0.523 -0.8101  2.0644 -1.2255
 2615SOL    HW219479   3.539   2.599   0.630  0.4651 -1.1722 -0.6426
 2616SOL     OW19480   2.456   0.990   2.833  0.1778 -0.8400 -0.4378
 2616SOL    HW119481   2.473   0.972   2.926 -1.2679 -1.3439 -0.2684
 2616SOL    HW219482   2.536   1.028   2.799  0.4277  1.3354  2.5484
 2617SOL     OW19483   3.177   3.255   5.044 -0.7851  0.4525  0.2112
 2617SOL    HW119484   3.097   3.202   5.042  1.0108 -2.2027 -2.0279
 2617SOL    HW219485   3.201   3.254   5.136 -2.2205 -1.2185  0.5571
 2618SOL     OW19486   4.119   0.785   4.577  0.6321  0.4748 -0.5388
 2618SOL    HW119487   4.195   0.747   4.621 -0.5685 -0.7451  0.4990
 2618SOL    HW219488   4.088   0.842   4.647 -0.1368 -1.0176  0.3474
 2619SOL     OW19489   3.267   3.787   5.043  0.0182  0.1088  0.7884
 2619SOL    HW119490   3.298   3.701   5.015 -0.3844  0.3338 -0.3417
 2619SOL    HW219491   3.350   3.835   5.056 -0.1309  0.6123 -0.0813
 2620SOL     OW19492   2.500   1.820   5.377 -0.7627 -0.1923  0.5266
 2620SOL    HW119493   2.517   1.732   5.411  0.7124 -1.1901 -2.8501
 2620SOL    HW219494   2.424   1.815   5.319 -0.3123  3.5644 -0.4221
 2621SOL     OW19495   4.029   2.612   4.253 -0.3671 -0.0738 -0.6097
 2621SOL    HW119496   4.072   2.619   4.338  0.2354  0.8144 -0.9878
 2621SOL    HW219497   4.059   2.687   4.201  0.7301  1.2104  1.8678
 2622SOL     OW19498   2.687   0.091  15.079  0.0973 -0.1872  0.4799
 2622SOL    HW119499   2.721   0.179  15.064  0.0647 -0.3716 -0.6857
 2622SOL    HW219500   2.598   0.106  15.046  0.1720  0.1979  0.4488
 2623SOL     OW19501   1.564   2.512   5.810  0.0257 -0.5187  0.3347
 2623SOL    HW119502   1.634   2.447   5.811  0.6705  0.1530 -1.5937
 2623SOL    HW219503   1.506   2.462   5.753  0.1330 -0.6352  0.3273
 2624SOL     OW19504   2.466   0.691   4.102 -0.1351 -0.0204  0.1507
 2624SOL    HW119505   2.502   0.604   4.081 -0.1148  0.3291 -1.2605
 2624SOL    HW219506   2.548   0.739   4.095 -0.0551 -0.3720 -1.3308
 2625SOL     OW19507   3.704   3.545  15.138  0.2435 -0.2435 -0.0454
 2625SOL    HW119508   3.705   3.459  15.096 -0.8349 -1.2670  2.0216
 2625SOL    HW219509   3.736   3.517  15.224  2.3462 -1.3461 -1.1942
 2626SOL     OW19510   1.684   1.371   1.688  0.3377 -0.1298  0.2090
 2626SOL    HW119511   1.651   1.432   1.622  0.1206 -0.5380 -0.0548
 2626SOL    HW219512   1.660   1.406   1.774  1.4313  1.3319 -0.0755
 2627SOL     OW19513   0.829   3.988  12.564 -0.1108 -0.4899  0.0922
 2627SOL    HW119514   0.879   3.906  12.570  0.5801 -0.2158 -2.0437
 2627SOL    HW219515   0.904   4.044  12.545  0.9045 -2.2213 -0.9884
 2628SOL     OW19516   3.770   4.027   5.420 -0.1266  0.4343 -0.0294
 2628SOL    HW119517   3.701   4.059   5.363  0.4647  0.4089 -0.7569
 2628SOL    HW219518   3.761   4.086   5.495  1.2300 -0.6779  1.0216
 2629SOL     OW19519   3.430   1.029  10.220  0.3059  0.1749 -0.1722
 2629SOL    HW119520   3.462   0.940  10.203 -1.0953 -0.5753  1.2377
 2629SOL    HW219521   3.384   1.040  10.137 -0.3369  3.6299  0.6295
 2630SOL     OW19522   3.341   4.133   8.312 -0.3555  0.3681 -0.0316
 2630SOL    HW119523   3.366   4.220   8.282  3.5447 -0.5428  0.5646
 2630SOL    HW219524   3.396   4.119   8.389 -0.9550 -2.2718 -0.0729
 2631SOL     OW19525   1.718   4.400   4.008 -0.2380  0.2085 -0.4095
 2631SOL    HW119526   1.756   4.488   4.007  0.0165  0.0804 -1.7169
 2631SOL    HW219527   1.764   4.369   4.086  1.1590  0.1614 -1.2325
 2632SOL     OW19528   2.838   0.615   4.576  0.1874 -0.4167  0.1602
 2632SOL    HW119529   2.791   0.629   4.494 -2.7829  0.3682  1.9863
 2632SOL    HW219530   2.902   0.686   4.581  0.5997 -0.7426 -0.4732
 2633SOL     OW19531   1.308   0.340  14.475  0.0488  0.0737  0.0966
 2633SOL    HW119532   1.371   0.315  14.408 -1.1927 -0.5709 -0.8222
 2633SOL    HW219533   1.278   0.426  14.446 -0.4929  0.1488  0.8746
 2634SOL     OW19534   2.514   0.934   3.093  0.2250 -0.1232 -0.2678
 2634SOL    HW119535   2.542   0.849   3.124  2.2672  0.5324 -0.3147
 2634SOL    HW219536   2.479   0.978   3.170  1.2475  0.7966 -0.3242
 2635SOL     OW19537   2.937   1.577   3.656 -0.1528  0.2123 -0.6862
 2635SOL    HW119538   2.916   1.494   3.614  0.2255  1.3729 -3.1777
 2635SOL    HW219539   2.901   1.634   3.588 -1.1956  1.9690  1.3383
 2636SOL     OW19540   2.483   3.111  11.998 -0.3129 -0.0033  0.1467
 2636SOL    HW119541   2.438   3.064  12.068 -0.0403  0.5141  0.6757
 2636SOL    HW219542   2.475   3.048  11.928  0.6738 -0.5376  0.5123
 2637SOL     OW19543   0.734   0.003   7.023 -0.1786  0.4071 -0.4658
 2637SOL    HW119544   0.723   4.672   6.959  2.5840  0.4334 -0.9644
 2637SOL    HW219545   0.801   0.055   6.979 -2.0086  1.4393 -2.0491
 2638SOL     OW19546   2.442   4.466  13.180  0.0567  0.2604  0.2640
 2638SOL    HW119547   2.513   4.505  13.232  0.4336  0.8350 -0.6836
 2638SOL    HW219548   2.368   4.480  13.238  1.3913  0.5162  1.9271
 2639SOL     OW19549   1.214   4.411   0.013  0.5223 -0.5796 -0.2024
 2639SOL    HW119550   1.195   4.342   0.077  1.4268 -0.7491 -0.1113
 2639SOL    HW219551   1.306   4.396  17.747  0.7197 -1.5751  1.2355
 2640SOL     OW19552   4.151   4.139   5.149  0.3415  0.1159  0.4862
 2640SOL    HW119553   4.125   4.213   5.204  0.8029  1.2362 -0.7899
 2640SOL    HW219554   4.120   4.064   5.198  0.7275 -0.9554 -0.9116
 2641SOL     OW19555   2.794   2.959  10.796  0.0922 -0.1418 -0.3797
 2641SOL    HW119556   2.744   2.986  10.873 -0.1865  2.7329 -1.5521
 2641SOL    HW219557   2.850   3.036  10.793 -1.6146  1.0998 -0.6385
 2642SOL     OW19558   2.078   4.000  13.754  0.0404 -0.0766 -0.3789
 2642SOL    HW119559   2.128   4.080  13.769 -1.5654  0.5656  1.5175
 2642SOL    HW219560   1.991   4.041  13.751  0.7024  1.4503  0.8380
 2643SOL     OW19561   0.527   3.358   6.589 -0.1949  0.2877  0.4869
 2643SOL    HW119562   0.605   3.406   6.561  1.9137 -2.3031  1.8828
 2643SOL    HW219563   0.527   3.379   6.683  3.7905  1.3202  0.2488
 2644SOL     OW19564   4.562   4.118   1.996 -0.1460 -0.6127 -0.0979
 2644SOL    HW119565   4.501   4.134   1.924  0.9985  1.7614 -0.5432
 2644SOL    HW219566   4.625   4.187   1.974 -1.1503  0.4368  0.3317
 2645SOL     OW19567   4.555   3.988   7.317 -0.8617  0.3024  0.3346
 2645SOL    HW119568   4.529   3.900   7.291  0.8143 -0.3101  0.7398
 2645SOL    HW219569   4.542   3.993   7.412 -0.2539  0.7274  0.3926
 2646SOL     OW19570   0.060   3.639  16.629 -0.3388 -0.2925  0.0135
 2646SOL    HW119571   0.091   3.574  16.565 -0.6371  0.7392 -1.1771
 2646SOL    HW219572   0.137   3.695  16.643  0.1630 -0.7100 -1.0817
 2647SOL     OW19573   3.871   0.393  15.704 -0.1106  0.1540  0.5081
 2647SOL    HW119574   3.888   0.439  15.786  0.4501  2.6047 -0.9871
 2647SOL    HW219575   3.782   0.365  15.724  0.5541 -2.1336  0.2331
 2648SOL     OW19576   1.310   0.035   8.355 -0.1173  0.0734 -0.7059
 2648SOL    HW119577   1.289   0.126   8.335 -0.6377  0.2620  0.6611
 2648SOL    HW219578   1.363   4.737   8.286 -1.0074 -3.0279  0.3257
 2649SOL     OW19579   1.167   2.865   9.224 -0.0724  0.1075 -0.3096
 2649SOL    HW119580   1.080   2.896   9.199  0.7569  1.4557 -1.5518
 2649SOL    HW219581   1.151   2.782   9.268  0.3649  0.4466  0.5005
 2650SOL     OW19582   4.487   0.006   8.231  0.3685  0.0368 -0.5790
 2650SOL    HW119583   4.532   0.004   8.146 -1.2345  0.2259 -1.4352
 2650SOL    HW219584   4.560   0.023   8.290  0.0479 -2.2407  0.4670
 2651SOL     OW19585   2.067   4.233   4.079 -0.2484 -0.6767 -0.0852
 2651SOL    HW119586   1.994   4.256   4.138  1.6471 -1.2519  2.4706
 2651SOL    HW219587   2.125   4.302   4.112 -1.8434  0.6213  0.0594
 2652SOL     OW19588   1.242   2.583   4.265 -0.5142  0.2990 -0.2176
 2652SOL    HW119589   1.253   2.547   4.177 -1.1792 -3.1020  1.0831
 2652SOL    HW219590   1.182   2.521   4.307 -1.1204  2.1553  1.6782
 2653SOL     OW19591   4.561   1.772   9.295  0.0170  0.5320  0.0928
 2653SOL    HW119592   4.582   1.857   9.335 -1.8912 -0.3121  2.9333
 2653SOL    HW219593   4.536   1.730   9.377  1.4039 -0.9094 -0.2428
 2654SOL     OW19594   3.410   0.179   1.763 -0.2435  0.6367  0.0124
 2654SOL    HW119595   3.418   0.169   1.858  0.8927 -0.0984 -0.1726
 2654SOL    HW219596   3.361   0.261   1.752 -1.8931 -0.3711 -0.2571
 2655SOL     OW19597   1.395   3.601   3.470 -0.4132 -0.3498 -0.5501
 2655SOL    HW119598   1.400   3.608   3.566  2.0373 -0.2168 -0.6886
 2655SOL    HW219599   1.469   3.542   3.459  0.7803  0.7900  1.3796
 2656SOL     OW19600   4.626   2.962   1.234 -0.1668 -0.0433  0.3684
 2656SOL    HW119601   4.537   2.951   1.202 -0.0016  0.1369 -0.1545
 2656SOL    HW219602   4.679   2.915   1.170 -1.6655 -2.2093  0.7141
 2657SOL     OW19603   1.164   3.937   3.242  0.2348  0.6324  1.0177
 2657SOL    HW119604   1.140   3.983   3.323  0.8166  0.1522  1.4637
 2657SOL    HW219605   1.184   3.848   3.272 -2.2806 -0.6601 -1.0770
 2658SOL     OW19606   2.724   3.187   2.654  0.4617 -0.1248  0.4155
 2658SOL    HW119607   2.703   3.239   2.576  1.6828 -0.6186 -0.2545
 2658SOL    HW219608   2.680   3.238   2.721  1.4465 -2.0139  2.5181
 2659SOL     OW19609   0.938   2.746   1.412 -0.2539 -0.5199  0.2377
 2659SOL    HW119610   0.888   2.756   1.331 -2.6266  0.3916  1.7916
 2659SOL    HW219611   0.859   2.733   1.466 -0.4877  1.6818  0.4201
 2660SOL     OW19612   0.437   3.405   2.921  0.3595  0.0786  0.0853
 2660SOL    HW119613   0.434   3.441   3.009  1.3575 -1.4094  0.7253
 2660SOL    HW219614   0.517   3.448   2.891  1.0466 -2.4180 -1.6765
 2661SOL     OW19615   2.943   0.896  14.495 -0.5522  0.1268  0.5471
 2661SOL    HW119616   2.962   0.856  14.410 -0.0987  0.0469  0.6839
 2661SOL    HW219617   2.969   0.987  14.483  0.1802 -0.3075 -1.1740
 2662SOL     OW19618   1.014   2.901  13.317  0.3116 -0.1734  0.6014
 2662SOL    HW119619   1.003   2.807  13.324 -0.1437 -0.1201  0.5771
 2662SOL    HW219620   0.992   2.907  13.224  1.2875  0.5450  0.4162
 2663SOL     OW19621   0.031   2.862   0.484  0.1675  0.3174  0.6787
 2663SOL    HW119622   0.060   2.801   0.551  0.3097  0.0142  0.3426
 2663SOL    HW219623   0.075   2.943   0.507  2.8848 -0.2634 -2.4786
 2664SOL     OW19624   2.700   1.893   4.602  0.1364 -0.1690 -0.0760
 2664SOL    HW119625   2.770   1.954   4.626  0.8254 -1.1917  0.5422
 2664SOL    HW219626   2.758   1.845   4.542 -0.1442  0.7477 -1.0725
 2665SOL     OW19627   4.711   4.172  15.573  0.1296 -0.2959  0.0388
 2665SOL    HW119628   4.681   4.234  15.507 -0.0346  0.0665  0.4541
 2665SOL    HW219629   0.064   4.179  15.549  0.4558  1.3335  1.7412
 2666SOL     OW19630   0.052   4.062   2.597  0.5106 -0.0829 -0.4601
 2666SOL    HW119631   0.067   4.122   2.523  1.2078  0.5560  0.2023
 2666SOL    HW219632   0.128   4.004   2.587  0.4199 -0.3355  0.3116
 2667SOL     OW19633   1.973   1.235   6.145  0.0313  0.0841  0.2946
 2667SOL    HW119634   1.946   1.262   6.233  0.1756  0.2847  0.2764
 2667SOL    HW219635   1.898   1.256   6.090  0.6343  1.4573 -0.0005
 2668SOL     OW19636   2.265   1.249   2.169 -0.1534 -0.6550 -0.3137
 2668SOL    HW119637   2.244   1.342   2.165  1.6431 -0.1849  1.3523
 2668SOL    HW219638   2.177   1.212   2.168 -0.8794  1.0848 -0.5334
 2669SOL     OW19639   4.348   2.608   6.604  0.0579 -0.1853  0.2787
 2669SOL    HW119640   4.302   2.686   6.573  2.1736  1.3855  1.0485
 2669SOL    HW219641   4.325   2.535   6.547 -1.6510 -0.1306  0.9192
 2670SOL     OW19642   4.535   3.443   5.981 -0.6754  0.5721  0.2207
 2670SOL    HW119643   4.470   3.464   6.049 -1.9853 -2.6031 -0.0498
 2670SOL    HW219644   4.538   3.347   5.979 -0.7719  0.5720  0.0940
 2671SOL     OW19645   0.319   0.450  11.572  0.5531  0.5910  0.2062
 2671SOL    HW119646   0.288   0.422  11.485 -2.0366  0.8603  1.0365
 2671SOL    HW219647   0.402   0.490  11.549 -0.3209  0.4679 -3.1889
 2672SOL     OW19648   0.373   2.743   3.048  0.4705  0.0545  0.0480
 2672SOL    HW119649   0.323   2.823   3.034  0.6628  0.1683  0.0127
 2672SOL    HW219650   0.384   2.696   2.965 -0.3812 -0.9879  0.5304
 2673SOL     OW19651   4.286   1.661   6.090 -0.1437 -0.2452  0.3790
 2673SOL    HW119652   4.280   1.678   5.996  0.3175  0.4668  0.4840
 2673SOL    HW219653   4.193   1.665   6.110 -0.5268 -0.8554 -1.2489
 2674SOL     OW19654   1.920   2.059  12.124 -0.4760  0.1589  0.0223
 2674SOL    HW119655   1.828   2.037  12.109 -0.0622 -0.6860 -1.3598
 2674SOL    HW219656   1.907   2.128  12.189  0.5678 -0.5183  0.9341
 2675SOL     OW19657   2.290   0.460   3.854 -0.0001 -0.5625 -0.3388
 2675SOL    HW119658   2.336   0.536   3.890 -0.6259  0.7728 -2.3835
 2675SOL    HW219659   2.361   0.408   3.817  1.8171  0.2410  1.9454
 2676SOL     OW19660   3.979   3.656   1.360 -0.3099 -0.2706 -0.4251
 2676SOL    HW119661   4.055   3.714   1.353 -0.1912 -0.6406 -2.1615
 2676SOL    HW219662   3.917   3.703   1.304 -0.5839 -0.2312 -0.0899
 2677SOL     OW19663   0.979   0.253   7.177 -0.3555 -0.5800 -0.2139
 2677SOL    HW119664   0.887   0.269   7.199 -0.7393 -1.5068 -1.1498
 2677SOL    HW219665   0.960   0.217   7.090 -2.4527 -0.4264  0.1824
 2678SOL     OW19666   4.499   3.067   5.128  0.1424 -0.0173 -0.5062
 2678SOL    HW119667   4.477   3.049   5.037  2.3867  1.0790 -1.2818
 2678SOL    HW219668   4.486   2.981   5.166 -0.7229 -0.7565 -2.4850
 2679SOL     OW19669   1.189   2.306   8.332  0.9572 -0.0048 -0.2004
 2679SOL    HW119670   1.243   2.273   8.260  0.1460 -1.0610 -0.3283
 2679SOL    HW219671   1.180   2.397   8.304  0.4094 -0.0873 -0.2974
 2680SOL     OW19672   3.842   1.440  15.026 -0.4634 -0.1367  0.1740
 2680SOL    HW119673   3.863   1.390  14.947  0.9124  1.8964 -0.7394
 2680SOL    HW219674   3.766   1.490  14.994 -0.5476  0.1904  0.8961
 2681SOL     OW19675   4.512   1.134   7.154 -0.1286  0.2586 -0.4244
 2681SOL    HW119676   4.428   1.137   7.107 -0.6927  1.9782  0.7198
 2681SOL    HW219677   4.555   1.205   7.107 -0.9822  0.1260 -1.4084
 2682SOL     OW19678   3.478   2.416  16.853  0.3182  0.3477  0.1557
 2682SOL    HW119679   3.494   2.336  16.903  0.5261 -0.0017 -0.4659
 2682SOL    HW219680   3.415   2.458  16.911 -2.3667 -1.3772 -1.5040
 2683SOL     OW19681   0.439   3.623   3.964 -0.3186 -0.8970  0.1878
 2683SOL    HW119682   0.511   3.686   3.958 -1.1109  0.0616  0.8318
 2683SOL    HW219683   0.462   3.571   4.041 -2.7614 -3.3276 -0.7470
 2684SOL     OW19684   2.841   3.698   6.874 -0.6090  0.0396  0.2276
 2684SOL    HW119685   2.904   3.766   6.849 -2.1254  1.2245 -0.4371
 2684SOL    HW219686   2.846   3.694   6.969 -1.0449 -0.3840  0.2358
 2685SOL     OW19687   4.429   3.182  15.490 -0.2708 -0.4288  0.3295
 2685SOL    HW119688   4.402   3.203  15.401 -1.5766 -0.4422  0.7195
 2685SOL    HW219689   4.524   3.172  15.479 -0.6985 -0.6427 -3.0101
 2686SOL     OW19690   1.491   4.299  16.343 -0.8996 -0.3389  0.0093
 2686SOL    HW119691   1.572   4.269  16.302 -0.3302 -0.4125  1.2149
 2686SOL    HW219692   1.453   4.355  16.275 -0.4907 -0.5617 -0.4019
 2687SOL     OW19693   1.351   3.037   5.691 -0.4648  0.7430 -0.1988
 2687SOL    HW119694   1.436   3.004   5.663 -1.3717  0.0801 -2.1901
 2687SOL    HW219695   1.380   3.084   5.770  0.7323  1.4354 -1.0574
 2688SOL     OW19696   4.661   2.262  15.201  0.1083 -0.6842 -0.6321
 2688SOL    HW119697   4.610   2.278  15.280 -2.2641  0.2084 -2.3305
 2688SOL    HW219698   4.600   2.224  15.137 -1.1680 -2.4524  1.6431
 2689SOL     OW19699   3.506   3.466  11.273  0.6662 -0.0100  0.6977
 2689SOL    HW119700   3.462   3.487  11.191  1.3081  0.2934  0.4343
 2689SOL    HW219701   3.589   3.514  11.269  0.4223  0.3337 -0.1137
 2690SOL     OW19702   1.030   3.656   9.164 -0.6998  0.0333  0.5908
 2690SOL    HW119703   1.084   3.734   9.157 -2.1150  0.9635 -0.0036
 2690SOL    HW219704   1.088   3.595   9.119  0.8081  0.9708  1.2629
 2691SOL     OW19705   4.714   2.894   7.899 -0.5899  0.4699 -0.7167
 2691SOL    HW119706   4.628   2.932   7.882 -1.1805 -0.9028 -0.7651
 2691SOL    HW219707   0.008   2.865   7.814  3.4611 -3.3390  2.2165
 2692SOL     OW19708   3.293   2.760   6.056  0.4701 -0.4471  0.0284
 2692SOL    HW119709   3.274   2.806   6.138  0.9479  0.3528 -0.3058
 2692SOL    HW219710   3.272   2.669   6.075 -1.1540 -0.0576  0.1521
 2693SOL     OW19711   4.696   0.900   6.075 -0.1213 -0.2578 -0.0281
 2693SOL    HW119712   4.627   0.940   6.023  2.0454  2.2473 -0.9464
 2693SOL    HW219713   4.717   0.972   6.135  0.6750 -1.4455  1.1550
 2694SOL     OW19714   2.385   2.516   3.739 -0.0936  0.5996  0.6281
 2694SOL    HW119715   2.387   2.569   3.659 -3.4061 -0.6795 -0.3243
 2694SOL    HW219716   2.473   2.481   3.750 -0.6794 -0.5292  1.7404
 2695SOL     OW19717   2.226   1.510   9.783  0.5082 -0.4228 -0.6481
 2695SOL    HW119718   2.299   1.460   9.820 -0.1573 -1.9605 -1.4256
 2695SOL    HW219719   2.227   1.490   9.690 -0.8593 -0.4584 -0.6595
 2696SOL     OW19720   3.790   3.935  12.896  0.0519  0.8994  0.0128
 2696SOL    HW119721   3.745   3.882  12.962  2.2715  0.6011  1.3034
 2696SOL    HW219722   3.800   4.019  12.941 -2.2248  2.0866 -1.7026
 2697SOL     OW19723   1.623   0.440   5.258  0.1982 -0.3370 -0.0789
 2697SOL    HW119724   1.527   0.434   5.251  0.0742  1.4861  0.0278
 2697SOL    HW219725   1.657   0.363   5.213 -0.0480  0.1737 -1.1417
 2698SOL     OW19726   1.371   3.754   5.024  0.4905  0.4036  0.2206
 2698SOL    HW119727   1.461   3.728   5.041 -0.1080 -1.8950 -0.1241
 2698SOL    HW219728   1.346   3.717   4.939  2.0375  0.8714 -0.4285
 2699SOL     OW19729   1.801   1.696   1.869  0.6594 -0.6103 -0.0237
 2699SOL    HW119730   1.738   1.740   1.812  0.8485  0.8582  0.8977
 2699SOL    HW219731   1.735   1.667   1.932 -0.2151  0.3270 -0.5077
 2700SOL     OW19732   3.940   3.450  14.238  0.0088  0.4365  0.3552
 2700SOL    HW119733   3.939   3.379  14.173 -0.6227  0.4523  0.3528
 2700SOL    HW219734   3.889   3.519  14.195 -1.0246 -0.8517 -0.4902
 2701SOL     OW19735   4.069   3.634   5.352 -0.6781  0.4560 -0.1556
 2701SOL    HW119736   3.996   3.623   5.291 -0.5678  3.9968 -0.9318
 2701SOL    HW219737   4.101   3.718   5.320 -1.4270  0.1541 -1.7376
 2702SOL     OW19738   2.796   0.261   4.194 -0.1905  0.0140 -0.2138
 2702SOL    HW119739   2.715   0.210   4.191  0.5912 -1.3597  1.8980
 2702SOL    HW219740   2.812   0.265   4.288  1.0765 -0.4741 -0.3990
 2703SOL     OW19741   2.351   3.360   6.841 -0.0818 -0.5470  0.0431
 2703SOL    HW119742   2.368   3.446   6.803 -0.0737 -0.2543  0.7070
 2703SOL    HW219743   2.427   3.359   6.900 -1.3058  0.0520  1.6220
 2704SOL     OW19744   0.863   1.635   0.523 -0.9747 -0.3389 -0.4367
 2704SOL    HW119745   0.854   1.710   0.581 -0.7523 -2.1648  1.9468
 2704SOL    HW219746   0.951   1.600   0.535 -0.4295  1.4918  0.8818
 2705SOL     OW19747   0.665   2.561   4.667 -0.2993 -0.8604  0.6995
 2705SOL    HW119748   0.734   2.613   4.710  0.6242  0.8706 -2.8584
 2705SOL    HW219749   0.676   2.594   4.577 -0.1627 -1.4614  0.4954
 2706SOL     OW19750   1.926   0.958   3.012 -0.4936 -0.3648  0.3538
 2706SOL    HW119751   2.008   0.997   3.042 -0.7921  1.0004 -0.6163
 2706SOL    HW219752   1.952   0.870   2.988 -0.5154  0.3411 -2.2196
 2707SOL     OW19753   4.651   3.549  15.093  1.0421  0.2022 -0.1637
 2707SOL    HW119754   4.601   3.558  15.012 -0.1631 -0.7469  0.4766
 2707SOL    HW219755   0.003   3.554  15.068  1.6108 -1.2672  1.6225
 2708SOL     OW19756   1.477   3.378   3.811 -0.5912 -0.2470  0.4603
 2708SOL    HW119757   1.572   3.383   3.806 -0.7589 -0.1222 -2.5589
 2708SOL    HW219758   1.449   3.451   3.757  1.1821  0.1198  0.0386
 2709SOL     OW19759   0.544   1.148   4.859 -0.1509 -0.0645  0.0602
 2709SOL    HW119760   0.563   1.230   4.905  2.1577 -1.0479  0.8772
 2709SOL    HW219761   0.454   1.123   4.877  0.1507 -1.7153 -0.7827
 2710SOL     OW19762   0.191   3.983  11.439  0.1135  0.5068  0.4096
 2710SOL    HW119763   0.252   3.950  11.505  0.0108 -1.1952 -0.3410
 2710SOL    HW219764   0.131   4.035  11.493 -1.9367 -2.1234  0.7098
 2711SOL     OW19765   2.369   0.778   7.613  0.2672  0.5230  0.1498
 2711SOL    HW119766   2.299   0.840   7.634  0.2872 -0.1996  2.2791
 2711SOL    HW219767   2.388   0.740   7.698 -1.5577  0.5446  0.5600
 2712SOL     OW19768   2.741   2.195   9.074  0.5238 -0.2768 -0.0884
 2712SOL    HW119769   2.667   2.150   9.034  1.1205  1.0337 -2.6502
 2712SOL    HW219770   2.761   2.269   9.016  1.6640  1.0602  1.9964
 2713SOL     OW19771   1.580   0.021   2.726  0.1803  0.3097  0.0061
 2713SOL    HW119772   1.585   4.739   2.634 -0.4720  0.0991  0.0225
 2713SOL    HW219773   1.488   0.008   2.749 -0.1744  0.3134 -1.4404
 2714SOL     OW19774   2.647   4.077   7.369 -0.4438  0.4780  0.3593
 2714SOL    HW119775   2.649   4.082   7.465 -0.5389 -0.0842  0.3941
 2714SOL    HW219776   2.687   3.993   7.345  2.4407  2.2183 -0.8763
 2715SOL     OW19777   0.309   4.609   7.758 -0.4417  0.5273  0.6419
 2715SOL    HW119778   0.231   4.555   7.771 -0.1054  0.2995  1.7438
 2715SOL    HW219779   0.292   4.634   7.667  0.2975 -0.7495  0.1619
 2716SOL     OW19780   2.885   0.529  16.114  0.0716 -0.6693 -0.9704
 2716SOL    HW119781   2.950   0.490  16.172 -1.8574 -2.9716 -0.3257
 2716SOL    HW219782   2.810   0.534  16.173  1.4612  3.3463  0.4957
 2717SOL     OW19783   2.962   3.783   0.489  0.2349 -0.2501 -0.3598
 2717SOL    HW119784   3.022   3.768   0.416  1.3624 -2.6625  1.0815
 2717SOL    HW219785   2.887   3.728   0.469 -0.4037  0.1699  0.9148
 2718SOL     OW19786   4.110   2.728   7.838 -0.3128 -0.2282 -0.3862
 2718SOL    HW119787   4.189   2.781   7.851  1.3960 -3.2909  1.6449
 2718SOL    HW219788   4.060   2.776   7.772  0.8471  2.5730  0.7249
 2719SOL     OW19789   3.653   0.317   3.452  0.6015 -0.2049 -0.5811
 2719SOL    HW119790   3.637   0.337   3.359  0.3599  0.1352 -0.4657
 2719SOL    HW219791   3.697   0.396   3.484  0.1091 -0.7135  1.3014
 2720SOL     OW19792   2.865   4.252   8.036 -0.0185  0.1120  0.1938
 2720SOL    HW119793   2.817   4.335   8.036  2.7748  1.7297  1.8500
 2720SOL    HW219794   2.921   4.259   7.959  0.7457  1.1778  0.8546
 2721SOL     OW19795   4.353   2.713  15.642 -0.5101  0.2059 -0.0257
 2721SOL    HW119796   4.336   2.785  15.581 -0.8951 -0.3762 -0.6182
 2721SOL    HW219797   4.369   2.767  15.719  0.5853 -2.4216  1.6034
 2722SOL     OW19798   1.802   1.302   9.961 -0.0745  0.4181 -0.0473
 2722SOL    HW119799   1.888   1.261   9.949  0.3331  1.6416 -1.2229
 2722SOL    HW219800   1.744   1.236   9.923 -1.1954  1.3009  0.1416
 2723SOL     OW19801   2.481   4.200   2.570 -0.1446 -0.2113 -0.3261
 2723SOL    HW119802   2.438   4.209   2.485 -0.6053  0.8934  0.0354
 2723SOL    HW219803   2.423   4.258   2.619  1.7117  0.5249  0.9964
 2724SOL     OW19804   3.446   3.165   3.666  0.3597  0.0702  0.2255
 2724SOL    HW119805   3.515   3.122   3.717  0.9431  0.2412 -0.4282
 2724SOL    HW219806   3.362   3.143   3.706  0.3805  0.2350  0.3610
 2725SOL     OW19807   2.736   0.064   0.658 -0.1394 -0.2402 -0.1800
 2725SOL    HW119808   2.785   0.005   0.715 -0.5080 -0.5821 -0.2178
 2725SOL    HW219809   2.753   0.154   0.687 -0.7956 -0.5731  1.2503
 2726SOL     OW19810   3.798   1.839   7.571 -0.1074  0.3205  0.2208
 2726SOL    HW119811   3.712   1.849   7.611 -0.8719  1.6591 -1.7649
 2726SOL    HW219812   3.849   1.908   7.612  1.6612 -0.7204 -0.2359
 2727SOL     OW19813   4.058   2.490   3.901  0.7751  0.3642 -0.2252
 2727SOL    HW119814   4.152   2.489   3.919  1.1110  2.3763 -1.8268
 2727SOL    HW219815   4.046   2.585   3.899  0.7094  0.3765  1.2541
 2728SOL     OW19816   3.502   0.986   1.789  0.6344  0.0677  0.3822
 2728SOL    HW119817   3.413   0.980   1.823  0.8074 -2.4794  0.3345
 2728SOL    HW219818   3.492   1.061   1.730  0.0541  0.1384  0.5751
 2729SOL     OW19819   4.001   4.116   2.849  0.1235  0.0964  0.7737
 2729SOL    HW119820   4.051   4.067   2.914  0.7071  1.1830  1.1378
 2729SOL    HW219821   4.012   4.205   2.882 -0.0833  0.6448 -0.6328
 2730SOL     OW19822   2.922   1.818  10.259 -0.1392  0.2578 -0.4066
 2730SOL    HW119823   2.860   1.881  10.221  0.0314 -0.3609 -1.7090
 2730SOL    HW219824   2.896   1.823  10.351  0.5395 -0.8923 -0.1616
 2731SOL     OW19825   0.437   3.803   3.724  0.9061  0.6356 -0.2769
 2731SOL    HW119826   0.480   3.807   3.809 -0.1064  0.8146  0.2252
 2731SOL    HW219827   0.375   3.873   3.743  0.5170  0.4127 -0.7227
 2732SOL     OW19828   0.548   1.268   2.457 -0.2872 -0.0426  0.0894
 2732SOL    HW119829   0.534   1.206   2.386  1.3936 -1.6225  1.1277
 2732SOL    HW219830   0.639   1.254   2.484 -0.6778 -2.3540  0.2318
 2733SOL     OW19831   1.600   3.259   2.764  0.1258 -0.6550  0.2136
 2733SOL    HW119832   1.641   3.277   2.849  1.0909  0.3292 -0.4578
 2733SOL    HW219833   1.629   3.170   2.744  0.5639 -0.1572 -1.3467
 2734SOL     OW19834   2.180   1.156   5.610 -0.4436  0.0187  0.2576
 2734SOL    HW119835   2.138   1.172   5.694  1.6223  1.1456  1.0812
 2734SOL    HW219836   2.227   1.075   5.633  1.2298  0.5882 -1.1960
 2735SOL     OW19837   1.699   0.833  16.537  0.2311  0.7135  0.5416
 2735SOL    HW119838   1.615   0.878  16.527 -0.5642 -0.6273  1.2005
 2735SOL    HW219839   1.706   0.842  16.632  0.7278 -0.6340  0.6170
 2736SOL     OW19840   2.271   1.269   6.143 -0.2871  0.2593 -0.3129
 2736SOL    HW119841   2.178   1.269   6.123 -0.0305  0.9404 -1.4710
 2736SOL    HW219842   2.282   1.364   6.153  3.4631  0.3103 -4.8812
 2737SOL     OW19843   2.744   1.867   4.060 -0.1540  0.3531  0.7953
 2737SOL    HW119844   2.665   1.824   4.026  0.6029 -0.5736  0.1980
 2737SOL    HW219845   2.710   1.947   4.099 -3.0509 -1.3252  1.8005
 2738SOL     OW19846   0.459   1.624  13.556 -0.3460 -0.3490 -0.2693
 2738SOL    HW119847   0.396   1.691  13.584  0.9223  0.4715  0.5970
 2738SOL    HW219848   0.523   1.643  13.624 -0.6274  1.1104 -0.4036
 2739SOL     OW19849   3.676   2.941   5.999 -0.2374 -0.1607  0.1920
 2739SOL    HW119850   3.620   2.984   6.064 -0.8240  0.2215 -0.5557
 2739SOL    HW219851   3.751   2.916   6.053  1.2237 -0.8866 -2.1558
 2740SOL     OW19852   1.598   2.684   2.855  0.1767 -0.3026 -0.1427
 2740SOL    HW119853   1.640   2.695   2.941 -0.3567 -0.8031  0.1793
 2740SOL    HW219854   1.573   2.591   2.855 -0.3517 -0.1621  0.5436
 2741SOL     OW19855   2.071   0.602   2.009 -0.3073  0.2740  0.3974
 2741SOL    HW119856   2.151   0.608   2.061  1.0739  2.1301 -1.9351
 2741SOL    HW219857   2.066   0.676   1.949 -1.2868 -0.9196 -0.9994
 2742SOL     OW19858   4.364   3.262   7.721  0.0182 -0.5563 -0.3276
 2742SOL    HW119859   4.294   3.244   7.783 -1.2601  1.1144 -1.2989
 2742SOL    HW219860   4.424   3.190   7.743  0.9727  0.5650  0.7007
 2743SOL     OW19861   0.379   0.931   3.692  0.3077 -0.0512 -0.2464
 2743SOL    HW119862   0.452   0.941   3.630 -0.8391  3.8538 -0.9185
 2743SOL    HW219863   0.419   0.977   3.766  2.5361  1.1698 -2.1902
 2744SOL     OW19864   2.816   3.178   9.334  0.0812 -0.1898  0.0981
 2744SOL    HW119865   2.907   3.183   9.364  0.0357 -0.2818  0.2524
 2744SOL    HW219866   2.772   3.141   9.411  0.9739  0.1876  0.7879
 2745SOL     OW19867   2.969   2.025   0.986 -0.0420 -0.4739 -0.4304
 2745SOL    HW119868   3.058   2.003   1.014 -0.5777 -4.1146 -1.5351
 2745SOL    HW219869   2.923   1.942   0.971  1.5362 -1.2426 -1.0746
 2746SOL     OW19870   3.821   0.795   2.090  0.1192 -0.4653 -0.4175
 2746SOL    HW119871   3.849   0.878   2.052 -2.6600  1.7460  2.3538
 2746SOL    HW219872   3.902   0.773   2.137 -1.6747 -1.7174  2.1232
 2747SOL     OW19873   4.667   2.831   0.234  0.3363  0.0087  0.0006
 2747SOL    HW119874   4.700   2.852   0.322 -2.4772  0.5141  0.9301
 2747SOL    HW219875   4.672   2.735   0.228 -0.0680 -0.1934  2.6198
 2748SOL     OW19876   2.811   2.333   5.269 -0.1573  0.0302 -0.7132
 2748SOL    HW119877   2.786   2.240   5.264 -0.8973 -0.0404  3.6408
 2748SOL    HW219878   2.896   2.326   5.312 -1.8764  0.7839  2.8194
 2749SOL     OW19879   3.520   2.189   0.825  0.2310  0.1982 -0.8236
 2749SOL    HW119880   3.455   2.183   0.755  0.3437 -1.6248 -0.7735
 2749SOL    HW219881   3.473   2.239   0.891 -0.2316  1.1949 -1.9056
 2750SOL     OW19882   0.714   4.044   4.558  0.0629 -0.0528  0.5809
 2750SOL    HW119883   0.654   4.107   4.598  0.1484  0.8287 -0.6908
 2750SOL    HW219884   0.776   4.029   4.629  1.1545  0.3690 -0.2820
 2751SOL     OW19885   2.797   4.627  17.420 -0.5103 -0.2930 -0.1088
 2751SOL    HW119886   2.864   4.687  17.453 -0.2205 -0.1362 -0.9887
 2751SOL    HW219887   2.732   4.627  17.491 -0.4487 -3.8223 -0.0655
 2752SOL     OW19888   2.996   2.133   7.028  0.3647  0.4536  0.3328
 2752SOL    HW119889   2.929   2.199   7.045 -1.0754 -0.0049 -3.6528
 2752SOL    HW219890   2.943   2.055   7.040 -0.3596  0.6441 -1.7914
 2753SOL     OW19891   3.700   2.117   9.258 -0.6038 -0.0012  0.2581
 2753SOL    HW119892   3.743   2.099   9.342  0.3506 -0.1024 -0.2505
 2753SOL    HW219893   3.759   2.076   9.195  1.6517  2.2265  0.9017
 2754SOL     OW19894   0.777   4.026  11.360  0.9143  0.2090  0.3008
 2754SOL    HW119895   0.694   4.009  11.316  0.1731  1.5279  1.2006
 2754SOL    HW219896   0.756   4.015  11.453 -0.8996 -3.7750 -0.5654
 2755SOL     OW19897   4.002   3.979   1.506 -0.6820  0.3366 -0.2761
 2755SOL    HW119898   3.949   3.926   1.565  1.3155 -1.9496 -0.5522
 2755SOL    HW219899   4.091   3.949   1.527 -0.7853  1.0000  1.1446
 2756SOL     OW19900   0.522   3.753  17.107  0.0200 -0.1515 -0.4101
 2756SOL    HW119901   0.456   3.762  17.176 -0.7450  0.6863 -1.2542
 2756SOL    HW219902   0.479   3.804  17.038 -0.1778 -0.5618 -0.5888
 2757SOL     OW19903   4.692   1.832   3.816 -0.0120 -0.3548 -0.4015
 2757SOL    HW119904   0.029   1.889   3.817 -0.1140 -0.2099 -1.4550
 2757SOL    HW219905   4.718   1.749   3.855 -0.5618  0.8358  2.5033
 2758SOL     OW19906   0.155   1.420  13.134 -0.3568 -0.3037 -0.3452
 2758SOL    HW119907   0.180   1.330  13.154 -2.1184 -0.7288 -0.0668
 2758SOL    HW219908   0.219   1.448  13.068 -0.8911  0.1726 -0.6543
 2759SOL     OW19909   2.522   2.224   2.702 -0.5149  0.6371  0.4260
 2759SOL    HW119910   2.525   2.277   2.781 -1.6280 -1.0507  1.5900
 2759SOL    HW219911   2.434   2.245   2.669 -1.3790 -1.5257  1.3776
 2760SOL     OW19912   1.459   3.989   7.870 -0.6079 -0.2189  0.2856
 2760SOL    HW119913   1.435   4.030   7.787  2.2619  0.7700 -0.0355
 2760SOL    HW219914   1.429   3.899   7.854 -1.2544 -0.3869  2.4694
 2761SOL     OW19915   1.084   3.013   7.373 -0.0447  0.1821 -0.0338
 2761SOL    HW119916   1.118   3.074   7.308  0.1919 -0.1619 -0.2342
 2761SOL    HW219917   1.000   2.990   7.332  0.0609 -1.9730  0.9660
 2762SOL     OW19918   0.507   4.147   0.054 -0.3912  0.6682  0.1309
 2762SOL    HW119919   0.569   4.106  17.752 -0.1125  2.9217 -1.1621
 2762SOL    HW219920   0.566   4.189   0.116  0.2040 -1.9762  1.3226
 2763SOL     OW19921   3.109   1.367   1.830  0.2285 -0.1539  0.0681
 2763SOL    HW119922   3.092   1.372   1.736  1.5181 -0.3330 -0.1772
 2763SOL    HW219923   3.049   1.434   1.862  0.2832 -0.1466  0.1556
 2764SOL     OW19924   2.027   3.118   6.347  0.2952 -0.6030  0.2649
 2764SOL    HW119925   2.112   3.127   6.390 -0.4867  1.5270  1.3524
 2764SOL    HW219926   1.974   3.174   6.403 -0.7663 -1.5571  0.2311
 2765SOL     OW19927   0.354   3.064   5.337  0.3189 -0.1025 -0.1065
 2765SOL    HW119928   0.339   2.975   5.306 -1.2180  0.4967 -1.0965
 2765SOL    HW219929   0.440   3.069   5.295  0.1082 -0.4684 -0.5870
 2766SOL     OW19930   1.130   0.938  11.658 -0.1924  0.3304  0.2338
 2766SOL    HW119931   1.150   1.021  11.613  0.8969 -0.0601 -0.0037
 2766SOL    HW219932   1.066   0.909  11.593 -0.4340 -1.0985  1.1176
 2767SOL     OW19933   2.599   0.702   4.409 -0.1891 -0.1406 -0.5878
 2767SOL    HW119934   2.517   0.742   4.440  0.4162 -2.0223  3.3963
 2767SOL    HW219935   2.595   0.620   4.458  1.4417 -1.0176 -1.9314
 2768SOL     OW19936   4.260   2.089   8.097 -0.2473 -0.3531  0.1541
 2768SOL    HW119937   4.309   2.107   8.017 -1.2957  0.2519 -0.3622
 2768SOL    HW219938   4.174   2.127   8.075 -0.3319 -1.0078 -0.6815
 2769SOL     OW19939   3.627   2.039   4.718 -0.3740  0.0531  0.5072
 2769SOL    HW119940   3.659   1.953   4.691  0.0351  1.3796 -3.3300
 2769SOL    HW219941   3.660   2.083   4.639 -0.9817  0.7475  0.6485
 2770SOL     OW19942   1.712   4.010   5.780  0.4982 -0.3314 -0.2615
 2770SOL    HW119943   1.718   4.089   5.726 -1.8674 -1.4957 -2.2548
 2770SOL    HW219944   1.650   3.954   5.734  1.2237 -1.4344  0.0952
 2771SOL     OW19945   3.854   1.911   1.480 -0.2195  0.1484 -0.4221
 2771SOL    HW119946   3.936   1.952   1.451  0.2306 -0.3118  0.2179
 2771SOL    HW219947   3.856   1.913   1.576  0.1939  1.1292 -0.4513
 2772SOL     OW19948   4.485   1.904   3.169  0.1165  0.3775 -0.6542
 2772SOL    HW119949   4.433   1.891   3.248  1.9504 -0.7108  0.3619
 2772SOL    HW219950   4.428   1.846   3.117 -2.0782 -0.3749  2.5673
 2773SOL     OW19951   1.414   3.084   2.172 -0.0144 -0.1006  0.1776
 2773SOL    HW119952   1.400   3.160   2.116 -1.1404 -0.4611 -0.0251
 2773SOL    HW219953   1.398   3.119   2.259 -3.8666 -1.2156 -0.0999
 2774SOL     OW19954   0.510   2.197   0.814  0.0032  0.5131 -0.3070
 2774SOL    HW119955   0.521   2.137   0.740  0.1340  0.5636 -0.3296
 2774SOL    HW219956   0.445   2.157   0.872 -2.3875  2.4781 -1.6367
 2775SOL     OW19957   3.553   3.777  11.848  0.6212  0.5139 -0.3845
 2775SOL    HW119958   3.459   3.762  11.856  0.8549 -1.2114 -0.8279
 2775SOL    HW219959   3.582   3.726  11.923 -1.0327  0.5397  0.2657
 2776SOL     OW19960   4.404   4.272  16.297 -0.1168 -0.6422  0.0074
 2776SOL    HW119961   4.442   4.273  16.209  1.8000  3.0069  0.8606
 2776SOL    HW219962   4.323   4.323  16.288  0.3305  0.0814  0.0558
 2777SOL     OW19963   0.589   0.799   3.929 -0.3439 -0.3728 -0.0576
 2777SOL    HW119964   0.648   0.807   4.004 -0.5302  1.1368 -0.0751
 2777SOL    HW219965   0.534   0.877   3.935  0.7584  0.4010 -0.0324
 2778SOL     OW19966   0.152   4.273   4.334 -0.0435 -0.1559 -0.3086
 2778SOL    HW119967   0.094   4.252   4.407  2.2353  0.8281  1.8020
 2778SOL    HW219968   0.081   4.286   4.272 -0.5277 -0.2915  0.2154
 2779SOL     OW19969   0.805   1.494  13.581 -0.0492 -0.1654 -0.4400
 2779SOL    HW119970   0.858   1.495  13.660  1.4185 -0.9642 -1.4147
 2779SOL    HW219971   0.754   1.572  13.603 -0.9008 -0.3145 -1.8465
 2780SOL     OW19972   1.044   1.553   8.487  0.3671  0.1815 -0.3204
 2780SOL    HW119973   1.019   1.644   8.506  2.6302  1.1368 -2.1016
 2780SOL    HW219974   1.032   1.547   8.393 -0.8365 -0.2431 -0.1483
 2781SOL     OW19975   3.976   0.535   2.797 -0.0185  0.6993 -0.5603
 2781SOL    HW119976   3.945   0.585   2.722  1.0088 -1.0165 -2.1083
 2781SOL    HW219977   4.020   0.601   2.851  1.0990 -1.2842  0.9691
 2782SOL     OW19978   0.849   3.676   8.250 -0.0355 -0.0115 -1.2341
 2782SOL    HW119979   0.935   3.706   8.280 -1.1683  1.5534  0.5410
 2782SOL    HW219980   0.808   3.763   8.257  0.5353  0.2823 -1.5169
 2783SOL     OW19981   1.302   1.598  16.961  0.1344 -0.0518  0.2697
 2783SOL    HW119982   1.281   1.577  17.052  1.0673 -0.5528  0.3748
 2783SOL    HW219983   1.219   1.606  16.916 -0.3241  1.7149  1.4303
 2784SOL     OW19984   1.249   1.645   6.855  0.1278  0.2427  0.1927
 2784SOL    HW119985   1.163   1.603   6.844  0.9568 -1.5792  0.6560
 2784SOL    HW219986   1.292   1.610   6.777 -2.7370 -0.3986 -1.0973
 2785SOL     OW19987   0.658   0.869   9.491 -0.8119 -0.3086 -0.6184
 2785SOL    HW119988   0.707   0.951   9.492 -0.9717 -0.2418  2.1698
 2785SOL    HW219989   0.571   0.900   9.466 -0.5521 -0.6927 -2.0095
 2786SOL     OW19990   4.170   4.667  17.403 -0.7532  0.3378  0.1541
 2786SOL    HW119991   4.132   4.580  17.394  0.1273  0.1521 -1.7752
 2786SOL    HW219992   4.185   4.670  17.497  2.3315  2.1111 -0.3852
 2787SOL     OW19993   0.669   2.461   7.460  0.2006  0.1730 -0.0997
 2787SOL    HW119994   0.763   2.455   7.476  0.0036 -3.0468 -0.1538
 2787SOL    HW219995   0.648   2.523   7.389  1.2189 -0.5054 -0.9912
 2788SOL     OW19996   0.176   3.355   4.458  0.7354 -0.1950 -0.6248
 2788SOL    HW119997   0.184   3.390   4.546  0.3762  0.1243 -0.7182
 2788SOL    HW219998   0.088   3.318   4.466  0.2960  0.8047 -0.8632
 2789SOL     OW19999   1.643   4.660   2.467 -0.1728 -0.2762 -0.0671
 2789SOL    HW120000   1.579   4.667   2.397  0.0774  2.3591 -0.0148
 2789SOL    HW220001   1.727   4.651   2.423  0.0510 -0.1410  0.3270
 2790SOL     OW20002   0.456   2.705  11.724  0.0133 -0.8242 -0.4556
 2790SOL    HW120003   0.457   2.613  11.697 -0.5878 -1.2562  0.9612
 2790SOL    HW220004   0.435   2.749  11.642  1.1222  1.8222  0.6956
 2791SOL     OW20005   1.089   1.935   3.532  0.0886 -0.2610 -0.3921
 2791SOL    HW120006   1.108   1.946   3.439 -1.2378 -0.7869 -0.7398
 2791SOL    HW220007   1.177   1.904   3.554 -0.2272  0.7279  2.1827
 2792SOL     OW20008   2.341   3.523   9.813  0.0921  0.4666  0.3271
 2792SOL    HW120009   2.263   3.469   9.804  0.4645  0.1687 -1.0748
 2792SOL    HW220010   2.375   3.505   9.901  2.0512 -1.8792 -0.9235
 2793SOL     OW20011   1.642   2.761   5.151 -0.4960 -0.0459  0.6560
 2793SOL    HW120012   1.730   2.724   5.139 -1.3964 -1.8480 -0.3132
 2793SOL    HW220013   1.631   2.803   5.066  0.9695 -0.2899  0.3404
 2794SOL     OW20014   4.652   0.662   4.230  0.1917  0.9203  0.1142
 2794SOL    HW120015   4.711   0.736   4.217  0.2492  0.9971  0.8228
 2794SOL    HW220016   4.677   0.625   4.315  0.0771  3.0338  1.0559
 2795SOL     OW20017   3.030   2.607   4.573  0.5547 -0.3979 -0.5023
 2795SOL    HW120018   3.012   2.550   4.498  0.2286 -3.4156  1.9046
 2795SOL    HW220019   3.000   2.549   4.643 -1.1241 -1.9123 -2.4903
 2796SOL     OW20020   4.345   1.490   6.948  0.2789 -0.4138  0.5430
 2796SOL    HW120021   4.292   1.569   6.952 -0.5958 -0.9936  0.4096
 2796SOL    HW220022   4.282   1.418   6.942 -1.6940  1.1482  2.7488
 2797SOL     OW20023   4.228   2.023   2.012  0.2522  0.4398  0.4278
 2797SOL    HW120024   4.317   2.054   2.029  0.1791  1.6210 -1.3120
 2797SOL    HW220025   4.247   1.930   2.001 -2.1688  0.0262 -0.2946
 2798SOL     OW20026   4.100   2.715   8.487  0.1667 -0.4909 -0.2961
 2798SOL    HW120027   4.098   2.804   8.453 -0.5132  0.5473  2.4649
 2798SOL    HW220028   4.063   2.673   8.410 -1.5052 -1.2995  0.9438
 2799SOL     OW20029   4.582   3.564   1.159  0.4779  0.3145  0.4425
 2799SOL    HW120030   4.585   3.635   1.223 -0.6006 -0.9480  1.8766
 2799SOL    HW220031   4.527   3.497   1.200 -0.3611  0.6957 -0.0477
 2800SOL     OW20032   2.316   3.877  13.765 -0.0126  0.4318 -0.0596
 2800SOL    HW120033   2.235   3.919  13.795 -1.2111 -1.8099 -0.1942
 2800SOL    HW220034   2.362   3.855  13.846 -0.6782  2.3637  0.8541
 2801SOL     OW20035   4.516   3.756   0.686  0.3958  0.1440 -0.1332
 2801SOL    HW120036   4.600   3.769   0.642  1.2735 -2.4035  0.8160
 2801SOL    HW220037   4.469   3.839   0.698 -0.4218 -0.3989  0.4270
 2802SOL     OW20038   0.439   3.383   2.494 -0.3612 -0.4292 -0.4362
 2802SOL    HW120039   0.431   3.427   2.409 -4.5668  1.2760  0.8415
 2802SOL    HW220040   0.452   3.292   2.467  2.6369 -0.0828 -0.1674
 2803SOL     OW20041   0.889   2.403  13.788 -0.1716 -0.2675  0.4366
 2803SOL    HW120042   0.974   2.375  13.755 -0.6826  0.9134 -1.8694
 2803SOL    HW220043   0.853   2.459  13.719 -0.8874 -0.9297  0.2742
 2804SOL     OW20044   3.479   3.772   7.327 -0.0086  0.2917  0.7464
 2804SOL    HW120045   3.414   3.795   7.260 -0.3126 -1.6484  0.3763
 2804SOL    HW220046   3.459   3.680   7.337  0.9855 -0.1388 -1.1060
 2805SOL     OW20047   3.499   2.610   7.328 -0.1291  0.8614 -0.2951
 2805SOL    HW120048   3.527   2.643   7.242  0.3191 -0.1439 -0.5334
 2805SOL    HW220049   3.547   2.661   7.394 -0.5704  0.6796  0.1619
 2806SOL     OW20050   1.032   1.548  13.776 -0.1303 -0.4778  0.5403
 2806SOL    HW120051   1.073   1.579  13.696 -1.1502 -0.6424 -0.0477
 2806SOL    HW220052   1.066   1.604  13.846 -1.1194 -0.0279  0.6641
 2807SOL     OW20053   2.814   1.885   8.819  0.3092  0.6645 -0.0389
 2807SOL    HW120054   2.819   1.789   8.812 -0.4283  0.4514  2.5868
 2807SOL    HW220055   2.729   1.885   8.863  1.0999  0.1256  1.5057
 2808SOL     OW20056   4.611   2.256   8.200  0.4309  0.3145 -0.7303
 2808SOL    HW120057   4.608   2.228   8.291 -2.0185  0.7731 -0.6735
 2808SOL    HW220058   4.588   2.175   8.154  3.9002 -3.1003  3.6095
 2809SOL     OW20059   4.156   4.702  11.973 -0.1676 -0.4742 -0.0896
 2809SOL    HW120060   4.110   0.016  11.909  0.9607  1.1078  0.4389
 2809SOL    HW220061   4.164   4.618  11.927 -0.5793 -0.6238  0.1145
 2810SOL     OW20062   3.304   4.076  10.493 -0.1003  0.3960 -0.0150
 2810SOL    HW120063   3.318   4.166  10.465 -0.5296  0.3422 -0.3869
 2810SOL    HW220064   3.267   4.043  10.412  2.0933  0.4579 -1.0563
 2811SOL     OW20065   1.475   4.736   9.363  0.1004 -0.0036  0.0876
 2811SOL    HW120066   1.389   0.026   9.334  0.4095 -0.3150 -1.1614
 2811SOL    HW220067   1.471   0.015   9.457 -4.0511  0.6805 -0.2208
 2812SOL     OW20068   4.468   0.968   1.773  0.0203  0.2397  0.1176
 2812SOL    HW120069   4.519   0.932   1.847  2.5454  3.0260 -0.2430
 2812SOL    HW220070   4.522   0.945   1.698 -1.7663 -2.2020 -0.4043
 2813SOL     OW20071   4.606   0.550   3.755 -0.3568  0.4609  0.2727
 2813SOL    HW120072   4.676   0.539   3.820  0.6252 -0.1178 -0.8905
 2813SOL    HW220073   4.641   0.598   3.680 -2.9570  1.0809 -0.5319
 2814SOL     OW20074   4.134   2.926  17.361  0.4284 -0.1629 -0.6001
 2814SOL    HW120075   4.070   2.995  17.379  0.0164 -0.5445 -0.5665
 2814SOL    HW220076   4.168   2.924  17.451  0.3257 -0.1266 -0.5601
 2815SOL     OW20077   3.195   3.550   3.079 -0.0137 -0.1756 -0.6642
 2815SOL    HW120078   3.245   3.611   3.133 -1.3073 -0.4014  0.7827
 2815SOL    HW220079   3.260   3.480   3.074 -0.6821 -0.7887 -0.8720
 2816SOL     OW20080   2.884   3.642   4.206  0.0138 -0.0253  0.1420
 2816SOL    HW120081   2.829   3.596   4.142 -0.1429 -1.3436  1.2043
 2816SOL    HW220082   2.894   3.731   4.172  1.2361  0.2739  1.3082
 2817SOL     OW20083   1.940   0.712   1.134 -0.0772 -0.2609 -0.0093
 2817SOL    HW120084   1.981   0.794   1.161  0.3742 -1.0105  1.6240
 2817SOL    HW220085   2.017   0.660   1.111 -0.0505 -0.1166 -0.2443
 2818SOL     OW20086   0.519   1.117   2.239 -0.0372 -0.4505 -0.1956
 2818SOL    HW120087   0.595   1.105   2.182  0.3259 -0.1719  0.2370
 2818SOL    HW220088   0.475   1.183   2.185 -0.5310 -2.6561 -2.5221
 2819SOL     OW20089   0.730   1.256   5.698 -0.7102  0.0562  0.3035
 2819SOL    HW120090   0.668   1.214   5.756  0.7060 -0.9293  1.1114
 2819SOL    HW220091   0.758   1.329   5.753  5.0118  0.7113 -3.3509
 2820SOL     OW20092   1.808   1.751   2.146  0.5019 -0.0096 -0.5627
 2820SOL    HW120093   1.727   1.789   2.112  0.9430  1.8551  0.4840
 2820SOL    HW220094   1.864   1.751   2.069 -0.0052  0.9360 -0.9338
 2821SOL     OW20095   2.979   1.612   7.399  0.4824  0.1800 -0.1404
 2821SOL    HW120096   3.051   1.584   7.343 -0.8841 -3.0670 -0.2985
 2821SOL    HW220097   2.962   1.697   7.359  2.0942  0.6790  0.2433
 2822SOL     OW20098   2.240   0.854   2.977 -0.7023 -0.7699  0.3176
 2822SOL    HW120099   2.180   0.799   2.926 -0.9885  1.3179 -1.5780
 2822SOL    HW220100   2.295   0.890   2.907 -1.3712 -2.2674 -1.0056
 2823SOL     OW20101   0.585   2.614   9.532  0.1543 -0.4410  0.3887
 2823SOL    HW120102   0.573   2.686   9.469 -1.2059 -0.6775  0.3726
 2823SOL    HW220103   0.537   2.654   9.605  0.8719  0.3401  0.4361
 2824SOL     OW20104   1.686   4.554   7.218 -0.2351 -0.2355 -0.0657
 2824SOL    HW120105   1.765   4.533   7.167  0.1382  1.3990 -0.1699
 2824SOL    HW220106   1.656   4.468   7.249  3.3665 -1.2755  0.5686
 2825SOL     OW20107   3.962   3.920   0.127 -0.3089 -0.1854 -0.4436
 2825SOL    HW120108   3.957   3.975   0.205 -0.8587  0.7395 -1.1248
 2825SOL    HW220109   3.994   3.978   0.058  0.5263 -0.6332 -0.4326
 2826SOL     OW20110   2.393   2.167   3.493 -0.2443 -0.2521 -0.0563
 2826SOL    HW120111   2.450   2.090   3.490  0.2210  0.1490 -1.4565
 2826SOL    HW220112   2.449   2.244   3.484  1.5505 -1.6112 -0.5764
 2827SOL     OW20113   2.923   1.719   7.088  0.4466  0.2656 -0.6886
 2827SOL    HW120114   2.936   1.692   6.997  0.4561  0.8602 -0.8599
 2827SOL    HW220115   3.009   1.699   7.125  0.7709  0.2336 -1.4519
 2828SOL     OW20116   2.198   3.589   1.958  0.1091  0.0162 -0.3869
 2828SOL    HW120117   2.279   3.637   1.938  0.5493 -0.6584 -0.2248
 2828SOL    HW220118   2.192   3.589   2.054 -2.4953 -0.0104 -0.5677
 2829SOL     OW20119   2.499   2.803   7.144 -0.5154 -0.1166 -0.0307
 2829SOL    HW120120   2.481   2.723   7.194  1.4308  0.2489  1.2865
 2829SOL    HW220121   2.427   2.800   7.082 -0.1139  3.0580 -0.6464
 2830SOL     OW20122   3.676   3.241   2.163 -0.0544  0.3297 -0.1976
 2830SOL    HW120123   3.733   3.236   2.240 -0.1825  0.8481 -0.0689
 2830SOL    HW220124   3.738   3.266   2.094  0.3370  0.4513  0.1912
 2831SOL     OW20125   0.861   3.208   8.727 -0.1412 -0.3838 -0.2011
 2831SOL    HW120126   0.953   3.234   8.724 -0.5282  0.6564 -2.5969
 2831SOL    HW220127   0.861   3.116   8.701 -0.0151 -0.0095 -1.4826
 2832SOL     OW20128   3.895   2.204   7.028 -0.6831  0.2757 -0.1603
 2832SOL    HW120129   3.898   2.218   7.123  0.3261 -1.4437  0.0618
 2832SOL    HW220130   3.824   2.141   7.038  0.6787 -1.0062  1.5901
 2833SOL     OW20131   0.417   4.278   6.845  0.1286  0.1307 -0.3903
 2833SOL    HW120132   0.357   4.221   6.796 -1.7328  1.5867  0.1900
 2833SOL    HW220133   0.362   4.298   6.921  0.0648 -1.6600  0.0519
 2834SOL     OW20134   1.434   1.922  15.734  0.4039 -0.3123 -0.0270
 2834SOL    HW120135   1.509   1.932  15.675  0.0932  0.4704 -0.2885
 2834SOL    HW220136   1.371   1.974  15.685  1.0088 -1.6052 -2.1973
 2835SOL     OW20137   4.649   0.712   9.182  0.3661 -0.1174  0.4158
 2835SOL    HW120138   0.004   0.702   9.184  0.3304 -0.4706  0.4418
 2835SOL    HW220139   4.634   0.804   9.162 -0.7490 -1.0557 -3.1837
 2836SOL     OW20140   0.549   1.814   2.853  0.7238  0.4592  0.5227
 2836SOL    HW120141   0.469   1.867   2.850 -0.7850 -1.8066  0.6812
 2836SOL    HW220142   0.560   1.811   2.948 -0.3561 -2.1708  0.5568
 2837SOL     OW20143   3.020   3.761   8.892 -0.0911  0.5493 -0.2308
 2837SOL    HW120144   2.973   3.843   8.882  0.5857  1.1010  1.1667
 2837SOL    HW220145   3.025   3.737   8.799 -0.1146 -2.7991  0.6258
 2838SOL     OW20146   2.327   1.983   3.076  0.1370  0.2772  0.3878
 2838SOL    HW120147   2.404   2.005   3.128 -0.6569 -0.1580  1.7514
 2838SOL    HW220148   2.321   1.888   3.083 -0.6041  0.5703  3.4969
 2839SOL     OW20149   0.294   4.105   3.012 -0.8572 -0.3450  0.7112
 2839SOL    HW120150   0.233   4.104   3.086  0.5354 -0.2357  1.8518
 2839SOL    HW220151   0.266   4.023   2.971  0.5861 -1.1955  1.4297
 2840SOL     OW20152   3.778   3.144  16.914  1.0130  0.0100  0.1423
 2840SOL    HW120153   3.852   3.203  16.925  1.1871 -0.7056  2.7194
 2840SOL    HW220154   3.793   3.080  16.983 -0.2861  0.0058  0.4229
 2841SOL     OW20155   3.286   0.909   4.916 -0.6961 -0.4269  0.3439
 2841SOL    HW120156   3.278   1.001   4.944 -0.0837  0.4593 -2.4110
 2841SOL    HW220157   3.342   0.865   4.980 -0.3427 -0.8657 -0.2736
 2842SOL     OW20158   3.512   0.519  13.830 -0.2901  0.8699 -0.1262
 2842SOL    HW120159   3.568   0.551  13.759 -0.5930 -0.3638 -0.9294
 2842SOL    HW220160   3.570   0.470  13.889 -1.2328 -0.4144 -0.2623
 2843SOL     OW20161   4.643   0.925   1.974 -0.5379  0.6313 -0.1039
 2843SOL    HW120162   4.663   0.929   2.067  0.4467 -0.4399 -0.2700
 2843SOL    HW220163   4.702   0.993   1.942  0.2834  0.2781  0.6471
 2844SOL     OW20164   0.333   1.567   9.330 -0.5658 -0.5805 -0.2719
 2844SOL    HW120165   0.320   1.658   9.303 -0.2865  0.0784  1.7877
 2844SOL    HW220166   0.323   1.583   9.424 -0.8877  2.6002 -0.8410
 2845SOL     OW20167   2.955   0.942   5.888  0.7358 -0.0462 -0.1572
 2845SOL    HW120168   2.983   0.851   5.879  2.9226  0.6435 -0.3637
 2845SOL    HW220169   2.862   0.933   5.867  0.7319  2.9676 -1.4603
 2846SOL     OW20170   0.483   3.821   1.875 -0.3590  0.2865  0.1790
 2846SOL    HW120171   0.399   3.806   1.919 -0.8989 -1.4164 -1.4507
 2846SOL    HW220172   0.445   3.848   1.792 -1.0432  1.0219  0.7402
 2847SOL     OW20173   1.288   1.604   4.161 -0.0564  0.5760 -0.1204
 2847SOL    HW120174   1.275   1.509   4.163 -0.6050  0.6422 -0.6307
 2847SOL    HW220175   1.375   1.609   4.201 -0.5182 -2.0650  1.2238
 2848SOL     OW20176   1.717   0.283   6.311  0.2354  0.0659  0.4168
 2848SOL    HW120177   1.726   0.236   6.394  1.6173  2.4938  1.6565
 2848SOL    HW220178   1.680   0.367   6.339 -0.6669 -0.6701  1.4186
 2849SOL     OW20179   1.586   0.601  13.947 -0.2230 -0.0325  0.0434
 2849SOL    HW120180   1.576   0.683  13.899 -1.8751  0.7430  1.6820
 2849SOL    HW220181   1.675   0.592  13.915 -0.6985 -1.2415 -0.9016
 2850SOL     OW20182   2.469   1.652   1.293  0.0534  0.1228 -0.4467
 2850SOL    HW120183   2.427   1.570   1.320  1.9450 -1.2201 -1.5648
 2850SOL    HW220184   2.466   1.711   1.368  0.1610 -2.0180  1.2171
 2851SOL     OW20185   0.100   4.000  14.717  0.3356  0.4786  0.4742
 2851SOL    HW120186   0.049   3.994  14.636  0.9938  1.1056  0.0086
 2851SOL    HW220187   0.086   4.092  14.740  0.1276  0.2469  1.2610
 2852SOL     OW20188   3.972   3.610  11.907  0.9140  0.2175 -0.2566
 2852SOL    HW120189   4.016   3.525  11.909 -0.8331 -0.6401  1.0386
 2852SOL    HW220190   3.886   3.595  11.945  0.2101 -0.4154 -2.1159
 2853SOL     OW20191   2.013   1.817   9.444  0.0431  0.1828  0.2331
 2853SOL    HW120192   2.014   1.910   9.464  0.1164  0.1626  0.3271
 2853SOL    HW220193   2.013   1.773   9.529 -0.0877  0.6264  0.4597
 2854SOL     OW20194   2.352   1.494   8.286 -1.0288 -0.2876  0.2143
 2854SOL    HW120195   2.368   1.566   8.225 -0.3932 -0.1965  0.4917
 2854SOL    HW220196   2.261   1.516   8.306 -0.4239 -0.9821  3.6119
 2855SOL     OW20197   3.543   3.516   9.108  0.5283  0.2591 -0.2127
 2855SOL    HW120198   3.461   3.468   9.096  0.8531 -0.6059  1.0286
 2855SOL    HW220199   3.592   3.472   9.038  2.3193  1.8587  0.0254
 2856SOL     OW20200   4.086   2.167   5.293 -0.6043 -0.2452 -0.8416
 2856SOL    HW120201   3.993   2.178   5.311 -0.7292 -0.8843 -1.0830
 2856SOL    HW220202   4.074   2.116   5.213 -2.2216 -2.1742  0.6185
 2857SOL     OW20203   3.328   0.027  13.244  0.3479 -0.4364 -0.4350
 2857SOL    HW120204   3.302   0.114  13.277  0.5963  0.4456 -2.5382
 2857SOL    HW220205   3.321   4.721  13.327  0.9122  0.4436  0.0963
 2858SOL     OW20206   0.895   4.335   4.150 -0.2261  0.0373  0.0132
 2858SOL    HW120207   0.833   4.354   4.080  1.6045 -0.3709 -1.7493
 2858SOL    HW220208   0.834   4.315   4.220 -1.2051 -0.4580 -0.9834
 2859SOL     OW20209   3.943   3.295  17.042  0.2207 -0.0398 -0.1448
 2859SOL    HW120210   3.907   3.339  17.119  1.9704 -1.8333  1.7211
 2859SOL    HW220211   4.038   3.283  17.051  0.0656 -2.0954 -1.2137
 2860SOL     OW20212   0.008   0.783   6.834  0.0890 -0.7407 -0.1531
 2860SOL    HW120213   4.721   0.726   6.907  1.1120  0.1064  0.8714
 2860SOL    HW220214   0.011   0.873   6.866 -1.1945 -0.9546  0.5898
 2861SOL     OW20215   1.427   4.374   3.705  0.4242  0.1561  0.4119
 2861SOL    HW120216   1.474   4.305   3.752  1.1335  0.5173  0.2290
 2861SOL    HW220217   1.492   4.443   3.717 -0.0416  0.5429  0.7249
 2862SOL     OW20218   3.314   3.454   6.973  0.3772 -0.1510 -0.3362
 2862SOL    HW120219   3.394   3.438   7.023  0.8752 -1.2387 -1.4934
 2862SOL    HW220220   3.257   3.385   7.005 -1.2050  0.8572 -1.0167
 2863SOL     OW20221   3.953   4.553   4.418  0.3228 -0.4186 -0.3873
 2863SOL    HW120222   4.012   4.601   4.360 -0.4058 -1.2223 -1.8131
 2863SOL    HW220223   4.007   4.546   4.496  1.6527  2.1234 -1.0707
 2864SOL     OW20224   0.177   3.764   5.390  0.0462  0.0951 -0.3735
 2864SOL    HW120225   0.105   3.811   5.348 -0.5572  0.6621  1.2794
 2864SOL    HW220226   0.138   3.687   5.431  2.5928 -0.4153  1.1531
 2865SOL     OW20227   0.088   3.718   7.389  0.5474  0.4770 -0.1506
 2865SOL    HW120228   0.157   3.660   7.358  0.6494  0.2361  0.5246
 2865SOL    HW220229   0.044   3.655   7.446  0.3337  1.1030  0.3894
 2866SOL     OW20230   4.481   1.340   3.023  0.3664  0.2687  0.0530
 2866SOL    HW120231   4.478   1.432   3.049 -0.9802  0.5557 -1.1457
 2866SOL    HW220232   4.389   1.318   3.039  0.0112  0.8486 -1.2131
 2867SOL     OW20233   1.325   1.597   3.103 -0.1388  0.6592  0.4087
 2867SOL    HW120234   1.349   1.591   3.195  1.1014  1.6905  0.1550
 2867SOL    HW220235   1.329   1.690   3.082 -0.9540  0.6774  0.3277
 2868SOL     OW20236   4.424   0.678   6.073  0.0096  0.6538 -0.7214
 2868SOL    HW120237   4.477   0.620   6.019 -1.1327 -0.4380 -0.6398
 2868SOL    HW220238   4.413   0.756   6.018 -1.4537 -0.9948 -2.7596
 2869SOL     OW20239   3.399   4.554  12.477  0.1519  0.6203  0.1695
 2869SOL    HW120240   3.333   4.573  12.543  0.3728 -1.7388  1.0653
 2869SOL    HW220241   3.357   4.484  12.426  2.1812  0.6871 -1.6161
 2870SOL     OW20242   2.074   3.329   6.857 -0.2005  0.7497 -0.1373
 2870SOL    HW120243   2.057   3.407   6.803  1.8199  1.6611  0.5368
 2870SOL    HW220244   2.168   3.320   6.839  0.2730  1.0815  2.2591
 2871SOL     OW20245   0.817   4.355  13.600 -0.3036  0.1589  0.3000
 2871SOL    HW120246   0.805   4.409  13.678 -2.0486  1.5090 -0.9176
 2871SOL    HW220247   0.903   4.315  13.614  0.4528  2.2302  1.6637
 2872SOL     OW20248   2.039   0.013   3.995  0.2550 -0.3124 -0.1999
 2872SOL    HW120249   2.008   4.672   3.955 -2.8407  0.0779  1.4139
 2872SOL    HW220250   2.129   4.734   4.020 -0.1640  0.7789  2.1567
 2873SOL     OW20251   3.034   1.779   6.047 -0.0285 -0.3815 -0.5518
 2873SOL    HW120252   2.943   1.762   6.020 -1.3588  0.1747  3.5005
 2873SOL    HW220253   3.019   1.798   6.140 -2.7023 -0.3980 -0.9786
 2874SOL     OW20254   2.139   1.310  12.390 -0.3677  0.3358  0.3268
 2874SOL    HW120255   2.061   1.345  12.433 -0.5553  2.0057 -1.3665
 2874SOL    HW220256   2.101   1.238  12.339  1.9347  0.0481 -1.0172
 2875SOL     OW20257   2.778   3.736   0.067  0.7200  0.5093  0.5461
 2875SOL    HW120258   2.723   3.749   0.144 -0.5899 -4.2674  0.4372
 2875SOL    HW220259   2.712   3.709   0.003 -1.7912  0.5192  3.1273
 2876SOL     OW20260   2.050   4.417  13.704  0.2455  0.0084 -0.0315
 2876SOL    HW120261   2.135   4.379  13.729  0.7633  0.3912 -1.2019
 2876SOL    HW220262   1.995   4.345  13.735  0.3811 -0.4640 -0.8942
 2877SOL     OW20263   4.735   3.658   2.970 -0.0859  0.4972 -0.3054
 2877SOL    HW120264   4.654   3.680   3.015 -0.4684  0.0529 -0.7892
 2877SOL    HW220265   4.694   3.618   2.894 -1.0083  2.0853 -0.6288
 2878SOL     OW20266   2.987   3.694  10.364 -0.7147 -0.4444  0.2219
 2878SOL    HW120267   2.999   3.766  10.427  0.4919  0.5578 -1.1605
 2878SOL    HW220268   3.018   3.737  10.285 -1.0950  0.8211  0.7497
 2879SOL     OW20269   4.113   1.045   2.357  0.0027  0.6653  0.8997
 2879SOL    HW120270   4.145   1.042   2.446  1.8583 -0.9680  0.1720
 2879SOL    HW220271   4.173   1.107   2.316  0.1351  0.0351  0.1262
 2880SOL     OW20272   0.126   0.862  13.818 -0.3341  0.1822 -0.4297
 2880SOL    HW120273   0.184   0.930  13.783  2.7009 -1.4498  1.4177
 2880SOL    HW220274   0.059   0.909  13.868 -0.1670 -2.2504  2.0652
 2881SOL     OW20275   2.748   1.506   4.558  0.3185 -0.3049 -0.4412
 2881SOL    HW120276   2.787   1.588   4.527 -0.2907 -0.5991 -2.0029
 2881SOL    HW220277   2.769   1.503   4.651 -2.2761  1.7173  0.1894
 2882SOL     OW20278   3.248   4.566   9.350  0.1149 -0.1162 -0.6661
 2882SOL    HW120279   3.275   4.609   9.431  0.0652  0.0506 -0.7399
 2882SOL    HW220280   3.153   4.568   9.364  0.0305  0.6533 -1.3627
 2883SOL     OW20281   1.409   4.384   6.433 -0.1633  0.3152  0.6409
 2883SOL    HW120282   1.321   4.420   6.430  0.5706  1.9955 -0.7916
 2883SOL    HW220283   1.418   4.380   6.528  2.1805  0.7180  0.4473
 2884SOL     OW20284   4.187   0.575   1.535 -0.2562  0.4609  0.2239
 2884SOL    HW120285   4.202   0.593   1.442 -0.3022 -3.1620 -0.4847
 2884SOL    HW220286   4.254   0.635   1.566  1.5749 -1.6596  0.4096
 2885SOL     OW20287   2.881   1.809   4.859  0.4601  0.0006  0.1243
 2885SOL    HW120288   2.862   1.903   4.867  1.0229  0.0827  0.5127
 2885SOL    HW220289   2.922   1.790   4.943  0.5598  1.3731  0.3822
 2886SOL     OW20290   0.844   4.115   3.556 -0.4478 -0.0218 -0.4287
 2886SOL    HW120291   0.789   4.187   3.587 -0.0593 -1.5912  3.8509
 2886SOL    HW220292   0.847   4.062   3.636  0.2946  1.6243  0.6440
 2887SOL     OW20293   0.893   0.762   6.299  0.2010  0.3044  0.3511
 2887SOL    HW120294   0.892   0.856   6.279  1.8665  0.4120  0.7858
 2887SOL    HW220295   0.817   0.757   6.358 -0.8791 -0.4743 -1.1142
 2888SOL     OW20296   0.033   1.010  11.293  0.2442  0.4407  0.2279
 2888SOL    HW120297   4.732   1.006  11.379  1.8857 -0.4721  0.9483
 2888SOL    HW220298   4.712   1.055  11.234  0.0353  1.4121  1.1733
 2889SOL     OW20299   2.224   2.727  11.836  0.1292 -0.2915 -0.0240
 2889SOL    HW120300   2.193   2.713  11.747  1.6370 -2.2395 -0.2259
 2889SOL    HW220301   2.202   2.643  11.875 -1.0322 -0.1885 -0.4659
 2890SOL     OW20302   3.611   1.235   1.633  0.0694 -0.2669 -0.2447
 2890SOL    HW120303   3.567   1.320   1.635  0.3916 -0.1045 -0.0199
 2890SOL    HW220304   3.599   1.207   1.542  0.9665  0.9667 -0.7463
 2891SOL     OW20305   3.251   0.912   5.821  0.0924  0.1525  0.1624
 2891SOL    HW120306   3.172   0.869   5.851  1.2517 -0.4083  2.4196
 2891SOL    HW220307   3.287   0.862   5.748 -1.3399 -0.8730  0.1743
 2892SOL     OW20308   3.995   0.476   6.762  0.2849 -0.2533  0.2304
 2892SOL    HW120309   4.090   0.481   6.770  0.1910  0.5951  0.7837
 2892SOL    HW220310   3.983   0.564   6.727  0.7498  0.7221  2.5420
 2893SOL     OW20311   3.484   2.963   4.771  0.1452 -0.1419  0.1605
 2893SOL    HW120312   3.474   2.892   4.835 -1.6049 -0.1750 -0.1633
 2893SOL    HW220313   3.448   3.037   4.820 -2.0853 -1.3212  0.2987
 2894SOL     OW20314   0.909   3.258   1.156 -0.2386 -0.4416 -0.0383
 2894SOL    HW120315   0.924   3.193   1.225 -0.2944  0.2909  0.6652
 2894SOL    HW220316   0.961   3.328   1.193  0.4008  2.1053 -5.7155
 2895SOL     OW20317   0.500   4.623   3.042  0.3700 -0.2824  0.2300
 2895SOL    HW120318   0.510   4.635   2.947  1.4781 -2.3680  0.0739
 2895SOL    HW220319   0.430   4.686   3.060  1.2753  0.9456 -0.5687
 2896SOL     OW20320   0.551   3.223   1.413  0.0544  0.5449 -0.2353
 2896SOL    HW120321   0.493   3.248   1.484  0.1301  3.5772 -1.2299
 2896SOL    HW220322   0.490   3.225   1.339 -0.2887 -0.5358  0.0222
 2897SOL     OW20323   1.074   1.623   7.150 -0.0842  0.5138 -0.6286
 2897SOL    HW120324   1.077   1.658   7.239  0.3818  1.6822 -1.1072
 2897SOL    HW220325   1.003   1.678   7.116 -0.5246  1.1342  1.2737
 2898SOL     OW20326   3.096   2.738  13.092 -0.6549 -0.0861 -0.0059
 2898SOL    HW120327   3.190   2.759  13.096 -0.6715  0.1112 -0.8138
 2898SOL    HW220328   3.104   2.656  13.043 -1.3612 -1.1844  1.6868
 2899SOL     OW20329   0.109   2.698   8.060  0.0029  0.5360 -0.0076
 2899SOL    HW120330   0.055   2.626   8.092  1.9889 -0.9983 -0.1178
 2899SOL    HW220331   0.059   2.721   7.982  0.5353 -0.8979 -0.7849
 2900SOL     OW20332   2.563   3.925   9.547  0.1514  1.0932 -0.2751
 2900SOL    HW120333   2.535   3.834   9.557  0.4108  0.9606 -0.7937
 2900SOL    HW220334   2.617   3.932   9.626 -1.4440 -2.4195  1.1275
 2901SOL     OW20335   0.713   2.599   3.767  0.1560  0.0252  0.4429
 2901SOL    HW120336   0.637   2.598   3.825 -0.4414 -1.6683 -0.3518
 2901SOL    HW220337   0.765   2.673   3.798  1.2997 -0.6181  0.0652
 2902SOL     OW20338   2.361   4.405   7.182  0.1304  0.5477 -0.7959
 2902SOL    HW120339   2.427   4.401   7.113  1.4615  2.2866  0.3848
 2902SOL    HW220340   2.417   4.378   7.254 -0.7737 -1.6302 -0.9136
 2903SOL     OW20341   0.383   1.468   6.862 -0.1396 -0.1940  0.6987
 2903SOL    HW120342   0.304   1.424   6.894 -1.7686  2.3285  0.1435
 2903SOL    HW220343   0.351   1.530   6.797  1.9337 -1.4217 -1.4769
 2904SOL     OW20344   0.948   1.934   2.048 -0.1747 -0.1671  0.1054
 2904SOL    HW120345   1.014   1.888   2.100 -0.2638 -1.1377 -0.6258
 2904SOL    HW220346   0.870   1.914   2.099  1.1781  0.5273  2.4329
 2905SOL     OW20347   0.754   1.098   4.114 -0.5382  0.1802  0.0306
 2905SOL    HW120348   0.677   1.046   4.137 -1.2085 -0.0262 -2.6797
 2905SOL    HW220349   0.772   1.139   4.199 -1.3303 -0.3996  0.4812
 2906SOL     OW20350   2.019   2.011   3.836 -0.3388 -0.3728  0.1580
 2906SOL    HW120351   2.049   2.007   3.927 -2.2278 -0.5821  0.7661
 2906SOL    HW220352   2.093   2.045   3.786 -0.0774 -0.2176  0.6484
 2907SOL     OW20353   4.366   1.656   2.697  0.2276 -0.4887 -0.2148
 2907SOL    HW120354   4.372   1.691   2.608  2.2235 -0.5009 -0.0987
 2907SOL    HW220355   4.460   1.655   2.718 -0.0864  1.8906  1.2598
 2908SOL     OW20356   2.749   1.146   1.636 -0.4521  0.4639  0.6546
 2908SOL    HW120357   2.806   1.083   1.592 -0.6993  0.4466  0.3564
 2908SOL    HW220358   2.798   1.227   1.620 -0.0805  0.3112  1.0347
 2909SOL     OW20359   2.404   4.125   4.206  0.8757  0.1178 -0.4227
 2909SOL    HW120360   2.467   4.087   4.144  2.1962  1.2951  0.1969
 2909SOL    HW220361   2.394   4.212   4.168  0.7723 -0.1380 -0.9770
 2910SOL     OW20362   3.236   0.230   0.614 -0.0903 -0.6255 -0.1994
 2910SOL    HW120363   3.308   0.194   0.665 -0.2575  0.4942  0.8127
 2910SOL    HW220364   3.178   0.238   0.689  1.3098 -0.2561  0.8573
 2911SOL     OW20365   3.819   3.821  11.765  0.0824  0.1106  0.2072
 2911SOL    HW120366   3.737   3.827  11.815 -0.8862 -3.6138 -1.0105
 2911SOL    HW220367   3.883   3.793  11.831 -0.0635 -2.0443 -0.5899
 2912SOL     OW20368   3.325   3.515   8.776  0.4071  0.0792 -0.1699
 2912SOL    HW120369   3.316   3.601   8.735  1.6216  0.4974  0.4254
 2912SOL    HW220370   3.238   3.485   8.800  0.1298  0.3132 -0.8717
 2913SOL     OW20371   4.079   1.864   2.880 -0.1299 -0.4777  0.1718
 2913SOL    HW120372   4.063   1.772   2.901 -2.7740 -0.0398  0.0458
 2913SOL    HW220373   4.163   1.863   2.926 -0.8085  0.0522  1.4173
 2914SOL     OW20374   4.004   3.721   0.464  0.2206  0.0039  0.0935
 2914SOL    HW120375   3.930   3.678   0.420 -0.1163  0.6203  0.0429
 2914SOL    HW220376   4.058   3.747   0.389  0.0997 -0.0922 -0.0294
 2915SOL     OW20377   2.011   3.994   2.611 -0.8159  0.0397  0.5710
 2915SOL    HW120378   2.004   4.054   2.537 -3.9293 -1.3473 -0.2458
 2915SOL    HW220379   2.015   3.909   2.566  0.4105  0.4365 -0.0598
 2916SOL     OW20380   3.936   1.089   5.867 -0.2856  0.0914 -0.8527
 2916SOL    HW120381   3.976   1.063   5.784  2.0209  0.5313  0.1465
 2916SOL    HW220382   3.916   1.000   5.897 -0.7083 -0.2424 -2.1420
 2917SOL     OW20383   0.691   2.989   7.100  0.1556  0.1380 -0.2136
 2917SOL    HW120384   0.785   2.970   7.106  0.0735 -0.4111 -0.6846
 2917SOL    HW220385   0.698   3.085   7.094 -0.9479  0.2147 -0.1784
 2918SOL     OW20386   4.566   3.041   4.406  0.7824 -0.3072 -0.3009
 2918SOL    HW120387   4.479   3.023   4.370 -0.2008  2.9151  0.4283
 2918SOL    HW220388   4.569   3.121   4.459 -1.9597  0.0209 -0.6518
 2919SOL     OW20389   0.516   4.295   8.205  0.5193  0.1672 -0.4903
 2919SOL    HW120390   0.420   4.289   8.206  0.4362  1.5686  1.1500
 2919SOL    HW220391   0.533   4.244   8.126 -2.8496 -1.8483  0.0800
 2920SOL     OW20392   2.839   3.146   5.501  0.7638 -0.3306 -0.5293
 2920SOL    HW120393   2.778   3.081   5.537 -2.0228  1.4319 -2.0734
 2920SOL    HW220394   2.800   3.162   5.415 -1.0068 -0.7427  0.1932
 2921SOL     OW20395   2.487   2.595   9.554 -0.1268  0.0862  0.1400
 2921SOL    HW120396   2.398   2.562   9.541  1.3646 -2.7373 -2.9186
 2921SOL    HW220397   2.526   2.508   9.561 -0.6646  0.2016  4.2747
 2922SOL     OW20398   4.416   3.511   5.180  0.3709 -0.5614 -0.2236
 2922SOL    HW120399   4.324   3.506   5.207  0.5251  0.0050  0.4099
 2922SOL    HW220400   4.406   3.590   5.128  3.7499 -0.5792 -0.8918
 2923SOL     OW20401   4.078   1.102   3.989 -0.0591 -0.4741 -0.2397
 2923SOL    HW120402   4.134   1.025   3.988 -1.0170 -1.1678 -1.5116
 2923SOL    HW220403   4.143   1.170   4.006 -1.0579  0.7122 -1.1433
 2924SOL     OW20404   4.259   2.592   9.405 -0.5952  0.0409 -0.0399
 2924SOL    HW120405   4.258   2.667   9.465 -1.4263 -3.0485  3.8187
 2924SOL    HW220406   4.325   2.538   9.448 -0.0946 -0.0545 -0.9273
 2925SOL     OW20407   1.891   0.212   4.856  0.4362  0.5879  0.2021
 2925SOL    HW120408   1.878   0.218   4.761  1.6766 -1.2118 -0.0755
 2925SOL    HW220409   1.931   0.125   4.857  0.3445  0.5508  0.5153
 2926SOL     OW20410   0.394   3.254   1.206 -0.1169  0.1072 -0.3059
 2926SOL    HW120411   0.452   3.255   1.130 -2.5270  0.1991 -2.1391
 2926SOL    HW220412   0.356   3.170   1.183  0.1357 -0.3332  0.8845
 2927SOL     OW20413   1.163   3.103   7.833 -0.0044  0.5533 -0.1325
 2927SOL    HW120414   1.141   3.123   7.742  0.8835  1.0144 -0.2413
 2927SOL    HW220415   1.073   3.101   7.865 -0.0529 -0.1989 -0.3097
 2928SOL     OW20416   4.681   2.840   5.944  0.0766  0.4421 -0.6893
 2928SOL    HW120417   4.666   2.897   5.868  0.8256 -1.0353 -1.9451
 2928SOL    HW220418   0.017   2.877   5.989  1.5012  0.7084 -3.3347
 2929SOL     OW20419   1.811   4.072   7.325  0.3186  0.5043  0.4098
 2929SOL    HW120420   1.903   4.091   7.307  0.3220  1.0287  1.0172
 2929SOL    HW220421   1.795   4.139   7.391 -0.2139 -0.0892  0.8813
 2930SOL     OW20422   4.023   1.506   1.573 -1.4104 -0.3961 -0.2732
 2930SOL    HW120423   4.042   1.565   1.646  1.1410  0.2993 -1.5159
 2930SOL    HW220424   3.967   1.561   1.518 -1.2357 -0.9779 -1.0350
 2931SOL     OW20425   4.111   2.507   9.180  0.1824  0.6899  0.4525
 2931SOL    HW120426   4.144   2.515   9.270  0.6866 -0.2152  0.3532
 2931SOL    HW220427   4.020   2.487   9.203  0.1706 -0.4413 -0.5742
 2932SOL     OW20428   2.270   0.934   9.891  0.1779 -0.0176  0.2182
 2932SOL    HW120429   2.246   0.871   9.960  0.7013 -1.2604 -0.7442
 2932SOL    HW220430   2.188   0.922   9.843  1.4799 -0.3705 -1.9084
 2933SOL     OW20431   1.399   1.436   9.313 -0.0531 -0.0507 -0.4935
 2933SOL    HW120432   1.487   1.428   9.277 -1.1478 -1.2727 -2.8384
 2933SOL    HW220433   1.370   1.500   9.248 -1.2144 -0.8195 -0.7219
 2934SOL     OW20434   3.978   4.029   4.849 -0.0592  0.0874 -0.4065
 2934SOL    HW120435   3.889   4.007   4.821  0.0748 -1.1698  0.1651
 2934SOL    HW220436   4.011   4.070   4.769  0.6232 -0.1346 -0.2364
 2935SOL     OW20437   1.011   1.286   3.922 -0.4663 -0.0486  0.3644
 2935SOL    HW120438   1.023   1.195   3.950  2.6998  0.2207 -0.0531
 2935SOL    HW220439   0.916   1.293   3.932 -0.3999  0.7806  0.4103
 2936SOL     OW20440   0.078   3.127   2.499 -0.1073  0.1555  0.0302
 2936SOL    HW120441   0.141   3.151   2.567  0.8256 -0.4930 -0.6078
 2936SOL    HW220442   0.081   3.032   2.511  2.3261  0.1288 -0.6994
 2937SOL     OW20443   0.220   0.308  16.191 -0.8921  0.7221  0.1545
 2937SOL    HW120444   0.286   0.238  16.189 -2.1606 -0.5510  2.7119
 2937SOL    HW220445   0.200   0.315  16.285 -1.7298  4.5705 -0.3081
 2938SOL     OW20446   3.598   1.741   8.512 -0.9172 -0.4117 -0.5528
 2938SOL    HW120447   3.636   1.827   8.531  0.6857 -0.9094 -1.6189
 2938SOL    HW220448   3.588   1.701   8.599 -0.4876 -1.2116 -0.8825
 2939SOL     OW20449   0.995   1.173   2.720 -0.2284 -0.3614 -0.1132
 2939SOL    HW120450   1.087   1.200   2.713  0.8928 -3.4913  2.5563
 2939SOL    HW220451   0.972   1.226   2.796  0.8179 -0.0339 -0.0160
 2940SOL     OW20452   4.152   3.708   0.196 -0.2771  0.4364 -0.8093
 2940SOL    HW120453   4.171   3.657   0.117  0.8781  1.1624 -1.0126
 2940SOL    HW220454   4.081   3.766   0.169 -0.7087  0.4674  0.4092
 2941SOL     OW20455   1.450   2.347   9.094 -0.0315  0.2249  0.6013
 2941SOL    HW120456   1.384   2.338   9.162 -0.1651  0.1188  0.4591
 2941SOL    HW220457   1.517   2.398   9.140  0.4005 -1.2671  1.6219
 2942SOL     OW20458   3.935   2.499   5.895 -0.1502  0.2641  0.5132
 2942SOL    HW120459   3.919   2.585   5.856  0.0211 -0.4720 -1.1490
 2942SOL    HW220460   3.864   2.446   5.859  0.6209 -1.7651  2.0040
 2943SOL     OW20461   0.406   0.279   0.890  0.2171 -0.1516  0.1442
 2943SOL    HW120462   0.454   0.358   0.917  1.1498 -1.3264  1.9274
 2943SOL    HW220463   0.416   0.273   0.795 -0.2281 -0.7337  0.1352
 2944SOL     OW20464   3.642   1.528   8.339 -0.2140 -0.1548 -0.2652
 2944SOL    HW120465   3.592   1.451   8.366  1.3983 -1.7036 -1.6808
 2944SOL    HW220466   3.616   1.596   8.401 -3.1807  0.0972 -1.8013
 2945SOL     OW20467   3.649   2.662   7.629  0.2321 -0.3280  0.0010
 2945SOL    HW120468   3.625   2.577   7.594 -0.2476  0.0230 -0.5340
 2945SOL    HW220469   3.564   2.693   7.662  1.1087  1.4632  0.5970
 2946SOL     OW20470   3.128   2.287  12.609  0.1848  0.3794  0.7670
 2946SOL    HW120471   3.122   2.375  12.573  1.2988  0.1435  0.0198
 2946SOL    HW220472   3.175   2.306  12.691  0.2751 -1.4759  1.1690
 2947SOL     OW20473   0.435   0.342   2.795  0.4262  0.4196 -0.6349
 2947SOL    HW120474   0.428   0.312   2.886 -0.3476 -1.1802 -1.2211
 2947SOL    HW220475   0.423   0.262   2.744  0.3210  0.9976 -1.5079
 2948SOL     OW20476   3.160   0.821   4.120 -0.3036 -0.6036 -0.3849
 2948SOL    HW120477   3.146   0.868   4.203  2.8564  0.0513 -0.2113
 2948SOL    HW220478   3.102   0.865   4.058  1.9993  1.4916 -1.0504
 2949SOL     OW20479   2.521   0.823   9.874 -0.5896  0.6715  0.3616
 2949SOL    HW120480   2.447   0.884   9.881 -1.5083 -0.1155 -2.4649
 2949SOL    HW220481   2.535   0.803   9.966  1.5406  0.0884 -0.0916
 2950SOL     OW20482   4.096   2.290   1.946  0.0837 -0.3724 -0.6779
 2950SOL    HW120483   4.034   2.303   2.018  1.4111 -0.8672  0.5338
 2950SOL    HW220484   4.038   2.316   1.874  0.2842  0.6264 -0.4864
 2951SOL     OW20485   0.829   3.974   4.158 -0.5584  0.0899  0.2751
 2951SOL    HW120486   0.749   3.988   4.210  0.3353  1.2197  1.3633
 2951SOL    HW220487   0.853   3.890   4.197  0.0779 -0.1104 -0.5652
 2952SOL     OW20488   3.075   3.014   5.447  0.0841 -0.3530 -1.0437
 2952SOL    HW120489   3.019   3.066   5.504  1.1933 -0.8203  0.4632
 2952SOL    HW220490   3.011   2.983   5.382  1.4674 -2.9359 -1.1674
 2953SOL     OW20491   4.044   2.446   1.713  0.0663  0.3031  0.4818
 2953SOL    HW120492   4.087   2.414   1.634 -0.5616 -0.1595  0.3261
 2953SOL    HW220493   3.966   2.487   1.675 -1.3533 -0.4922  2.5912
 2954SOL     OW20494   3.388   2.016  10.830 -0.3183 -0.0850  0.1258
 2954SOL    HW120495   3.453   2.062  10.884 -0.0473 -0.9112  0.4980
 2954SOL    HW220496   3.451   1.961  10.785 -0.7173 -0.6791  0.2979
 2955SOL     OW20497   1.952   4.722   8.169  0.1826  0.8367  0.3938
 2955SOL    HW120498   2.033   4.703   8.215 -0.7877 -0.3766  1.6126
 2955SOL    HW220499   1.887   4.690   8.232 -0.5246  1.8994  0.2122
 2956SOL     OW20500   1.016   0.259  11.269  0.2750  0.2084 -0.6358
 2956SOL    HW120501   0.953   0.242  11.339 -0.1966  2.9884 -0.3983
 2956SOL    HW220502   1.085   0.267  11.334  1.8083  0.0147 -2.2410
 2957SOL     OW20503   3.380   3.463   4.670 -0.4548  0.5580  0.4712
 2957SOL    HW120504   3.341   3.424   4.592 -1.7415  0.4352  1.1741
 2957SOL    HW220505   3.466   3.419   4.671 -0.3657  0.6493 -2.1729
 2958SOL     OW20506   2.319   1.627  12.433  0.0307 -0.1575  0.8041
 2958SOL    HW120507   2.394   1.668  12.391 -0.8809  0.5777 -0.1054
 2958SOL    HW220508   2.283   1.579  12.359 -0.2068  0.9309  0.2110
 2959SOL     OW20509   3.889   1.978   2.590 -0.0594  0.0181 -0.1184
 2959SOL    HW120510   3.920   1.896   2.626  1.2314  0.6539  0.2082
 2959SOL    HW220511   3.963   2.013   2.540  0.0449  3.2672  2.2854
 2960SOL     OW20512   2.473   2.539  14.037  0.0933 -0.0929  0.2917
 2960SOL    HW120513   2.526   2.578  13.968 -1.8190  0.1469 -1.0494
 2960SOL    HW220514   2.387   2.575  14.013  0.4294  0.0995 -0.6115
 2961SOL     OW20515   1.604   3.810   9.314 -0.1780  0.4134 -0.2355
 2961SOL    HW120516   1.561   3.837   9.233 -0.0694  1.8904  0.1944
 2961SOL    HW220517   1.571   3.720   9.317 -2.6314  1.3928  1.6037
 2962SOL     OW20518   0.350   0.961   2.413  0.0940 -0.0274 -0.1329
 2962SOL    HW120519   0.389   0.911   2.485  3.6161  0.3002 -1.8142
 2962SOL    HW220520   0.425   0.995   2.364 -0.6336 -1.3249 -2.1429
 2963SOL     OW20521   3.433   0.324   9.529 -0.1791 -0.1964  0.4544
 2963SOL    HW120522   3.365   0.257   9.519 -0.9082  0.5955  0.1354
 2963SOL    HW220523   3.513   0.271   9.536  1.5192  2.1956 -0.9453
 2964SOL     OW20524   2.583   3.773   4.719 -0.1061 -0.1106 -0.2585
 2964SOL    HW120525   2.618   3.859   4.695 -1.1295  0.5369  0.5997
 2964SOL    HW220526   2.492   3.780   4.693  0.6424 -1.6288 -3.3546
 2965SOL     OW20527   3.844   4.140   5.081 -0.5133  0.0187 -0.6197
 2965SOL    HW120528   3.867   4.092   5.161  0.6125 -1.0002 -1.5474
 2965SOL    HW220529   3.904   4.105   5.015 -0.0018 -1.4116  0.5863
 2966SOL     OW20530   1.852   4.354   7.452  0.1134  0.1437 -0.6055
 2966SOL    HW120531   1.864   4.392   7.539  0.8245  3.4796 -2.1506
 2966SOL    HW220532   1.940   4.372   7.421  0.5587  0.7388  1.0365
 2967SOL     OW20533   1.369   1.673   7.280  0.2954  0.1150 -0.1225
 2967SOL    HW120534   1.277   1.654   7.298 -0.0472  1.6717 -0.2560
 2967SOL    HW220535   1.392   1.622   7.202  1.5227  1.0231 -0.3620
 2968SOL     OW20536   0.771   1.779   6.396 -0.9734 -0.2950  0.3861
 2968SOL    HW120537   0.834   1.786   6.468 -2.1163 -0.3259  1.3980
 2968SOL    HW220538   0.738   1.869   6.394 -0.2362 -0.0268  0.2123
 2969SOL     OW20539   2.568   1.616   5.538 -0.2028  0.2212 -0.2774
 2969SOL    HW120540   2.578   1.560   5.461  2.2736 -1.8484  1.5346
 2969SOL    HW220541   2.518   1.565   5.602  2.0817 -2.5629 -0.7368
 2970SOL     OW20542   1.798   2.159   8.462  0.1732  0.6861 -0.0782
 2970SOL    HW120543   1.862   2.217   8.503  0.0907  0.7447 -0.0327
 2970SOL    HW220544   1.833   2.074   8.489 -0.8110 -0.0871 -1.2430
 2971SOL     OW20545   1.348   3.670  13.915 -0.2649 -0.0143 -0.3433
 2971SOL    HW120546   1.421   3.723  13.885  0.8075 -2.0197 -1.2669
 2971SOL    HW220547   1.278   3.696  13.855 -0.2844  0.7432  0.0154
 2972SOL     OW20548   4.101   4.674   7.034  0.4470 -0.1060  1.0548
 2972SOL    HW120549   4.112   4.663   6.940 -2.5252  1.0984  0.5883
 2972SOL    HW220550   4.024   4.621   7.056 -0.6607  1.1392  0.1505
 2973SOL     OW20551   0.654   0.651   9.333  0.1013 -0.0343 -0.1100
 2973SOL    HW120552   0.741   0.613   9.320 -0.1001 -0.4346 -0.3305
 2973SOL    HW220553   0.665   0.713   9.405 -0.8689 -0.5672  0.4995
 2974SOL     OW20554   1.240   4.086  12.985 -0.4303  0.2655 -0.2350
 2974SOL    HW120555   1.253   4.021  12.916 -2.0159 -0.4064  0.0945
 2974SOL    HW220556   1.231   4.025  13.059  1.9554  0.0115 -0.1427
 2975SOL     OW20557   1.902   4.551  15.393 -0.1318 -0.3058  0.2838
 2975SOL    HW120558   1.966   4.621  15.398 -0.4519  0.1297 -1.8945
 2975SOL    HW220559   1.915   4.516  15.305  0.8128  1.6428 -0.3340
 2976SOL     OW20560   0.455   3.157   1.819 -0.2218 -0.7840 -0.0253
 2976SOL    HW120561   0.389   3.199   1.764 -1.7332 -2.4279  0.5482
 2976SOL    HW220562   0.466   3.228   1.883  1.6861 -0.5303 -0.6154
 2977SOL     OW20563   4.465   1.850  16.030 -0.2112  0.1186 -0.1250
 2977SOL    HW120564   4.429   1.903  15.959  0.3375  1.3658  0.5306
 2977SOL    HW220565   4.405   1.776  16.031 -0.7021  0.5203 -0.1488
 2978SOL     OW20566   4.212   2.110   6.505  0.0954  0.2157  1.0134
 2978SOL    HW120567   4.221   2.017   6.526  0.2355 -0.3695 -1.6207
 2978SOL    HW220568   4.161   2.105   6.424 -0.1404 -0.7120  1.2130
 2979SOL     OW20569   1.717   2.249   6.863  0.1313  0.0931  0.1649
 2979SOL    HW120570   1.803   2.293   6.862 -0.0507  0.4006 -3.3182
 2979SOL    HW220571   1.707   2.194   6.940  2.1145 -1.5847 -0.7636
 2980SOL     OW20572   3.409   3.744   2.755  0.3447  0.4851  0.3297
 2980SOL    HW120573   3.345   3.754   2.684  0.1857  1.9523  0.6800
 2980SOL    HW220574   3.394   3.652   2.778 -0.4020  0.4584 -0.2512
 2981SOL     OW20575   4.122   4.279   3.070 -0.6223 -0.3247 -0.0678
 2981SOL    HW120576   4.092   4.357   3.117  1.9319  0.2578  0.6108
 2981SOL    HW220577   4.198   4.307   3.018 -1.3229  0.4351 -0.6846
 2982SOL     OW20578   3.525   2.587  10.934 -0.0785  0.6131  0.2300
 2982SOL    HW120579   3.564   2.626  11.012  1.7838 -3.2944  1.2452
 2982SOL    HW220580   3.431   2.583  10.951 -0.2072 -2.2076 -1.1779
 2983SOL     OW20581   2.352   1.364  15.051 -0.4003 -0.1790  0.3184
 2983SOL    HW120582   2.433   1.406  15.022 -0.2335 -0.1491  0.8266
 2983SOL    HW220583   2.324   1.321  14.970 -1.4484 -0.6856  0.9496
 2984SOL     OW20584   0.136   2.372   7.196 -0.2240  0.0173 -0.1176
 2984SOL    HW120585   0.201   2.305   7.176 -0.6076  0.2774 -2.2648
 2984SOL    HW220586   0.156   2.442   7.133 -0.3645 -0.1715 -0.3727
 2985SOL     OW20587   2.639   2.874  10.090  0.1119 -0.0628 -0.0378
 2985SOL    HW120588   2.696   2.799  10.103  0.0741  0.3890  2.7840
 2985SOL    HW220589   2.593   2.871  10.174  0.2530  0.1301  0.0455
 2986SOL     OW20590   1.515   2.046   8.887 -0.0672 -0.3366  0.1719
 2986SOL    HW120591   1.459   2.041   8.809  0.6477  2.1730 -0.5094
 2986SOL    HW220592   1.459   2.008   8.953 -0.6865  0.5496  0.1607
 2987SOL     OW20593   3.659   3.067   6.500  0.1963 -0.3083  0.2421
 2987SOL    HW120594   3.591   3.065   6.433 -0.7690  1.8054  1.1628
 2987SOL    HW220595   3.691   3.153   6.471 -0.8512 -0.7438 -2.1773
 2988SOL     OW20596   3.329   0.109   7.763  0.6585  0.5872 -0.2417
 2988SOL    HW120597   3.375   0.117   7.680  0.1274  0.6331 -0.5265
 2988SOL    HW220598   3.402   0.082   7.820  0.5331 -0.6663 -0.6787
 2989SOL     OW20599   4.131   0.646   7.453 -0.0856  0.7057 -0.1595
 2989SOL    HW120600   4.205   0.677   7.402 -1.1196 -0.3172 -2.2850
 2989SOL    HW220601   4.142   0.551   7.452  1.4351  0.8458  2.5032
 2990SOL     OW20602   2.005   0.746   5.495  0.3066  0.4129 -0.1065
 2990SOL    HW120603   1.964   0.803   5.560 -0.7250 -1.0822  0.5700
 2990SOL    HW220604   1.928   0.709   5.451 -0.8130  1.4651  0.9728
 2991SOL     OW20605   0.214   1.222   1.422 -0.0274  0.4726  0.6551
 2991SOL    HW120606   0.209   1.309   1.383 -0.4045  0.0489 -0.2513
 2991SOL    HW220607   0.197   1.166   1.346 -4.0322  0.5674  1.4679
 2992SOL     OW20608   0.133   3.638  12.575 -0.1042  0.1296  0.2461
 2992SOL    HW120609   0.097   3.692  12.646 -3.1608 -1.3742 -0.1721
 2992SOL    HW220610   0.147   3.713  12.518  0.7802 -1.9653 -2.2841
 2993SOL     OW20611   0.259   2.636  14.600  0.1695 -0.0947  0.3390
 2993SOL    HW120612   0.239   2.557  14.549  2.2098 -0.4932  0.1206
 2993SOL    HW220613   0.248   2.597  14.687  0.8388  0.3354  0.6192
 2994SOL     OW20614   2.129   2.177   3.640  0.3123  0.1040  0.0877
 2994SOL    HW120615   2.085   2.176   3.555 -1.0351 -0.2170  0.7826
 2994SOL    HW220616   2.220   2.197   3.622  0.3714  0.9570  1.3308
 2995SOL     OW20617   0.340   0.990  14.072  0.0479  0.1755 -0.7415
 2995SOL    HW120618   0.365   0.937  13.997  0.9138 -1.3031  0.6115
 2995SOL    HW220619   0.316   0.923  14.136  0.3027 -0.0260 -0.8568
 2996SOL     OW20620   1.344   3.327   2.074 -0.4537 -0.0220  0.1430
 2996SOL    HW120621   1.327   3.358   1.985 -0.5163  0.0881  0.1923
 2996SOL    HW220622   1.253   3.317   2.102 -0.9760  1.5077 -0.9833
 2997SOL     OW20623   3.947   2.252  13.813  0.3985  0.4150  0.3123
 2997SOL    HW120624   4.005   2.256  13.889  1.4188  0.9945 -0.4939
 2997SOL    HW220625   3.927   2.343  13.791 -1.4683  0.1490  0.8983
 2998SOL     OW20626   0.930   3.808   5.978 -0.4085  0.2490  0.5435
 2998SOL    HW120627   0.898   3.721   6.002 -4.0424  0.5587 -3.1037
 2998SOL    HW220628   0.994   3.819   6.048  0.6285  0.6328 -0.4706
 2999SOL     OW20629   4.619   1.706  17.106 -0.0596 -0.2478 -0.5370
 2999SOL    HW120630   4.689   1.733  17.047 -1.3070  0.3791 -1.7225
 2999SOL    HW220631   4.598   1.787  17.153 -1.8024 -1.6273  1.0817
 3000SOL     OW20632   0.943   4.296   9.077  0.0466 -0.6771 -0.3775
 3000SOL    HW120633   1.038   4.300   9.065  0.0209  2.6008  0.3780
 3000SOL    HW220634   0.927   4.376   9.127  0.6260 -0.2566 -0.8662
 3001SOL     OW20635   3.197   1.119   4.025 -0.1730 -0.1046 -0.5115
 3001SOL    HW120636   3.158   1.174   4.093  0.7337 -1.1583  0.8694
 3001SOL    HW220637   3.142   1.127   3.948 -1.0259  0.5947  0.1761
 3002SOL     OW20638   1.328   3.483  16.488  0.0379 -0.4696  0.1245
 3002SOL    HW120639   1.360   3.560  16.441  0.5238  0.3315  1.7437
 3002SOL    HW220640   1.410   3.457  16.530 -1.2188 -0.9922  2.2961
 3003SOL     OW20641   3.230   1.175  11.206  0.2174  0.0592  0.1881
 3003SOL    HW120642   3.212   1.183  11.299 -0.1395 -1.7072  0.2650
 3003SOL    HW220643   3.251   1.265  11.180 -1.3131  0.5303  0.5890
 3004SOL     OW20644   4.645   4.024   1.060  0.3983  0.2116  0.5772
 3004SOL    HW120645   4.559   4.059   1.036  1.1395  2.1501  0.7635
 3004SOL    HW220646   4.671   4.001   0.970 -2.4657 -0.1737 -0.1374
 3005SOL     OW20647   2.240   2.221   4.742 -0.1762 -0.0026 -0.0247
 3005SOL    HW120648   2.328   2.248   4.769 -0.4868  0.8701  0.1424
 3005SOL    HW220649   2.242   2.246   4.649  1.4660 -2.9863 -0.7785
 3006SOL     OW20650   4.305   4.701   5.809 -0.2476  0.1555 -0.9792
 3006SOL    HW120651   4.264   4.625   5.851 -0.1710 -0.4093 -1.9023
 3006SOL    HW220652   4.258   0.037   5.843 -0.0387 -0.8485  1.5049
 3007SOL     OW20653   0.528   1.167   7.568 -0.0878 -0.0663  0.1881
 3007SOL    HW120654   0.492   1.243   7.615 -1.0147 -0.4643  0.1158
 3007SOL    HW220655   0.474   1.098   7.606 -2.5762  1.3207 -0.7729
 3008SOL     OW20656   1.142   3.083   6.531 -0.4321 -0.2902  0.2618
 3008SOL    HW120657   1.059   3.121   6.561 -1.2190 -0.9834 -0.9917
 3008SOL    HW220658   1.138   3.107   6.438  1.9458  2.4115  0.8788
 3009SOL     OW20659   0.920   4.527   6.019 -0.6678 -0.3367 -0.3768
 3009SOL    HW120660   0.835   4.550   6.057 -0.2463  0.7627 -0.1011
 3009SOL    HW220661   0.968   4.504   6.098  0.7869  2.6129 -0.3849
 3010SOL     OW20662   4.452   2.536   4.812  0.1304  0.4839 -0.1632
 3010SOL    HW120663   4.506   2.477   4.864 -0.9363 -0.8207 -0.5101
 3010SOL    HW220664   4.498   2.617   4.830  0.1360  0.5978 -0.6943
 3011SOL     OW20665   2.321   0.483  11.832  0.4205  0.0077 -0.0701
 3011SOL    HW120666   2.387   0.481  11.901  1.1163 -0.4139 -0.7546
 3011SOL    HW220667   2.247   0.444  11.878 -0.9267  1.5087 -0.9579
 3012SOL     OW20668   0.076   4.441   4.686  0.0672 -0.4837 -0.2655
 3012SOL    HW120669   0.021   4.483   4.753  1.2551  0.3202  0.1968
 3012SOL    HW220670   0.156   4.467   4.732 -0.6265  0.3872  0.4527
 3013SOL     OW20671   0.672   3.622  17.499  0.0464 -0.1257 -0.1066
 3013SOL    HW120672   0.665   3.592  17.408  1.5037  0.0315 -0.2737
 3013SOL    HW220673   0.646   3.712  17.479 -1.2705 -0.0294  2.0254
 3014SOL     OW20674   1.230   0.643   5.177  0.3686 -0.0126 -0.6172
 3014SOL    HW120675   1.233   0.664   5.084  1.0194 -1.3447 -0.9016
 3014SOL    HW220676   1.155   0.696   5.204  0.3489  0.0877 -0.8723
 3015SOL     OW20677   0.705   0.959  10.463  0.0619 -0.3296  0.0980
 3015SOL    HW120678   0.782   0.947  10.519  0.8713  1.3990 -0.6553
 3015SOL    HW220679   0.675   1.044  10.493 -0.8856 -1.3020  1.9086
 3016SOL     OW20680   3.317   3.682   1.544 -0.2745  0.4328  0.3391
 3016SOL    HW120681   3.370   3.703   1.620  3.2723 -0.7738 -1.7718
 3016SOL    HW220682   3.373   3.618   1.501 -0.3592  0.8664 -0.4167
 3017SOL     OW20683   0.223   4.407  10.220  0.1745  0.3400 -0.5925
 3017SOL    HW120684   0.141   4.365  10.195  0.9230  0.0984 -2.6558
 3017SOL    HW220685   0.206   4.488  10.173 -1.0510 -0.4255 -1.4632
 3018SOL     OW20686   3.104   3.996  14.384 -0.0211  0.1480 -0.6024
 3018SOL    HW120687   3.061   3.917  14.350  1.9083 -0.9726 -0.4629
 3018SOL    HW220688   3.047   4.065  14.352 -0.9380 -0.9620 -1.3351
 3019SOL     OW20689   0.442   0.715   6.303 -0.2516 -0.3104  0.1877
 3019SOL    HW120690   0.483   0.793   6.341  2.7809 -1.8116  0.0007
 3019SOL    HW220691   0.464   0.738   6.213  2.3736 -1.0589  0.6333
 3020SOL     OW20692   0.220   3.022  15.358  0.0906 -0.3020  0.7357
 3020SOL    HW120693   0.293   3.033  15.419  0.9886  0.6809 -0.5356
 3020SOL    HW220694   0.256   2.990  15.275 -0.1414  2.1822 -0.3082
 3021SOL     OW20695   3.561   2.792  12.034  0.0274 -0.0786 -0.0409
 3021SOL    HW120696   3.479   2.758  11.999  0.4001 -0.2376 -0.7553
 3021SOL    HW220697   3.582   2.716  12.088 -0.7028  0.0964  0.4875
 3022SOL     OW20698   2.240   0.453   8.396  0.9102  0.2732  0.4400
 3022SOL    HW120699   2.183   0.407   8.458 -0.8819 -0.5993 -1.8410
 3022SOL    HW220700   2.307   0.492   8.451  1.3366  1.3965 -0.8676
 3023SOL     OW20701   3.689   1.978   7.004 -0.1793  0.2689  0.4160
 3023SOL    HW120702   3.614   1.950   7.057  0.3935 -1.3237  0.3952
 3023SOL    HW220703   3.745   1.901   6.996  0.3333  0.4777  2.0079
 3024SOL     OW20704   4.557   3.918   5.475 -0.1661 -0.4263  0.4585
 3024SOL    HW120705   4.516   3.887   5.394 -0.2384 -0.8257  0.6455
 3024SOL    HW220706   4.579   3.832   5.512  1.1654 -1.0435 -1.7297
 3025SOL     OW20707   3.714   2.920   2.762 -0.2538  0.0250 -0.1668
 3025SOL    HW120708   3.728   2.900   2.854 -0.1128  1.0777  0.0362
 3025SOL    HW220709   3.633   2.969   2.777 -1.1248 -1.6042  0.5165
 3026SOL     OW20710   1.936   4.138   3.784 -0.3077 -0.2521  0.5075
 3026SOL    HW120711   1.985   4.214   3.754  1.1713 -1.2273  0.4451
 3026SOL    HW220712   1.948   4.078   3.711  0.3655 -0.2503  0.6203
 3027SOL     OW20713   1.058   2.736   1.862  0.0435  0.4364 -0.0166
 3027SOL    HW120714   0.985   2.677   1.846  1.0654 -0.8240 -0.0706
 3027SOL    HW220715   1.093   2.680   1.933  2.3948  1.4856 -0.3294
 3028SOL     OW20716   1.150   2.546   2.787 -0.0727  0.2173 -0.5663
 3028SOL    HW120717   1.145   2.452   2.806  1.1925  0.3854  0.5800
 3028SOL    HW220718   1.209   2.544   2.712 -0.5426  1.9690 -0.9729
 3029SOL     OW20719   0.922   1.933   8.195  0.3399  0.5053 -0.0970
 3029SOL    HW120720   0.862   1.938   8.269  0.6785  0.3739  0.1816
 3029SOL    HW220721   0.855   1.969   8.136  1.1258  0.6798 -0.8904
 3030SOL     OW20722   1.822   4.324   4.529  0.3112  0.2245 -0.4982
 3030SOL    HW120723   1.748   4.385   4.522  1.6889  2.0233  0.6965
 3030SOL    HW220724   1.895   4.385   4.540 -2.1352  3.0076  0.5619
 3031SOL     OW20725   2.479   2.592   3.063 -0.0733  0.2128 -0.9093
 3031SOL    HW120726   2.555   2.647   3.045  0.7433 -0.1535  1.3511
 3031SOL    HW220727   2.411   2.659   3.057 -0.2552  0.0696 -0.4625
 3032SOL     OW20728   2.589   1.025  10.739 -0.0027  0.5495  0.0019
 3032SOL    HW120729   2.624   0.943  10.706 -1.7660 -0.5791  0.9561
 3032SOL    HW220730   2.649   1.088  10.699  1.8000 -1.2642 -0.1124
 3033SOL     OW20731   3.548   3.176  14.954 -0.3512 -0.2156  0.1450
 3033SOL    HW120732   3.616   3.243  14.947 -0.6317  0.1190  0.5643
 3033SOL    HW220733   3.595   3.100  14.989  0.7101  0.4997  0.2968
 3034SOL     OW20734   0.500   2.096   8.818 -0.4366  0.8177  0.6303
 3034SOL    HW120735   0.448   2.169   8.852 -1.9974  0.6325 -1.3909
 3034SOL    HW220736   0.587   2.117   8.851  0.3663 -0.9090 -0.4015
 3035SOL     OW20737   1.069   3.087  11.976 -0.5975 -0.3067 -0.1101
 3035SOL    HW120738   1.048   3.102  12.068 -0.1407  0.6223 -0.1506
 3035SOL    HW220739   1.164   3.097  11.967 -0.1461 -1.1731  3.6472
 3036SOL     OW20740   3.886   4.126   7.762 -0.4286  0.3136  0.7346
 3036SOL    HW120741   3.813   4.072   7.733 -0.5819  1.3379 -0.8141
 3036SOL    HW220742   3.844   4.212   7.769 -0.6549  0.1338  1.6363
 3037SOL     OW20743   0.894   1.736   2.421 -0.3106 -0.2493 -0.1234
 3037SOL    HW120744   0.882   1.763   2.512 -1.6828  1.4553 -0.8079
 3037SOL    HW220745   0.818   1.680   2.408  2.1872 -3.5811 -0.2935
 3038SOL     OW20746   1.632   2.214   5.048  0.1526 -0.4873  0.9124
 3038SOL    HW120747   1.618   2.257   5.133  0.3914  0.3567  0.5296
 3038SOL    HW220748   1.616   2.291   4.993 -2.1120 -1.1704  0.6172
 3039SOL     OW20749   3.136   1.816   4.127 -0.6696  0.4137  0.0189
 3039SOL    HW120750   3.125   1.894   4.180  1.3189  0.1002  0.8876
 3039SOL    HW220751   3.066   1.762   4.165  1.1921 -1.0018  1.4299
 3040SOL     OW20752   4.391   1.056   2.561 -0.1519 -0.2680 -0.8647
 3040SOL    HW120753   4.436   1.064   2.646 -0.4723 -0.1671 -0.7063
 3040SOL    HW220754   4.416   1.143   2.528 -0.1839  0.3554  0.7114
 3041SOL     OW20755   0.205   4.692  13.460 -0.4531  0.3716 -0.1322
 3041SOL    HW120756   0.213   4.727  13.371 -0.1524  0.2506 -0.1525
 3041SOL    HW220757   0.294   4.658  13.468 -0.4510  0.4895  0.3227
 3042SOL     OW20758   1.939   0.135  10.442 -0.6924  0.0214  0.0281
 3042SOL    HW120759   1.882   0.074  10.490 -1.6218  0.9081  0.0536
 3042SOL    HW220760   1.959   0.185  10.522  1.4122  0.0376 -0.5060
 3043SOL     OW20761   3.542   2.141   6.829 -0.2423  0.2930 -0.0996
 3043SOL    HW120762   3.611   2.084   6.864 -0.4593  0.5129  0.7015
 3043SOL    HW220763   3.511   2.183   6.910 -1.6986  0.4371 -0.7319
 3044SOL     OW20764   3.312   1.413   7.463  0.5335 -0.4650 -0.0902
 3044SOL    HW120765   3.338   1.333   7.509  2.6853  1.2962  1.8237
 3044SOL    HW220766   3.354   1.392   7.380 -0.1004 -0.5976 -0.3755
 3045SOL     OW20767   4.490   3.271   5.310 -0.1123 -0.5368  0.1247
 3045SOL    HW120768   4.469   3.349   5.259 -2.3387 -0.3055  1.3716
 3045SOL    HW220769   4.488   3.205   5.241 -3.6481 -1.8296  1.4272
 3046SOL     OW20770   0.279   1.280   8.772  0.0568 -0.2933  0.7032
 3046SOL    HW120771   0.204   1.258   8.718  0.0408 -1.0751  1.0416
 3046SOL    HW220772   0.283   1.375   8.762 -1.4222 -0.4007 -0.8480
 3047SOL     OW20773   3.034   2.780   6.317 -0.4440  0.0134 -0.1400
 3047SOL    HW120774   2.987   2.808   6.396  0.4920 -1.6364  1.0227
 3047SOL    HW220775   3.056   2.695   6.357  2.9397  0.3305 -1.4004
 3048SOL     OW20776   4.254   1.860   8.597  1.0892 -0.8242 -0.1143
 3048SOL    HW120777   4.259   1.951   8.568 -0.9001 -1.5304 -2.7510
 3048SOL    HW220778   4.345   1.832   8.602  1.7743  0.7494 -3.6393
 3049SOL     OW20779   2.572   0.080   3.951 -0.7901 -0.0725  0.2134
 3049SOL    HW120780   2.649   0.023   3.948 -0.9024 -0.2484  0.6329
 3049SOL    HW220781   2.614   0.165   3.936  0.2950 -0.4323  1.1728
 3050SOL     OW20782   2.298   3.444   5.677  0.4886  0.2253 -0.0816
 3050SOL    HW120783   2.350   3.451   5.757 -0.6328 -1.0311  0.7531
 3050SOL    HW220784   2.337   3.365   5.641 -1.2595 -0.3329 -0.7422
 3051SOL     OW20785   0.261   4.326   2.062  0.0536 -0.0935 -0.0007
 3051SOL    HW120786   0.339   4.294   2.017 -0.5259  1.0287 -1.7768
 3051SOL    HW220787   0.294   4.395   2.119  1.4749 -0.6566 -0.1372
 3052SOL     OW20788   1.289   2.790   5.130 -0.3550 -0.2840 -0.0167
 3052SOL    HW120789   1.197   2.812   5.140 -0.0464  0.6897  0.6961
 3052SOL    HW220790   1.327   2.878   5.126 -1.7395  0.3108 -0.1535
 3053SOL     OW20791   2.796   1.182   4.683 -0.3556  0.0960  0.1149
 3053SOL    HW120792   2.784   1.205   4.775  0.8319 -3.4210  1.1523
 3053SOL    HW220793   2.707   1.173   4.651  0.2103  0.2770 -1.5119
 3054SOL     OW20794   2.808   0.954   8.708 -0.2264 -0.4657 -0.2809
 3054SOL    HW120795   2.760   0.873   8.691  1.8222 -1.8749  0.5801
 3054SOL    HW220796   2.801   0.954   8.804  1.4613 -0.0668 -0.1428
 3055SOL     OW20797   4.317   1.521   9.140 -0.8472  0.5885 -0.4351
 3055SOL    HW120798   4.298   1.574   9.217 -0.2875  0.8227 -0.4557
 3055SOL    HW220799   4.367   1.457   9.189 -3.8747 -0.9499  0.6408
 3056SOL     OW20800   1.907   2.072   6.068  0.1396 -0.0832 -0.1715
 3056SOL    HW120801   1.823   2.079   6.024  1.0748  2.3438 -1.5390
 3056SOL    HW220802   1.885   1.999   6.126 -1.5578 -0.8370 -1.7619
 3057SOL     OW20803   0.596   3.423   4.677  0.1429 -0.4185  0.0049
 3057SOL    HW120804   0.612   3.449   4.768  0.4002  0.5610 -0.3230
 3057SOL    HW220805   0.607   3.328   4.683 -2.0851 -0.5742  1.5389
 3058SOL     OW20806   3.471   3.532   5.246  0.2679  0.1208  0.1259
 3058SOL    HW120807   3.501   3.598   5.308  0.7081  0.1465 -0.1132
 3058SOL    HW220808   3.392   3.512   5.296 -1.1133  0.6289 -1.8461
 3059SOL     OW20809   2.976   2.851  13.621 -0.1271  0.0390 -0.0078
 3059SOL    HW120810   2.978   2.760  13.591  1.1292 -0.2722  1.0463
 3059SOL    HW220811   3.016   2.846  13.708 -1.7548  0.4692  0.7691
 3060SOL     OW20812   0.794   0.359   8.424  0.7463  0.1282 -0.5780
 3060SOL    HW120813   0.849   0.420   8.375  0.3556 -1.2693 -2.7217
 3060SOL    HW220814   0.750   0.320   8.349  2.5664 -0.9367 -1.0924
 3061SOL     OW20815   2.183   0.546  14.661 -0.2944  0.2430  1.0458
 3061SOL    HW120816   2.102   0.502  14.687  1.3148 -1.6399  2.8299
 3061SOL    HW220817   2.246   0.474  14.669 -1.0624 -0.3409  1.8072
 3062SOL     OW20818   1.634   3.687   5.011 -0.7959 -0.2585  0.2263
 3062SOL    HW120819   1.643   3.593   5.026  2.0194 -0.6834 -4.2205
 3062SOL    HW220820   1.609   3.687   4.919 -0.2006 -0.1832  0.0681
 3063SOL     OW20821   4.001   3.427   5.773  0.5618 -0.0229  0.7279
 3063SOL    HW120822   3.908   3.447   5.766  0.7627  0.6550  0.0426
 3063SOL    HW220823   4.014   3.418   5.867  0.3947  0.5087  0.8025
 3064SOL     OW20824   1.576   2.397  14.514  0.0239 -0.0934  0.0758
 3064SOL    HW120825   1.582   2.356  14.428  1.3511  2.3080 -0.9693
 3064SOL    HW220826   1.490   2.368  14.545  0.8572 -0.7675  1.7264
 3065SOL     OW20827   2.731   1.451   2.454  0.1585  0.3747  0.4838
 3065SOL    HW120828   2.715   1.462   2.361  2.0254 -0.3335  0.0819
 3065SOL    HW220829   2.824   1.461   2.474  0.1806 -1.4110  1.3245
 3066SOL     OW20830   0.864   0.970   3.062 -0.5598 -0.2486 -0.1361
 3066SOL    HW120831   0.886   0.892   3.011  1.2582 -0.1534  0.5167
 3066SOL    HW220832   0.853   0.939   3.152 -1.1664 -0.9765 -0.4570
 3067SOL     OW20833   0.496   2.855   5.788 -0.0770 -0.9270  0.0217
 3067SOL    HW120834   0.482   2.898   5.703  1.3479 -2.8553 -1.1654
 3067SOL    HW220835   0.449   2.777   5.760 -0.2964 -0.8485  0.1739
 3068SOL     OW20836   4.245   3.515   7.937 -0.5398  0.6774 -0.2669
 3068SOL    HW120837   4.151   3.508   7.920 -0.0315 -0.7925 -2.4934
 3068SOL    HW220838   4.256   3.609   7.926  2.2562  0.6371  2.0055
 3069SOL     OW20839   3.153   1.110  16.064 -0.7748 -0.8607 -0.2752
 3069SOL    HW120840   3.096   1.151  16.128 -2.6977 -0.9411 -1.9367
 3069SOL    HW220841   3.232   1.165  16.063 -2.1288  1.0664 -0.4397
 3070SOL     OW20842   3.069   1.034   8.731 -0.3554  0.4569  0.1149
 3070SOL    HW120843   3.078   1.072   8.644 -2.8680  1.3967  0.2635
 3070SOL    HW220844   2.977   1.008   8.732 -0.2012 -0.1835 -2.2116
 3071SOL     OW20845   2.044   1.103   6.642  0.6891 -0.2823  0.0013
 3071SOL    HW120846   2.099   1.043   6.692  1.4705  1.1855  0.9322
 3071SOL    HW220847   2.041   1.187   6.689  0.5255 -1.5588  2.2479
 3072SOL     OW20848   2.208   2.106  15.399  0.3627 -0.0949 -0.2966
 3072SOL    HW120849   2.152   2.044  15.353 -1.3337  1.0897  0.1935
 3072SOL    HW220850   2.291   2.098  15.352  0.1246  0.6265 -0.8317
 3073SOL     OW20851   3.851   0.796   6.873  0.1220 -0.2058 -0.0444
 3073SOL    HW120852   3.898   0.775   6.792  0.3432  1.0995 -0.2508
 3073SOL    HW220853   3.930   0.799   6.927 -2.2892  0.4067  3.4431
 3074SOL     OW20854   1.319   0.824   4.921 -0.2711 -0.0207 -0.3160
 3074SOL    HW120855   1.339   0.732   4.902  1.0449 -0.0681  1.2736
 3074SOL    HW220856   1.396   0.865   4.881  0.6301 -1.4723 -0.0736
 3075SOL     OW20857   0.797   1.343   2.236  0.0797 -0.0555  0.2156
 3075SOL    HW120858   0.785   1.268   2.177 -0.6682 -0.0843  0.3960
 3075SOL    HW220859   0.825   1.308   2.321 -1.2909  0.2147  0.7955
 3076SOL     OW20860   3.041   0.949   5.529 -0.5438  0.4356 -0.0114
 3076SOL    HW120861   3.083   0.878   5.578  0.2312 -0.3225 -1.7908
 3076SOL    HW220862   3.109   1.016   5.526 -1.3159  1.1840 -0.7456
 3077SOL     OW20863   1.503   2.759  16.544 -0.4422 -0.4252 -0.4153
 3077SOL    HW120864   1.519   2.767  16.638 -0.9382 -0.5245 -0.3211
 3077SOL    HW220865   1.477   2.844  16.507 -0.1059  0.8665  2.2311
 3078SOL     OW20866   2.738   2.999   3.929  0.2926  0.7822  0.4752
 3078SOL    HW120867   2.653   3.022   3.891  0.6160  0.9999 -0.1097
 3078SOL    HW220868   2.714   2.922   3.981 -0.2752  0.0389 -0.9055
 3079SOL     OW20869   1.175   4.477   4.382  0.4318 -0.9044  0.0566
 3079SOL    HW120870   1.094   4.526   4.398  0.7931 -1.0016  2.2581
 3079SOL    HW220871   1.178   4.472   4.287  0.0921 -1.8597  0.0979
 3080SOL     OW20872   1.463   0.371   9.506 -0.5650  0.0027 -0.0417
 3080SOL    HW120873   1.380   0.328   9.524 -1.0915  1.0212 -0.0317
 3080SOL    HW220874   1.470   0.416   9.591  1.9007  0.6005 -0.5440
 3081SOL     OW20875   4.126   0.551  12.293  0.2421  0.0582 -0.2560
 3081SOL    HW120876   4.199   0.536  12.233 -0.7697  0.8081 -1.6824
 3081SOL    HW220877   4.119   0.467  12.338  0.4763 -0.5291 -1.3102
 3082SOL     OW20878   1.446   3.954  16.371 -0.4336  0.4608  0.0723
 3082SOL    HW120879   1.523   4.009  16.356  2.4459 -2.7142  3.0906
 3082SOL    HW220880   1.458   3.928  16.463 -2.1590  0.5491  0.3263
 3083SOL     OW20881   2.927   0.953   9.524  0.2964  0.4968 -0.1265
 3083SOL    HW120882   3.016   0.970   9.493  0.7083  1.2443  1.4947
 3083SOL    HW220883   2.882   1.030   9.489  0.4381  0.1064 -1.1875
 3084SOL     OW20884   4.063   1.485   4.017 -0.5683  0.3802  0.3460
 3084SOL    HW120885   4.013   1.546   4.071  1.4320  1.6997  0.7050
 3084SOL    HW220886   4.033   1.504   3.928 -0.4204  0.0428  0.2245
 3085SOL     OW20887   4.182   2.231   6.998 -0.5741  1.0527  0.5637
 3085SOL    HW120888   4.198   2.256   6.907  0.1292 -0.7239  0.2163
 3085SOL    HW220889   4.092   2.261   7.016 -1.0940 -0.0123 -0.2777
 3086SOL     OW20890   4.102   4.136   4.591 -0.2799  0.0817 -0.3668
 3086SOL    HW120891   4.034   4.202   4.603 -1.2055 -0.8103 -0.6972
 3086SOL    HW220892   4.141   4.159   4.507  1.1372 -0.4498  0.1470
 3087SOL     OW20893   3.322   4.523   8.743 -0.5930  0.1546 -0.3967
 3087SOL    HW120894   3.239   4.540   8.788  0.2111  0.9483  0.8145
 3087SOL    HW220895   3.364   4.445   8.780 -1.1892  0.0564  0.0711
 3088SOL     OW20896   1.629   4.202   3.804 -0.2732 -0.7558 -0.6834
 3088SOL    HW120897   1.717   4.188   3.771 -1.7983 -3.3035 -3.6284
 3088SOL    HW220898   1.642   4.250   3.886  2.1499 -1.6843 -0.5387
 3089SOL     OW20899   1.514   1.159   3.955 -0.2294 -0.0205  0.6748
 3089SOL    HW120900   1.584   1.145   4.018  1.2892 -2.1621 -1.4609
 3089SOL    HW220901   1.546   1.101   3.885 -1.2407 -0.3221  0.4611
 3090SOL     OW20902   3.339   1.058   7.397  0.5224  0.3518 -1.0497
 3090SOL    HW120903   3.398   0.983   7.404 -1.7545 -1.1831  1.8693
 3090SOL    HW220904   3.358   1.098   7.482  1.1343  0.5775 -1.2959
 3091SOL     OW20905   0.334   0.500   2.206 -0.2064 -0.0495  0.5705
 3091SOL    HW120906   0.369   0.483   2.118 -0.0483  1.0418  0.4178
 3091SOL    HW220907   0.255   0.449   2.191 -1.5082  2.9949 -3.0361
 3092SOL     OW20908   2.158   2.469  11.897 -0.1911  0.2294 -0.4846
 3092SOL    HW120909   2.169   2.395  11.957 -0.0056  0.2467 -0.4973
 3092SOL    HW220910   2.080   2.441  11.849 -0.1642 -1.8116  0.6563
 3093SOL     OW20911   0.866   3.305   3.319  0.2161  0.0958 -0.5436
 3093SOL    HW120912   0.774   3.290   3.297 -0.2415  0.5082  1.0363
 3093SOL    HW220913   0.900   3.327   3.232  0.1217  0.1579 -0.5656
 3094SOL     OW20914   3.163   3.367  15.141 -0.2723 -0.6744  0.1445
 3094SOL    HW120915   3.236   3.352  15.081  0.3999  2.4826  0.1886
 3094SOL    HW220916   3.185   3.459  15.149  0.8598 -0.8944 -0.4710
 3095SOL     OW20917   2.896   1.551   1.796  0.1776 -0.2985 -0.1304
 3095SOL    HW120918   2.903   1.530   1.703  0.9824  1.6650 -0.5358
 3095SOL    HW220919   2.817   1.505   1.823  2.7583 -2.5141  3.7736
 3096SOL     OW20920   1.797   4.413   3.199 -0.3057  0.2777 -1.0036
 3096SOL    HW120921   1.778   4.479   3.133  1.7456  1.2746 -0.5764
 3096SOL    HW220922   1.719   4.359   3.214  2.7130 -3.7976  0.0078
 3097SOL     OW20923   4.354   4.148   2.924  0.5232 -0.1176  0.1346
 3097SOL    HW120924   4.288   4.080   2.941  0.0194  0.6574  1.2475
 3097SOL    HW220925   4.418   4.137   2.995  1.4846  0.5977 -0.6332
 3098SOL     OW20926   1.933   1.522   4.646  0.4419  0.4765  0.2081
 3098SOL    HW120927   1.974   1.464   4.711  1.1356 -1.8096 -2.2546
 3098SOL    HW220928   1.843   1.494   4.660  0.8692 -0.5700  0.8616
 3099SOL     OW20929   4.196   1.292   2.820 -0.4878 -0.0534 -0.0254
 3099SOL    HW120930   4.153   1.215   2.782  0.0999  0.4828 -1.8117
 3099SOL    HW220931   4.205   1.271   2.912 -2.6248  0.3998  0.2897
 3100SOL     OW20932   3.928   1.572  16.286 -0.2091 -0.1391 -0.1304
 3100SOL    HW120933   3.950   1.660  16.317 -1.8876 -0.0281  0.7515
 3100SOL    HW220934   3.992   1.524  16.339 -1.1092 -0.2887  0.8104
 3101SOL     OW20935   0.109   1.558  16.225 -0.4229 -0.2963  0.1981
 3101SOL    HW120936   0.059   1.593  16.151  1.6527  2.3595  0.0554
 3101SOL    HW220937   0.078   1.468  16.234 -0.1470 -0.3567  0.5367
 3102SOL     OW20938   0.610   0.921   5.465 -0.0760  0.0588  0.7692
 3102SOL    HW120939   0.645   0.875   5.389  0.4294  2.0411 -0.2124
 3102SOL    HW220940   0.682   0.928   5.528  1.6298 -0.2324 -1.1360
 3103SOL     OW20941   2.568   0.416  10.634 -0.7356  0.2421  0.1342
 3103SOL    HW120942   2.514   0.493  10.650  1.4910  1.9339 -0.4378
 3103SOL    HW220943   2.509   0.347  10.604 -1.5271  1.3874 -0.9372
 3104SOL     OW20944   1.087   1.357   3.252  0.8742  0.2993 -0.4333
 3104SOL    HW120945   1.065   1.450   3.252  0.8937  0.3089  2.6708
 3104SOL    HW220946   1.120   1.353   3.342  1.2341  1.7233 -0.5009
 3105SOL     OW20947   0.136   1.000   4.695 -0.0655  0.4820 -0.3582
 3105SOL    HW120948   0.114   1.014   4.787 -0.5166 -2.3639 -0.0260
 3105SOL    HW220949   0.096   1.078   4.657  0.4176  0.3019 -1.2300
 3106SOL     OW20950   0.469   3.365   0.540 -0.5429 -0.5056 -0.1550
 3106SOL    HW120951   0.531   3.431   0.572  0.4220 -1.4311 -0.1315
 3106SOL    HW220952   0.398   3.416   0.501  0.6275  3.6500  3.1462
 3107SOL     OW20953   4.140   3.436  10.496 -0.3544  0.0141 -0.5527
 3107SOL    HW120954   4.081   3.511  10.495 -0.0223  0.2917  0.7210
 3107SOL    HW220955   4.083   3.366  10.465 -0.9263  1.5363 -2.9188
 3108SOL     OW20956   1.977   0.649   7.358 -0.3449  0.0015 -0.7220
 3108SOL    HW120957   1.959   0.633   7.451  0.5744  1.0932 -0.3682
 3108SOL    HW220958   2.011   0.738   7.363 -2.2809  0.6807  0.8568
 3109SOL     OW20959   1.401   1.966   1.584 -0.4191 -0.4067 -0.6481
 3109SOL    HW120960   1.385   1.894   1.645 -1.0354 -0.4537 -0.8575
 3109SOL    HW220961   1.351   1.942   1.506  0.3171  0.0438 -1.2537
 3110SOL     OW20962   1.672   2.159   3.423 -0.1944  0.7340  0.7635
 3110SOL    HW120963   1.713   2.072   3.420  0.7845  1.0925  3.1594
 3110SOL    HW220964   1.731   2.196   3.489 -1.5446  0.7743  1.9404
 3111SOL     OW20965   0.981   0.094   8.295  0.0972  0.2973  0.3898
 3111SOL    HW120966   1.027   0.174   8.319 -0.9915  0.9330  0.3043
 3111SOL    HW220967   1.011   0.088   8.204 -2.6097 -0.4474 -0.4431
 3112SOL     OW20968   1.964   1.765   5.269  0.3519  0.1964 -0.2316
 3112SOL    HW120969   1.950   1.781   5.363 -1.8714 -0.9259 -0.3672
 3112SOL    HW220970   1.875   1.753   5.239 -0.8115  0.4123  3.0973
 3113SOL     OW20971   3.994   1.753  11.742  0.6521  0.4001  0.2985
 3113SOL    HW120972   4.034   1.840  11.741  1.9773 -0.2532 -2.0654
 3113SOL    HW220973   4.012   1.732  11.834  1.8570  1.8063  0.3750
 3114SOL     OW20974   3.735   0.007   3.451  0.0419  0.1171 -0.6844
 3114SOL    HW120975   3.759   4.667   3.405 -1.9529 -1.8094  1.5597
 3114SOL    HW220976   3.654   0.023   3.402 -0.9532  0.1879  0.9672
 3115SOL     OW20977   1.029   0.324  10.979 -0.3325  0.1375 -0.0440
 3115SOL    HW120978   1.003   0.318  11.070  0.3792 -1.0004  0.0867
 3115SOL    HW220979   1.053   0.234  10.956 -1.4142 -0.2229  0.2627
 3116SOL     OW20980   1.213   3.910   5.653  0.0910  0.1071 -0.2135
 3116SOL    HW120981   1.243   3.873   5.735  0.8066  1.2840  0.0510
 3116SOL    HW220982   1.138   3.852   5.640  0.3167 -0.1007 -0.5925
 3117SOL     OW20983   4.254   1.343  13.122  0.6327  0.4937  0.2006
 3117SOL    HW120984   4.238   1.265  13.174  1.0140  1.3546  1.6116
 3117SOL    HW220985   4.331   1.316  13.073  1.5702 -0.1014  2.0261
 3118SOL     OW20986   4.721   0.983   9.115  0.7440  0.3147 -0.4338
 3118SOL    HW120987   4.704   1.072   9.147  0.9827  0.8973 -1.9583
 3118SOL    HW220988   0.051   0.955   9.174 -1.4676 -1.3669  1.4126
 3119SOL     OW20989   3.993   2.376   8.551  0.2294 -0.3175 -0.4527
 3119SOL    HW120990   4.069   2.342   8.505  1.5940  1.8572  0.1495
 3119SOL    HW220991   3.935   2.405   8.481  0.9022  0.9360 -0.4971
 3120SOL     OW20992   1.303   3.419  10.289 -0.5244 -0.1741 -0.4765
 3120SOL    HW120993   1.350   3.336  10.276 -0.7938 -0.6560  1.7104
 3120SOL    HW220994   1.325   3.433  10.381  1.0018 -1.7809 -0.5903
 3121SOL     OW20995   1.359   0.428   4.509 -0.1297  0.1975 -0.2042
 3121SOL    HW120996   1.340   0.423   4.415  0.3522  1.4543 -0.3732
 3121SOL    HW220997   1.282   0.388   4.549  0.3015 -0.9721 -0.5545
 3122SOL     OW20998   0.119   4.194  12.766  0.8061 -0.1781 -0.2346
 3122SOL    HW120999   0.131   4.173  12.673 -0.1535  0.3693 -0.4826
 3122SOL    HW221000   0.061   4.269  12.771  0.1351 -0.6234 -1.5110
 3123SOL     OW21001   1.123   0.327   4.062 -0.5505 -0.2523  0.1218
 3123SOL    HW121002   1.134   0.253   4.002  1.5363 -2.0844  2.7530
 3123SOL    HW221003   1.040   0.313   4.107 -1.2606  0.5073 -0.9482
 3124SOL     OW21004   3.730   3.532  11.041  0.0161 -0.3614  0.1163
 3124SOL    HW121005   3.770   3.477  11.110 -0.3014  1.2987  1.6161
 3124SOL    HW221006   3.687   3.606  11.084 -0.5484 -0.1950 -0.7544
 3125SOL     OW21007   0.193   2.307  15.261 -0.0594 -0.1224  0.8597
 3125SOL    HW121008   0.153   2.390  15.234  2.0062 -0.4253 -3.1741
 3125SOL    HW221009   0.128   2.245  15.227 -0.5519  0.9552 -0.1785
 3126SOL     OW21010   1.678   0.053   1.856 -0.5442 -1.0489 -0.4153
 3126SOL    HW121011   1.727   0.059   1.774 -1.0875 -0.9195 -0.7243
 3126SOL    HW221012   1.606   4.738   1.828 -0.9430 -1.4744  1.4377
 3127SOL     OW21013   4.330   3.338  10.338  0.2464  0.0265 -0.1703
 3127SOL    HW121014   4.268   3.371  10.403  1.7420 -1.3667  1.9551
 3127SOL    HW221015   4.388   3.413  10.322 -0.9842  0.8024 -1.0062
 3128SOL     OW21016   4.248   4.010   6.148 -0.4211  0.1428  0.1619
 3128SOL    HW121017   4.185   3.987   6.079 -1.0060 -0.9600  1.0702
 3128SOL    HW221018   4.246   4.104   6.127 -0.5680 -0.5642 -3.0049
 3129SOL     OW21019   4.037   1.979   3.795 -0.2049  0.2331 -0.2075
 3129SOL    HW121020   3.962   1.943   3.749 -2.7456  1.3150  3.1091
 3129SOL    HW221021   4.015   2.072   3.802  2.2629  0.5690  3.1641
 3130SOL     OW21022   2.070   1.553   8.291  0.2454 -1.0279  0.2290
 3130SOL    HW121023   2.028   1.478   8.249  0.8190 -0.6500 -1.0408
 3130SOL    HW221024   2.008   1.617   8.326 -1.0019 -1.3227 -1.4255
 3131SOL     OW21025   1.577   3.319   5.702  0.4698 -0.1972  0.1305
 3131SOL    HW121026   1.597   3.239   5.654  1.2581  0.4990 -0.7107
 3131SOL    HW221027   1.656   3.345   5.749  0.6134  1.3844 -0.9924
 3132SOL     OW21028   1.928   0.931   8.013 -0.2140 -0.0204 -0.1422
 3132SOL    HW121029   1.860   0.864   8.024  1.4071 -1.4854  1.0711
 3132SOL    HW221030   1.981   0.902   8.088  0.5710 -1.8128 -1.3943
 3133SOL     OW21031   2.532   2.852   2.196  0.7227  0.1781  0.2070
 3133SOL    HW121032   2.599   2.896   2.143 -0.7362  2.3232  0.1098
 3133SOL    HW221033   2.583   2.778   2.226 -0.4021 -0.3630  0.8047
 3134SOL     OW21034   3.818   3.337   4.772 -0.1138 -0.2309  0.6008
 3134SOL    HW121035   3.855   3.249   4.761  0.0180 -0.2128  0.9191
 3134SOL    HW221036   3.752   3.338   4.703  0.2730 -0.7323  0.2226
 3135SOL     OW21037   1.958   1.794   0.913  0.1874 -0.7136  0.0891
 3135SOL    HW121038   1.980   1.862   0.977  1.2511  1.2056 -2.3013
 3135SOL    HW221039   1.892   1.745   0.962  1.0329 -3.0335 -1.1165
 3136SOL     OW21040   3.953   3.945   9.346 -0.4515  0.5183  0.0168
 3136SOL    HW121041   4.033   3.904   9.313 -0.0853  0.1496  1.3972
 3136SOL    HW221042   3.950   3.899   9.430 -1.9346  2.4842  1.0424
 3137SOL     OW21043   3.870   1.926  12.073  0.3267  0.4226  0.3937
 3137SOL    HW121044   3.889   1.989  12.003 -1.3899  1.1128  0.5566
 3137SOL    HW221045   3.831   1.972  12.147  0.1212 -0.1233  0.6212
 3138SOL     OW21046   3.604   2.291   2.407  0.0579 -0.0222  0.0335
 3138SOL    HW121047   3.683   2.339   2.432  1.0347 -0.6997 -1.6814
 3138SOL    HW221048   3.626   2.207   2.446  0.5667 -0.3016 -0.8435
 3139SOL     OW21049   4.735   3.869  12.411 -0.9802  0.7648 -0.0377
 3139SOL    HW121050   4.652   3.823  12.419  0.4032 -1.8830 -0.8446
 3139SOL    HW221051   4.739   3.937  12.479 -0.1970 -0.1184  0.7851
 3140SOL     OW21052   3.616   0.508   1.653 -0.1350  0.0272  0.4400
 3140SOL    HW121053   3.670   0.506   1.732 -1.0517  0.3743  1.0731
 3140SOL    HW221054   3.547   0.450   1.685  1.9112 -2.9364 -0.4950
 3141SOL     OW21055   0.947   3.774   2.539  0.3330 -0.2338 -0.2708
 3141SOL    HW121056   0.945   3.728   2.455  0.2044  1.6191 -1.2742
 3141SOL    HW221057   0.952   3.859   2.496 -0.3014 -0.7587 -1.3962
 3142SOL     OW21058   3.205   4.725  17.661  0.4977 -0.3261 -0.0061
 3142SOL    HW121059   3.239   0.036  17.735  1.3430  0.1366 -0.7186
 3142SOL    HW221060   3.263   0.013  17.591  0.9217 -1.2293 -0.0188
 3143SOL     OW21061   3.358   1.415  17.735 -0.0790 -0.0104  0.0285
 3143SOL    HW121062   3.274   1.368  17.735  0.4427 -0.9454 -0.1172
 3143SOL    HW221063   3.384   1.415  17.643 -1.1403 -0.2232 -0.2723
 3144SOL     OW21064   3.102   0.376  17.608 -0.1875 -0.7329 -0.0780
 3144SOL    HW121065   3.111   0.381  17.513  0.5692  0.9654  0.0821
 3144SOL    HW221066   3.195   0.388  17.629 -0.0194 -1.6115 -0.3223
 3145SOL     OW21067   3.746   1.038   3.324 -0.1034 -0.1292 -0.3411
 3145SOL    HW121068   3.666   1.085   3.349 -0.6375 -1.8117  1.1895
 3145SOL    HW221069   3.743   0.954   3.371 -1.4850  1.4036  2.3285
 3146SOL     OW21070   1.921   4.510   8.587 -0.6292  0.1342  0.1369
 3146SOL    HW121071   1.981   4.531   8.659 -3.0051  1.1185  1.8464
 3146SOL    HW221072   1.837   4.508   8.633 -0.4041  1.0473  0.5788
 3147SOL     OW21073   3.966   1.632   5.308  0.3671 -0.1973  0.0421
 3147SOL    HW121074   4.039   1.693   5.306  0.8122 -0.7259  0.2238
 3147SOL    HW221075   4.001   1.586   5.384  0.5263  1.1069  0.7642
 3148SOL     OW21076   4.344   1.958  15.802 -0.2775  0.0885  0.5647
 3148SOL    HW121077   4.411   1.961  15.734 -0.7033 -1.7885  0.0637
 3148SOL    HW221078   4.316   2.050  15.799  0.5888  0.3055 -0.5463
 3149SOL     OW21079   4.710   1.328   6.531 -0.4483 -0.7461  0.1822
 3149SOL    HW121080   0.029   1.257   6.556  0.0765 -0.3070  0.1836
 3149SOL    HW221081   4.707   1.375   6.615 -0.9230 -0.3096 -0.0758
 3150SOL     OW21082   1.524   0.971  15.327 -0.2846  0.0143  0.2917
 3150SOL    HW121083   1.572   0.895  15.360  1.6402  1.9611  1.9968
 3150SOL    HW221084   1.529   0.947  15.235  0.4225  1.1236  0.0286
 3151SOL     OW21085   4.494   3.631   3.548 -0.4792 -0.4766  0.0521
 3151SOL    HW121086   4.403   3.608   3.526 -0.4191  0.4159 -1.1651
 3151SOL    HW221087   4.544   3.560   3.509  0.3727  0.4020 -0.4558
 3152SOL     OW21088   1.887   3.913   7.575  0.3547  0.6020  0.6680
 3152SOL    HW121089   1.833   3.930   7.652 -1.6832 -0.1937 -0.5689
 3152SOL    HW221090   1.965   3.877   7.616  1.7499  2.0385 -0.7411
 3153SOL     OW21091   1.412   0.455  17.140  0.2500 -0.5772  0.4465
 3153SOL    HW121092   1.425   0.444  17.046 -1.4440  3.1727 -0.2169
 3153SOL    HW221093   1.391   0.369  17.176  1.3424 -1.9362 -2.1783
 3154SOL     OW21094   2.346   0.434  12.828 -0.2103  0.2882 -0.5463
 3154SOL    HW121095   2.289   0.508  12.848 -1.0828 -0.0961 -1.5524
 3154SOL    HW221096   2.399   0.412  12.904  2.5481  0.1601 -2.4805
 3155SOL     OW21097   4.114   1.508   8.386 -0.7089 -0.3267  0.0716
 3155SOL    HW121098   4.159   1.591   8.399  0.5856 -0.6546 -2.2617
 3155SOL    HW221099   4.170   1.457   8.444 -0.8272 -3.4832 -2.5869
 3156SOL     OW21100   4.452   2.199   6.784 -0.0807  0.7510  0.6385
 3156SOL    HW121101   4.429   2.187   6.692  1.6494 -1.0825  0.4422
 3156SOL    HW221102   4.442   2.293   6.798 -0.4579  0.6917  0.7672
 3157SOL     OW21103   4.206   3.923  15.808 -0.3634 -0.8040 -0.6292
 3157SOL    HW121104   4.239   3.935  15.897  1.7743 -2.0518 -1.2624
 3157SOL    HW221105   4.263   3.849  15.791  0.3423 -0.1049 -1.2920
 3158SOL     OW21106   0.788   0.809   4.493  0.1674 -0.1005 -0.3388
 3158SOL    HW121107   0.839   0.886   4.520  1.1350 -0.2889 -1.6169
 3158SOL    HW221108   0.706   0.856   4.484 -0.4488 -1.7134 -2.8660
 3159SOL     OW21109   1.726   4.677   4.104  0.4853 -0.1490 -0.5061
 3159SOL    HW121110   1.727   4.730   4.183 -1.0183  0.9851 -1.2580
 3159SOL    HW221111   1.788   4.732   4.056 -1.9187  2.3473 -0.7249
 3160SOL     OW21112   1.729   1.039   2.712 -0.1835  0.4770 -0.1166
 3160SOL    HW121113   1.710   1.109   2.775 -0.1123  0.6325 -0.2696
 3160SOL    HW221114   1.655   0.979   2.718  0.5150 -0.3611  0.3000
 3161SOL     OW21115   4.424   3.485   2.510  0.1855 -0.1937  0.8873
 3161SOL    HW121116   4.474   3.423   2.563 -0.9410 -1.2760  0.6886
 3161SOL    HW221117   4.443   3.565   2.559  1.8239 -0.5000  0.7351
 3162SOL     OW21118   2.800   4.631   1.804  0.0875  0.5112  0.1127
 3162SOL    HW121119   2.764   4.587   1.727  1.1913  0.5066 -0.3971
 3162SOL    HW221120   2.721   4.621   1.857 -0.5614  0.0899 -0.9449
 3163SOL     OW21121   2.068   2.839   4.746  0.0501  0.1467  0.4823
 3163SOL    HW121122   2.120   2.800   4.817  0.6449  1.4497  0.7578
 3163SOL    HW221123   2.036   2.920   4.784  1.1977  1.8351 -2.1095
 3164SOL     OW21124   0.790   0.299   7.788  0.1595  0.5337  0.5079
 3164SOL    HW121125   0.782   0.237   7.716  2.0808  0.7771  0.0831
 3164SOL    HW221126   0.861   0.252   7.832 -0.5630 -1.4119 -0.3653
 3165SOL     OW21127   1.584   1.966   0.698 -0.5792 -0.6159 -0.4857
 3165SOL    HW121128   1.598   2.002   0.785 -1.1121 -1.3234 -0.1098
 3165SOL    HW221129   1.657   2.009   0.653  0.6057 -1.3346  0.7653
 3166SOL     OW21130   0.956   1.895   3.803  0.3678  0.2703 -0.2154
 3166SOL    HW121131   1.008   1.972   3.825  1.3473 -1.2659  2.7693
 3166SOL    HW221132   0.955   1.900   3.708  2.8036  1.5865 -0.1599
 3167SOL     OW21133   4.704   1.485   8.853 -0.0739  0.6188  0.4511
 3167SOL    HW121134   4.703   1.558   8.915 -0.4438 -0.2041  1.4274
 3167SOL    HW221135   0.008   1.513   8.773 -0.7364  1.1082  0.2593
 3168SOL     OW21136   4.408   1.663   7.541 -0.2289 -0.0450 -0.4017
 3168SOL    HW121137   4.424   1.633   7.630 -1.5532  0.2957 -0.0568
 3168SOL    HW221138   4.493   1.705   7.524  0.3225  0.2408  3.2218
 3169SOL     OW21139   0.930   1.223   4.584 -0.0074  0.2541  0.2539
 3169SOL    HW121140   0.962   1.133   4.573 -0.2358  0.0828  1.0265
 3169SOL    HW221141   0.942   1.234   4.678  0.2076 -0.1494  0.2756
 3170SOL     OW21142   1.287   1.013   3.323 -0.2589  0.0539 -0.7457
 3170SOL    HW121143   1.249   0.950   3.385 -0.3854  0.7449 -0.1173
 3170SOL    HW221144   1.346   1.064   3.379  1.4559 -0.0441 -2.4607
 3171SOL     OW21145   1.218   0.268  17.297 -0.2317 -0.4856 -0.1559
 3171SOL    HW121146   1.124   0.270  17.279 -0.3978  2.8416  1.0819
 3171SOL    HW221147   1.214   0.200  17.365  0.3056  0.2376  0.6122
 3172SOL     OW21148   2.023   0.127   4.429  0.2044  0.2577 -0.3654
 3172SOL    HW121149   1.957   0.129   4.360 -0.5184  1.9154  0.3792
 3172SOL    HW221150   2.096   0.163   4.380  0.9098  1.3285  1.4857
 3173SOL     OW21151   3.733   1.948   6.299 -0.4039  0.0897  0.2946
 3173SOL    HW121152   3.771   2.015   6.356 -0.2577 -0.7064  1.1361
 3173SOL    HW221153   3.721   1.993   6.215  1.4248  0.9912  0.5147
 3174SOL     OW21154   3.061   4.178  11.852 -0.1495 -0.5993  0.2451
 3174SOL    HW121155   3.139   4.125  11.841 -1.0813 -1.7710 -0.7884
 3174SOL    HW221156   3.067   4.212  11.941 -0.7343 -1.4281  0.6091
 3175SOL     OW21157   1.392   4.641   9.072  0.2064 -0.3504  0.0001
 3175SOL    HW121158   1.456   4.614   9.006 -0.5669 -1.1184 -0.4358
 3175SOL    HW221159   1.439   4.618   9.152  2.4925  1.0406 -0.9334
 3176SOL     OW21160   0.715   2.713   6.359  0.4343 -0.3147 -0.0446
 3176SOL    HW121161   0.755   2.656   6.293  0.1687  1.1434 -1.4704
 3176SOL    HW221162   0.635   2.662   6.374 -0.3249  0.9206  0.0616
 3177SOL     OW21163   1.418   2.318  12.969  0.0348 -0.1886 -0.3505
 3177SOL    HW121164   1.351   2.287  12.908  1.0306  0.6139 -1.8423
 3177SOL    HW221165   1.421   2.414  12.966  0.0987 -0.0977  2.6372
 3178SOL     OW21166   1.602   1.231   5.137 -0.1068  0.2629  0.2490
 3178SOL    HW121167   1.668   1.298   5.119  1.6811 -1.4763  0.2918
 3178SOL    HW221168   1.566   1.210   5.051  0.9952  1.8867 -0.6084
 3179SOL     OW21169   1.636   0.781   2.071  0.3536  0.5835  0.1696
 3179SOL    HW121170   1.717   0.758   2.115  0.5918 -0.3529 -0.7608
 3179SOL    HW221171   1.623   0.862   2.120  1.8513 -1.1227  3.3547
 3180SOL     OW21172   1.616   1.891   2.837  0.1452  0.4520 -0.3128
 3180SOL    HW121173   1.637   1.914   2.747  0.1401 -0.8609 -0.6482
 3180SOL    HW221174   1.656   1.967   2.879  1.6873 -0.7820  0.4429
 3181SOL     OW21175   1.395   2.023   8.607 -0.5703 -1.1620 -0.5630
 3181SOL    HW121176   1.392   1.941   8.559  0.1268 -0.6369 -1.5128
 3181SOL    HW221177   1.444   2.076   8.543 -2.7477  0.4102 -0.9342
 3182SOL     OW21178   1.178   2.593   7.952  0.1146 -0.5772  0.0081
 3182SOL    HW121179   1.210   2.532   7.886 -2.1049 -1.3633 -0.3154
 3182SOL    HW221180   1.208   2.674   7.911 -1.5714 -0.7046 -1.4208
 3183SOL     OW21181   0.801   1.746   4.349  0.2864 -0.6667 -0.1301
 3183SOL    HW121182   0.714   1.705   4.349  0.7579 -1.6926 -0.8602
 3183SOL    HW221183   0.771   1.836   4.351  1.3465 -0.3466  1.0038
 3184SOL     OW21184   2.053   3.160   5.362  0.2408 -0.4771 -0.5005
 3184SOL    HW121185   2.060   3.241   5.412 -1.5221 -2.2208  2.6268
 3184SOL    HW221186   2.146   3.153   5.343  0.4069  1.9490 -0.6264
 3185SOL     OW21187   0.306   0.292  16.488  0.1095 -0.1963 -0.8239
 3185SOL    HW121188   0.352   0.363  16.532 -0.5746 -1.3265  1.6864
 3185SOL    HW221189   0.215   0.319  16.502  0.8250  1.4700  0.4703
 3186SOL     OW21190   1.305   0.738   8.875  0.7249 -0.1350 -0.0305
 3186SOL    HW121191   1.233   0.746   8.937 -0.2844  1.3218 -1.3970
 3186SOL    HW221192   1.378   0.781   8.919  0.1502  1.2782 -0.4610
 3187SOL     OW21193   3.081   0.500   2.117 -0.3802  0.1376 -0.5653
 3187SOL    HW121194   3.107   0.592   2.123 -0.4337  0.2303 -1.8560
 3187SOL    HW221195   3.081   0.482   2.212 -1.2725  0.4667 -0.5013
 3188SOL     OW21196   3.433   0.778   2.907 -0.0224  0.8794 -0.0283
 3188SOL    HW121197   3.397   0.779   2.995  0.7118  1.2719  0.2697
 3188SOL    HW221198   3.480   0.695   2.899 -1.1547  0.1934  0.5178
 3189SOL     OW21199   0.820   2.639   9.250 -0.0263  0.3516 -0.4542
 3189SOL    HW121200   0.865   2.628   9.334  1.6104  1.3059 -1.2256
 3189SOL    HW221201   0.785   2.728   9.251 -2.3969 -0.5549 -0.3871
 3190SOL     OW21202   2.441   3.389   4.455 -0.7651  0.5886  0.2920
 3190SOL    HW121203   2.472   3.298   4.452 -3.8393 -0.4093 -1.5245
 3190SOL    HW221204   2.424   3.390   4.549 -0.6885  1.6098  0.2973
 3191SOL     OW21205   1.088   4.603   7.491 -0.3199 -0.2949  0.0710
 3191SOL    HW121206   1.050   4.649   7.416 -1.8811  1.2219  1.7702
 3191SOL    HW221207   1.108   4.676   7.550 -2.4380  1.1946 -1.0373
 3192SOL     OW21208   4.364   0.677   2.572  0.5319  0.2833  0.6159
 3192SOL    HW121209   4.351   0.586   2.546  0.2952  0.5455 -0.2013
 3192SOL    HW221210   4.361   0.669   2.667 -3.1556  2.2323  0.6405
 3193SOL     OW21211   3.638   4.115   3.719 -0.1866  0.0835 -0.1693
 3193SOL    HW121212   3.645   4.124   3.814  0.5863 -1.3551 -0.0886
 3193SOL    HW221213   3.627   4.209   3.704 -1.6865  0.0035  0.4431
 3194SOL     OW21214   0.978   0.053   3.517  0.0810 -0.2101  0.1035
 3194SOL    HW121215   1.055   0.107   3.500  0.4551 -0.4472  1.0337
 3194SOL    HW221216   0.943   0.031   3.431 -0.8216 -0.1463  0.4545
 3195SOL     OW21217   1.199   3.851   9.360 -0.1530  0.1190  0.0395
 3195SOL    HW121218   1.251   3.919   9.403 -1.4608  0.8923  0.4155
 3195SOL    HW221219   1.109   3.883   9.373 -0.5868 -1.6163  1.3112
 3196SOL     OW21220   1.084   2.663   9.506  0.5486 -0.2364  0.1621
 3196SOL    HW121221   1.145   2.610   9.556  1.9079 -0.6294 -1.8940
 3196SOL    HW221222   1.141   2.739   9.515 -0.1948  0.6082 -2.2185
 3197SOL     OW21223   1.662   4.227   2.959 -0.1536 -0.1816  0.1632
 3197SOL    HW121224   1.677   4.321   2.968  1.3199 -0.3424 -0.6780
 3197SOL    HW221225   1.600   4.209   3.030 -1.6697  2.9429 -0.3683
 3198SOL     OW21226   2.927   1.701   1.510 -0.4137 -0.3515 -0.0321
 3198SOL    HW121227   2.994   1.667   1.451  0.3155 -0.0747  0.6422
 3198SOL    HW221228   2.849   1.697   1.455  1.0342 -1.8397 -2.0088
 3199SOL     OW21229   0.968   3.257   5.969 -0.5705  0.2970 -0.4942
 3199SOL    HW121230   0.931   3.224   5.887  0.8604 -4.4191  0.7570
 3199SOL    HW221231   0.952   3.351   5.974 -0.8106  0.3274 -1.6724
 3200SOL     OW21232   3.326   1.776   6.296 -0.2505 -0.6156  0.2717
 3200SOL    HW121233   3.251   1.829   6.322 -0.0667 -1.2351  2.0318
 3200SOL    HW221234   3.290   1.688   6.300  0.1912 -0.6878  2.4323
 3201SOL     OW21235   4.052   1.277   7.428 -0.3082  0.0126 -0.4367
 3201SOL    HW121236   4.065   1.352   7.371 -0.6047 -1.3904 -2.3547
 3201SOL    HW221237   3.958   1.271   7.441 -0.2585 -1.3266 -0.6343
 3202SOL     OW21238   0.076   0.469   4.995  0.4475 -0.6732  0.0198
 3202SOL    HW121239   4.726   0.437   5.002 -0.0383  0.6660  0.0053
 3202SOL    HW221240   0.109   0.423   5.072  2.6302 -1.1970 -1.2162
 3203SOL     OW21241   2.714   4.514  13.726  0.8536  0.5921 -0.1982
 3203SOL    HW121242   2.772   4.518  13.651  0.5437 -0.1916 -0.4831
 3203SOL    HW221243   2.733   4.590  13.781  0.3951 -1.7157  3.2226
 3204SOL     OW21244   3.389   1.773   4.260  0.0716 -0.5300  0.0111
 3204SOL    HW121245   3.309   1.780   4.207  0.2644  1.7155  0.0076
 3204SOL    HW221246   3.446   1.841   4.221  1.4901 -1.3010  0.7329
 3205SOL     OW21247   3.801   1.699   6.958  0.4695  0.2376 -0.4467
 3205SOL    HW121248   3.821   1.718   7.050  1.2927  0.8825 -0.7549
 3205SOL    HW221249   3.706   1.690   6.955  0.1808  2.5035  1.6878
 3206SOL     OW21250   2.643   3.532   4.068 -0.4642  0.1740  0.1560
 3206SOL    HW121251   2.588   3.582   4.008  1.4142  0.4924 -1.3208
 3206SOL    HW221252   2.638   3.445   4.027 -0.2307 -0.3124  1.1791
 3207SOL     OW21253   1.108   2.104  16.149  0.6698  0.3568 -0.7191
 3207SOL    HW121254   1.080   2.029  16.203 -0.1902 -0.6394 -2.5614
 3207SOL    HW221255   1.066   2.085  16.065  1.0011  0.1899 -0.8464
 3208SOL     OW21256   1.850   4.600  11.760  0.1466 -0.4182 -0.4922
 3208SOL    HW121257   1.940   4.569  11.764  0.5516  0.9866  1.3769
 3208SOL    HW221258   1.856   4.620  11.667  0.9169 -1.8815 -0.7648
 3209SOL     OW21259   2.597   2.850   4.336  0.2345 -0.0547 -0.1307
 3209SOL    HW121260   2.636   2.764   4.330  0.6974  0.1095  0.5825
 3209SOL    HW221261   2.669   2.894   4.290  1.1550 -0.2349  1.1767
 3210SOL     OW21262   1.126   2.719   6.253 -0.2542 -0.2939 -0.4340
 3210SOL    HW121263   1.165   2.684   6.333  0.8584  0.8336 -0.4874
 3210SOL    HW221264   1.042   2.673   6.253  0.5355 -1.8071  3.8626
 3211SOL     OW21265   0.448   1.382   3.229  0.4019 -0.3617 -0.7945
 3211SOL    HW121266   0.434   1.287   3.227 -2.0505 -0.0023  0.3229
 3211SOL    HW221267   0.423   1.397   3.137 -0.3496 -0.5065 -0.6154
 3212SOL     OW21268   4.678   2.900   2.025 -0.1775 -0.1259 -0.0940
 3212SOL    HW121269   4.636   2.953   1.957 -1.6923  1.2753  1.9015
 3212SOL    HW221270   4.699   2.823   1.973  3.8692  0.2835  0.9873
 3213SOL     OW21271   4.624   4.703   5.167  0.5041  0.0550 -0.1483
 3213SOL    HW121272   4.698   0.017   5.137  0.5389 -0.9193 -1.7895
 3213SOL    HW221273   4.558   0.030   5.147  1.3164  1.1542  0.8491
 3214SOL     OW21274   3.814   2.522  10.206  0.3841 -0.1357 -0.3349
 3214SOL    HW121275   3.786   2.492  10.119 -1.1017 -1.5872  0.6626
 3214SOL    HW221276   3.730   2.547  10.242 -0.9478 -2.4364 -1.8082
 3215SOL     OW21277   4.365   0.289   2.708 -0.1668 -0.2491  0.2604
 3215SOL    HW121278   4.429   0.310   2.640 -3.3315 -0.6452 -2.8870
 3215SOL    HW221279   4.424   0.285   2.783 -0.3538  0.8101  0.4644
 3216SOL     OW21280   0.611   2.326   7.901 -0.1434 -0.0567  0.2051
 3216SOL    HW121281   0.618   2.272   7.823 -3.3764  0.0486 -0.1910
 3216SOL    HW221282   0.604   2.407   7.851 -0.6069 -0.2045  0.0267
 3217SOL     OW21283   1.065   1.733   2.193  0.3961  0.0521 -0.0268
 3217SOL    HW121284   0.994   1.678   2.159 -1.2731  2.6764 -0.8340
 3217SOL    HW221285   1.030   1.737   2.282 -1.2845  0.3122 -0.6817
 3218SOL     OW21286   1.883   3.129   0.806 -0.3200  0.1684  0.5283
 3218SOL    HW121287   1.822   3.074   0.757 -0.1318  0.4762 -0.0507
 3218SOL    HW221288   1.960   3.134   0.750 -0.0645  1.2743  0.9849
 3219SOL     OW21289   0.473   3.963   6.851 -0.5067 -0.4042 -0.2145
 3219SOL    HW121290   0.436   4.032   6.906  0.5820  1.2409 -1.5479
 3219SOL    HW221291   0.484   3.894   6.917 -0.3877 -1.4924 -1.3726
 3220SOL     OW21292   1.158   3.007   8.894  0.6998 -0.8198 -0.1917
 3220SOL    HW121293   1.080   2.972   8.938  0.7906  1.0232  1.4594
 3220SOL    HW221294   1.204   2.926   8.871  1.1375 -0.4825 -0.4867
 3221SOL     OW21295   4.081   0.856   7.026  0.0672 -0.4487  0.2989
 3221SOL    HW121296   4.080   0.941   7.069  0.1356 -1.0764  1.5199
 3221SOL    HW221297   4.122   0.886   6.944 -0.8534  1.7709  0.6636
 3222SOL     OW21298   2.153   3.408   8.052 -0.1963 -0.1362  0.0951
 3222SOL    HW121299   2.219   3.388   7.986 -2.4185  1.3594 -2.5288
 3222SOL    HW221300   2.088   3.350   8.014  1.0507 -1.1331 -0.5324
 3223SOL     OW21301   3.633   4.225   8.244  0.4663 -0.0105  0.6103
 3223SOL    HW121302   3.557   4.271   8.279 -0.0038 -1.6611  1.7442
 3223SOL    HW221303   3.647   4.168   8.320 -0.3515  0.5940  1.2053
 3224SOL     OW21304   4.266   0.890   4.011 -0.3969 -0.4872 -0.4116
 3224SOL    HW121305   4.355   0.864   4.032 -0.8726 -0.1273  2.0446
 3224SOL    HW221306   4.221   0.814   4.048  0.4783 -0.3828  0.8806
 3225SOL     OW21307   4.397   3.491   6.232  0.0856  0.5101 -0.1740
 3225SOL    HW121308   4.441   3.477   6.315  1.8949  0.9330 -1.0770
 3225SOL    HW221309   4.389   3.586   6.232 -0.2846  0.4766  0.7608
 3226SOL     OW21310   0.990   1.605   3.289 -0.0132  0.5393 -0.1587
 3226SOL    HW121311   0.961   1.624   3.378  0.0982  3.1697 -0.7029
 3226SOL    HW221312   1.022   1.686   3.250  4.7116 -0.8856  0.8440
 3227SOL     OW21313   0.206   3.021   8.073 -0.3674 -0.1022 -0.2132
 3227SOL    HW121314   0.159   2.970   8.007  1.4982  0.0861 -1.6665
 3227SOL    HW221315   0.144   3.024   8.146  0.8779 -0.4836  0.8556
 3228SOL     OW21316   1.559   0.916   6.681  0.6268 -0.1341 -0.2321
 3228SOL    HW121317   1.470   0.951   6.678  1.0328  0.9409  0.2862
 3228SOL    HW221318   1.600   0.949   6.761  1.0381  0.5150 -0.7150
 3229SOL     OW21319   0.312   3.698  14.890 -0.0878  0.0562  0.1602
 3229SOL    HW121320   0.285   3.661  14.805  0.2045  1.0746 -0.3764
 3229SOL    HW221321   0.239   3.671  14.946 -2.5639  1.8499 -2.1514
 3230SOL     OW21322   3.378   1.876   5.989 -0.0954  0.0020  0.1976
 3230SOL    HW121323   3.414   1.867   6.078 -0.5264  1.7352  0.5455
 3230SOL    HW221324   3.412   1.964   5.972  3.2797 -1.7529 -2.2154
 3231SOL     OW21325   1.337   2.150  14.269 -0.0819  0.1768 -0.7351
 3231SOL    HW121326   1.410   2.211  14.257 -0.9755  1.4464  0.2535
 3231SOL    HW221327   1.269   2.213  14.297  0.7383  0.4396  0.6868
 3232SOL     OW21328   3.475   0.534  15.953 -0.2913 -0.2597 -0.4263
 3232SOL    HW121329   3.431   0.606  15.908  0.3918  0.3556 -0.1007
 3232SOL    HW221330   3.413   0.462  15.941 -0.0847 -0.2782 -1.4306
 3233SOL     OW21331   0.202   2.667  10.012 -0.2159  0.1229  0.2793
 3233SOL    HW121332   0.244   2.659  10.097 -0.3878  1.2347  0.4677
 3233SOL    HW221333   0.131   2.727  10.033 -1.0222 -0.3353 -1.1076
 3234SOL     OW21334   3.704   3.736   7.049 -0.0875 -0.4234  0.2826
 3234SOL    HW121335   3.685   3.830   7.047 -0.3581 -0.4770  0.4015
 3234SOL    HW221336   3.628   3.709   6.997  1.4335  0.2447 -2.2828
 3235SOL     OW21337   2.901   2.875   5.270 -0.6945 -0.4971  0.4464
 3235SOL    HW121338   2.940   2.788   5.277  0.2831 -0.0444  0.6645
 3235SOL    HW221339   2.845   2.874   5.347 -1.8110  0.5727 -0.3508
 3236SOL     OW21340   1.095   0.847   9.551 -0.0141  1.0459  0.0830
 3236SOL    HW121341   1.096   0.914   9.620 -0.4470  1.6518 -0.4995
 3236SOL    HW221342   1.028   0.879   9.492 -0.1508  0.1655 -0.2301
 3237SOL     OW21343   1.470   2.553   8.364 -0.3687  0.1634 -0.0718
 3237SOL    HW121344   1.466   2.457   8.358 -0.0766  0.0942  0.8425
 3237SOL    HW221345   1.484   2.581   8.274  1.4600 -3.4307 -0.9072
 3238SOL     OW21346   0.869   1.846   9.748 -0.2326 -0.0060 -0.2141
 3238SOL    HW121347   0.896   1.937   9.760  0.1286  0.0001 -1.1000
 3238SOL    HW221348   0.949   1.799   9.771 -1.6886 -2.1256  0.5852
 3239SOL     OW21349   0.224   0.781   3.929 -0.6213 -0.2568  0.0049
 3239SOL    HW121350   0.185   0.866   3.951 -0.9132 -1.0381  2.5435
 3239SOL    HW221351   0.292   0.796   3.864 -0.0650 -1.0090  0.4154
 3240SOL     OW21352   1.357   2.183   8.171  0.1392 -0.2054  0.0465
 3240SOL    HW121353   1.444   2.171   8.132  0.1493  0.4073 -0.1169
 3240SOL    HW221354   1.326   2.094   8.157 -2.2758  0.5567  0.5551
 3241SOL     OW21355   0.216   3.575   5.171  0.0864 -0.3558 -0.6022
 3241SOL    HW121356   0.213   3.573   5.267 -1.8684  1.1043 -0.6455
 3241SOL    HW221357   0.300   3.529   5.166  0.4651  0.3081 -0.3214
 3242SOL     OW21358   2.528   0.499   4.575  0.0123 -0.6219  0.1689
 3242SOL    HW121359   2.441   0.513   4.614  0.2325 -0.2261  0.5059
 3242SOL    HW221360   2.565   0.442   4.643  0.8046  0.6681  0.8065
 3243SOL     OW21361   3.982   0.122   4.662  0.3735 -0.1293  0.1214
 3243SOL    HW121362   3.971   0.117   4.567 -1.3211  2.0692  0.1938
 3243SOL    HW221363   4.031   0.044   4.688  0.8145  0.3385  0.7101
 3244SOL     OW21364   0.728   3.875   5.150  0.4309  0.1216  0.1521
 3244SOL    HW121365   0.636   3.861   5.174 -0.0075  2.1213 -0.3459
 3244SOL    HW221366   0.739   3.842   5.061  3.0485  1.3666  0.0441
 3245SOL     OW21367   0.826   2.237   5.104 -0.1320 -0.0733  0.2019
 3245SOL    HW121368   0.767   2.215   5.032 -0.2085 -0.9475  0.5376
 3245SOL    HW221369   0.863   2.320   5.072  0.5856 -1.7335 -3.2128
 3246SOL     OW21370   3.650   4.437   6.618  0.1752  0.3074 -0.3153
 3246SOL    HW121371   3.602   4.365   6.657  1.0565  1.4565  2.8812
 3246SOL    HW221372   3.622   4.432   6.527  0.6933  0.5875 -0.4917
 3247SOL     OW21373   2.719   1.233  16.834 -0.3055  0.1534 -0.7122
 3247SOL    HW121374   2.665   1.155  16.849  2.3893 -1.8206 -1.1347
 3247SOL    HW221375   2.676   1.284  16.767  1.2730  0.2777 -1.6416
 3248SOL     OW21376   3.862   2.397   9.223 -0.4171  0.3211 -0.0111
 3248SOL    HW121377   3.930   2.349   9.270 -2.1852 -2.2217 -0.0325
 3248SOL    HW221378   3.790   2.335   9.233 -1.5418  1.8204  1.2626
 3249SOL     OW21379   0.471   2.922  10.360 -0.2793 -0.4156  0.8664
 3249SOL    HW121380   0.545   2.961  10.406  1.1670 -2.8002  0.5558
 3249SOL    HW221381   0.408   2.990  10.384  0.6488  0.7085  0.1143
 3250SOL     OW21382   2.334   1.790  10.141 -0.3799 -0.0870  0.0478
 3250SOL    HW121383   2.274   1.765  10.072 -0.5434 -1.0107  0.5192
 3250SOL    HW221384   2.376   1.873  10.117 -0.4025  0.2527  1.1480
 3251SOL     OW21385   2.426   4.418  15.861  0.0797 -0.2258  0.3499
 3251SOL    HW121386   2.509   4.465  15.853  0.3277 -1.0808 -2.0843
 3251SOL    HW221387   2.422   4.364  15.782  5.7002  0.4669 -0.3947
 3252SOL     OW21388   4.077   3.080   6.419  0.0286 -0.0508 -0.0128
 3252SOL    HW121389   4.094   3.007   6.360 -1.7138 -0.3398 -0.1685
 3252SOL    HW221390   4.158   3.131   6.415 -0.5525  0.9249  0.6569
 3253SOL     OW21391   3.675   1.175   2.449 -0.3898  0.3687 -0.4842
 3253SOL    HW121392   3.620   1.098   2.438 -0.4384  0.1103  1.5266
 3253SOL    HW221393   3.673   1.205   2.359 -1.4971  0.8813 -0.2791
 3254SOL     OW21394   0.166   0.828   2.120 -0.2075  0.2619  0.1330
 3254SOL    HW121395   0.125   0.876   2.193 -1.0599  0.6863 -0.6251
 3254SOL    HW221396   0.101   0.759   2.105  1.8383 -1.7125  0.4091
 3255SOL     OW21397   0.643   3.835  14.490 -0.0972 -0.2755  0.5404
 3255SOL    HW121398   0.697   3.902  14.534  0.7977  0.8739 -2.3117
 3255SOL    HW221399   0.669   3.846  14.398 -0.7638 -2.2211  0.1304
 3256SOL     OW21400   2.611   3.395   9.383  0.0331 -0.3138 -0.2526
 3256SOL    HW121401   2.692   3.347   9.365 -1.8747 -4.4603  1.9565
 3256SOL    HW221402   2.549   3.354   9.322 -1.6492  1.3166  0.3985
 3257SOL     OW21403   0.501   4.641  13.283  0.1508 -0.3491 -0.0067
 3257SOL    HW121404   0.456   4.627  13.367 -0.0274  0.7638  0.0882
 3257SOL    HW221405   0.480   4.733  13.266  2.3701  0.0852 -0.4101
 3258SOL     OW21406   1.916   3.797  11.372  0.4711 -0.1513 -0.5043
 3258SOL    HW121407   1.856   3.870  11.382 -0.4129 -0.6986 -1.8299
 3258SOL    HW221408   1.982   3.841  11.318  2.0645 -1.5554  0.2634
 3259SOL     OW21409   4.464   4.638  16.907  0.1458  0.1474  0.1292
 3259SOL    HW121410   4.536   4.629  16.970  1.3346 -1.2568 -1.4491
 3259SOL    HW221411   4.473   4.718  16.856 -1.1434  0.7697  0.8856
 3260SOL     OW21412   1.038   2.262   6.343 -0.1303 -0.1091 -0.4529
 3260SOL    HW121413   1.078   2.319   6.408  1.0699  0.7386 -1.9432
 3260SOL    HW221414   1.061   2.309   6.263  0.2510  0.8094  0.1950
 3261SOL     OW21415   0.582   0.508   3.172 -0.2994  0.1288 -0.1182
 3261SOL    HW121416   0.525   0.549   3.237  1.2022  0.2700  1.1082
 3261SOL    HW221417   0.661   0.514   3.225 -0.4141  1.6257 -0.1052
 3262SOL     OW21418   1.761   3.353   2.362  0.5357  0.4350 -0.1506
 3262SOL    HW121419   1.795   3.309   2.285 -2.0762 -0.8129 -0.6052
 3262SOL    HW221420   1.684   3.394   2.321  0.8969  3.1346  1.9051
 3263SOL     OW21421   0.226   2.503  12.310 -0.0797  0.1613  0.4559
 3263SOL    HW121422   0.239   2.544  12.395  4.4888  0.6171 -0.4378
 3263SOL    HW221423   0.283   2.426  12.319 -0.9699 -0.3787  1.4367
 3264SOL     OW21424   1.411   4.138   6.867 -0.1002 -0.4503  0.6291
 3264SOL    HW121425   1.497   4.165   6.898  0.4635  0.2388 -1.5014
 3264SOL    HW221426   1.351   4.182   6.926  1.7474  2.3690  0.4267
 3265SOL     OW21427   1.710   2.042  12.457 -0.7472 -0.1791  0.5847
 3265SOL    HW121428   1.761   2.032  12.537 -0.7716  2.5656  0.9419
 3265SOL    HW221429   1.765   2.105  12.409  0.3848 -1.1467  0.6012
 3266SOL     OW21430   0.295   0.709   3.080 -0.1141 -0.8512  0.3181
 3266SOL    HW121431   0.283   0.792   3.033 -1.0527 -1.9639 -1.4229
 3266SOL    HW221432   0.387   0.697   3.057  0.3112  0.3489  1.4493
 3267SOL     OW21433   1.185   4.478  13.396 -0.7151 -0.0727  0.5900
 3267SOL    HW121434   1.189   4.568  13.363 -3.5341 -0.1396  0.0625
 3267SOL    HW221435   1.276   4.452  13.382 -0.2961  1.8293 -0.1282
 3268SOL     OW21436   2.659   4.561   7.162  0.2656 -0.0564 -0.0207
 3268SOL    HW121437   2.632   4.500   7.229  1.8650  1.4523  2.0112
 3268SOL    HW221438   2.754   4.547   7.160  0.2212 -0.4571  0.9009
 3269SOL     OW21439   4.217   0.237  15.737  0.0126  0.6304  0.5427
 3269SOL    HW121440   4.198   0.320  15.694 -0.3223  0.2139 -0.1060
 3269SOL    HW221441   4.257   0.191  15.663 -0.7116  0.7564  0.0740
 3270SOL     OW21442   4.488   1.782   8.683  0.6736 -0.5426  0.1672
 3270SOL    HW121443   4.463   1.717   8.749  0.2517 -1.5932 -1.0365
 3270SOL    HW221444   4.555   1.831   8.732 -1.5446  1.9935  0.6609
 3271SOL     OW21445   1.632   0.568  13.059 -1.3891 -1.0595 -0.0791
 3271SOL    HW121446   1.647   0.525  13.143 -1.3154 -0.1708  0.3637
 3271SOL    HW221447   1.666   0.498  13.002  1.2917 -0.4931  0.8473
 3272SOL     OW21448   1.639   2.925  17.112 -0.2666  0.3384  0.1354
 3272SOL    HW121449   1.714   2.971  17.151  0.3245  0.6564 -1.3950
 3272SOL    HW221450   1.570   2.971  17.159 -0.1515  0.9133 -0.2617
 3273SOL     OW21451   4.151   3.942   7.613 -0.1493 -0.4462  0.2715
 3273SOL    HW121452   4.182   3.916   7.527 -0.6978 -0.5670  0.1082
 3273SOL    HW221453   4.061   3.910   7.603 -0.2723  0.2009 -0.6834
 3274SOL     OW21454   4.423   0.202   7.068 -0.1736  0.0921 -0.2899
 3274SOL    HW121455   4.346   0.239   7.111 -0.6584  0.9765 -1.9298
 3274SOL    HW221456   4.487   0.272   7.078  0.7486 -1.0219  1.6764
 3275SOL     OW21457   0.437   3.085   3.330  0.3586  0.1729  0.5582
 3275SOL    HW121458   0.435   3.105   3.423  1.6849 -2.8598  1.2358
 3275SOL    HW221459   0.345   3.065   3.313  0.8261 -0.4041 -1.3751
 3276SOL     OW21460   3.637   4.720  16.513 -0.3460  0.5513  0.2746
 3276SOL    HW121461   3.663   4.683  16.428 -0.5719 -1.2554  0.9857
 3276SOL    HW221462   3.716   4.708  16.565  0.7104  2.0631 -0.9904
 3277SOL     OW21463   0.816   1.695   5.287 -0.2494 -0.5534  0.0303
 3277SOL    HW121464   0.795   1.732   5.201 -0.7283  0.5413  0.6200
 3277SOL    HW221465   0.760   1.617   5.295  0.3806 -0.8272  1.7438
 3278SOL     OW21466   3.955   3.143   9.356  0.2997 -0.2094  0.3989
 3278SOL    HW121467   3.921   3.232   9.343  2.4563  0.8711  2.1064
 3278SOL    HW221468   3.873   3.099   9.377  1.3584 -3.1973 -1.8588
 3279SOL     OW21469   2.340   1.861   2.112 -0.3544  0.6314 -0.6926
 3279SOL    HW121470   2.409   1.928   2.117 -0.8565  1.0127  1.2342
 3279SOL    HW221471   2.385   1.787   2.072 -0.0304  0.0347  0.7936
 3280SOL     OW21472   1.431   0.558   6.007 -0.2515  0.3804 -0.2282
 3280SOL    HW121473   1.452   0.469   5.979 -1.5121  0.0911 -0.2649
 3280SOL    HW221474   1.399   0.529   6.092 -0.2281 -0.9123 -0.6649
 3281SOL     OW21475   4.675   1.550   1.525  0.2167  0.5583 -0.8116
 3281SOL    HW121476   4.685   1.641   1.551 -1.3749  0.1782  1.1539
 3281SOL    HW221477   4.681   1.561   1.430 -0.3954 -0.1438 -0.9315
 3282SOL     OW21478   2.542   3.835   7.724 -0.2140  0.1470 -0.0977
 3282SOL    HW121479   2.471   3.859   7.664 -1.5160 -2.2973  0.4476
 3282SOL    HW221480   2.608   3.902   7.705 -2.0252  1.9436  0.0039
 3283SOL     OW21481   3.894   4.047   8.772 -0.3626 -0.0207  0.4083
 3283SOL    HW121482   3.986   4.051   8.796  0.2673 -0.4723 -1.9068
 3283SOL    HW221483   3.875   4.133   8.735  2.4101  0.4603  0.1045
 3284SOL     OW21484   0.456   0.333   8.540  0.3480 -0.3902  0.2926
 3284SOL    HW121485   0.414   0.343   8.626 -0.4717 -2.0643  0.0992
 3284SOL    HW221486   0.510   0.411   8.543 -0.4017  0.1555 -0.3109
 3285SOL     OW21487   2.747   4.397   4.374 -0.5779  0.1038 -0.3425
 3285SOL    HW121488   2.759   4.491   4.363  0.6129  0.1708  1.3465
 3285SOL    HW221489   2.833   4.367   4.344 -0.6239 -0.2749 -0.1029
 3286SOL     OW21490   1.002   3.780  12.456  0.4002  0.1085 -0.1270
 3286SOL    HW121491   1.089   3.808  12.429  0.0403  0.2632 -1.1030
 3286SOL    HW221492   1.027   3.735  12.537  2.3645  1.3381 -0.0603
 3287SOL     OW21493   3.504   3.754   8.939 -0.4200  0.0048  0.7433
 3287SOL    HW121494   3.536   3.690   9.003  0.6590 -1.2310 -1.0464
 3287SOL    HW221495   3.442   3.804   8.993  0.8561 -0.3135  2.5022
 3288SOL     OW21496   4.340   1.799   1.929  0.2066 -0.1937  0.5730
 3288SOL    HW121497   4.391   1.750   1.993 -0.6275 -1.7127  0.0889
 3288SOL    HW221498   4.406   1.821   1.864  1.8298  1.7180  2.8585
 3289SOL     OW21499   2.142   1.958   8.784  0.0526 -0.1920 -0.0353
 3289SOL    HW121500   2.137   2.031   8.845  1.5759 -0.3695  0.3018
 3289SOL    HW221501   2.232   1.978   8.758 -0.5187  0.1099 -1.7348
 3290SOL     OW21502   2.467   0.156   8.190  0.0551 -0.1494  0.1602
 3290SOL    HW121503   2.526   0.091   8.227  1.1472 -0.4155 -2.0430
 3290SOL    HW221504   2.425   0.107   8.119 -4.5144  1.7468  1.5178
 3291SOL     OW21505   2.931   4.048   3.893  0.1602  0.0760  0.5356
 3291SOL    HW121506   2.974   4.129   3.866  0.2713 -0.2769 -0.3490
 3291SOL    HW221507   2.913   4.006   3.809 -2.0843  0.9746  0.5714
 3292SOL     OW21508   4.710   2.554  10.377  0.3412 -1.0781  0.4827
 3292SOL    HW121509   0.046   2.605  10.349 -0.8782  0.8396  0.6464
 3292SOL    HW221510   4.711   2.481  10.315 -0.3313 -1.1331  0.5377
 3293SOL     OW21511   1.023   3.694  12.748  0.5208  0.2889 -0.1108
 3293SOL    HW121512   1.085   3.628  12.716 -0.6909  0.5731 -3.1050
 3293SOL    HW221513   0.967   3.645  12.807 -1.8185  0.9967 -1.7411
 3294SOL     OW21514   3.416   1.165   7.644  0.0563 -0.2822 -0.0174
 3294SOL    HW121515   3.416   1.121   7.729 -0.7564 -1.3203 -0.5407
 3294SOL    HW221516   3.508   1.189   7.635 -0.4088  1.5306  0.1647
 3295SOL     OW21517   2.346   2.371  13.823 -0.5235 -0.0409 -0.2589
 3295SOL    HW121518   2.414   2.413  13.876  1.2530 -2.0842 -0.9096
 3295SOL    HW221519   2.393   2.311  13.765 -1.5990 -1.7210  0.6005
 3296SOL     OW21520   4.182   1.994  13.940  0.5216  0.6140 -0.0183
 3296SOL    HW121521   4.183   2.074  13.992  2.3272 -1.4645  3.1514
 3296SOL    HW221522   4.209   2.027  13.854  1.1131 -1.1731 -0.5180
 3297SOL     OW21523   3.211   4.253  15.253 -0.1597 -0.0903 -0.1837
 3297SOL    HW121524   3.249   4.192  15.316 -3.6889  0.1790  2.2028
 3297SOL    HW221525   3.201   4.198  15.175 -0.2854 -0.7705  0.3059
 3298SOL     OW21526   0.897   0.508   9.335 -0.1675 -0.1276  0.0747
 3298SOL    HW121527   0.874   0.429   9.385  1.5277 -0.7932 -0.1945
 3298SOL    HW221528   0.936   0.468   9.257 -1.3332  1.5502 -1.3542
 3299SOL     OW21529   4.706   4.247   4.550 -0.1372  0.0911 -0.6916
 3299SOL    HW121530   4.616   4.271   4.574 -0.0457 -1.4616  1.1679
 3299SOL    HW221531   0.024   4.301   4.603 -0.0451  0.1842 -0.8869
 3300SOL     OW21532   2.031   4.300   3.010  0.2491 -0.1851  0.8769
 3300SOL    HW121533   2.023   4.276   2.917 -2.6453  1.4410  0.7132
 3300SOL    HW221534   1.942   4.301   3.043 -0.5498 -0.5361 -1.2752
 3301SOL     OW21535   0.138   3.198   1.763 -0.0687 -0.0131  0.0418
 3301SOL    HW121536   0.151   3.199   1.858  0.3708 -0.2734 -0.0137
 3301SOL    HW221537   0.069   3.263   1.752  1.0911  1.2202  0.0064
 3302SOL     OW21538   2.872   3.625   5.880  1.0410 -0.6915  0.3479
 3302SOL    HW121539   2.786   3.637   5.920  1.4942 -0.2952  1.2023
 3302SOL    HW221540   2.928   3.634   5.958  0.3197 -1.4230  0.9538
 3303SOL     OW21541   2.162   2.656   8.103 -0.1223 -0.3389  0.0304
 3303SOL    HW121542   2.131   2.677   8.192 -1.7392 -1.3176 -0.2890
 3303SOL    HW221543   2.101   2.703   8.046 -1.4328  1.5088  2.9211
 3304SOL     OW21544   2.159   0.364   1.515 -0.1295 -0.1195  0.2232
 3304SOL    HW121545   2.135   0.308   1.588 -5.2474 -0.4815 -1.7235
 3304SOL    HW221546   2.220   0.429   1.552 -0.0873 -0.7903  1.3122
 3305SOL     OW21547   1.754   3.615  11.736 -0.2125  0.0281 -0.8344
 3305SOL    HW121548   1.695   3.597  11.810  0.5360  1.7318  0.1794
 3305SOL    HW221549   1.709   3.689  11.696  1.0756  1.7070  0.8145
 3306SOL     OW21550   2.075   4.327   3.651  0.3296 -0.4483 -0.7832
 3306SOL    HW121551   2.153   4.349   3.601  0.9441 -1.6273 -0.3445
 3306SOL    HW221552   2.008   4.349   3.587 -0.2161  2.2545  0.7387
 3307SOL     OW21553   0.711   1.747   9.501 -0.2498 -0.1721 -0.2396
 3307SOL    HW121554   0.750   1.822   9.547 -0.1928  0.1429 -0.8032
 3307SOL    HW221555   0.624   1.771   9.533  0.8226 -1.8419  3.8660
 3308SOL     OW21556   0.795   3.304   1.489  0.5641 -0.8861 -0.1859
 3308SOL    HW121557   0.722   3.272   1.436 -0.5886  0.3144  0.6704
 3308SOL    HW221558   0.801   3.228   1.546  2.4587  0.8720  1.9255
 3309SOL     OW21559   0.240   2.924   0.195 -0.2663 -0.0946 -0.1563
 3309SOL    HW121560   0.157   2.919   0.242  1.2726  0.7574  2.6669
 3309SOL    HW221561   0.261   2.836   0.164  2.4534  0.1144  1.0905
 3310SOL     OW21562   2.184   3.362   2.681  0.0441 -0.2479  0.1295
 3310SOL    HW121563   2.193   3.455   2.658 -2.2218 -0.3306 -1.1013
 3310SOL    HW221564   2.092   3.345   2.659  0.4637  0.4392 -2.2099
 3311SOL     OW21565   2.814   1.627   8.811 -0.2314 -0.6168  0.3780
 3311SOL    HW121566   2.862   1.554   8.850 -0.6597 -0.9441  0.2893
 3311SOL    HW221567   2.751   1.570   8.768  0.2443 -0.1363 -0.9691
 3312SOL     OW21568   4.134   4.683  13.921 -0.2993 -0.1380  0.3045
 3312SOL    HW121569   4.170   4.698  14.008  1.8708 -0.6469 -0.4929
 3312SOL    HW221570   4.181   4.603  13.898 -2.2964 -0.8261 -1.3397
 3313SOL     OW21571   3.165   4.696  10.680  0.1742  0.1242  0.1728
 3313SOL    HW121572   3.107   4.631  10.641  0.0906 -0.4786  1.2802
 3313SOL    HW221573   3.244   4.648  10.707 -0.4036 -0.1346  1.4135
 3314SOL     OW21574   0.494   1.060   3.884 -0.1761  0.3412  0.6502
 3314SOL    HW121575   0.459   1.096   3.966 -0.4256  0.9772  0.2645
 3314SOL    HW221576   0.507   1.147   3.846 -0.7223  0.5210  0.8672
 3315SOL     OW21577   3.185   3.181   6.711  0.2137 -0.0662 -0.1291
 3315SOL    HW121578   3.107   3.150   6.665 -0.7332  0.7106  0.9859
 3315SOL    HW221579   3.146   3.205   6.795 -2.0550  0.5126 -1.3460
 3316SOL     OW21580   4.130   3.058   9.059  0.3087  0.1502  0.0965
 3316SOL    HW121581   4.172   3.093   9.138  0.5386  0.9328 -0.3788
 3316SOL    HW221582   4.146   2.965   9.074  0.7485  0.3375  0.8186
 3317SOL     OW21583   1.771   3.871   1.163  0.2136  0.5190 -0.1142
 3317SOL    HW121584   1.748   3.807   1.095 -0.5033  0.8882 -0.2267
 3317SOL    HW221585   1.863   3.887   1.141  0.5159 -0.7632  0.2311
 3318SOL     OW21586   4.224   4.033   2.264  0.6512 -0.3084 -0.2365
 3318SOL    HW121587   4.218   4.126   2.285  0.0574 -0.4553  0.2367
 3318SOL    HW221588   4.320   4.031   2.268  0.5943 -0.6886  1.1299
 3319SOL     OW21589   2.427   2.870   5.454  0.2175  0.1406  0.0384
 3319SOL    HW121590   2.378   2.949   5.473  2.2053  1.7578 -1.4587
 3319SOL    HW221591   2.380   2.806   5.507 -0.7510  0.9909  0.2078
 3320SOL     OW21592   3.436   0.539   6.897  0.3848  0.1812 -0.1141
 3320SOL    HW121593   3.452   0.575   6.810 -0.2973  1.8755  0.4597
 3320SOL    HW221594   3.431   0.623   6.944 -1.2680 -0.8589  1.5801
 3321SOL     OW21595   2.817   4.244   8.584  0.1789 -0.4788 -0.0624
 3321SOL    HW121596   2.868   4.325   8.589  1.3883 -1.3318  1.3733
 3321SOL    HW221597   2.805   4.238   8.489  0.9986 -0.5807 -0.1596
 3322SOL     OW21598   1.943   1.146  12.844  0.1736  0.7926  0.0159
 3322SOL    HW121599   1.944   1.232  12.801 -0.7586 -0.7909 -3.1907
 3322SOL    HW221600   2.031   1.113  12.823 -0.5107 -1.4525  0.7223
 3323SOL     OW21601   0.703   4.134   9.137  0.4758 -0.1437  0.6384
 3323SOL    HW121602   0.689   4.142   9.042 -2.6922 -1.3950  1.0240
 3323SOL    HW221603   0.792   4.169   9.146  0.8469 -0.5769 -1.1300
 3324SOL     OW21604   4.412   3.033   4.862  0.4572  0.1357  0.3239
 3324SOL    HW121605   4.331   3.066   4.900 -0.2600 -1.2919  0.0505
 3324SOL    HW221606   4.385   2.981   4.786 -1.9980  1.4878  0.2906
 3325SOL     OW21607   4.540   2.166   2.550  0.3550  0.1324  0.0424
 3325SOL    HW121608   4.547   2.088   2.494 -1.7460  0.5938 -0.8603
 3325SOL    HW221609   4.500   2.224   2.485 -0.5885 -2.8529 -2.0395
 3326SOL     OW21610   3.429   4.331   3.888 -0.8283 -0.2047  0.0430
 3326SOL    HW121611   3.399   4.419   3.910 -0.0553  0.2085 -0.5773
 3326SOL    HW221612   3.523   4.349   3.882 -1.1523  1.0019 -1.3657
 3327SOL     OW21613   2.764   4.001   7.964  0.0918 -0.4532  0.0934
 3327SOL    HW121614   2.812   4.077   7.997 -0.0314  1.4559 -4.1813
 3327SOL    HW221615   2.827   3.930   7.972 -1.0185 -1.2055  2.3096
 3328SOL     OW21616   3.225   3.627  11.517  0.3602 -0.1417  0.0909
 3328SOL    HW121617   3.200   3.648  11.427 -1.1992  0.2871  0.6166
 3328SOL    HW221618   3.145   3.593  11.557  0.0847 -0.1054 -0.4279
 3329SOL     OW21619   0.877   3.191   6.821 -0.3969 -0.1502 -0.2115
 3329SOL    HW121620   0.866   3.184   6.726  1.6111 -0.0388 -0.4521
 3329SOL    HW221621   0.938   3.118   6.819 -0.0477  0.1545 -0.5184
 3330SOL     OW21622   1.037   2.918   9.906 -0.2616 -0.0224 -0.1902
 3330SOL    HW121623   0.985   2.906   9.985  0.1559 -0.5310  0.0019
 3330SOL    HW221624   0.966   2.940   9.845 -2.6437 -0.1152  2.5382
 3331SOL     OW21625   1.878   0.361   7.751  0.1011 -0.1870  0.1235
 3331SOL    HW121626   1.872   0.282   7.698 -3.0542 -0.9283  1.5869
 3331SOL    HW221627   1.888   0.318   7.836 -0.7215 -1.1498 -0.2778
 3332SOL     OW21628   0.432   2.718   2.110 -0.6515  0.0034  0.2428
 3332SOL    HW121629   0.353   2.667   2.124 -0.0426 -1.4128 -1.4391
 3332SOL    HW221630   0.398   2.797   2.066  0.8038 -0.2320 -1.3193
 3333SOL     OW21631   3.431   0.058   9.788  1.0335 -0.2554  0.4868
 3333SOL    HW121632   3.464   0.047   9.877  0.2981 -1.5269  0.6033
 3333SOL    HW221633   3.359   0.118   9.807  0.5681 -0.0526 -1.8929
 3334SOL     OW21634   0.018   2.501  13.256  0.1217 -0.4166  0.1920
 3334SOL    HW121635   0.078   2.562  13.213  0.6768 -2.5482 -2.0104
 3334SOL    HW221636   0.063   2.494  13.341  0.7084 -1.2790 -0.1885
 3335SOL     OW21637   3.222   0.540   7.382  0.4150 -0.4327 -0.1604
 3335SOL    HW121638   3.183   0.627   7.370  1.9323  0.4465  1.3692
 3335SOL    HW221639   3.155   0.501   7.325  2.3396 -2.1255 -1.2445
 3336SOL     OW21640   0.589   3.830   4.036  0.2927  0.0639  0.2603
 3336SOL    HW121641   0.683   3.841   4.045  0.3367  0.0595 -0.2033
 3336SOL    HW221642   0.548   3.873   4.111  0.7950  2.7630 -1.0274
 3337SOL     OW21643   0.986   0.382   6.384  0.2958 -0.1181 -0.3208
 3337SOL    HW121644   0.947   0.426   6.308 -1.7581 -0.5535  0.4915
 3337SOL    HW221645   0.963   0.435   6.461  3.4326  0.0928  0.4514
 3338SOL     OW21646   1.809   2.419  16.641 -0.4623 -0.0384 -0.2354
 3338SOL    HW121647   1.851   2.411  16.556  0.6515 -0.5135  0.3650
 3338SOL    HW221648   1.869   2.383  16.707  0.0554  0.0125 -0.6822
 3339SOL     OW21649   4.451   2.867  15.838 -0.2946  0.0667  0.4441
 3339SOL    HW121650   4.540   2.873  15.874 -1.3309 -0.1204  3.0065
 3339SOL    HW221651   4.437   2.957  15.811  0.7999  0.3418  0.7639
 3340SOL     OW21652   4.465   3.950   9.340 -0.2005  0.3233 -0.4027
 3340SOL    HW121653   4.529   3.893   9.298  0.4205  0.2301  0.6633
 3340SOL    HW221654   4.499   3.969   9.428 -0.5011  1.7697 -0.6105
 3341SOL     OW21655   1.470   0.429   7.876 -0.3233 -0.0129 -0.1188
 3341SOL    HW121656   1.539   0.491   7.853 -1.1467  0.9887  0.1191
 3341SOL    HW221657   1.453   0.396   7.787 -0.2445 -0.4574  0.0301
 3342SOL     OW21658   2.661   0.019   4.283 -0.0576 -0.1452  0.0301
 3342SOL    HW121659   2.606   0.058   4.352 -0.5527 -0.9853  0.1043
 3342SOL    HW221660   2.599   0.015   4.211  1.4585 -2.9893 -1.0876
 3343SOL     OW21661   4.237   1.012   7.401  0.0053  0.6456  0.1777
 3343SOL    HW121662   4.235   1.105   7.422 -0.0228  0.8507 -0.7360
 3343SOL    HW221663   4.147   0.981   7.412  0.3348 -0.4552 -0.2104
 3344SOL     OW21664   2.926   1.303   3.569 -0.2030  0.6217 -0.2566
 3344SOL    HW121665   2.851   1.252   3.541 -0.7264 -0.0539  2.4194
 3344SOL    HW221666   2.967   1.315   3.483 -2.9747 -1.3672 -1.8675
 3345SOL     OW21667   0.266   1.697  13.841 -0.6632  0.3590  0.3758
 3345SOL    HW121668   0.289   1.789  13.823  2.0981 -0.0463  1.7866
 3345SOL    HW221669   0.230   1.699  13.930 -0.6032 -2.1262  0.4471
 3346SOL     OW21670   2.434   3.654   3.328 -0.8886  0.2419 -0.2537
 3346SOL    HW121671   2.393   3.674   3.244 -0.6188  2.0779  0.0534
 3346SOL    HW221672   2.418   3.560   3.326 -2.0645  0.4614 -0.9415
 3347SOL     OW21673   1.441   1.294   8.607  0.2487 -0.0692 -0.1328
 3347SOL    HW121674   1.445   1.314   8.700  1.4430 -0.5744 -0.0759
 3347SOL    HW221675   1.412   1.382   8.582  0.2054  0.0099  0.2029
 3348SOL     OW21676   3.008   0.379  14.749  0.2092  0.6456  0.1552
 3348SOL    HW121677   2.939   0.313  14.743  1.0479 -0.2728  0.6905
 3348SOL    HW221678   2.989   0.431  14.671 -2.0849 -1.1800 -0.5106
 3349SOL     OW21679   0.090   1.026  15.303 -0.4012 -0.4654  0.1896
 3349SOL    HW121680   0.077   0.958  15.237  1.0198 -0.1195 -0.4478
 3349SOL    HW221681   0.084   0.975  15.384 -0.2278 -0.0562  0.4610
 3350SOL     OW21682   1.940   4.220   2.750  0.4116  0.5783 -0.5397
 3350SOL    HW121683   1.853   4.196   2.782  0.6058  0.7262  0.1027
 3350SOL    HW221684   1.968   4.134   2.719  2.6958  0.5391  1.6378
 3351SOL     OW21685   4.145   1.659   0.879 -0.5571  0.1272 -0.1876
 3351SOL    HW121686   4.135   1.722   0.808 -0.0725 -1.5656 -1.7566
 3351SOL    HW221687   4.140   1.729   0.944  2.1952 -0.1006  0.2650
 3352SOL     OW21688   1.694   1.723   5.152  0.2583  0.1285  0.7427
 3352SOL    HW121689   1.680   1.818   5.155 -0.1731  0.0532  1.0952
 3352SOL    HW221690   1.682   1.718   5.057  1.1905  1.6830  0.5452
 3353SOL     OW21691   3.767   1.643   3.409  0.2745  0.2854 -0.2355
 3353SOL    HW121692   3.799   1.714   3.354  1.2347  1.8514  2.3228
 3353SOL    HW221693   3.680   1.673   3.433  0.1405  1.2084 -1.8944
 3354SOL     OW21694   3.651   1.089   8.785 -0.5527  0.0475 -0.1884
 3354SOL    HW121695   3.586   1.023   8.759  1.4524 -2.0851  0.2754
 3354SOL    HW221696   3.652   1.139   8.703 -3.7911  0.9299  0.2964
 3355SOL     OW21697   1.731   2.831   5.416 -0.0034 -0.4339  0.0676
 3355SOL    HW121698   1.740   2.893   5.344  0.5542  0.5345  0.9729
 3355SOL    HW221699   1.783   2.758   5.383 -0.2604 -0.2728 -0.6920
 3356SOL     OW21700   0.975   4.187   6.982 -0.4585  0.0004 -0.6443
 3356SOL    HW121701   0.955   4.157   7.071  1.4002 -3.1402 -1.2896
 3356SOL    HW221702   0.884   4.214   6.966 -1.4469 -1.9764  1.6912
 3357SOL     OW21703   0.587   4.282   4.601 -0.5763 -0.1094  0.1146
 3357SOL    HW121704   0.548   4.284   4.688 -1.4515 -0.3551 -0.2761
 3357SOL    HW221705   0.657   4.346   4.615  1.1005 -1.2182 -3.2949
 3358SOL     OW21706   2.568   0.481   5.334 -0.0170  0.0323 -0.4071
 3358SOL    HW121707   2.509   0.492   5.260  1.1360 -0.4408 -1.4067
 3358SOL    HW221708   2.634   0.550   5.319 -0.4001  0.5438  0.2860
 3359SOL     OW21709   4.353   4.662  14.222 -0.0839  0.0622 -0.1449
 3359SOL    HW121710   4.399   4.674  14.138  1.2809  0.9133  0.7309
 3359SOL    HW221711   4.367   0.008  14.262  0.6470 -1.0763  2.0210
 3360SOL     OW21712   0.203   3.063   0.535  0.0918 -0.4226  0.5852
 3360SOL    HW121713   0.283   3.023   0.500 -0.1457 -0.1088 -0.3150
 3360SOL    HW221714   0.220   3.157   0.529 -0.9291 -0.3595 -1.3103
 3361SOL     OW21715   0.319   2.100   6.392  0.3754  0.1471  0.0770
 3361SOL    HW121716   0.293   2.010   6.372  3.4832 -0.6474 -0.4634
 3361SOL    HW221717   0.251   2.123   6.455 -0.2172  0.2180 -0.5838
 3362SOL     OW21718   3.663   3.896   4.206 -0.5773  0.1959  0.3987
 3362SOL    HW121719   3.705   3.861   4.128 -3.4189 -1.5950 -0.3312
 3362SOL    HW221720   3.723   3.966   4.232 -0.7782  0.1547  0.9591
 3363SOL     OW21721   4.410   0.699   8.686 -0.5029 -0.3270 -0.1343
 3363SOL    HW121722   4.353   0.775   8.677 -1.1762 -0.9109 -0.8243
 3363SOL    HW221723   4.411   0.684   8.781  0.6162  0.3950 -0.0303
 3364SOL     OW21724   1.808   2.094  17.498 -0.4963  0.0131  0.8021
 3364SOL    HW121725   1.898   2.126  17.487 -1.5364  2.4934 -0.5681
 3364SOL    HW221726   1.827   2.000  17.498 -1.7716 -0.2399  2.1192
 3365SOL     OW21727   1.711   0.181   9.556 -0.5295 -0.0133  0.7956
 3365SOL    HW121728   1.662   0.100   9.540  0.0673 -0.4128  0.9998
 3365SOL    HW221729   1.636   0.240   9.565 -0.5951 -0.0994  0.8116
 3366SOL     OW21730   4.232   2.281   2.252  0.6087  0.5530  0.1214
 3366SOL    HW121731   4.310   2.306   2.301  0.0974 -0.9778  1.6835
 3366SOL    HW221732   4.276   2.223   2.189  2.6185  2.1434  0.0709
 3367SOL     OW21733   4.285   0.770   5.531 -0.2215 -0.1624  0.5652
 3367SOL    HW121734   4.338   0.798   5.457 -1.7595 -0.2233 -0.5637
 3367SOL    HW221735   4.327   0.818   5.603 -1.1938 -0.1606  1.1357
 3368SOL     OW21736   3.374   0.186   2.061 -0.2771  0.3290  0.5708
 3368SOL    HW121737   3.323   0.127   2.117 -0.1073  0.8689  1.2931
 3368SOL    HW221738   3.300   0.220   2.011 -1.6117 -1.9213  1.0000
 3369SOL     OW21739   0.209   2.620   8.558 -0.0969 -0.1445  0.2979
 3369SOL    HW121740   0.303   2.630   8.544 -0.3184 -0.0436 -1.1316
 3369SOL    HW221741   0.179   2.668   8.481  1.4948  1.1993  0.5101
 3370SOL     OW21742   0.551   1.922  13.586 -0.2990  0.0783 -0.3103
 3370SOL    HW121743   0.587   2.007  13.558  0.1807 -0.3995 -1.1298
 3370SOL    HW221744   0.478   1.912  13.525 -0.5713 -1.2767  0.2428
 3371SOL     OW21745   0.878   3.072   1.619 -0.3991 -0.2048 -0.2552
 3371SOL    HW121746   0.957   3.067   1.674  0.9057  1.0652 -2.0339
 3371SOL    HW221747   0.817   3.010   1.659 -0.1942 -0.9503 -1.0914
 3372SOL     OW21748   0.133   2.023  13.136  0.1725  0.1819 -0.4370
 3372SOL    HW121749   0.092   2.032  13.050  0.7846  0.9936 -0.6445
 3372SOL    HW221750   0.127   2.104  13.187  0.7977 -0.2798  0.3711
 3373SOL     OW21751   2.470   3.007   3.623  0.0038 -0.4116 -0.4202
 3373SOL    HW121752   2.439   3.093   3.595 -1.2496 -0.5479  0.5395
 3373SOL    HW221753   2.555   3.031   3.659  0.0764  1.3270 -1.7625
 3374SOL     OW21754   1.962   2.444  15.322  0.1886  0.7723 -0.1333
 3374SOL    HW121755   1.989   2.516  15.266  1.5812 -1.2452 -2.0469
 3374SOL    HW221756   2.040   2.446  15.379 -0.5315 -0.1188  0.8813
 3375SOL     OW21757   2.484   3.549   2.264 -0.5049  0.0150 -0.0048
 3375SOL    HW121758   2.485   3.461   2.224 -0.2615 -0.1059  0.2712
 3375SOL    HW221759   2.427   3.580   2.194 -1.3815 -2.1110 -0.2453
 3376SOL     OW21760   2.012   2.424   1.478 -0.2289  0.1321  0.6425
 3376SOL    HW121761   2.093   2.466   1.504  1.2106 -0.8791 -2.1815
 3376SOL    HW221762   1.957   2.491   1.517 -1.6694 -0.6684  0.0316
 3377SOL     OW21763   1.061   2.211  14.654  0.2371  0.1120 -0.5797
 3377SOL    HW121764   1.074   2.168  14.738 -0.4043 -2.5952 -1.8601
 3377SOL    HW221765   1.046   2.136  14.595  0.6804 -0.0400 -0.4924
 3378SOL     OW21766   0.934   0.727  10.656  0.3098 -0.1135 -0.4393
 3378SOL    HW121767   0.909   0.654  10.714  0.7523  0.2776  0.2452
 3378SOL    HW221768   1.018   0.696  10.622  0.0558 -0.1003 -1.0825
 3379SOL     OW21769   1.495   3.493   8.720 -0.1424 -0.1300  0.2179
 3379SOL    HW121770   1.526   3.402   8.722 -0.6625 -0.3471 -2.0318
 3379SOL    HW221771   1.402   3.480   8.741 -0.5179  0.8985 -0.8424
 3380SOL     OW21772   2.543   4.243   3.491  0.1030  0.4798  0.4264
 3380SOL    HW121773   2.583   4.218   3.575  2.1870  1.4233 -0.3087
 3380SOL    HW221774   2.570   4.172   3.434  0.6841 -0.4813  1.8897
 3381SOL     OW21775   4.638   3.947  15.696 -0.4311  0.4362  0.2124
 3381SOL    HW121776   4.562   3.940  15.638  1.8701 -1.1959 -2.6173
 3381SOL    HW221777   4.682   4.024  15.659 -0.9726  1.4472  1.7127
 3382SOL     OW21778   3.554   2.394  13.295  0.1281 -0.5000  0.0817
 3382SOL    HW121779   3.504   2.325  13.339  1.2688 -2.3964 -1.6334
 3382SOL    HW221780   3.605   2.424  13.370 -2.2071 -0.0702  1.5104
 3383SOL     OW21781   2.760   1.827   0.076 -0.4641  0.0233  0.4339
 3383SOL    HW121782   2.787   1.771   0.003  0.2011  0.2840  0.4823
 3383SOL    HW221783   2.697   1.768   0.119 -0.8361  1.3705  1.7350
 3384SOL     OW21784   2.230   2.895   2.182 -0.0427  0.4011  0.0130
 3384SOL    HW121785   2.318   2.862   2.196  0.3302  1.1526 -0.5792
 3384SOL    HW221786   2.180   2.819   2.152  1.4422 -0.4714 -0.2157
 3385SOL     OW21787   3.465   3.574   8.206 -0.0772 -0.1572  0.3515
 3385SOL    HW121788   3.492   3.484   8.222  0.6785  0.1610  0.8917
 3385SOL    HW221789   3.379   3.579   8.248 -0.4975 -1.2146 -0.3869
 3386SOL     OW21790   2.373   4.730   6.229  0.2226  0.1869 -0.8571
 3386SOL    HW121791   2.342   0.047   6.159 -0.3417  1.5887  0.5379
 3386SOL    HW221792   2.461   4.704   6.200  0.3713 -1.8797  1.4027
 3387SOL     OW21793   0.414   2.279   7.385 -0.3728 -0.5584  0.4241
 3387SOL    HW121794   0.348   2.223   7.425 -0.1383 -1.0467  0.1427
 3387SOL    HW221795   0.424   2.344   7.454  0.2813 -0.3961  0.1787
 3388SOL     OW21796   4.462   1.649   8.936  0.0004  0.0147 -1.3991
 3388SOL    HW121797   4.393   1.627   9.000 -0.3226  1.0627 -1.3786
 3388SOL    HW221798   4.521   1.685   9.003  2.2047 -1.9434 -2.3072
 3389SOL     OW21799   0.013   1.450   5.056  0.6531  0.1893 -0.3449
 3389SOL    HW121800   0.016   1.495   4.971  1.0829 -1.4417 -1.1957
 3389SOL    HW221801   4.670   1.471   5.099  0.2292 -1.5193 -0.2992
 3390SOL     OW21802   2.186   4.150   4.356  0.4778  0.5738  0.1494
 3390SOL    HW121803   2.126   4.084   4.322  0.2263 -0.2781  2.2811
 3390SOL    HW221804   2.267   4.124   4.312 -0.1515 -0.4824 -0.3778
 3391SOL     OW21805   0.557   1.656   8.259  0.1354  0.1151  0.1135
 3391SOL    HW121806   0.568   1.583   8.319  1.2338  0.7319  0.6594
 3391SOL    HW221807   0.599   1.729   8.305  0.5107  0.6156 -1.0226
 3392SOL     OW21808   1.627   0.553   2.323  0.5510  0.4154 -0.1985
 3392SOL    HW121809   1.694   0.541   2.255  0.9764 -0.3692  0.3697
 3392SOL    HW221810   1.679   0.616   2.373 -0.2849  0.7397  0.2607
 3393SOL     OW21811   0.940   1.846   4.936 -0.2419 -0.4690 -0.1303
 3393SOL    HW121812   1.000   1.829   5.008  0.3113  0.0496 -0.4653
 3393SOL    HW221813   0.992   1.892   4.870 -0.2900 -1.1781 -0.6526
 3394SOL     OW21814   2.952   0.607   4.114  0.1205  0.0186  0.3503
 3394SOL    HW121815   2.893   0.642   4.180 -1.8762 -0.4015 -1.1940
 3394SOL    HW221816   3.003   0.686   4.103 -2.3327  1.5889  0.1298
 3395SOL     OW21817   0.703   0.553   8.840  0.2625 -0.7055  0.5372
 3395SOL    HW121818   0.788   0.579   8.877  1.2931 -0.4932 -2.0106
 3395SOL    HW221819   0.658   0.524   8.920 -0.4733 -0.3555  0.2514
 3396SOL     OW21820   3.262   2.095   5.608 -0.2480 -0.7020 -0.2618
 3396SOL    HW121821   3.282   2.152   5.534 -0.8264 -1.7291 -1.2145
 3396SOL    HW221822   3.346   2.049   5.609  0.3747  0.3819 -2.2015
 3397SOL     OW21823   3.349   3.879  11.468  0.1674  0.2660 -0.6192
 3397SOL    HW121824   3.260   3.909  11.487  0.2992  0.2884 -0.0384
 3397SOL    HW221825   3.324   3.789  11.446  0.5654 -0.3746  1.5949
 3398SOL     OW21826   3.528   0.540   8.077  0.5967 -0.1671 -0.0612
 3398SOL    HW121827   3.615   0.518   8.109 -0.4350 -2.8611  0.8889
 3398SOL    HW221828   3.538   0.635   8.082 -0.3738  0.0241 -1.7238
 3399SOL     OW21829   1.561   3.497   7.677 -0.2621 -0.0229  0.3941
 3399SOL    HW121830   1.655   3.511   7.667 -0.2279  0.3273  1.2090
 3399SOL    HW221831   1.529   3.578   7.637 -0.7572 -0.9669 -1.1401
 3400SOL     OW21832   2.612   1.761   6.293 -0.0531  0.0134  0.4524
 3400SOL    HW121833   2.522   1.736   6.313 -1.2800  2.5754 -1.7240
 3400SOL    HW221834   2.631   1.835   6.351  0.7788  0.4460 -0.3559
 3401SOL     OW21835   0.133   2.188   6.549 -0.2188  0.4116 -0.2038
 3401SOL    HW121836   0.114   2.282   6.539  0.7418  0.5289 -0.8801
 3401SOL    HW221837   0.076   2.175   6.625  1.3528 -0.0091  0.8785
 3402SOL     OW21838   0.383   1.115  17.397  0.3182 -0.0574 -0.1542
 3402SOL    HW121839   0.368   1.023  17.416  0.3662  0.2401  1.3783
 3402SOL    HW221840   0.300   1.148  17.365  0.5097  1.2214  0.6732
 3403SOL     OW21841   1.873   3.166  12.376 -0.4875 -0.5464 -0.1996
 3403SOL    HW121842   1.864   3.122  12.292  1.3142 -1.8664  0.2963
 3403SOL    HW221843   1.967   3.188  12.377 -0.5243 -0.4140  0.7786
 3404SOL     OW21844   0.099   3.431  16.878  0.2716 -0.5096  0.0556
 3404SOL    HW121845   0.118   3.354  16.932  1.3411 -0.0847  0.2854
 3404SOL    HW221846   0.017   3.459  16.920 -0.4510  0.3029 -1.8756
 3405SOL     OW21847   3.337   2.641   2.044  0.0770  0.7629 -0.1506
 3405SOL    HW121848   3.414   2.697   2.053 -0.6355  1.8626 -0.9860
 3405SOL    HW221849   3.284   2.698   1.989  1.2192  0.8323 -1.1654
 3406SOL     OW21850   0.196   3.410   0.417  0.0370 -0.2888  0.2522
 3406SOL    HW121851   0.114   3.423   0.466 -1.6276 -2.6086 -1.8818
 3406SOL    HW221852   0.234   3.497   0.419 -3.4426  1.2008  1.6748
 3407SOL     OW21853   2.775   0.305   0.763  0.3872 -0.1580  0.0187
 3407SOL    HW121854   2.792   0.399   0.758  1.2746 -0.2999  0.5766
 3407SOL    HW221855   2.806   0.288   0.851  0.4730  1.4783  0.3104
 3408SOL     OW21856   2.607   3.818   3.109 -0.4857  0.7735  0.3453
 3408SOL    HW121857   2.598   3.909   3.081 -0.7508  1.1528  1.6709
 3408SOL    HW221858   2.519   3.784   3.098 -0.9750  1.7082  1.4290
 3409SOL     OW21859   1.460   3.460  10.549 -0.2643 -0.2589 -0.1407
 3409SOL    HW121860   1.520   3.396  10.588  0.0375  0.1685  0.0999
 3409SOL    HW221861   1.412   3.496  10.624 -1.5949  0.9470 -1.5707
 3410SOL     OW21862   0.196   0.033   4.459  0.2620  0.0756  0.1352
 3410SOL    HW121863   0.275   4.738   4.501 -0.5618 -2.1732 -0.1486
 3410SOL    HW221864   0.219   0.021   4.367 -1.5827  1.4118 -0.4878
 3411SOL     OW21865   4.260   2.989   1.556  0.2809 -0.0976 -0.0535
 3411SOL    HW121866   4.286   3.025   1.641 -1.2785  0.5544  0.1539
 3411SOL    HW221867   4.287   2.898   1.571 -2.0996 -0.7065  0.4902
 3412SOL     OW21868   2.699   2.740   2.949  0.4638  0.1606  0.6513
 3412SOL    HW121869   2.696   2.820   3.001 -0.0505 -0.3423  1.4001
 3412SOL    HW221870   2.662   2.765   2.864 -0.1104 -1.9200  0.2703
 3413SOL     OW21871   1.707   4.526   2.965  0.1638 -0.1286  0.2792
 3413SOL    HW121872   1.623   4.569   2.983 -0.4998 -1.7815  1.1259
 3413SOL    HW221873   1.723   4.562   2.878 -1.7637  0.6259  0.2503
 3414SOL     OW21874   2.108   1.552  12.187 -0.3308 -0.3342 -0.6676
 3414SOL    HW121875   2.052   1.545  12.110 -0.8090 -2.6956 -0.1154
 3414SOL    HW221876   2.100   1.468  12.232 -0.4261  0.3726  0.6323
 3415SOL     OW21877   1.182   0.472  16.794 -0.6853 -0.8390 -0.1168
 3415SOL    HW121878   1.108   0.464  16.734 -0.9721  2.1799 -0.1515
 3415SOL    HW221879   1.137   0.456  16.877  0.0153  3.4723  1.0948
 3416SOL     OW21880   3.852   0.122  17.203 -0.1209 -0.4492  0.2683
 3416SOL    HW121881   3.904   0.125  17.122  0.2287  1.5911  0.5754
 3416SOL    HW221882   3.915   0.161  17.263 -0.5063  1.5589 -0.6299
 3417SOL     OW21883   3.738   0.253   4.653  0.3749  0.4979  0.4113
 3417SOL    HW121884   3.771   0.280   4.567 -2.0964  2.0041 -0.0692
 3417SOL    HW221885   3.815   0.205   4.685 -0.1892 -0.6222  0.1009
 3418SOL     OW21886   0.672   1.525   3.674  0.7671  0.7124 -0.5031
 3418SOL    HW121887   0.715   1.440   3.679 -1.0582 -0.1058  1.0738
 3418SOL    HW221888   0.653   1.530   3.580 -0.6049  0.0182 -0.2659
 3419SOL     OW21889   0.073   4.284  16.969 -0.0407  0.4118  0.4519
 3419SOL    HW121890   0.125   4.212  16.933  1.9767  1.4050  1.3765
 3419SOL    HW221891   4.723   4.252  16.955  0.3893  0.4641 -2.2777
 3420SOL     OW21892   4.083   1.886   8.167 -0.1465 -0.2667 -0.0835
 3420SOL    HW121893   4.041   1.846   8.091 -0.9005  2.0137 -0.8836
 3420SOL    HW221894   4.136   1.961   8.138 -0.6593 -0.9151 -2.6034
 3421SOL     OW21895   4.443   4.624   3.024 -0.4487 -0.9364  0.5944
 3421SOL    HW121896   4.401   4.650   2.942 -0.9539 -1.2067  0.7704
 3421SOL    HW221897   4.521   4.577   2.994  0.7350  2.8003 -2.2372
 3422SOL     OW21898   0.184   3.511  15.066 -1.3093  0.2327  0.0752
 3422SOL    HW121899   0.246   3.541  15.133  0.1478 -1.0185 -0.7107
 3422SOL    HW221900   0.189   3.416  15.081  1.0872  0.6875  2.1633
 3423SOL     OW21901   2.957   2.740   4.052  1.1830  0.5673  0.2820
 3423SOL    HW121902   2.946   2.670   3.988  2.3536 -0.8711  1.6842
 3423SOL    HW221903   3.021   2.705   4.114  2.2192  0.2342 -0.9844
 3424SOL     OW21904   2.140   1.711   6.707 -0.1406 -0.3799  0.4635
 3424SOL    HW121905   2.167   1.620   6.710  0.5656 -0.1346  1.3952
 3424SOL    HW221906   2.064   1.710   6.765  0.3146  1.1423  1.0780
 3425SOL     OW21907   0.828   2.400   2.028  0.2582 -0.2649 -0.1000
 3425SOL    HW121908   0.765   2.448   2.082  0.7953 -1.0206  1.2025
 3425SOL    HW221909   0.816   2.307   2.045  0.5626 -0.5160 -1.2591
 3426SOL     OW21910   3.783   1.710  11.554 -0.6190 -0.1818  0.1041
 3426SOL    HW121911   3.732   1.787  11.580  0.5250  0.2952  0.9278
 3426SOL    HW221912   3.840   1.703  11.631 -2.6656  0.5284  1.6968
 3427SOL     OW21913   3.240   4.738   5.621 -0.0754 -0.0447  0.0054
 3427SOL    HW121914   3.218   0.012   5.529 -0.8468 -2.5389 -0.1819
 3427SOL    HW221915   3.230   4.644   5.634 -0.7520  0.2765  1.7318
 3428SOL     OW21916   0.438   4.051   2.142 -0.1777 -0.5286 -0.0595
 3428SOL    HW121917   0.523   4.008   2.129 -0.3088 -0.9524  0.4963
 3428SOL    HW221918   0.441   4.101   2.060  3.2305 -1.0430 -0.2644
 3429SOL     OW21919   3.444   4.013   4.337 -0.3684 -0.1776  0.4039
 3429SOL    HW121920   3.484   4.025   4.422 -1.3743 -0.7486  0.9582
 3429SOL    HW221921   3.502   3.958   4.284 -1.0237 -1.1550  0.6961
 3430SOL     OW21922   0.230   2.372   2.062  0.4477  0.0753 -0.4449
 3430SOL    HW121923   0.181   2.295   2.032 -0.3838  1.0520 -1.6066
 3430SOL    HW221924   0.261   2.335   2.145  2.0413 -0.7860 -1.4235
 3431SOL     OW21925   0.337   2.670   0.441 -0.2886 -0.2041 -0.0651
 3431SOL    HW121926   0.301   2.676   0.530  0.1813  2.5779 -0.0368
 3431SOL    HW221927   0.432   2.671   0.454 -0.4332 -2.3922  0.9910
 3432SOL     OW21928   3.768   3.850   8.914 -0.3878  0.3642  0.2405
 3432SOL    HW121929   3.673   3.855   8.919 -0.4237  0.1076 -0.1700
 3432SOL    HW221930   3.789   3.931   8.869  1.8322  0.1244  0.8189
 3433SOL     OW21931   3.856   1.599   9.456  0.7383 -0.0093  0.2878
 3433SOL    HW121932   3.903   1.515   9.448  1.3782  0.3107  0.6423
 3433SOL    HW221933   3.865   1.610   9.551 -0.5447 -0.7910  0.5041
 3434SOL     OW21934   2.163   0.097   4.661  0.4662 -0.1732 -0.4055
 3434SOL    HW121935   2.130   0.102   4.572 -0.7459  2.5922  0.1958
 3434SOL    HW221936   2.225   0.025   4.651  0.7203 -0.1182  0.7782
 3435SOL     OW21937   0.472   3.852   5.273 -0.4429  0.2321 -0.1185
 3435SOL    HW121938   0.478   3.794   5.349  1.7512  1.8862  0.9693
 3435SOL    HW221939   0.389   3.889   5.301 -0.8029 -0.3296 -0.4345
 3436SOL     OW21940   3.831   2.383  11.115  0.3088 -0.4059 -0.2656
 3436SOL    HW121941   3.821   2.371  11.020  1.9332  1.4418 -0.6647
 3436SOL    HW221942   3.743   2.395  11.152  0.8748 -1.2036  1.3288
 3437SOL     OW21943   4.467   3.665   5.829 -0.0116 -0.0863 -0.3118
 3437SOL    HW121944   4.492   3.722   5.902 -0.8047  1.0391 -0.9060
 3437SOL    HW221945   4.499   3.583   5.867 -2.7514 -0.2166  1.6923
 3438SOL     OW21946   0.204   0.246  10.839 -0.4096 -0.8231  0.2421
 3438SOL    HW121947   0.133   0.183  10.826 -1.2477 -0.2005  1.7213
 3438SOL    HW221948   0.144   0.318  10.857 -1.5279 -1.3225 -1.4533
 3439SOL     OW21949   0.321   2.819   9.506 -0.9240  0.0542  0.0291
 3439SOL    HW121950   0.350   2.746   9.453 -0.5796  0.5828 -0.5107
 3439SOL    HW221951   0.297   2.890   9.447  1.9239  0.8608 -0.1776
 3440SOL     OW21952   2.541   1.636  11.123 -0.5343 -0.6883 -0.3506
 3440SOL    HW121953   2.476   1.697  11.088 -1.1630 -1.4713 -0.5453
 3440SOL    HW221954   2.613   1.690  11.155  0.3701 -3.0678  1.6250
 3441SOL     OW21955   1.894   2.865   2.165  0.2138  0.1310  0.1370
 3441SOL    HW121956   1.934   2.783   2.194 -1.4672 -1.0145 -0.8307
 3441SOL    HW221957   1.804   2.860   2.196 -0.3030  0.3199 -1.3561
 3442SOL     OW21958   1.872   3.438   0.343  0.1364 -0.5446  0.4640
 3442SOL    HW121959   1.868   3.532   0.326 -1.3082 -0.4947  1.0905
 3442SOL    HW221960   1.832   3.438   0.430  0.1066  2.2044  0.4596
 3443SOL     OW21961   1.918   1.768   5.572 -0.2614  0.2579 -0.3933
 3443SOL    HW121962   1.892   1.744   5.661  0.0424 -1.1743 -0.6836
 3443SOL    HW221963   2.009   1.789   5.594  0.0936 -1.2097 -0.4727
 3444SOL     OW21964   4.677   2.625  12.887 -0.0911 -0.5228  0.6532
 3444SOL    HW121965   4.599   2.660  12.930  1.0452  2.2033  0.4817
 3444SOL    HW221966   4.731   2.701  12.866 -1.9183  0.6581  0.2239
 3445SOL     OW21967   0.011   2.469   3.102  0.0583  0.2384 -0.7668
 3445SOL    HW121968   4.667   2.427   3.120  1.3305 -1.9068  0.0857
 3445SOL    HW221969   4.736   2.561   3.125 -0.1640 -0.1358  0.5800
 3446SOL     OW21970   3.633   0.380   7.553 -0.6210 -0.5225 -0.0990
 3446SOL    HW121971   3.544   0.416   7.559 -0.3376  0.5418 -2.4903
 3446SOL    HW221972   3.645   0.352   7.644 -0.1850  0.7922  0.2393
 3447SOL     OW21973   2.561   1.064   6.887 -0.1152  0.2994 -0.6423
 3447SOL    HW121974   2.654   1.087   6.874  0.0962 -0.5718 -0.6741
 3447SOL    HW221975   2.560   0.970   6.871 -0.9421 -0.2085  2.4020
 3448SOL     OW21976   4.576   1.641   6.364 -0.3702  0.3797 -1.0376
 3448SOL    HW121977   4.565   1.662   6.456 -0.3235  1.2008 -1.2251
 3448SOL    HW221978   4.667   1.614   6.349 -1.1244 -1.0199 -3.2769
 3449SOL     OW21979   2.533   3.974  17.696  0.3996 -0.0394  0.7370
 3449SOL    HW121980   2.477   4.017   0.004 -2.3338  0.7738 -2.1472
 3449SOL    HW221981   2.588   4.045  17.663 -0.7600  1.3094  1.7118
 3450SOL     OW21982   4.448   4.467   0.994  0.1372  0.4493 -0.2384
 3450SOL    HW121983   4.359   4.439   0.971  0.6825  0.0995 -1.9270
 3450SOL    HW221984   4.490   4.467   0.907  0.9928  1.5391  0.1764
 3451SOL     OW21985   1.357   1.689   8.187  0.0911 -0.9993 -0.1962
 3451SOL    HW121986   1.380   1.766   8.135  1.0768 -1.9251 -1.1383
 3451SOL    HW221987   1.280   1.728   8.228  0.1138 -2.1810  0.9936
 3452SOL     OW21988   3.537   2.960   8.869  0.2378 -0.7116  0.4396
 3452SOL    HW121989   3.551   3.052   8.891 -0.4510 -0.5278  0.1061
 3452SOL    HW221990   3.507   2.928   8.954  3.1265 -1.2515  1.2449
 3453SOL     OW21991   2.288   2.333  13.429  0.0120  0.3686 -0.2391
 3453SOL    HW121992   2.327   2.246  13.421  1.0772  0.9462 -1.3924
 3453SOL    HW221993   2.360   2.394  13.409 -0.8665  1.3887 -0.2965
 3454SOL     OW21994   3.916   1.769   8.741  0.1732 -0.8089  0.0394
 3454SOL    HW121995   3.990   1.810   8.786 -0.9512 -0.4202  1.5178
 3454SOL    HW221996   3.939   1.677   8.758 -1.4485 -1.4384 -1.1997
 3455SOL     OW21997   3.997   2.798   9.376 -0.4088  0.0050 -0.0702
 3455SOL    HW121998   4.055   2.811   9.451 -1.8932  0.8853  0.9091
 3455SOL    HW221999   4.058   2.821   9.305 -1.5146  1.0454 -0.6906
 3456SOL     OW22000   1.333   4.314  16.553 -0.1204  0.1309 -0.0275
 3456SOL    HW122001   1.292   4.384  16.503 -2.5983 -1.7656 -0.6900
 3456SOL    HW222002   1.399   4.283  16.491 -0.9434  1.1531 -1.3964
 3457SOL     OW22003   2.868   0.656  11.046 -0.1435  0.3700  0.2184
 3457SOL    HW122004   2.847   0.665  11.139 -1.0684  1.8079 -0.1196
 3457SOL    HW222005   2.813   0.582  11.020  1.0854 -0.5635  0.2684
 3458SOL     OW22006   0.118   3.810   8.019 -0.3157 -0.6922 -0.0926
 3458SOL    HW122007   0.096   3.800   8.111  1.0150 -0.7606  0.2120
 3458SOL    HW222008   0.049   3.765   7.970 -0.4862  0.1162 -0.5953
 3459SOL     OW22009   2.273   2.756   7.533 -0.2722 -0.0196 -0.5426
 3459SOL    HW122010   2.321   2.830   7.496 -1.1663  1.1608  0.6619
 3459SOL    HW222011   2.331   2.679   7.531 -1.2712 -0.7432 -2.0334
 3460SOL     OW22012   1.801   1.434   5.831  0.4024 -0.0669 -0.0813
 3460SOL    HW122013   1.813   1.400   5.743 -0.6402  3.2669 -1.5094
 3460SOL    HW222014   1.707   1.427   5.847  0.3892 -2.0190 -0.9741
 3461SOL     OW22015   2.854   1.646  13.015 -0.8362  0.0274  0.4383
 3461SOL    HW122016   2.886   1.618  12.929  0.2592  1.7375  0.3042
 3461SOL    HW222017   2.764   1.660  12.984 -0.5468 -2.8830 -1.6772
 3462SOL     OW22018   0.505   2.950   4.244  0.7180 -0.0418 -0.9382
 3462SOL    HW122019   0.453   3.010   4.298  0.3506 -2.0126  0.8941
 3462SOL    HW222020   0.451   2.949   4.165  1.9096  0.2724 -1.7511
 3463SOL     OW22021   0.181   2.706  11.451  0.5636  0.2736  0.2235
 3463SOL    HW122022   0.249   2.771  11.435  1.2032 -1.1239 -2.7136
 3463SOL    HW222023   0.171   2.666  11.364 -2.5005  0.3217  0.5435
 3464SOL     OW22024   0.329   2.449   9.677  0.1010  0.1379  0.2231
 3464SOL    HW122025   0.233   2.452   9.675 -0.0057 -3.3569 -1.8112
 3464SOL    HW222026   0.347   2.465   9.769 -0.7256 -0.9402  0.5694
 3465SOL     OW22027   2.464   0.573   0.188 -0.2330 -0.2210 -0.0559
 3465SOL    HW122028   2.515   0.556   0.267  1.1707 -1.8655 -1.3135
 3465SOL    HW222029   2.527   0.547   0.120 -0.0840 -1.4232  0.5408
 3466SOL     OW22030   2.658   0.173   1.678 -0.5752 -0.1479 -0.0529
 3466SOL    HW122031   2.655   0.080   1.657  0.9978  0.0150 -0.9328
 3466SOL    HW222032   2.611   0.221   1.610 -0.4037  1.2022  0.7861
 3467SOL     OW22033   1.224   4.234   7.057  0.0457 -0.0950  0.3023
 3467SOL    HW122034   1.239   4.326   7.080 -0.5201 -0.4264  1.9658
 3467SOL    HW222035   1.131   4.224   7.039  0.2277 -0.8837 -0.2451
 3468SOL     OW22036   1.560   0.882  15.062 -0.6755  0.2325  0.1710
 3468SOL    HW122037   1.521   0.959  15.022 -1.9744 -1.4024 -1.7271
 3468SOL    HW222038   1.501   0.811  15.035  1.4082 -0.3699 -2.9088
 3469SOL     OW22039   3.585   2.623   9.368 -0.1031  0.7565 -0.1652
 3469SOL    HW122040   3.541   2.570   9.435 -2.0618  1.3822 -0.9664
 3469SOL    HW222041   3.506   2.673   9.345 -0.9472 -0.4982 -0.0225
 3470SOL     OW22042   1.501   2.414  10.360 -0.0747  0.7935 -0.2185
 3470SOL    HW122043   1.536   2.503  10.348 -0.0494  0.8588  0.3151
 3470SOL    HW222044   1.479   2.431  10.452  1.7578 -0.9076  0.5244
 3471SOL     OW22045   0.630   1.283   9.389 -0.2119 -0.2687 -0.1205
 3471SOL    HW122046   0.649   1.377   9.381 -3.5567  0.0497 -4.3673
 3471SOL    HW222047   0.583   1.267   9.307 -0.4452  2.1723 -0.4858
 3472SOL     OW22048   4.495   2.827  14.828  0.3029 -0.1630 -0.2235
 3472SOL    HW122049   4.417   2.875  14.856 -0.1982 -1.1034  0.0146
 3472SOL    HW222050   4.529   2.888  14.763  1.1855 -1.6645 -1.1640
 3473SOL     OW22051   0.677   0.036   2.239 -0.1055  0.5911  0.0382
 3473SOL    HW122052   0.624   0.112   2.262 -1.3290 -0.3386  0.2638
 3473SOL    HW222053   0.710   0.062   2.153 -2.1707  0.1925 -0.8744
 3474SOL     OW22054   2.074   1.550   3.375 -0.0193 -0.3792 -0.0289
 3474SOL    HW122055   2.065   1.515   3.287 -0.5745 -2.9597  1.0529
 3474SOL    HW222056   2.169   1.556   3.389 -0.1634 -0.5122  1.0222
 3475SOL     OW22057   4.147   2.843   2.799  0.1503  0.1357 -0.0217
 3475SOL    HW122058   4.159   2.862   2.892  1.9796 -0.1341 -0.1992
 3475SOL    HW222059   4.155   2.748   2.805  0.1051  0.0473 -1.2769
 3476SOL     OW22060   4.506   3.323   0.195 -0.0320 -0.1429  0.7229
 3476SOL    HW122061   4.601   3.336   0.195  0.2132 -1.8464  2.1454
 3476SOL    HW222062   4.504   3.274   0.113 -1.9165 -1.7682  1.7494
 3477SOL     OW22063   2.603   1.913  14.421  0.0647  0.2268  0.0581
 3477SOL    HW122064   2.629   1.883  14.507  1.6046  1.5271  0.0497
 3477SOL    HW222065   2.654   1.860  14.360  0.2695  1.8022 -1.1463
 3478SOL     OW22066   3.295   3.822   7.106  0.3814 -0.6873 -0.2849
 3478SOL    HW122067   3.302   3.918   7.113  1.3583 -0.7853  0.1164
 3478SOL    HW222068   3.341   3.803   7.025 -0.6822  1.3656 -1.3710
 3479SOL     OW22069   2.717   4.257  10.362  0.1996 -0.1699  0.2091
 3479SOL    HW122070   2.666   4.185  10.398 -0.9562  1.1139  1.1179
 3479SOL    HW222071   2.676   4.326  10.414  0.4214  1.6337 -2.0196
 3480SOL     OW22072   3.991   3.226   7.722 -0.0381 -0.1044  0.4280
 3480SOL    HW122073   3.900   3.250   7.702 -0.0940 -1.3636 -0.8612
 3480SOL    HW222074   4.033   3.253   7.640 -1.6329  0.8450 -0.0945
 3481SOL     OW22075   4.056   3.433   5.088 -0.3017 -0.7557 -0.0567
 3481SOL    HW122076   4.097   3.385   5.159 -0.7263 -2.2293 -0.8009
 3481SOL    HW222077   4.125   3.430   5.022 -0.0011 -1.6534  0.3013
 3482SOL     OW22078   1.235   2.668   0.820 -0.2062  0.0867 -0.3720
 3482SOL    HW122079   1.284   2.739   0.778 -0.1056  0.9056  1.1205
 3482SOL    HW222080   1.158   2.718   0.846 -0.5764 -0.5128 -0.3324
 3483SOL     OW22081   0.931   2.167   4.085 -0.2212 -0.1007  0.2376
 3483SOL    HW122082   0.852   2.185   4.134 -0.3639 -1.5493  0.5599
 3483SOL    HW222083   0.972   2.122   4.159  1.2535 -0.4047 -0.7477
 3484SOL     OW22084   2.179   0.912   6.792  0.5596 -0.4720  0.5090
 3484SOL    HW122085   2.175   0.827   6.836 -2.5971  0.7167  2.5461
 3484SOL    HW222086   2.233   0.881   6.720  0.6563 -2.8905  1.6176
 3485SOL     OW22087   3.099   2.153   5.072  1.1346  0.1307 -0.0360
 3485SOL    HW122088   3.193   2.155   5.093  0.8021 -1.0486  1.5834
 3485SOL    HW222089   3.065   2.092   5.137  0.2084 -0.9917 -1.5843
 3486SOL     OW22090   2.032   2.073   9.502  0.2326 -0.3124 -0.6332
 3486SOL    HW122091   2.063   2.109   9.585  1.8658 -1.1547 -0.8831
 3486SOL    HW222092   2.028   2.148   9.442 -2.3447 -0.6802 -0.9315
 3487SOL     OW22093   3.068   0.906  10.269 -0.1313  0.1392 -0.2391
 3487SOL    HW122094   2.983   0.873  10.299  0.8841 -0.3878  2.0693
 3487SOL    HW222095   3.117   0.826  10.249 -2.4042 -1.5174  0.8366
 3488SOL     OW22096   2.877   2.156   4.328  1.0739 -0.1014  0.0068
 3488SOL    HW122097   2.824   2.229   4.295 -1.9129 -2.4227 -0.2684
 3488SOL    HW222098   2.829   2.083   4.289 -3.4536  2.2946  1.0726
 3489SOL     OW22099   4.559   0.408   5.007  0.0305 -0.1491 -0.7285
 3489SOL    HW122100   4.489   0.449   4.955 -1.4888 -1.1873  0.5215
 3489SOL    HW222101   4.506   0.387   5.084  0.4060 -2.8048 -1.2166
 3490SOL     OW22102   1.352   4.289  15.006  0.2581  0.0082  0.4110
 3490SOL    HW122103   1.300   4.229  14.952  0.5108 -0.1215  0.3134
 3490SOL    HW222104   1.284   4.330  15.060 -2.4686  0.1986 -3.1508
 3491SOL     OW22105   4.616   1.656   3.589 -0.5640  0.2335 -1.1173
 3491SOL    HW122106   4.708   1.640   3.567 -0.5473 -0.4337 -0.5816
 3491SOL    HW222107   4.625   1.729   3.650  0.8034  0.1084 -1.1669
 3492SOL     OW22108   0.315   4.675   9.657 -0.5130 -0.6036  0.4629
 3492SOL    HW122109   0.272   4.670   9.572 -0.7771 -0.7561  0.6031
 3492SOL    HW222110   0.260   4.617   9.711  1.0848 -1.7847  0.8293
 3493SOL     OW22111   4.078   1.497   4.846  0.3721 -0.2800 -0.0382
 3493SOL    HW122112   4.001   1.443   4.828  0.5544 -0.4771 -0.2303
 3493SOL    HW222113   4.132   1.472   4.771 -1.2646  0.7493 -1.5598
 3494SOL     OW22114   3.018   1.929  13.511  0.1691  0.3813 -0.6404
 3494SOL    HW122115   3.085   1.989  13.479 -0.0318  0.9510  0.0094
 3494SOL    HW222116   2.989   1.966  13.595  0.7340 -0.9314  0.1323
 3495SOL     OW22117   1.498   1.213   7.302  0.3839 -0.0892  0.1097
 3495SOL    HW122118   1.530   1.204   7.391  0.5681 -0.9856 -0.0488
 3495SOL    HW222119   1.454   1.129   7.295 -0.1299 -0.0374  2.6909
 3496SOL     OW22120   0.914   4.669   6.474  0.2578  0.2990 -0.3013
 3496SOL    HW122121   1.006   4.642   6.480  0.2943  0.8135  1.6372
 3496SOL    HW222122   0.865   4.602   6.427 -1.5373  1.1670  0.3501
 3497SOL     OW22123   1.852   4.561  14.962 -0.1802  0.0833 -0.2946
 3497SOL    HW122124   1.833   4.531  15.051  5.2636 -0.5432  0.6164
 3497SOL    HW222125   1.769   4.597  14.931  1.4652  2.2499 -2.2030
 3498SOL     OW22126   0.039   1.311  11.349  0.2047 -0.1102 -0.3659
 3498SOL    HW122127   0.083   1.285  11.430 -1.8189 -0.7417  0.5242
 3498SOL    HW222128   4.702   1.254  11.348 -2.3254  3.2686  0.8491
 3499SOL     OW22129   0.108   2.786  15.337 -0.3634  0.0169 -0.5277
 3499SOL    HW122130   0.014   2.803  15.326 -0.9258 -1.6361  1.5133
 3499SOL    HW222131   0.144   2.873  15.353  2.1577 -1.2525  0.8171
 3500SOL     OW22132   1.923   3.860  17.255  0.7406 -0.4168  0.5622
 3500SOL    HW122133   1.877   3.862  17.338 -1.3840 -0.3536 -0.6063
 3500SOL    HW222134   1.941   3.767  17.247  0.3412 -0.3161 -1.5562
 3501SOL     OW22135   0.760   0.492   9.881  0.4277  0.2799 -0.5496
 3501SOL    HW122136   0.733   0.544   9.805  0.6640  0.1172 -0.7428
 3501SOL    HW222137   0.705   0.414   9.871 -0.5381  0.8872 -0.0229
 3502SOL     OW22138   3.607   3.662   5.028 -0.2017 -0.6733 -0.5544
 3502SOL    HW122139   3.565   3.612   5.098 -0.2662  0.9310  0.5442
 3502SOL    HW222140   3.670   3.595   5.003  0.5128 -0.3238  0.3023
 3503SOL     OW22141   2.652   4.021   2.448 -0.5719  0.3126 -0.7812
 3503SOL    HW122142   2.736   4.052   2.483 -0.4418 -0.2442 -0.5919
 3503SOL    HW222143   2.588   4.048   2.514 -1.3547 -1.4067 -0.8367
 3504SOL     OW22144   3.745   0.510   3.598 -0.1630 -0.1149 -0.0561
 3504SOL    HW122145   3.675   0.569   3.628 -1.3985 -2.4763  1.6923
 3504SOL    HW222146   3.801   0.527   3.674 -0.4299  0.3638  0.0363
 3505SOL     OW22147   4.730   2.778   2.543  0.5280 -0.4685  0.5713
 3505SOL    HW122148   0.060   2.838   2.567 -0.7048  1.1477  0.0675
 3505SOL    HW222149   4.704   2.809   2.457  0.8666  0.9911  1.0039
 3506SOL     OW22150   0.617   4.300   8.665 -0.0884  0.1867  0.0831
 3506SOL    HW122151   0.703   4.341   8.679  0.0690  0.2340 -0.9857
 3506SOL    HW222152   0.596   4.340   8.580  1.8108  1.3059  0.1302
 3507SOL     OW22153   1.471   4.698  14.425  0.1978  0.2841  0.0854
 3507SOL    HW122154   1.378   4.683  14.414  0.4183 -0.3213 -0.9401
 3507SOL    HW222155   1.491   4.737  14.340  1.8874  0.3592  0.5167
 3508SOL     OW22156   4.406   1.533  12.114 -0.4803  0.1226 -0.3103
 3508SOL    HW122157   4.371   1.475  12.182  1.2497 -3.1737 -2.2244
 3508SOL    HW222158   4.336   1.598  12.105  0.3863  0.7994 -2.0588
 3509SOL     OW22159   1.725   1.235  10.712  0.7025 -0.6264  0.4579
 3509SOL    HW122160   1.702   1.247  10.620  0.3983 -0.5965  0.5363
 3509SOL    HW222161   1.765   1.148  10.705  1.0673 -0.4180 -0.0063
 3510SOL     OW22162   2.449   1.655   0.455  0.4852 -0.1976 -0.0981
 3510SOL    HW122163   2.397   1.733   0.475  1.5212  0.5572 -0.3648
 3510SOL    HW222164   2.431   1.608   0.537 -0.6630 -3.4794 -2.2323
 3511SOL     OW22165   0.197   4.506  15.082  0.0424  0.1272 -0.0568
 3511SOL    HW122166   0.167   4.567  15.150 -1.0151 -1.6096  1.0449
 3511SOL    HW222167   0.144   4.429  15.103 -0.1901  0.1585 -0.5393
 3512SOL     OW22168   3.009   2.315  13.547 -0.2762 -0.1319 -0.2448
 3512SOL    HW122169   2.977   2.255  13.480 -0.0660 -2.0671  1.4032
 3512SOL    HW222170   3.050   2.253  13.607 -0.4277  2.0616  2.1086
 3513SOL     OW22171   2.607   0.472  14.785 -0.3022 -0.5493  0.7182
 3513SOL    HW122172   2.525   0.468  14.833 -0.7656 -0.0833 -0.0362
 3513SOL    HW222173   2.617   0.562  14.753 -1.7061 -1.5802 -2.6513
 3514SOL     OW22174   4.085   4.689  11.351  0.3345 -0.8074  0.2940
 3514SOL    HW122175   4.150   0.020  11.351 -0.6097  0.0488 -0.6133
 3514SOL    HW222176   4.062   4.713  11.261 -1.2556 -3.5206  0.0024
 3515SOL     OW22177   0.701   0.250   7.167  0.2456  0.0811 -0.5113
 3515SOL    HW122178   0.716   0.159   7.139 -2.0210  0.1571 -1.9909
 3515SOL    HW222179   0.618   0.261   7.120 -1.5301  1.8812  3.0584
 3516SOL     OW22180   1.556   3.606  17.115 -0.0931  0.5194  0.6924
 3516SOL    HW122181   1.587   3.585  17.203 -0.1087 -0.0611  0.5583
 3516SOL    HW222182   1.464   3.624  17.132 -0.0096  0.1656  1.4954
 3517SOL     OW22183   0.156   2.948  15.713 -0.1445 -0.3982  0.8811
 3517SOL    HW122184   0.186   2.977  15.627  0.5083 -0.6625  1.0183
 3517SOL    HW222185   0.237   2.958  15.764 -1.7202  2.4997  2.8114
 3518SOL     OW22186   0.861   3.411  17.410 -0.0946 -0.2078 -0.2344
 3518SOL    HW122187   0.932   3.476  17.414 -2.2031  2.1166 -0.7594
 3518SOL    HW222188   0.819   3.427  17.326 -0.6493  1.0760  0.2844
 3519SOL     OW22189   1.318   0.786   4.406  0.5874 -0.6166  0.7770
 3519SOL    HW122190   1.365   0.744   4.478  1.8721  2.5474  1.7917
 3519SOL    HW222191   1.388   0.789   4.341  1.1910  0.1683  1.4589
 3520SOL     OW22192   1.802   2.020   5.660 -1.0084  0.0956  0.1300
 3520SOL    HW122193   1.736   2.040   5.593 -0.0028 -0.2259 -0.9578
 3520SOL    HW222194   1.842   1.946   5.616 -0.6276 -0.0801  0.7812
 3521SOL     OW22195   2.996   1.145   3.792 -0.1630  0.2399 -0.4406
 3521SOL    HW122196   2.992   1.224   3.739 -0.3342  0.4990 -0.0365
 3521SOL    HW222197   3.019   1.081   3.724 -0.2503 -0.4809  0.2075
 3522SOL     OW22198   4.633   3.023  11.689 -0.0692  0.8022 -0.1948
 3522SOL    HW122199   4.551   2.974  11.690 -0.3135  1.2022 -0.8093
 3522SOL    HW222200   4.693   2.959  11.729 -0.2932  1.7330  1.6475
 3523SOL     OW22201   2.716   1.062   2.773  0.2965 -0.1022  0.1858
 3523SOL    HW122202   2.716   1.140   2.719  2.5396  0.3853  0.8690
 3523SOL    HW222203   2.788   1.080   2.833  2.0610 -0.4440 -1.8375
 3524SOL     OW22204   3.236   3.587  10.782  0.2293 -0.3115  0.0761
 3524SOL    HW122205   3.149   3.599  10.745  0.9380  0.4278 -1.3690
 3524SOL    HW222206   3.272   3.675  10.773  1.9146 -0.9219  0.7414
 3525SOL     OW22207   4.702   4.357   9.384 -0.0781  0.1429  0.2159
 3525SOL    HW122208   4.640   4.314   9.325  0.6697  0.6057 -0.9175
 3525SOL    HW222209   4.652   4.401   9.452 -0.6562  1.5223 -1.1105
 3526SOL     OW22210   4.511   3.527  10.224 -0.1574 -0.3142  0.3546
 3526SOL    HW122211   4.464   3.567  10.151  1.3135  1.1977  0.2261
 3526SOL    HW222212   4.600   3.525  10.189  0.0587  0.8270  0.8351
 3527SOL     OW22213   3.706   3.874   1.834 -0.5090 -0.1656  0.5408
 3527SOL    HW122214   3.627   3.827   1.806 -0.4567  0.4669 -0.6583
 3527SOL    HW222215   3.780   3.844   1.781 -0.5207  0.5466  0.1155
 3528SOL     OW22216   0.416   2.925  11.587 -0.2654  0.0897 -0.0754
 3528SOL    HW122217   0.460   2.940  11.670  0.6441 -0.9032 -0.3681
 3528SOL    HW222218   0.351   2.995  11.584  0.0653  0.3645 -0.9044
 3529SOL     OW22219   4.536   3.277  17.684  0.8198 -0.5448  0.3830
 3529SOL    HW122220   4.464   3.226  17.646  0.6626 -0.4180  0.5133
 3529SOL    HW222221   4.610   3.217  17.671 -1.2175 -2.6259 -1.6945
 3530SOL     OW22222   3.892   0.593   4.133 -0.3347  0.5480  0.2262
 3530SOL    HW122223   3.879   0.560   4.222 -0.6777  1.2611  0.4371
 3530SOL    HW222224   3.828   0.535   4.093  0.3408  1.0705 -1.6338
 3531SOL     OW22225   2.236   0.687   9.619  0.7009  0.5683 -0.3131
 3531SOL    HW122226   2.192   0.608   9.586  0.1288  0.8675 -0.2675
 3531SOL    HW222227   2.169   0.753   9.635 -0.5829 -0.9906  0.8749
 3532SOL     OW22228   3.574   0.369   6.122 -0.1022 -0.3732 -0.3885
 3532SOL    HW122229   3.601   0.352   6.212 -0.0768 -1.8237 -0.6691
 3532SOL    HW222230   3.527   0.290   6.098 -0.6508  0.4039 -1.8997
 3533SOL     OW22231   4.573   1.047  11.500 -0.1896  0.6442  0.3760
 3533SOL    HW122232   4.596   1.078  11.588  0.4484 -1.0572  0.8077
 3533SOL    HW222233   4.529   0.963  11.515 -2.1171  1.8296  1.3277
 3534SOL     OW22234   2.225   4.198   5.527 -0.1420 -0.0974  0.0895
 3534SOL    HW122235   2.232   4.293   5.518 -0.7196  0.2946  3.6676
 3534SOL    HW222236   2.215   4.186   5.621  1.2729  0.6161  0.3393
 3535SOL     OW22237   1.478   3.867   0.094  0.3414  0.2605 -0.0953
 3535SOL    HW122238   1.384   3.875   0.111 -0.1081 -3.2214 -1.0818
 3535SOL    HW222239   1.504   3.902   0.179  0.7621 -2.1828  0.7819
 3536SOL     OW22240   0.480   4.232   5.987 -0.1182 -0.0454  0.1765
 3536SOL    HW122241   0.568   4.195   5.986 -0.7595 -1.5778 -0.1049
 3536SOL    HW222242   0.432   4.153   5.963  1.7286 -0.7282 -1.2513
 3537SOL     OW22243   1.992   3.837   6.573  0.3951  0.4091  0.1425
 3537SOL    HW122244   2.018   3.926   6.599 -2.2457 -0.1784  4.7691
 3537SOL    HW222245   1.970   3.792   6.654  0.6125 -0.7778 -0.4565
 3538SOL     OW22246   2.531   0.143   4.481 -0.5448  0.0801  0.1180
 3538SOL    HW122247   2.441   0.118   4.501  0.8962 -2.6066  3.3222
 3538SOL    HW222248   2.529   0.237   4.467  0.0565  0.1317  0.3677
 3539SOL     OW22249   3.568   3.077  16.453 -0.6022  0.1009  0.3493
 3539SOL    HW122250   3.614   3.046  16.375  0.0449 -1.3273  1.3125
 3539SOL    HW222251   3.593   3.008  16.515  0.9199 -1.1998 -1.7144
 3540SOL     OW22252   1.831   2.996   8.068 -0.2485  0.8360 -0.1685
 3540SOL    HW122253   1.806   2.916   8.116 -0.1798  0.9361  0.0313
 3540SOL    HW222254   1.926   2.991   8.075 -0.0777  1.5812 -2.1101
 3541SOL     OW22255   4.027   0.153  13.784 -0.1879  0.2520 -0.3188
 3541SOL    HW122256   4.053   0.089  13.850 -0.1925 -0.8574 -1.3990
 3541SOL    HW222257   4.063   0.107  13.709 -2.1073  1.5636 -2.0224
 3542SOL     OW22258   3.394   3.507  17.742  0.4367 -0.1792  0.2843
 3542SOL    HW122259   3.374   3.442  17.675 -0.9831  0.0808  0.4396
 3542SOL    HW222260   3.352   3.475   0.065 -2.2250  1.9708 -0.2274
 3543SOL     OW22261   3.963   2.230   3.815  0.3104 -0.7163  0.6136
 3543SOL    HW122262   3.935   2.262   3.729 -2.5015 -0.1380  1.7365
 3543SOL    HW222263   3.996   2.314   3.848  3.3042 -1.3938 -0.5867
 3544SOL     OW22264   2.973   2.940   3.819 -0.6292  0.5152 -0.2539
 3544SOL    HW122265   2.991   2.883   3.894  0.9004  1.2882 -0.0320
 3544SOL    HW222266   2.888   2.977   3.843  0.1438  0.3903  2.7389
 3545SOL     OW22267   4.031   1.986   1.791  0.1097 -0.2558 -0.6161
 3545SOL    HW122268   4.117   1.999   1.829  0.0070  1.0307 -0.8268
 3545SOL    HW222269   3.988   2.071   1.801  0.2946 -0.2464  0.0522
 3546SOL     OW22270   1.328   2.470   0.682  0.0459  0.7993  0.0945
 3546SOL    HW122271   1.247   2.441   0.640  1.3455 -1.4151 -0.8495
 3546SOL    HW222272   1.294   2.549   0.725 -1.5670  0.0169  0.2553
 3547SOL     OW22273   3.124   3.483  12.855 -0.2201 -0.3117  0.0350
 3547SOL    HW122274   3.123   3.449  12.766  0.2479  0.2703 -0.1936
 3547SOL    HW222275   3.166   3.570  12.851  0.6066 -0.7702 -1.2521
 3548SOL     OW22276   3.909   1.964   9.404  0.0592  0.1637  0.2090
 3548SOL    HW122277   3.860   1.901   9.457  1.8121 -0.9876  0.4691
 3548SOL    HW222278   3.983   1.917   9.366 -0.8833 -1.5116  0.4630
 3549SOL     OW22279   3.318   0.997   3.476  0.2869 -0.0299 -0.0728
 3549SOL    HW122280   3.242   0.942   3.492 -1.3933  1.5067 -2.7790
 3549SOL    HW222281   3.298   1.065   3.540 -0.9618 -0.5824  0.1111
 3550SOL     OW22282   2.876   0.538   6.028 -0.5647 -0.5495  0.1385
 3550SOL    HW122283   2.884   0.443   6.030  0.3240 -0.4942 -0.3712
 3550SOL    HW222284   2.800   0.552   5.972  1.0528  2.4276 -1.3592
 3551SOL     OW22285   0.087   2.645  16.680  0.9432 -0.5658 -0.1450
 3551SOL    HW122286   0.155   2.651  16.747 -1.9091 -0.0649  2.7376
 3551SOL    HW222287   0.016   2.636  16.744  2.1060 -0.6992  1.1100
 3552SOL     OW22288   0.135   2.054   1.578 -0.4885  0.5043 -0.5076
 3552SOL    HW122289   0.143   1.961   1.557 -2.5357 -0.0199  1.0153
 3552SOL    HW222290   0.207   2.061   1.641  0.3315 -1.1169 -1.2840
 3553SOL     OW22291   4.336   2.972   8.395 -0.2874 -0.2490  0.1701
 3553SOL    HW122292   4.383   3.047   8.359  0.0535  0.1470  1.4500
 3553SOL    HW222293   4.277   3.019   8.454  0.8730  0.6236  0.6179
 3554SOL     OW22294   1.325   1.533   1.425  0.6722 -0.9298 -0.3073
 3554SOL    HW122295   1.299   1.474   1.355 -0.3405 -0.5692 -0.2412
 3554SOL    HW222296   1.281   1.503   1.505 -2.2225  2.1560 -0.7511
 3555SOL     OW22297   0.693   4.602   5.724 -0.2895 -0.5518  0.2424
 3555SOL    HW122298   0.633   4.567   5.658  1.0124 -1.3068 -0.5352
 3555SOL    HW222299   0.638   4.607   5.803 -0.6970 -1.5677  0.0188
 3556SOL     OW22300   4.348   2.322   1.266 -0.6320  0.2606 -0.1313
 3556SOL    HW122301   4.397   2.311   1.348  1.2401  2.0560 -0.9902
 3556SOL    HW222302   4.391   2.404   1.239 -0.0958 -0.7365 -2.2646
 3557SOL     OW22303   2.407   2.025  14.233 -0.0795  0.0397 -0.2996
 3557SOL    HW122304   2.355   1.958  14.277 -0.8117  1.5776  1.2101
 3557SOL    HW222305   2.485   2.007  14.285  0.3287 -1.9376 -1.5918
 3558SOL     OW22306   3.162   1.070   7.196  0.1541 -0.2613 -0.3620
 3558SOL    HW122307   3.212   1.075   7.278 -1.3207 -0.3884  0.5557
 3558SOL    HW222308   3.226   1.036   7.133 -1.3027 -0.3919 -1.7550
 3559SOL     OW22309   2.168   2.791   5.284 -0.2156  0.0578 -0.4580
 3559SOL    HW122310   2.180   2.699   5.258  1.5369  0.6575 -1.7344
 3559SOL    HW222311   2.249   2.824   5.323 -0.1389 -0.1531 -0.4388
 3560SOL     OW22312   3.271   3.975  10.793 -0.9597 -0.2031  0.2914
 3560SOL    HW122313   3.297   4.020  10.713  0.2314  1.0830  1.3892
 3560SOL    HW222314   3.196   4.022  10.829 -1.9862 -1.5128 -0.1460
 3561SOL     OW22315   0.337   3.649   0.384  0.2797  0.1530 -0.7122
 3561SOL    HW122316   0.282   3.728   0.383  0.9387  0.5976 -2.0737
 3561SOL    HW222317   0.414   3.674   0.333  0.4509  1.7994  0.3467
 3562SOL     OW22318   3.439   3.486  10.996  0.2319 -0.2693 -0.4281
 3562SOL    HW122319   3.426   3.433  10.916 -2.1447  0.6623 -0.6719
 3562SOL    HW222320   3.493   3.537  10.936 -0.2939  2.4003  1.4177
 3563SOL     OW22321   1.508   0.282  10.669  0.4448  0.0318 -0.1440
 3563SOL    HW122322   1.459   0.353  10.629 -0.0742 -0.2993 -0.0978
 3563SOL    HW222323   1.457   0.276  10.750  1.8554  0.1954  0.7610
 3564SOL     OW22324   3.633   1.777   2.589 -0.1336  0.0032  0.0331
 3564SOL    HW122325   3.636   1.777   2.685 -1.8728  1.7964  0.0879
 3564SOL    HW222326   3.726   1.763   2.571 -0.2269  0.5344 -0.8550
 3565SOL     OW22327   3.199   0.767   9.169 -0.4890  0.3309  0.3480
 3565SOL    HW122328   3.227   0.849   9.130  0.9629 -0.6368 -0.6419
 3565SOL    HW222329   3.278   0.732   9.211 -1.1064 -1.8532 -0.3047
 3566SOL     OW22330   3.523   4.212   2.044 -0.2818  0.3112 -0.7752
 3566SOL    HW122331   3.490   4.213   1.954 -1.0191  0.5284 -0.4956
 3566SOL    HW222332   3.600   4.266   2.027 -0.1339  0.6904  1.1620
 3567SOL     OW22333   0.462   4.221   1.906  0.4389 -0.5670 -0.2373
 3567SOL    HW122334   0.439   4.267   1.825  1.0316 -1.3461 -0.8586
 3567SOL    HW222335   0.544   4.188   1.869  0.2177 -1.3951  0.0080
 3568SOL     OW22336   2.790   0.278  11.166  0.2708  0.1369 -0.0115
 3568SOL    HW122337   2.848   0.341  11.208 -0.4584  0.4342  0.5510
 3568SOL    HW222338   2.834   0.194  11.178 -1.5775 -0.8807 -0.2317
 3569SOL     OW22339   3.143   1.640   1.355 -0.4997 -0.0654 -0.3969
 3569SOL    HW122340   3.162   1.576   1.286 -0.8152  0.0723 -0.6093
 3569SOL    HW222341   3.228   1.664   1.390 -0.8741  3.4085 -1.9425
 3570SOL     OW22342   4.668   1.936   6.523 -0.5996  0.1399  0.5642
 3570SOL    HW122343   4.611   2.010   6.501 -0.6686 -0.4950 -1.3831
 3570SOL    HW222344   0.017   1.970   6.519 -1.3339  1.6510 -3.2312
 3571SOL     OW22345   0.187   2.625   7.109 -0.3694 -0.2472  0.6377
 3571SOL    HW122346   0.209   2.710   7.147  1.7298  0.3071 -1.7891
 3571SOL    HW222347   0.175   2.651   7.017  0.0218 -1.0386  0.3623
 3572SOL     OW22348   1.653   1.439   9.172 -0.5833 -0.3640  0.0952
 3572SOL    HW122349   1.720   1.504   9.151 -1.1389  0.4317  0.7702
 3572SOL    HW222350   1.647   1.373   9.103  1.4643 -0.2233 -0.2069
 3573SOL     OW22351   0.553   4.023   1.311 -0.0227 -0.0841 -0.8819
 3573SOL    HW122352   0.516   3.981   1.233  0.6750 -1.8074 -0.2727
 3573SOL    HW222353   0.575   3.957   1.376  2.4933  0.9233 -0.6939
 3574SOL     OW22354   0.256   2.293   6.197 -0.4253 -0.2768 -0.1667
 3574SOL    HW122355   0.284   2.212   6.238  2.4579  0.6113 -0.3844
 3574SOL    HW222356   0.330   2.347   6.225 -1.1481 -0.1492  1.5296
 3575SOL     OW22357   4.353   2.800   8.146  0.8268 -0.0201  0.3419
 3575SOL    HW122358   4.310   2.825   8.228 -2.5214  2.0296 -2.0863
 3575SOL    HW222359   4.436   2.845   8.163  0.4197  0.6175  0.6505
 3576SOL     OW22360   2.000   0.681  16.546 -0.0370 -0.0973  0.5337
 3576SOL    HW122361   2.059   0.753  16.571 -0.2974  0.8128 -1.4501
 3576SOL    HW222362   1.916   0.726  16.544  0.4389  0.7259 -1.0433
 3577SOL     OW22363   4.040   2.811  11.365  0.5593  0.0430 -0.0960
 3577SOL    HW122364   4.076   2.726  11.338  0.1167 -0.5624  1.2093
 3577SOL    HW222365   4.095   2.827  11.443 -0.4840 -0.0098  0.6462
 3578SOL     OW22366   2.392   0.185  15.035  0.9070 -0.1153 -0.3803
 3578SOL    HW122367   2.448   0.166  14.960 -1.5367 -0.4900 -2.1248
 3578SOL    HW222368   2.304   0.192  14.998  1.1354 -0.5733 -0.9898
 3579SOL     OW22369   3.819   1.839   1.745 -0.6435  0.2572  0.1434
 3579SOL    HW122370   3.908   1.868   1.762 -0.2995 -0.2793 -0.7375
 3579SOL    HW222371   3.788   1.795   1.824 -1.7024 -0.1281 -0.4842
 3580SOL     OW22372   3.534   1.817  14.925 -0.0444  0.2820 -0.1122
 3580SOL    HW122373   3.565   1.734  14.961 -0.2653 -0.0677 -0.7273
 3580SOL    HW222374   3.450   1.823  14.970  0.6335 -1.4344  1.4102
 3581SOL     OW22375   1.041   2.849   6.668  0.6554 -0.7861 -0.3797
 3581SOL    HW122376   0.947   2.841   6.655  0.5405 -2.0490  1.2023
 3581SOL    HW222377   1.077   2.882   6.585  0.3047 -1.1709 -0.6797
 3582SOL     OW22378   2.653   4.257  16.138 -0.1061  0.0317  0.6556
 3582SOL    HW122379   2.653   4.226  16.228  2.8265  2.4282  1.4768
 3582SOL    HW222380   2.593   4.330  16.156  0.2099  0.5069 -0.2111
 3583SOL     OW22381   3.045   2.474   0.390  0.0535 -0.1313  0.8277
 3583SOL    HW122382   3.108   2.545   0.375 -3.4082  2.4151 -1.6881
 3583SOL    HW222383   2.987   2.500   0.319  0.7193  3.5349  1.5964
 3584SOL     OW22384   3.881   2.863   2.275  0.4208  0.0440  0.7858
 3584SOL    HW122385   3.889   2.790   2.213 -1.0024 -0.0052  0.6690
 3584SOL    HW222386   3.904   2.834   2.363 -0.3636 -1.9507  0.3571
 3585SOL     OW22387   3.612   4.368   3.653 -0.4165  0.5584  0.1879
 3585SOL    HW122388   3.703   4.399   3.661 -0.4966  0.6772  0.6646
 3585SOL    HW222389   3.569   4.453   3.647  0.9948  1.3051  0.6793
 3586SOL     OW22390   2.619   2.330   3.316  0.2198 -0.3273  0.6708
 3586SOL    HW122391   2.689   2.321   3.251 -0.1233 -0.9851  0.3973
 3586SOL    HW222392   2.675   2.320   3.392  0.5046 -2.1581  0.2100
 3587SOL     OW22393   2.418   1.276   4.303  0.4562 -0.5961  0.3358
 3587SOL    HW122394   2.441   1.187   4.275  3.2804  0.3061 -0.2867
 3587SOL    HW222395   2.503   1.318   4.319 -0.4678 -0.0452  3.7439
 3588SOL     OW22396   3.195   1.164  10.266  1.0303 -0.1722  0.1490
 3588SOL    HW122397   3.143   1.083  10.263  2.1413 -0.8876  0.4173
 3588SOL    HW222398   3.285   1.134  10.274  1.2671  0.4439 -0.2456
 3589SOL     OW22399   1.681   2.178  12.858  0.0149 -0.2622 -0.3198
 3589SOL    HW122400   1.641   2.250  12.811 -1.5544 -0.6687  0.3930
 3589SOL    HW222401   1.639   2.191  12.943 -1.1437 -1.6774 -0.6624
 3590SOL     OW22402   3.498   4.736  10.034 -0.1786  0.4864  0.7610
 3590SOL    HW122403   3.446   4.658  10.056  1.2074 -0.8813 -0.7893
 3590SOL    HW222404   3.546   0.010  10.115 -0.3851  2.6668  0.5069
 3591SOL     OW22405   3.173   1.512   1.128  0.0652  0.3199 -0.6595
 3591SOL    HW122406   3.187   1.431   1.079 -0.7827 -0.6740  0.7082
 3591SOL    HW222407   3.091   1.545   1.092 -0.4572 -1.3551 -1.0109
 3592SOL     OW22408   2.089   0.968  17.700  0.4735 -0.2326 -0.1279
 3592SOL    HW122409   2.063   0.904   0.009  2.1583  0.4023  1.1733
 3592SOL    HW222410   2.009   1.005  17.662 -0.4869  0.1568  2.2539
 3593SOL     OW22411   0.836   1.559  12.073 -0.5719 -0.0999  0.0131
 3593SOL    HW122412   0.781   1.547  12.151 -1.6778  2.3070 -0.3768
 3593SOL    HW222413   0.907   1.500  12.096  0.5248  0.9979 -0.5979
 3594SOL     OW22414   3.299   2.831   6.752 -0.0626  0.5835 -0.0863
 3594SOL    HW122415   3.218   2.782   6.741 -0.3882  1.1006  0.0009
 3594SOL    HW222416   3.358   2.767   6.712  0.3210  0.2004  1.0785
 3595SOL     OW22417   3.248   0.480  15.509  0.3710  0.1356 -0.2710
 3595SOL    HW122418   3.231   0.446  15.597 -0.0143 -2.1921 -1.2539
 3595SOL    HW222419   3.247   0.573  15.531 -1.1276  0.0281  0.1031
 3596SOL     OW22420   1.533   1.519   9.657  0.2394 -0.2453 -0.1064
 3596SOL    HW122421   1.577   1.516   9.742  0.3543 -2.0945 -0.2332
 3596SOL    HW222422   1.604   1.485   9.602  0.6127  1.7784 -0.8691
 3597SOL     OW22423   3.026   2.511   7.370  0.3221  0.3638 -0.0717
 3597SOL    HW122424   3.087   2.562   7.422  0.6797 -0.8010  0.6606
 3597SOL    HW222425   3.088   2.440   7.354 -0.1333 -0.0147 -0.1694
 3598SOL     OW22426   1.656   0.030   0.347 -0.1560 -0.2602  0.6576
 3598SOL    HW122427   1.575   0.033   0.297 -0.0031 -0.6634  0.3902
 3598SOL    HW222428   1.636   4.724   0.429  0.1550  0.7308  1.2909
 3599SOL     OW22429   4.276   1.336   7.573  0.4754  0.2903  0.3224
 3599SOL    HW122430   4.193   1.296   7.548  0.3610  0.5391  0.3133
 3599SOL    HW222431   4.320   1.329   7.488 -1.2074  3.0071 -0.7381
 3600SOL     OW22432   2.555   0.416  17.311  0.5222  0.0306  0.5235
 3600SOL    HW122433   2.551   0.327  17.275 -1.8751  0.2960  0.1348
 3600SOL    HW222434   2.485   0.416  17.377 -1.3032 -0.3667 -1.3919
 3601SOL     OW22435   1.563   3.817   6.917  0.0916  0.0975 -0.3615
 3601SOL    HW122436   1.505   3.772   6.978 -0.5088 -0.3424 -1.2429
 3601SOL    HW222437   1.560   3.908   6.948 -3.9853 -1.0905  2.6817
 3602SOL     OW22438   0.361   1.038  11.046 -0.6481 -0.0911 -0.0508
 3602SOL    HW122439   0.291   1.103  11.051 -0.1215  0.7102 -3.2595
 3602SOL    HW222440   0.361   1.002  11.135 -1.4466  0.5428  0.2051
 3603SOL     OW22441   4.723   0.042   6.483 -0.3893 -0.2276  0.2408
 3603SOL    HW122442   4.735   0.111   6.418 -2.3207  0.7628  0.9473
 3603SOL    HW222443   4.628   0.034   6.484 -0.3443 -0.8894 -0.7951
 3604SOL     OW22444   3.360   2.154   3.588  0.5672  0.0017  0.6871
 3604SOL    HW122445   3.301   2.192   3.652  0.6723 -0.7660  1.2452
 3604SOL    HW222446   3.369   2.060   3.607 -2.6001 -1.0164 -2.8224
 3605SOL     OW22447   2.767   0.151   5.391  0.0636  0.3785 -0.1718
 3605SOL    HW122448   2.788   0.244   5.401  1.4010  0.2333 -1.7164
 3605SOL    HW222449   2.803   0.139   5.303 -1.0341  2.3165 -0.8868
 3606SOL     OW22450   3.517   3.057  13.909  0.2102  0.6305 -0.0302
 3606SOL    HW122451   3.477   3.132  13.864  0.3658  0.1353 -0.9901
 3606SOL    HW222452   3.514   3.077  14.002  0.4688 -1.2883  0.3884
 3607SOL     OW22453   2.955   4.636   3.091  0.3750 -0.1025 -0.4467
 3607SOL    HW122454   3.046   4.624   3.064 -0.0923 -0.3656 -1.9359
 3607SOL    HW222455   2.946   4.717   3.042  0.6613  0.2890  0.1552
 3608SOL     OW22456   2.596   1.180  14.340  0.2454 -0.1235 -0.0029
 3608SOL    HW122457   2.567   1.254  14.394 -0.3053 -0.6075  0.3496
 3608SOL    HW222458   2.524   1.182  14.277  2.0401  1.1768 -2.0639
 3609SOL     OW22459   4.732   2.435   3.550 -0.0621  0.0074 -0.4609
 3609SOL    HW122460   0.033   2.510   3.508 -0.3980 -0.0542 -0.8957
 3609SOL    HW222461   0.042   2.366   3.506  1.6337  0.6504  0.4671
 3610SOL     OW22462   3.415   4.671  17.171  0.4417 -0.9534 -0.4056
 3610SOL    HW122463   3.474   4.721  17.226 -2.0073  1.5470 -0.0330
 3610SOL    HW222464   3.425   4.584  17.210  1.0432 -1.3945 -1.5471
 3611SOL     OW22465   4.052   1.431   7.196 -0.1253  0.3142  0.2416
 3611SOL    HW122466   4.061   1.392   7.109  1.0044 -1.4312  1.1665
 3611SOL    HW222467   4.128   1.489   7.201  0.3663 -0.2115 -1.1556
 3612SOL     OW22468   4.380   2.245   1.852  0.0955 -0.8675 -0.3790
 3612SOL    HW122469   4.435   2.296   1.911  0.7301 -0.6682 -1.1410
 3612SOL    HW222470   4.306   2.249   1.913 -0.9506 -0.4143 -1.6848
 3613SOL     OW22471   2.052   2.777   9.148  0.0226 -0.3202  0.0187
 3613SOL    HW122472   2.122   2.842   9.159  1.0740 -1.6807  1.4499
 3613SOL    HW222473   2.062   2.754   9.241 -0.1639 -1.3039 -0.2142
 3614SOL     OW22474   2.418   0.982  15.785 -0.0069  0.0593 -0.4487
 3614SOL    HW122475   2.340   1.032  15.809 -0.0007  0.0864 -0.4853
 3614SOL    HW222476   2.403   0.964  15.692  2.7784  2.3791 -1.3763
 3615SOL     OW22477   4.220   3.878   4.846  0.1629  0.3281  0.3474
 3615SOL    HW122478   4.144   3.934   4.860 -0.2824 -0.1564 -0.1347
 3615SOL    HW222479   4.226   3.873   4.751 -0.2768  0.9394  0.2833
 3616SOL     OW22480   2.334   2.357  14.835 -0.2833  0.2548  0.0487
 3616SOL    HW122481   2.311   2.272  14.872  1.8547  0.1236  1.0263
 3616SOL    HW222482   2.248   2.389  14.807  0.5497  2.2660 -0.2191
 3617SOL     OW22483   0.358   4.033  15.736  0.5960 -0.5890 -0.1378
 3617SOL    HW122484   0.318   3.987  15.662  0.8439 -0.5491 -0.2956
 3617SOL    HW222485   0.326   4.122  15.720 -1.7458 -1.2766  0.6896
 3618SOL     OW22486   3.316   2.530   0.826 -0.0027 -1.0581 -0.0444
 3618SOL    HW122487   3.291   2.479   0.902  0.5368 -0.0092  0.8309
 3618SOL    HW222488   3.390   2.580   0.862  0.5303 -1.6616 -0.3120
 3619SOL     OW22489   1.206   0.834   8.346  0.0530  0.2363  0.3976
 3619SOL    HW122490   1.193   0.850   8.439  1.2226 -0.0222  0.6095
 3619SOL    HW222491   1.123   0.804   8.308  0.8763 -0.0593 -1.1714
 3620SOL     OW22492   3.196   2.929   7.765  0.7497  0.2838  0.2132
 3620SOL    HW122493   3.186   3.009   7.816 -1.8489 -0.2498  0.5663
 3620SOL    HW222494   3.158   2.861   7.821  0.1540  1.2787  1.0214
 3621SOL     OW22495   1.709   4.133   6.761  0.3539 -0.6138  0.4121
 3621SOL    HW122496   1.759   4.187   6.822 -0.1391 -0.6019  0.8011
 3621SOL    HW222497   1.773   4.062   6.755  1.8516  0.7108  0.6537
 3622SOL     OW22498   2.781   3.235   4.508 -0.3489  0.3395 -0.0485
 3622SOL    HW122499   2.787   3.321   4.465  1.5423 -0.3738 -1.1804
 3622SOL    HW222500   2.731   3.190   4.440  0.4736  0.3362 -0.6505
 3623SOL     OW22501   2.553   2.439   6.625 -0.3096  0.1103  0.3715
 3623SOL    HW122502   2.605   2.433   6.545  0.5869 -0.1027  0.9626
 3623SOL    HW222503   2.510   2.354   6.631  1.2274 -0.7952 -1.3771
 3624SOL     OW22504   4.625   1.404  13.873  0.0316 -0.3766  0.4667
 3624SOL    HW122505   4.570   1.407  13.795  0.8494 -2.2021 -0.1748
 3624SOL    HW222506   4.710   1.429  13.837 -0.6239 -0.3177 -1.0354
 3625SOL     OW22507   3.587   0.213   8.155  0.5033  0.0649  0.2275
 3625SOL    HW122508   3.619   0.301   8.175  0.1231  0.4967 -1.0799
 3625SOL    HW222509   3.559   0.189   8.244 -0.6010  2.4599  0.5092
 3626SOL     OW22510   0.288   1.486   5.152  0.2510 -1.0682  0.3843
 3626SOL    HW122511   0.255   1.561   5.200  0.4275  0.1098 -1.3340
 3626SOL    HW222512   0.207   1.461   5.109  1.3974 -0.8336 -1.9062
 3627SOL     OW22513   2.495   4.660   5.351  0.2050  0.2017  0.4986
 3627SOL    HW122514   2.402   4.638   5.343  0.9957 -3.4586  1.4301
 3627SOL    HW222515   2.532   4.572   5.352 -1.4636 -0.4561  2.5414
 3628SOL     OW22516   1.253   0.908   1.084  0.3282  0.0154  0.1043
 3628SOL    HW122517   1.313   0.866   1.145  0.3619 -1.4591 -0.9544
 3628SOL    HW222518   1.258   1.001   1.107  2.7800 -0.6957  2.4591
 3629SOL     OW22519   1.865   2.430  12.868 -0.2531 -0.0777 -0.0088
 3629SOL    HW122520   1.770   2.436  12.869 -0.3710 -2.0509 -0.4319
 3629SOL    HW222521   1.875   2.357  12.807 -1.4658 -0.8523  0.7237
 3630SOL     OW22522   2.949   2.368   4.758 -0.5553  0.3849  0.1260
 3630SOL    HW122523   2.875   2.429   4.766  0.0235  1.0627  0.4030
 3630SOL    HW222524   2.967   2.365   4.852 -0.4157 -0.7406  0.0562
 3631SOL     OW22525   1.454   2.605   5.262  0.1051 -0.0916 -0.0218
 3631SOL    HW122526   1.378   2.662   5.248  0.1814  0.2498  0.9171
 3631SOL    HW222527   1.516   2.663   5.217 -0.5855 -0.6505 -1.6836
 3632SOL     OW22528   3.934   1.725  10.890  0.2368 -0.4760 -0.5698
 3632SOL    HW122529   3.908   1.653  10.832  1.1654 -1.1422 -0.1571
 3632SOL    HW222530   3.898   1.804  10.850  1.1290 -0.6016 -1.6297
 3633SOL     OW22531   1.394   1.469   2.849  0.6540  0.0948 -0.4987
 3633SOL    HW122532   1.393   1.556   2.808 -1.9830  0.2740 -0.0533
 3633SOL    HW222533   1.365   1.506   2.933  2.1972  1.9779 -0.7833
 3634SOL     OW22534   1.383   1.390   3.877 -0.1029  0.0715  0.0459
 3634SOL    HW122535   1.310   1.377   3.938 -0.6149  1.0417 -0.3587
 3634SOL    HW222536   1.434   1.310   3.887 -0.2553  0.0592  0.7071
 3635SOL     OW22537   3.577   2.380   8.951 -0.0263 -0.3350  0.4826
 3635SOL    HW122538   3.545   2.331   9.027  1.3914  0.5967  1.6771
 3635SOL    HW222539   3.671   2.364   8.961 -0.0353  0.7548  2.4438
 3636SOL     OW22540   0.286   1.549   8.788  0.1656  0.7488 -0.5283
 3636SOL    HW122541   0.355   1.596   8.835 -0.0734  2.6869 -2.1451
 3636SOL    HW222542   0.246   1.618   8.735  0.9415  1.0623 -0.6991
 3637SOL     OW22543   0.693   2.025   3.397  0.6900  0.3110 -0.0216
 3637SOL    HW122544   0.760   2.081   3.438  0.1634  0.0837  1.1334
 3637SOL    HW222545   0.644   2.091   3.349 -0.9833 -0.2587  0.9323
 3638SOL     OW22546   3.177   3.416  10.214 -0.3099 -0.2763 -0.3486
 3638SOL    HW122547   3.107   3.414  10.149 -0.5577  0.1694 -0.0990
 3638SOL    HW222548   3.127   3.426  10.295 -0.4644  0.3343 -0.5181
 3639SOL     OW22549   1.079   0.996   8.885 -0.8985 -0.5088  0.1154
 3639SOL    HW122550   1.066   0.933   8.955  0.6174 -0.8379  0.0989
 3639SOL    HW222551   1.013   1.061   8.906  0.3540  0.9154 -0.3561
 3640SOL     OW22552   4.397   0.260   4.837 -0.0975 -0.2138 -0.3768
 3640SOL    HW122553   4.421   0.241   4.928 -0.2889  0.5643 -0.1687
 3640SOL    HW222554   4.408   0.355   4.831 -1.3049 -0.2045 -2.0557
 3641SOL     OW22555   4.239   3.490  17.381  0.2891 -0.3733 -0.2988
 3641SOL    HW122556   4.330   3.481  17.410  1.4778  3.4439 -2.7618
 3641SOL    HW222557   4.222   3.579  17.413 -2.3583 -0.3722 -1.7491
 3642SOL     OW22558   2.309   3.762   7.860 -0.2215 -0.1835 -0.2266
 3642SOL    HW122559   2.382   3.768   7.799 -0.5662 -2.6926 -0.8832
 3642SOL    HW222560   2.352   3.768   7.945  1.4276  1.3320 -1.1722
 3643SOL     OW22561   1.414   0.852   3.149  0.1139  0.6043 -0.4367
 3643SOL    HW122562   1.355   0.910   3.197  0.6139 -1.0434  2.1841
 3643SOL    HW222563   1.498   0.898   3.152  0.5315 -0.1313 -0.6945
 3644SOL     OW22564   0.133   3.401  15.407 -0.1898  0.6004  0.0546
 3644SOL    HW122565   0.178   3.481  15.377  2.7198 -1.3778 -0.8786
 3644SOL    HW222566   0.178   3.371  15.486 -0.3178 -1.1542 -0.5464
 3645SOL     OW22567   2.332   1.662  15.335 -0.5319  0.0406  0.1968
 3645SOL    HW122568   2.374   1.674  15.421  1.0357  1.9180 -0.8297
 3645SOL    HW222569   2.379   1.735  15.294  1.3743 -0.9569  0.6166
 3646SOL     OW22570   2.344   2.033   1.662 -0.2625 -0.0285  0.7872
 3646SOL    HW122571   2.437   2.054   1.649  0.3277 -1.3117  2.9480
 3646SOL    HW222572   2.321   2.089   1.736  1.5144  1.2449  0.3872
 3647SOL     OW22573   2.676   1.136   3.238 -0.4015 -0.0369  0.4394
 3647SOL    HW122574   2.641   1.054   3.205 -0.4448  0.3771 -0.5726
 3647SOL    HW222575   2.686   1.193   3.161 -0.5401 -1.2051 -0.4333
 3648SOL     OW22576   1.002   1.349   0.881 -0.0103 -1.3242 -0.4514
 3648SOL    HW122577   0.931   1.311   0.933 -0.1159 -0.9667 -0.3338
 3648SOL    HW222578   1.057   1.395   0.944 -0.9511 -0.5846 -0.1582
 3649SOL     OW22579   1.463   3.059   5.976 -0.5647  0.1670 -0.2628
 3649SOL    HW122580   1.383   3.027   6.018 -0.2324 -0.6755 -0.2858
 3649SOL    HW222581   1.515   2.983   5.953  0.0287 -0.0699  1.8903
 3650SOL     OW22582   3.207   1.997  17.112  0.4513  0.1729  0.4426
 3650SOL    HW122583   3.133   1.949  17.074  1.2606 -0.6210 -0.1467
 3650SOL    HW222584   3.267   1.927  17.137  0.1614  0.9064  3.1632
 3651SOL     OW22585   1.970   3.537  11.310  0.6722  0.2075  0.3012
 3651SOL    HW122586   1.949   3.626  11.339 -1.4988 -0.3755  0.5013
 3651SOL    HW222587   2.063   3.535  11.331  0.9597  0.9229 -0.9031
 3652SOL     OW22588   0.189   2.977   5.544 -0.0030  0.2542  0.5154
 3652SOL    HW122589   0.253   3.023   5.490 -1.9550 -1.3111 -3.0926
 3652SOL    HW222590   0.121   2.962   5.479 -0.7320 -0.4286  1.4348
 3653SOL     OW22591   0.986   2.809   8.423 -0.4017 -0.3238  0.2993
 3653SOL    HW122592   1.015   2.853   8.342  0.9140 -1.6845  0.0268
 3653SOL    HW222593   1.069   2.768   8.447 -1.1777 -2.6000 -0.8810
 3654SOL     OW22594   2.901   1.925  12.859  0.0634  1.0434 -0.1376
 3654SOL    HW122595   2.922   1.861  12.791 -2.5756 -0.9126  0.8729
 3654SOL    HW222596   2.953   1.895  12.934  0.5583  1.6569 -0.2397
 3655SOL     OW22597   3.793   0.304  10.672  0.4425  0.3172 -0.1096
 3655SOL    HW122598   3.835   0.220  10.654  0.1370  0.2002 -0.2681
 3655SOL    HW222599   3.727   0.303  10.603  0.5862 -1.2820 -0.2200
 3656SOL     OW22600   2.859   1.158  14.263  0.4173 -0.5077 -0.3568
 3656SOL    HW122601   2.774   1.164  14.307  0.8294 -0.0764  0.3808
 3656SOL    HW222602   2.879   1.065  14.267  2.1718 -0.1688 -1.3518
 3657SOL     OW22603   1.549   0.882  11.347 -0.3033  0.1548 -0.4456
 3657SOL    HW122604   1.573   0.961  11.299 -1.5290 -1.0077 -2.9967
 3657SOL    HW222605   1.587   0.901  11.433  0.3071  1.2134 -0.9554
 3658SOL     OW22606   3.920   2.335   4.873  0.0204 -0.1194 -0.6219
 3658SOL    HW122607   3.848   2.373   4.823 -1.4281 -0.6851  1.0514
 3658SOL    HW222608   3.941   2.400   4.939 -0.9321  0.5089 -0.9428
 3659SOL     OW22609   4.081   4.501   8.029 -0.0224  0.4159 -0.0652
 3659SOL    HW122610   4.080   4.561   7.955 -1.1575 -0.3658 -0.6860
 3659SOL    HW222611   3.987   4.493   8.044 -0.2583  0.0279 -1.7797
 3660SOL     OW22612   0.442   2.986  16.920  0.5967 -0.6144 -0.1922
 3660SOL    HW122613   0.507   2.929  16.962 -0.1737 -1.4060 -0.0810
 3660SOL    HW222614   0.484   3.071  16.928 -2.2129  0.6135  1.4693
 3661SOL     OW22615   0.452   4.100   7.126  0.2568  0.9872 -0.0962
 3661SOL    HW122616   0.434   4.090   7.220  1.5498  2.7235  0.3398
 3661SOL    HW222617   0.510   4.176   7.131  0.8765  0.4392  1.0574
 3662SOL     OW22618   4.312   3.165  17.586  0.5684  0.1142 -0.0297
 3662SOL    HW122619   4.238   3.112  17.613 -0.7313  0.9826 -1.8615
 3662SOL    HW222620   4.295   3.186  17.494  0.1759  1.0817  0.2692
 3663SOL     OW22621   3.189   1.972   8.980  0.0310  0.2229  0.3952
 3663SOL    HW122622   3.126   2.011   9.040  0.3612  0.8439  0.3432
 3663SOL    HW222623   3.232   2.049   8.942 -1.3329  0.7311 -0.1157
 3664SOL     OW22624   2.633   3.707   5.970  0.3048 -0.7220  0.2476
 3664SOL    HW122625   2.595   3.747   5.891 -1.4669  0.3506  1.6583
 3664SOL    HW222626   2.591   3.762   6.036 -1.6204 -0.2845 -1.3415
 3665SOL     OW22627   2.510   3.204   9.218 -0.4158  0.2763 -0.3083
 3665SOL    HW122628   2.422   3.165   9.218 -0.8828  1.3323 -1.2593
 3665SOL    HW222629   2.527   3.199   9.124  0.3584  1.9534 -0.2504
 3666SOL     OW22630   1.282   2.149   5.271  0.6522 -0.3241 -0.5218
 3666SOL    HW122631   1.356   2.088   5.273  0.7847 -0.1687 -0.7543
 3666SOL    HW222632   1.319   2.226   5.314 -2.0040 -0.6777  2.3534
 3667SOL     OW22633   0.850   2.546   5.242 -0.3676 -0.2579  0.5272
 3667SOL    HW122634   0.867   2.523   5.151  0.3959  0.6683  0.4358
 3667SOL    HW222635   0.759   2.576   5.240  0.1702  1.3629 -0.2598
 3668SOL     OW22636   2.557   4.091   1.386 -0.2701  0.5319 -0.8160
 3668SOL    HW122637   2.491   4.042   1.337 -0.3419  0.2134 -0.4043
 3668SOL    HW222638   2.555   4.179   1.349  0.4653  0.6742 -0.5158
 3669SOL     OW22639   2.532   4.496   6.445  0.2967 -0.0284  0.2269
 3669SOL    HW122640   2.542   4.547   6.364 -0.7996  0.7392  0.5597
 3669SOL    HW222641   2.571   4.561   6.503 -1.7482  0.7289  0.7539
 3670SOL     OW22642   0.021   3.924   6.487 -0.2735  0.0726 -0.2370
 3670SOL    HW122643   4.704   3.936   6.563 -1.0187  0.5973 -0.8729
 3670SOL    HW222644   4.709   3.976   6.425  1.6568  1.6608 -0.4989
 3671SOL     OW22645   0.631   2.225   7.622 -0.1921  0.1976  0.6623
 3671SOL    HW122646   0.709   2.207   7.675  0.7582 -0.4129 -0.9641
 3671SOL    HW222647   0.659   2.306   7.579 -0.5261  1.3682  2.6644
 3672SOL     OW22648   1.706   0.832   0.152 -0.1351 -0.4510  0.0274
 3672SOL    HW122649   1.800   0.845   0.158 -0.0494 -0.4813 -1.1986
 3672SOL    HW222650   1.690   0.817   0.245  4.6268 -0.7273  0.8031
 3673SOL     OW22651   3.778   0.312  17.022 -0.0478 -0.0032  0.0058
 3673SOL    HW122652   3.784   0.256  17.100  2.1161  1.5042  0.9381
 3673SOL    HW222653   3.837   0.265  16.964  0.2805  1.5787 -0.9514
 3674SOL     OW22654   3.853   0.243   1.674 -0.1815 -0.4255 -0.1209
 3674SOL    HW122655   3.924   0.294   1.635 -0.2204 -0.0116  0.3458
 3674SOL    HW222656   3.818   0.300   1.743  1.6276  1.0566 -0.4366
 3675SOL     OW22657   1.142   2.856  16.416  0.0912  0.0264  0.3392
 3675SOL    HW122658   1.189   2.818  16.341  0.8321  1.2580  0.1791
 3675SOL    HW222659   1.214   2.910  16.448 -0.2565  0.5131  0.2840
 3676SOL     OW22660   0.700   0.668   4.289  0.0776 -0.4382 -0.1691
 3676SOL    HW122661   0.744   0.696   4.369  3.0992  0.2534 -2.0637
 3676SOL    HW222662   0.615   0.633   4.316  0.8804 -0.9021  1.7348
 3677SOL     OW22663   4.700   3.391   1.762 -0.2359  0.1967  0.3329
 3677SOL    HW122664   4.689   3.477   1.723  1.1147  1.2673  2.2930
 3677SOL    HW222665   4.663   3.411   1.849  0.2538 -0.5858  0.7279
 3678SOL     OW22666   0.870   0.618   7.384  0.0497  0.3665 -0.2780
 3678SOL    HW122667   0.825   0.641   7.465 -0.8059  0.2794 -0.7305
 3678SOL    HW222668   0.810   0.556   7.343 -1.0453  1.0184  0.3645
 3679SOL     OW22669   0.387   3.065   8.872  1.2987  0.4773  0.6889
 3679SOL    HW122670   0.377   3.074   8.967  1.9443 -1.7672  0.9590
 3679SOL    HW222671   0.424   2.977   8.870  4.8662  1.9045  2.0876
 3680SOL     OW22672   3.393   4.383   8.275  0.4547 -0.4698  0.6288
 3680SOL    HW122673   3.404   4.455   8.337 -0.5926 -0.3932  0.7289
 3680SOL    HW222674   3.368   4.433   8.197  2.3952  0.5117  0.6237
 3681SOL     OW22675   0.340   3.835   4.335 -0.2177  0.3046 -0.0721
 3681SOL    HW122676   0.318   3.743   4.322 -1.8435  0.9203 -1.5232
 3681SOL    HW222677   0.320   3.855   4.427  1.6866 -0.3139  0.4936
 3682SOL     OW22678   0.195   0.242   3.367  0.4123  0.5334  0.4269
 3682SOL    HW122679   0.137   0.171   3.338  1.2467 -0.7554  1.9495
 3682SOL    HW222680   0.271   0.190   3.341 -0.7976 -1.4117  0.7279
 3683SOL     OW22681   4.038   4.234  11.457 -0.0369 -0.6056 -0.0974
 3683SOL    HW122682   4.008   4.305  11.401  1.0369 -0.5762 -0.6225
 3683SOL    HW222683   3.968   4.170  11.440 -1.1932  0.2272  1.5176
 3684SOL     OW22684   2.670   3.448  12.389 -0.1940  0.1743  0.2970
 3684SOL    HW122685   2.604   3.517  12.390 -1.4013 -0.9679 -0.0212
 3684SOL    HW222686   2.684   3.425  12.481  0.7928  1.2449  0.4189
 3685SOL     OW22687   3.923   2.058   5.588  0.2334 -0.2352 -0.3817
 3685SOL    HW122688   3.981   1.984   5.607 -0.2276 -0.4792  0.0747
 3685SOL    HW222689   3.980   2.132   5.612 -1.7796  1.4861 -0.9154
 3686SOL     OW22690   2.691   2.209   3.887 -0.5757  0.7110 -0.0113
 3686SOL    HW122691   2.621   2.273   3.902 -1.5389 -0.1005 -1.0811
 3686SOL    HW222692   2.638   2.139   3.849 -1.7270  1.3772  0.3770
 3687SOL     OW22693   3.344   1.207   4.540 -0.2334  0.3938  0.2055
 3687SOL    HW122694   3.326   1.282   4.598 -0.8618 -0.2705  0.8715
 3687SOL    HW222695   3.258   1.165   4.532 -0.5650  0.9659  0.6588
 3688SOL     OW22696   0.271   2.190   6.838  0.3068  0.4025 -0.7238
 3688SOL    HW122697   0.290   2.160   6.927 -0.3168  2.5069  0.1143
 3688SOL    HW222698   0.177   2.175   6.845  0.4941  0.2285  1.3114
 3689SOL     OW22699   1.425   0.323  10.932 -0.2433  0.1718  0.6488
 3689SOL    HW122700   1.353   0.371  10.973 -0.3056  0.5894  0.0504
 3689SOL    HW222701   1.493   0.374  10.975  0.5967 -0.0355 -0.4604
 3690SOL     OW22702   2.587   3.234  10.083  0.2334 -0.4407 -0.2336
 3690SOL    HW122703   2.499   3.197  10.092  0.8649 -1.1040  3.1184
 3690SOL    HW222704   2.599   3.230   9.988 -2.7636 -2.8691 -0.5329
 3691SOL     OW22705   3.849   2.064   7.885 -0.5616  0.2318  0.1394
 3691SOL    HW122706   3.888   2.043   7.800 -2.5462 -2.4713 -0.1127
 3691SOL    HW222707   3.919   2.118   7.920 -0.5962  0.4735 -0.1667
 3692SOL     OW22708   4.483   0.495  15.492 -0.3885 -0.4626  0.4610
 3692SOL    HW122709   4.408   0.475  15.548 -1.7746  2.3406 -0.4101
 3692SOL    HW222710   4.489   0.412  15.445 -0.6356 -0.6897  0.8411
 3693SOL     OW22711   0.850   2.339   8.562  0.2235 -0.3122 -0.5364
 3693SOL    HW122712   0.763   2.346   8.522  0.3138  2.6242 -0.1968
 3693SOL    HW222713   0.903   2.375   8.491  0.8998 -0.3582 -0.0553
 3694SOL     OW22714   2.254   1.464   6.734  0.9992  0.3796 -0.0599
 3694SOL    HW122715   2.334   1.431   6.776  0.7648  1.9943  1.6387
 3694SOL    HW222716   2.188   1.411   6.778  0.5350  1.2611  0.3129
 3695SOL     OW22717   0.522   2.582   6.497  0.7582 -0.6280  0.2235
 3695SOL    HW122718   0.545   2.603   6.588  1.9120  0.7126 -0.3641
 3695SOL    HW222719   0.429   2.593   6.517  0.2716 -1.2472 -1.7853
 3696SOL     OW22720   4.017   3.324  14.956 -0.1615  0.2475 -0.0412
 3696SOL    HW122721   4.027   3.381  15.032  0.8096  1.4250 -1.0488
 3696SOL    HW222722   4.106   3.289  14.946 -0.0749  0.2909  0.5869
 3697SOL     OW22723   3.058   4.134  10.917 -0.4167 -0.5465 -0.1934
 3697SOL    HW122724   3.053   4.186  10.837 -0.5047 -2.0822 -1.1834
 3697SOL    HW222725   3.017   4.187  10.985 -1.1981 -2.5466  0.8921
 3698SOL     OW22726   1.352   4.354   5.753  0.0653  0.1658  0.1324
 3698SOL    HW122727   1.313   4.280   5.706 -0.0129  1.1988 -1.4399
 3698SOL    HW222728   1.368   4.327   5.843  1.1482 -0.3492 -0.2279
 3699SOL     OW22729   1.272   4.100  14.813 -0.4676 -0.0193 -0.1234
 3699SOL    HW122730   1.238   4.017  14.848  0.1397 -0.6155 -0.9505
 3699SOL    HW222731   1.363   4.076  14.795 -0.1605  0.0418  1.2765
 3700SOL     OW22732   0.977   0.571   7.832  0.0138 -0.3380 -0.2497
 3700SOL    HW122733   1.007   0.506   7.768 -0.3999 -1.8458  1.1053
 3700SOL    HW222734   0.911   0.616   7.779 -0.1423 -0.2951 -0.0145
 3701SOL     OW22735   4.051   3.273  13.184 -0.1544 -0.3154  0.1460
 3701SOL    HW122736   4.025   3.349  13.131 -2.0601  0.3145  1.9851
 3701SOL    HW222737   4.146   3.278  13.191 -0.0716  1.4301 -1.9480
 3702SOL     OW22738   2.691   3.041   5.750 -0.4592 -0.0888  0.2714
 3702SOL    HW122739   2.611   3.009   5.710  0.8572 -2.4189 -0.4990
 3702SOL    HW222740   2.655   3.087   5.826 -2.0872  0.1010 -0.6176
 3703SOL     OW22741   2.913   1.247   8.271  1.0767 -0.5607 -0.3495
 3703SOL    HW122742   2.917   1.181   8.202  1.8305 -1.2621  0.3714
 3703SOL    HW222743   3.000   1.288   8.273  0.8967 -0.2981  2.0864
 3704SOL     OW22744   4.528   1.237   6.343  0.8599 -0.0595  0.1097
 3704SOL    HW122745   4.470   1.290   6.288  0.3988 -1.5567 -0.8416
 3704SOL    HW222746   4.568   1.307   6.394 -0.6274  0.6555  0.3053
 3705SOL     OW22747   3.860   0.494   1.518  0.0328 -0.0097 -0.2938
 3705SOL    HW122748   3.918   0.534   1.583 -0.3461 -0.1420  0.1155
 3705SOL    HW222749   3.777   0.479   1.561 -0.0055  1.8107  0.2711
 3706SOL     OW22750   1.158   2.218   6.758  0.4466  0.2428 -0.0372
 3706SOL    HW122751   1.078   2.173   6.787 -0.3530  3.5749  2.8719
 3706SOL    HW222752   1.209   2.204   6.838 -0.3186 -0.9881  0.2374
 3707SOL     OW22753   2.904   4.059   6.440 -0.1214 -0.0618 -0.0040
 3707SOL    HW122754   2.989   4.041   6.399 -0.7955  1.1051 -1.8985
 3707SOL    HW222755   2.900   3.986   6.501  0.2897 -0.0083  0.0901
 3708SOL     OW22756   3.276   0.096   4.891  0.2397 -0.3557  0.5118
 3708SOL    HW122757   3.229   0.179   4.902 -0.1450 -0.1938 -2.3821
 3708SOL    HW222758   3.215   0.043   4.839 -1.1044  0.5300  1.1638
 3709SOL     OW22759   4.557   2.120  10.286 -0.0665 -0.5343  0.0307
 3709SOL    HW122760   4.462   2.129  10.286 -0.1261 -1.0117  3.0444
 3709SOL    HW222761   4.583   2.066  10.361  1.9074  2.3986  1.4905
 3710SOL     OW22762   0.305   2.257   8.544  0.6026  0.4721 -0.4262
 3710SOL    HW122763   0.278   2.348   8.536  0.0805  0.3138 -0.4685
 3710SOL    HW222764   0.367   2.267   8.616  1.2146 -0.8523 -0.7595
 3711SOL     OW22765   3.127   2.675   4.975 -0.0770 -0.0362  0.1086
 3711SOL    HW122766   3.092   2.586   4.978 -0.3519  0.0203 -1.6176
 3711SOL    HW222767   3.190   2.674   5.048  1.3038  1.3788 -1.0600
 3712SOL     OW22768   1.617   3.397  16.421  0.1571 -0.6228 -0.1677
 3712SOL    HW122769   1.592   3.315  16.465  3.0204 -2.0640 -1.2308
 3712SOL    HW222770   1.553   3.406  16.350 -0.2498  1.9686  0.5526
 3713SOL     OW22771   2.920   2.870   8.687  0.2706  0.2990  0.1172
 3713SOL    HW122772   2.868   2.935   8.640  1.0506  0.9358  0.1341
 3713SOL    HW222773   3.000   2.855   8.637 -0.9615 -2.4457 -1.0182
 3714SOL     OW22774   1.611   2.049   0.949 -0.0621 -0.2018  0.3381
 3714SOL    HW122775   1.680   2.019   1.009  0.7570 -1.5440 -1.2909
 3714SOL    HW222776   1.546   2.065   1.018  1.7656 -2.2768  2.5503
 3715SOL     OW22777   4.052   1.012   5.609 -0.4624  0.4444 -0.6727
 3715SOL    HW122778   4.076   0.931   5.656  1.1823 -0.1536 -2.5637
 3715SOL    HW222779   3.990   0.977   5.545 -1.8215  0.9097  0.3816
 3716SOL     OW22780   3.944   0.879  15.565 -0.2270 -0.3554 -0.0823
 3716SOL    HW122781   4.001   0.881  15.642 -0.9573  1.4834  0.3919
 3716SOL    HW222782   3.950   0.787  15.538 -0.9478  0.4132 -2.9269
 3717SOL     OW22783   4.574   1.803   5.213 -0.0619 -0.4672  0.3605
 3717SOL    HW122784   4.643   1.867   5.229  1.5067 -2.0426 -0.1606
 3717SOL    HW222785   4.536   1.847   5.137  0.8813  0.4803  0.4494
 3718SOL     OW22786   4.047   4.556   3.099  0.3475 -0.0766 -0.8421
 3718SOL    HW122787   4.083   4.623   3.041  0.7286 -1.2214 -1.9279
 3718SOL    HW222788   3.969   4.529   3.052  1.0596 -2.6137 -0.5716
 3719SOL     OW22789   4.346   4.549   7.463  0.7362 -0.2678  0.3111
 3719SOL    HW122790   4.298   4.615   7.413 -0.9668 -1.3241  0.5186
 3719SOL    HW222791   4.395   4.613   7.514  1.2974 -1.0828  0.8051
 3720SOL     OW22792   4.104   0.975   8.203  0.0744 -0.3440 -0.4696
 3720SOL    HW122793   4.061   1.029   8.269 -2.6494 -1.9810 -0.8999
 3720SOL    HW222794   4.156   1.041   8.156  2.5323  0.3270  3.2187
 3721SOL     OW22795   3.061   3.829   7.424 -0.7400  0.1260  0.6181
 3721SOL    HW122796   3.088   3.918   7.448  0.4783 -0.3485  1.0461
 3721SOL    HW222797   3.005   3.806   7.497  0.0438 -1.3539  0.7658
 3722SOL     OW22798   0.107   1.891   7.156  0.1146 -0.9872 -0.5296
 3722SOL    HW122799   0.128   1.802   7.126 -1.8931 -1.8889  0.7328
 3722SOL    HW222800   0.193   1.927   7.137  0.1022 -0.7364 -0.0922
 3723SOL     OW22801   3.118   3.652   7.248 -0.5447  0.3601 -0.3034
 3723SOL    HW122802   3.196   3.695   7.213 -0.6045 -0.0981 -0.9894
 3723SOL    HW222803   3.103   3.720   7.314 -0.4553 -1.4802  1.6088
 3724SOL     OW22804   0.541   3.483   2.167  0.4111  0.6501 -0.1147
 3724SOL    HW122805   0.618   3.454   2.216  0.4363 -0.4222 -0.8085
 3724SOL    HW222806   0.515   3.563   2.212  0.6858 -0.0507  1.2738
 3725SOL     OW22807   1.804   0.213  13.304 -0.4169  0.7925  0.3003
 3725SOL    HW122808   1.896   0.217  13.330 -0.5002  1.9289  0.4040
 3725SOL    HW222809   1.796   0.307  13.287 -1.1465  0.7501  0.3980
 3726SOL     OW22810   0.273   0.799   8.629  0.2871  0.2835 -0.3792
 3726SOL    HW122811   0.276   0.760   8.716  1.0917  1.0484 -0.0607
 3726SOL    HW222812   0.236   0.882   8.659 -1.7194  0.2280 -2.7661
 3727SOL     OW22813   2.394   0.989   1.193  0.2355 -0.1243  0.0700
 3727SOL    HW122814   2.299   0.974   1.191  0.0853  1.1044 -2.1490
 3727SOL    HW222815   2.400   1.000   1.288  0.3359  1.7055 -0.1507
 3728SOL     OW22816   3.898   3.173   8.956  0.3609  0.1586 -0.4054
 3728SOL    HW122817   3.943   3.256   8.970 -0.9178  0.4195  2.0053
 3728SOL    HW222818   3.973   3.117   8.976  0.0463  0.2889  1.0729
 3729SOL     OW22819   2.982   4.261   6.969  0.2085 -0.3188  0.4912
 3729SOL    HW122820   3.071   4.276   6.937 -1.0213  2.2408 -1.7097
 3729SOL    HW222821   2.981   4.166   6.982 -3.3775 -0.7431 -2.9623
 3730SOL     OW22822   0.810   0.525  17.127 -0.0553 -0.0431 -0.2548
 3730SOL    HW122823   0.829   0.535  17.220  2.0467  1.5409 -0.8696
 3730SOL    HW222824   0.831   0.610  17.087 -0.1884 -1.4458 -3.3270
 3731SOL     OW22825   1.928   2.578   9.721  0.1921 -0.0317  0.4228
 3731SOL    HW122826   1.994   2.637   9.757  1.0718 -0.3619 -0.6304
 3731SOL    HW222827   1.908   2.538   9.806 -1.8354  0.2478  0.0526
 3732SOL     OW22828   1.726   3.440   4.526 -0.0207 -0.9578 -0.4858
 3732SOL    HW122829   1.758   3.509   4.583 -1.5088 -0.6561 -0.0081
 3732SOL    HW222830   1.805   3.410   4.482  1.1582 -0.7169  1.4682
 3733SOL     OW22831   3.292   4.153  14.497  0.4020 -0.4907 -0.6893
 3733SOL    HW122832   3.246   4.079  14.457 -1.1654 -0.3800  0.8907
 3733SOL    HW222833   3.274   4.140  14.590 -1.7175 -0.0325 -1.0123
 3734SOL     OW22834   3.240   0.502   5.808 -0.1108 -0.2804  0.2925
 3734SOL    HW122835   3.243   0.410   5.833 -1.2455 -0.3980  0.0246
 3734SOL    HW222836   3.328   0.516   5.841 -0.3266 -2.1725  1.6727
 3735SOL     OW22837   2.484   2.815  12.684 -0.0615  0.0079 -0.3996
 3735SOL    HW122838   2.469   2.765  12.603  0.8835 -1.5607  0.3978
 3735SOL    HW222839   2.415   2.779  12.739  0.6842 -2.0111 -0.7924
 3736SOL     OW22840   2.332   3.935   5.438  0.1103  0.4388 -0.2196
 3736SOL    HW122841   2.278   3.983   5.501  0.2746  0.8112 -0.3658
 3736SOL    HW222842   2.329   3.844   5.466 -1.0193  1.3498  2.6111
 3737SOL     OW22843   1.574   4.692   4.791 -0.3549 -0.2107 -0.2377
 3737SOL    HW122844   1.649   4.654   4.836  0.0812 -2.1409 -2.5935
 3737SOL    HW222845   1.509   4.628   4.821 -2.4428  0.7245 -2.7312
 3738SOL     OW22846   3.254   4.491  13.115  0.0616  0.4033 -0.2697
 3738SOL    HW122847   3.222   4.581  13.119 -2.0180 -0.3451  0.0874
 3738SOL    HW222848   3.319   4.487  13.186  0.4004  0.3946 -0.5807
 3739SOL     OW22849   1.058   2.665   0.599  0.2742 -0.1160  0.3469
 3739SOL    HW122850   1.094   2.712   0.674  1.6243  0.5126 -0.6958
 3739SOL    HW222851   0.966   2.652   0.622  0.5116 -1.9273  0.2787
 3740SOL     OW22852   3.860   1.708   4.001 -0.0477 -0.8694 -0.4993
 3740SOL    HW122853   3.861   1.787   4.055 -2.3486  0.7760 -2.8594
 3740SOL    HW222854   3.813   1.652   4.063 -0.6820 -0.5179 -0.6529
 3741SOL     OW22855   1.210   2.230   3.476 -0.2364  0.3781 -0.8507
 3741SOL    HW122856   1.232   2.138   3.486  0.9146  0.6821 -0.6264
 3741SOL    HW222857   1.280   2.269   3.528 -0.6545  2.1219 -1.5793
 3742SOL     OW22858   4.677   4.461   2.890 -0.0926  0.1153 -0.4141
 3742SOL    HW122859   4.721   4.378   2.901 -1.6913 -0.7433 -0.4858
 3742SOL    HW222860   4.640   4.457   2.801  0.3393  2.0947 -0.6909
 3743SOL     OW22861   1.880   0.415   5.417  0.1998  0.0229  0.1879
 3743SOL    HW122862   1.828   0.383   5.491 -0.7997 -1.5038 -1.1677
 3743SOL    HW222863   1.873   0.509   5.431  2.1925  0.1357  0.4697
 3744SOL     OW22864   2.511   4.456   8.705 -0.4434  0.1423  0.4234
 3744SOL    HW122865   2.522   4.431   8.797  0.7130  2.8771  1.0058
 3744SOL    HW222866   2.493   4.368   8.670  1.5610  0.4212 -1.2920
 3745SOL     OW22867   4.197   0.825   6.498  0.0179 -0.0019  0.4830
 3745SOL    HW122868   4.259   0.770   6.450  0.1769  0.5124  0.0899
 3745SOL    HW222869   4.242   0.909   6.490 -1.7349  1.0714  1.9880
 3746SOL     OW22870   2.625   2.764   7.645 -0.0712 -0.0444  0.5714
 3746SOL    HW122871   2.566   2.699   7.607 -0.8212 -0.4988  2.4884
 3746SOL    HW222872   2.698   2.760   7.583  0.2469 -0.6039  0.9813
 3747SOL     OW22873   3.218   0.850   6.921 -0.4365  0.1371  0.1326
 3747SOL    HW122874   3.208   0.772   6.975  1.1051  0.2161  0.5423
 3747SOL    HW222875   3.314   0.848   6.924 -0.4085  1.1256 -0.1557
 3748SOL     OW22876   2.753   1.363  12.113 -0.2258 -0.1791  0.4077
 3748SOL    HW122877   2.708   1.285  12.082 -1.2774  1.4186 -2.0366
 3748SOL    HW222878   2.688   1.399  12.173 -0.3846  1.4350 -0.7495
 3749SOL     OW22879   1.626   3.719  14.332  0.0916  0.2014  0.0178
 3749SOL    HW122880   1.707   3.714  14.282 -0.6915  1.3258 -1.3658
 3749SOL    HW222881   1.577   3.654  14.282 -0.1738  0.3650  0.0636
 3750SOL     OW22882   1.966   2.727  14.825  0.2074  0.5168  0.3493
 3750SOL    HW122883   1.993   2.638  14.805  1.1749  1.4429 -2.5058
 3750SOL    HW222884   1.883   2.730  14.778  1.2305  1.1231 -1.4174
 3751SOL     OW22885   2.459   1.250   2.859 -0.4101 -0.4286 -0.2131
 3751SOL    HW122886   2.435   1.158   2.853 -2.0984 -0.2459  3.9792
 3751SOL    HW222887   2.492   1.270   2.771 -1.1558  1.2368 -0.1136
 3752SOL     OW22888   0.193   0.432   2.558 -0.1855  0.3173  1.0095
 3752SOL    HW122889   0.142   0.501   2.517 -0.2575  0.5616  1.5033
 3752SOL    HW222890   0.120   0.396   2.608  0.3641 -2.1656  0.0459
 3753SOL     OW22891   1.362   0.026  10.611 -0.3437 -0.5429 -0.1134
 3753SOL    HW122892   1.357   4.718  10.528  2.4161  1.7012 -1.5993
 3753SOL    HW222893   1.417   0.101  10.585  1.2712 -1.2479  1.3038
 3754SOL     OW22894   3.248   2.819  11.242  0.5067 -0.7554  0.8386
 3754SOL    HW122895   3.267   2.883  11.310 -0.6355 -1.0459  1.4344
 3754SOL    HW222896   3.183   2.866  11.189  0.5562  0.7473  2.1219
 3755SOL     OW22897   2.069   1.961  10.386 -0.4950 -0.1375  0.0275
 3755SOL    HW122898   2.042   2.050  10.360  1.5842  0.1558 -1.1986
 3755SOL    HW222899   1.996   1.907  10.355 -2.4110  1.9698  0.8748
 3756SOL     OW22900   0.338   1.347  17.085  0.5460 -0.3126  1.0005
 3756SOL    HW122901   0.391   1.404  17.029  0.3295 -0.2435  0.8650
 3756SOL    HW222902   0.299   1.419  17.135  0.5647  1.0240 -0.8870
 3757SOL     OW22903   1.158   3.314   9.013 -0.0169 -0.2921 -0.3870
 3757SOL    HW122904   1.215   3.248   9.053 -2.8577 -2.4352  0.1350
 3757SOL    HW222905   1.122   3.351   9.093  0.1215 -1.4740  0.2242
 3758SOL     OW22906   4.469   2.818   5.223  0.5897  0.0722 -0.1793
 3758SOL    HW122907   4.500   2.729   5.209 -0.7145 -0.4092 -0.0401
 3758SOL    HW222908   4.381   2.805   5.186  0.4419 -0.5055  0.3785
 3759SOL     OW22909   3.844   1.705  13.680  0.0971 -0.8290  0.6578
 3759SOL    HW122910   3.921   1.651  13.696  0.3805 -0.6777 -0.2045
 3759SOL    HW222911   3.816   1.665  13.598  0.9480  1.0054 -0.5228
 3760SOL     OW22912   4.686   1.395   5.536  0.6568 -0.5031  0.1605
 3760SOL    HW122913   4.738   1.344   5.474 -1.4421  0.2972 -2.2774
 3760SOL    HW222914   4.645   1.463   5.482  0.0025 -0.6984  0.4131
 3761SOL     OW22915   3.028   0.200  15.733 -0.2608 -0.8548 -0.0721
 3761SOL    HW122916   2.938   0.168  15.737  0.2814 -1.9417  3.4475
 3761SOL    HW222917   3.038   0.294  15.747 -2.8929 -0.2494 -2.3772
 3762SOL     OW22918   2.533   2.707   5.260 -0.1464 -0.8091  0.0018
 3762SOL    HW122919   2.498   2.767   5.326  0.0295  0.1227 -0.7600
 3762SOL    HW222920   2.467   2.637   5.267 -2.0962  1.0554  0.1280
 3763SOL     OW22921   4.175   1.010   1.886  0.0839  0.1284  0.4899
 3763SOL    HW122922   4.134   1.082   1.934  1.8692  1.7753 -0.4662
 3763SOL    HW222923   4.253   1.057   1.856  0.3233 -1.0894 -0.8364
 3764SOL     OW22924   3.009   4.492  10.563  0.0352  0.3254  0.0331
 3764SOL    HW122925   2.968   4.450  10.487  1.3520 -0.6826 -0.1195
 3764SOL    HW222926   3.059   4.423  10.607 -2.8860 -1.2326  0.8519
 3765SOL     OW22927   1.557   2.359   5.297 -0.5887  0.3724  0.5823
 3765SOL    HW122928   1.621   2.402   5.353  0.8008  1.0753 -1.5514
 3765SOL    HW222929   1.507   2.434   5.264 -0.5010  0.0724 -0.2301
 3766SOL     OW22930   2.573   1.918  13.696 -0.0609 -0.0064  0.4148
 3766SOL    HW122931   2.614   1.873  13.623 -0.7516 -0.8358  0.5389
 3766SOL    HW222932   2.636   1.914  13.768 -0.0938 -1.3707  0.3776
 3767SOL     OW22933   2.000   1.073   4.524 -0.0962  0.2704  0.0694
 3767SOL    HW122934   2.046   0.992   4.502  0.3087  0.5234 -0.0377
 3767SOL    HW222935   2.057   1.136   4.480 -0.5925  0.4059 -0.3770
 3768SOL     OW22936   3.854   3.100   8.673 -0.1531 -0.0457 -0.4190
 3768SOL    HW122937   3.853   3.130   8.764  0.0652  0.3825 -0.5561
 3768SOL    HW222938   3.802   3.019   8.676 -1.5152  0.7875 -1.5635
 3769SOL     OW22939   2.324   2.414  15.133 -0.1946  0.2599 -0.0751
 3769SOL    HW122940   2.336   2.405  15.039  4.1118  2.3743  0.2697
 3769SOL    HW222941   2.325   2.322  15.158  1.9425  0.1351 -0.5971
 3770SOL     OW22942   4.507   2.179   6.480  0.2261  0.4013 -0.2712
 3770SOL    HW122943   4.540   2.268   6.473 -0.7324  0.7245 -0.5907
 3770SOL    HW222944   4.470   2.167   6.393  1.3985  0.3825 -0.7712
 3771SOL     OW22945   4.373   2.973   3.827  0.4809 -0.3234  0.3871
 3771SOL    HW122946   4.366   3.032   3.902 -1.0648  1.2477 -1.0144
 3771SOL    HW222947   4.288   2.990   3.787  1.1369  0.6035 -0.5943
 3772SOL     OW22948   2.049   0.978   8.797 -0.0927  0.1144 -0.7437
 3772SOL    HW122949   2.066   0.923   8.874 -0.1024 -0.1860 -0.9533
 3772SOL    HW222950   2.139   0.989   8.765  0.3265  3.9676  1.8238
 3773SOL     OW22951   3.812   4.454   8.073  0.3467  0.5949  0.4513
 3773SOL    HW122952   3.779   4.514   8.007 -2.1242 -1.1736  0.0879
 3773SOL    HW222953   3.773   4.371   8.046 -0.1502  1.4280 -1.3612
 3774SOL     OW22954   4.701   2.417  12.692  0.4905  0.1984  0.4685
 3774SOL    HW122955   4.670   2.470  12.765  0.3018  0.1536  0.4209
 3774SOL    HW222956   0.054   2.423  12.714  0.9090  0.1922 -1.2824
 3775SOL     OW22957   2.271   4.152   6.099  0.0293 -0.3215 -0.1812
 3775SOL    HW122958   2.216   4.161   6.177  1.1653 -2.0128  0.7982
 3775SOL    HW222959   2.345   4.207   6.124  0.0604 -1.0763  1.3456
 3776SOL     OW22960   3.383   2.150   6.577  0.1207  0.5185  0.0237
 3776SOL    HW122961   3.452   2.129   6.640  3.7091  1.0587 -3.7410
 3776SOL    HW222962   3.370   2.241   6.603 -1.9028  0.0886  0.5260
 3777SOL     OW22963   0.899   3.962   3.823 -0.3155  0.4834  0.0159
 3777SOL    HW122964   0.942   3.905   3.886 -0.6204  0.4029  0.1446
 3777SOL    HW222965   0.832   4.002   3.879  1.0434  1.7018  0.7902
 3778SOL     OW22966   1.552   3.979   7.345 -0.0782  0.0459 -0.5030
 3778SOL    HW122967   1.512   3.917   7.284 -0.5131 -0.8877  0.7192
 3778SOL    HW222968   1.633   4.004   7.301 -0.3273 -0.8096 -1.4373
 3779SOL     OW22969   4.241   2.070   6.139 -0.1965 -0.6663 -0.2741
 3779SOL    HW122970   4.260   2.068   6.045  0.8675 -1.7638 -0.0222
 3779SOL    HW222971   4.325   2.078   6.182 -0.1973  0.6052 -0.5172
 3780SOL     OW22972   0.246   1.651   6.691  0.2680  0.3155  0.3652
 3780SOL    HW122973   0.214   1.639   6.602 -0.7274  3.1720  0.3489
 3780SOL    HW222974   0.167   1.692   6.728 -0.3973 -0.7193  0.0926
 3781SOL     OW22975   2.650   1.375  13.062 -0.0336 -0.2010 -0.0870
 3781SOL    HW122976   2.643   1.457  13.014 -1.3635  0.3078  0.9925
 3781SOL    HW222977   2.739   1.386  13.095 -1.3660  2.1437  2.6159
 3782SOL     OW22978   4.135   2.754   3.080 -0.2606  0.2581  0.3746
 3782SOL    HW122979   4.167   2.771   3.168  0.7285 -1.0739  0.2763
 3782SOL    HW222980   4.207   2.700   3.048 -0.8665 -1.2384  1.5551
 3783SOL     OW22981   3.980   4.614   5.398  0.5423  0.0212 -0.2047
 3783SOL    HW122982   4.046   4.652   5.456 -0.0790 -0.4215  0.7955
 3783SOL    HW222983   3.903   4.647   5.444  0.1390 -0.3514 -0.6068
 3784SOL     OW22984   1.819   2.985   2.506 -0.2292 -0.2599  0.1297
 3784SOL    HW122985   1.795   2.964   2.415 -0.4943 -0.4590  0.2458
 3784SOL    HW222986   1.859   3.072   2.498  0.5718 -0.7142 -0.8458
 3785SOL     OW22987   1.670   3.266  10.599  0.3040 -0.0319 -0.0038
 3785SOL    HW122988   1.724   3.299  10.670  1.2512 -0.6018 -0.4554
 3785SOL    HW222989   1.645   3.184  10.643 -0.1426  0.1061  0.0003
 3786SOL     OW22990   0.096   0.952   3.051 -0.1079  0.2844  0.1235
 3786SOL    HW122991   0.088   1.045   3.028 -0.2340 -0.1101 -1.4070
 3786SOL    HW222992   0.144   0.922   2.974 -0.3092  0.8070 -0.2032
 3787SOL     OW22993   3.626   0.939  11.909  0.5510  0.1590  0.2127
 3787SOL    HW122994   3.626   0.967  11.817 -1.1506  1.9576  0.7587
 3787SOL    HW222995   3.571   1.008  11.945 -1.5929 -1.8638  0.8271
 3788SOL     OW22996   0.151   0.277   2.250  0.5966 -0.4939  0.5486
 3788SOL    HW122997   0.140   0.244   2.161 -2.0709 -1.1403  1.1161
 3788SOL    HW222998   0.206   0.210   2.288 -0.9460 -1.6763  0.7155
 3789SOL     OW22999   4.112   2.243   5.695  0.1238  0.4225 -0.1635
 3789SOL    HW123000   4.067   2.250   5.779 -0.1470  0.0878 -0.2826
 3789SOL    HW223001   4.184   2.306   5.702  0.6258 -0.2836  1.1107
 3790SOL     OW23002   0.477   2.781   2.639 -0.2464  0.2745 -0.3993
 3790SOL    HW123003   0.560   2.821   2.663 -0.2529 -1.2249  2.1770
 3790SOL    HW223004   0.481   2.792   2.544  3.3960 -1.0622 -0.4033
 3791SOL     OW23005   4.591   4.125   6.001  0.0074 -0.1819  0.0958
 3791SOL    HW123006   4.497   4.142   6.000 -0.0773 -0.7186 -2.5878
 3791SOL    HW223007   4.624   4.192   5.941  2.3537 -1.0177  0.4455
 3792SOL     OW23008   2.967   0.969   8.247 -0.2445 -0.1433 -0.1677
 3792SOL    HW123009   2.999   0.882   8.225  0.9815 -0.3142  2.2983
 3792SOL    HW223010   2.880   0.940   8.274 -0.4475 -0.2657 -0.9578
 3793SOL     OW23011   3.470   1.471   1.503 -0.3642 -0.4947 -0.0064
 3793SOL    HW123012   3.529   1.479   1.428  0.3884  0.1082  0.6446
 3793SOL    HW223013   3.430   1.558   1.511 -3.1227 -1.6352 -1.2228
 3794SOL     OW23014   1.259   0.222  13.476 -0.5511  0.1014 -0.0439
 3794SOL    HW123015   1.313   0.285  13.428  0.9825 -1.6486 -0.6181
 3794SOL    HW223016   1.187   0.270  13.517  0.1273 -0.7346  2.1694
 3795SOL     OW23017   2.330   1.167   9.992 -0.2065 -0.1965 -0.0802
 3795SOL    HW123018   2.302   1.081   9.962 -0.4262 -0.4202  0.7711
 3795SOL    HW223019   2.338   1.213   9.908 -0.3544 -0.8681 -0.4654
 3796SOL     OW23020   0.549   0.583   8.615 -0.1851 -0.3354 -0.5596
 3796SOL    HW123021   0.544   0.676   8.593 -0.8246 -0.2369  0.0068
 3796SOL    HW223022   0.599   0.584   8.697  0.9261 -0.1295 -1.2431
 3797SOL     OW23023   4.518   3.122   2.495  0.0348  0.3152  0.2821
 3797SOL    HW123024   4.612   3.141   2.506  0.9601 -3.2623 -1.5394
 3797SOL    HW223025   4.490   3.055   2.558  0.6833  2.8752  3.3174
 3798SOL     OW23026   4.671   3.457   0.520 -0.2415 -0.6881  0.1304
 3798SOL    HW123027   4.620   3.501   0.452 -0.1735  1.6136  1.5669
 3798SOL    HW223028   4.598   3.400   0.544 -0.3954 -0.4576  0.2064
 3799SOL     OW23029   2.048   1.206   9.908  0.0407 -0.1814 -0.2417
 3799SOL    HW123030   2.131   1.202   9.955  0.3164 -1.4557 -0.8070
 3799SOL    HW223031   2.012   1.127   9.947 -0.7873  1.1252  1.5882
 3800SOL     OW23032   3.559   0.228   6.572 -0.2722 -0.5198  0.4701
 3800SOL    HW123033   3.635   0.260   6.620 -0.9409  1.4704  0.2075
 3800SOL    HW223034   3.516   0.202   6.653  1.5417  0.4504  1.7488
 3801SOL     OW23035   1.889   1.995   4.373 -0.0086  0.3148  0.3120
 3801SOL    HW123036   1.812   1.956   4.417 -0.5226 -0.9210 -1.6952
 3801SOL    HW223037   1.846   2.052   4.309 -1.6395  0.7684  1.8071
 3802SOL     OW23038   0.083   3.223   1.314  0.2056 -0.0453 -0.1131
 3802SOL    HW123039   0.059   3.209   1.223 -1.7196 -2.1003  0.7011
 3802SOL    HW223040   0.105   3.316   1.320  0.5487 -0.1936  1.0794
 3803SOL     OW23041   0.297   1.520   8.491 -0.4086  0.5531  0.1563
 3803SOL    HW123042   0.220   1.489   8.538 -1.0293  0.5440 -0.8650
 3803SOL    HW223043   0.273   1.567   8.411 -2.6963 -0.8319  0.0314
 3804SOL     OW23044   0.491   3.958  11.923 -0.0503 -0.2399  0.0242
 3804SOL    HW123045   0.498   4.014  11.846 -2.2303 -1.8322 -1.3219
 3804SOL    HW223046   0.425   4.004  11.975  1.8323  1.2558  1.1076
 3805SOL     OW23047   2.334   1.742   9.532  0.3074  0.1370  0.2160
 3805SOL    HW123048   2.287   1.791   9.599  1.1304  0.2597  0.7000
 3805SOL    HW223049   2.420   1.777   9.553  1.0830 -1.3643 -0.5134
 3806SOL     OW23050   4.056   0.335   4.879  0.0423  0.0185  0.0636
 3806SOL    HW123051   4.097   0.292   4.955  1.3175  1.2314  0.0383
 3806SOL    HW223052   4.059   0.258   4.822 -0.6570 -1.1995  1.6659
 3807SOL     OW23053   0.882   1.406   5.051 -0.2429  0.3227 -0.2351
 3807SOL    HW123054   0.948   1.432   5.115  0.5638  1.0644 -1.3625
 3807SOL    HW223055   0.804   1.419   5.105  0.0428  0.9125  0.0414
 3808SOL     OW23056   0.780   1.111  13.468 -0.0893  0.0892 -0.1435
 3808SOL    HW123057   0.797   1.059  13.547 -1.1064 -0.8889 -0.5698
 3808SOL    HW223058   0.809   1.047  13.402  0.5522  0.5577 -0.3122
 3809SOL     OW23059   3.418   2.473   1.783  0.0661  0.1768 -0.0897
 3809SOL    HW123060   3.349   2.530   1.817  0.0977 -0.9241  1.7931
 3809SOL    HW223061   3.402   2.483   1.689 -1.4910  0.0311  0.1553
 3810SOL     OW23062   1.922   2.208   5.310  0.8066  0.1096  0.5880
 3810SOL    HW123063   2.007   2.165   5.316 -1.4795 -4.6300 -1.3491
 3810SOL    HW223064   1.931   2.283   5.369 -0.8283  2.1918 -1.7974
 3811SOL     OW23065   1.043   0.993   4.506  0.2057 -0.1815 -0.3846
 3811SOL    HW123066   1.031   0.951   4.421  0.8622 -1.2971  0.0710
 3811SOL    HW223067   1.072   0.926   4.568  0.0392 -2.2939 -2.5812
 3812SOL     OW23068   4.060   3.593   0.691 -1.0673  0.1212 -0.3982
 3812SOL    HW123069   4.144   3.584   0.647  0.3860  2.6924  1.8192
 3812SOL    HW223070   4.013   3.641   0.623  1.2053 -0.7173 -2.5228
 3813SOL     OW23071   0.590   1.103  12.108  0.7741 -0.2288 -0.1995
 3813SOL    HW123072   0.573   1.195  12.087 -1.5993 -0.6645 -0.1704
 3813SOL    HW223073   0.526   1.080  12.175  0.9791 -1.6000 -0.4822
 3814SOL     OW23074   0.989   0.996   3.987  0.6685 -0.1359 -0.0786
 3814SOL    HW123075   0.911   1.043   4.016  0.0072 -0.0584 -1.9793
 3814SOL    HW223076   0.972   0.918   4.038  1.0989  0.8852  1.6114
 3815SOL     OW23077   3.253   1.904   4.915 -0.4210 -0.6123  0.1441
 3815SOL    HW123078   3.230   1.812   4.899 -0.8400 -0.2628 -1.2700
 3815SOL    HW223079   3.200   1.946   4.847 -4.6457 -2.5168  2.2316
 3816SOL     OW23080   0.174   1.491   4.352 -0.0843 -0.0866  0.2128
 3816SOL    HW123081   0.175   1.413   4.297 -0.0117  0.1088 -0.0625
 3816SOL    HW223082   0.146   1.565   4.298 -3.2458  0.0031  1.9676
 3817SOL     OW23083   1.002   2.236   3.171  0.5855 -0.3526 -0.0989
 3817SOL    HW123084   0.945   2.272   3.239 -0.5300 -1.3073 -0.5127
 3817SOL    HW223085   1.056   2.315   3.168  0.2814 -0.1895 -0.9695
 3818SOL     OW23086   2.511   4.559   4.451 -0.6780  0.6624  0.0581
 3818SOL    HW123087   2.510   4.471   4.416  0.6913  0.5620  0.2766
 3818SOL    HW223088   2.514   4.618   4.376 -2.0911  1.3905  0.5608
 3819SOL     OW23089   0.549   0.313   9.789  0.5568  0.6246 -0.2355
 3819SOL    HW123090   0.454   0.312   9.803  0.3230  0.8920 -1.7602
 3819SOL    HW223091   0.565   0.245   9.724  2.6794  1.0726 -0.1682
 3820SOL     OW23092   0.650   4.032   8.871 -0.9342 -0.3978 -0.2646
 3820SOL    HW123093   0.580   4.083   8.831 -0.4119  0.2925 -0.2861
 3820SOL    HW223094   0.714   4.032   8.800 -2.4088 -0.5556 -1.6062
 3821SOL     OW23095   2.577   2.438   5.398  0.2420 -0.4000  0.3913
 3821SOL    HW123096   2.640   2.387   5.348 -0.7460  0.0228 -1.3079
 3821SOL    HW223097   2.600   2.527   5.368  2.0987 -1.0764 -0.1862
 3822SOL     OW23098   4.606   0.543   3.145  0.0661 -0.4300 -0.3946
 3822SOL    HW123099   4.596   0.638   3.138  0.0153 -0.3451  0.7894
 3822SOL    HW223100   4.698   0.531   3.121 -0.6300  1.0755 -3.8856
 3823SOL     OW23101   1.440   1.093  14.943  0.3482 -0.2964  0.4831
 3823SOL    HW123102   1.369   1.147  14.978 -0.8567 -0.1312 -2.2309
 3823SOL    HW223103   1.511   1.158  14.938 -0.0847  0.0471 -1.2512
 3824SOL     OW23104   4.044   2.932  10.845  0.2854  0.1989 -0.1210
 3824SOL    HW123105   4.038   2.991  10.920  0.8078  0.9610 -0.6658
 3824SOL    HW223106   4.078   2.985  10.772 -3.4844  2.3002 -0.3407
 3825SOL     OW23107   3.599   2.799   4.360  0.2725 -0.5815  0.2912
 3825SOL    HW123108   3.633   2.876   4.316 -1.3794  1.0490  1.8538
 3825SOL    HW223109   3.668   2.735   4.342 -0.6430 -1.2621 -0.8016
 3826SOL     OW23110   3.049   2.717   6.724 -0.1717 -0.1081 -0.0539
 3826SOL    HW123111   2.965   2.682   6.755 -0.7319  0.6227 -0.7189
 3826SOL    HW223112   3.024   2.761   6.642 -1.1767 -3.1283 -1.3739
 3827SOL     OW23113   0.528   3.233  16.984 -0.1971 -0.2962 -0.1372
 3827SOL    HW123114   0.528   3.220  17.078  0.7127  1.5220  0.1103
 3827SOL    HW223115   0.493   3.322  16.973 -0.5631 -0.3412  0.7186
 3828SOL     OW23116   1.351   4.386   4.745 -0.1021 -0.2383  0.1867
 3828SOL    HW123117   1.324   4.319   4.808 -0.1569 -1.5821 -1.2569
 3828SOL    HW223118   1.435   4.411   4.784  0.6698  0.1928 -1.7438
 3829SOL     OW23119   4.109   0.546   5.172  0.5310  0.4515  0.0466
 3829SOL    HW123120   4.066   0.607   5.231  1.5925  1.5872 -0.3585
 3829SOL    HW223121   4.064   0.570   5.091  1.5709  0.1780 -0.6168
 3830SOL     OW23122   1.861   0.528   5.150 -0.1082  0.0041  0.6023
 3830SOL    HW123123   1.818   0.458   5.199 -0.9032 -0.6609 -1.0266
 3830SOL    HW223124   1.864   0.486   5.064  0.1309  1.7679 -0.2537
 3831SOL     OW23125   2.909   1.790  15.190 -0.3896  0.2998 -0.3844
 3831SOL    HW123126   2.827   1.745  15.210  0.0789  0.3612  1.6947
 3831SOL    HW223127   2.953   1.782  15.275 -1.2826 -0.2579  0.0223
 3832SOL     OW23128   2.619   2.754   4.045  0.1318 -0.2512  0.1030
 3832SOL    HW123129   2.686   2.687   4.032 -1.1568 -1.6506  0.6841
 3832SOL    HW223130   2.570   2.760   3.962 -0.8384  1.6581  0.8089
 3833SOL     OW23131   0.321   3.045  12.276  0.2874  0.0456  0.0962
 3833SOL    HW123132   0.233   3.009  12.277  0.1584  0.3968  1.6588
 3833SOL    HW223133   0.309   3.137  12.299  0.3557  0.1365 -0.2277
 3834SOL     OW23134   3.404   4.340   2.574 -0.6637 -0.1574  0.0583
 3834SOL    HW123135   3.490   4.378   2.555 -1.3912  1.0192 -0.8509
 3834SOL    HW223136   3.349   4.417   2.584 -1.7102 -1.1662  2.2413
 3835SOL     OW23137   3.389   2.602   7.969 -0.4071 -0.0186 -0.3626
 3835SOL    HW123138   3.340   2.527   8.003  0.4190  0.2179  1.3599
 3835SOL    HW223139   3.476   2.562   7.966  0.7529  2.4138  1.0861
 3836SOL     OW23140   3.483   4.698  16.791 -0.3494  0.8490  0.4036
 3836SOL    HW123141   3.409   0.009  16.757  0.0914  2.0754  1.2667
 3836SOL    HW223142   3.533   4.664  16.717 -1.8041 -0.9571  0.2506
 3837SOL     OW23143   4.124   0.894  16.122 -0.2300 -0.0541 -0.0438
 3837SOL    HW123144   4.045   0.846  16.099  0.7646 -2.5010  1.6104
 3837SOL    HW223145   4.183   0.819  16.128  1.6227  1.3355 -0.8058
 3838SOL     OW23146   3.190   2.368   7.761 -0.0753  0.7735 -0.4935
 3838SOL    HW123147   3.201   2.367   7.666  1.3060  1.2712 -0.3353
 3838SOL    HW223148   3.251   2.304   7.797  0.0700  0.8359 -0.6309
 3839SOL     OW23149   1.773   1.015   8.750  0.0118 -0.2587  0.0126
 3839SOL    HW123150   1.715   0.999   8.824  1.7653 -0.5553  1.3338
 3839SOL    HW223151   1.860   1.010   8.791 -1.3537 -2.1278  2.6667
 3840SOL     OW23152   4.054   4.010   6.968  0.5227 -0.1978 -0.0230
 3840SOL    HW123153   4.096   4.049   6.891 -1.8571 -0.1225 -1.2725
 3840SOL    HW223154   4.009   4.086   7.006 -1.6197 -1.2624 -0.4774
 3841SOL     OW23155   2.920   0.079   5.156  0.0531 -0.4669 -0.1152
 3841SOL    HW123156   2.890   0.006   5.103 -1.7742  2.0508 -2.5703
 3841SOL    HW223157   2.946   0.145   5.091  1.1871  0.7191  1.5423
 3842SOL     OW23158   2.125   2.616  15.186 -0.1025  0.4367  0.3385
 3842SOL    HW123159   2.182   2.654  15.119 -0.1890 -2.8919 -1.6194
 3842SOL    HW223160   2.195   2.580  15.240  0.9000  3.4573  1.0554
 3843SOL     OW23161   0.727   1.803   6.706 -0.4855  0.6610  0.7349
 3843SOL    HW123162   0.664   1.756   6.760 -1.2587  2.3468  1.3039
 3843SOL    HW223163   0.798   1.738   6.707 -1.4971 -0.4664 -0.3470
 3844SOL     OW23164   2.035   1.570   0.710  0.3166 -0.2021 -0.1855
 3844SOL    HW123165   2.112   1.542   0.759  0.1126  0.5916  0.5805
 3844SOL    HW223166   2.004   1.654   0.744 -0.3191  0.2442 -1.8311
 3845SOL     OW23167   3.742   1.675   0.306  0.2531  0.1887 -0.4705
 3845SOL    HW123168   3.836   1.674   0.286  1.0423  1.9348  3.2127
 3845SOL    HW223169   3.752   1.676   0.401  0.3717 -1.1462 -0.4674
 3846SOL     OW23170   0.882   3.116   7.844  0.1997  0.6354 -0.0186
 3846SOL    HW123171   0.831   3.097   7.923  1.8732  0.9902  1.1314
 3846SOL    HW223172   0.858   3.055   7.774  0.5706 -0.3456  0.7155
 3847SOL     OW23173   2.500   1.721  15.557  0.3096  0.8915 -0.0296
 3847SOL    HW123174   2.457   1.697  15.639 -0.5687 -0.5520 -0.9165
 3847SOL    HW223175   2.586   1.686  15.579  0.8810  1.6261 -1.0638
 3848SOL     OW23176   0.326   3.244   1.580 -0.3279 -0.0613 -0.1111
 3848SOL    HW123177   0.337   3.339   1.587  0.0253 -0.1725  0.7806
 3848SOL    HW223178   0.249   3.234   1.635  1.1242 -0.5598  1.8209
 3849SOL     OW23179   4.708   1.740   1.877 -0.6456  0.0289 -0.0729
 3849SOL    HW123180   4.700   1.752   1.972  0.8107  0.7289 -0.0290
 3849SOL    HW223181   0.062   1.720   1.877 -1.1010 -2.0959  2.9662
 3850SOL     OW23182   1.545   2.984   4.637 -0.4028  0.2773 -0.0842
 3850SOL    HW123183   1.492   3.063   4.630  0.0654  0.5638 -0.4599
 3850SOL    HW223184   1.631   3.026   4.651 -0.0469 -0.3236 -0.4799
 3851SOL     OW23185   1.565   2.067   6.717 -0.1775 -0.1339  0.1364
 3851SOL    HW123186   1.622   2.141   6.736  0.9863 -1.1912  0.7931
 3851SOL    HW223187   1.489   2.116   6.686  0.2046 -0.1008 -0.7562
 3852SOL     OW23188   3.786   2.575   1.669  0.7352 -0.2880 -0.6593
 3852SOL    HW123189   3.736   2.534   1.740 -0.0493 -0.8015 -1.5054
 3852SOL    HW223190   3.726   2.632   1.621  0.2350  0.4971  0.8955
 3853SOL     OW23191   4.162   1.646   3.578  0.1199 -0.1046 -0.3560
 3853SOL    HW123192   4.129   1.622   3.491  0.8278 -0.0205 -0.6483
 3853SOL    HW223193   4.078   1.638   3.624 -0.9848 -0.2029 -2.3764
 3854SOL     OW23194   3.208   1.409   2.141  0.5601  0.0518  0.5222
 3854SOL    HW123195   3.168   1.373   2.062  1.2176  1.0253 -0.2607
 3854SOL    HW223196   3.153   1.484   2.163 -0.0760 -0.6226  1.2121
 3855SOL     OW23197   1.531   1.985   4.106  0.6828 -0.4474  0.3784
 3855SOL    HW123198   1.510   2.013   4.195  1.7771 -0.9302  0.7937
 3855SOL    HW223199   1.451   1.997   4.055  1.0805  4.2611  0.9070
 3856SOL     OW23200   4.075   3.570   2.414 -0.2112  0.2352  0.0081
 3856SOL    HW123201   4.153   3.516   2.402  1.0615  1.5070  2.5469
 3856SOL    HW223202   4.127   3.647   2.434  0.5375  0.2126 -1.9281
 3857SOL     OW23203   2.135   2.225  12.044 -0.2701 -0.1771 -0.0526
 3857SOL    HW123204   2.114   2.232  12.137 -1.3151 -2.3213 -0.1269
 3857SOL    HW223205   2.069   2.156  12.034 -0.6980  0.2237  0.0697
 3858SOL     OW23206   4.185   0.404   4.591  0.7141  0.6225  0.1141
 3858SOL    HW123207   4.252   0.338   4.575 -0.0020  0.1299 -0.8037
 3858SOL    HW223208   4.149   0.373   4.674 -4.0443  0.8330 -1.8952
 3859SOL     OW23209   0.382   4.404   4.443 -0.3724 -0.4507  0.3177
 3859SOL    HW123210   0.442   4.333   4.469  0.1917  0.1792  0.7292
 3859SOL    HW223211   0.305   4.360   4.408 -0.9710 -0.0343  1.1131
 3860SOL     OW23212   3.170   4.201   8.718  0.0730 -0.1344 -0.6618
 3860SOL    HW123213   3.158   4.269   8.652 -2.2606 -0.8046 -0.9185
 3860SOL    HW223214   3.260   4.209   8.749  0.3965  1.2405 -1.9605
 3861SOL     OW23215   2.418   2.868   5.837  0.5813  0.1030 -0.2224
 3861SOL    HW123216   2.501   2.842   5.877  0.6636 -0.6175 -0.8783
 3861SOL    HW223217   2.375   2.900   5.917  0.2610  1.2350 -0.8404
 3862SOL     OW23218   1.779   3.932   8.874 -0.0343 -0.0014  0.6225
 3862SOL    HW123219   1.754   3.969   8.789 -2.1916 -0.1888  1.1675
 3862SOL    HW223220   1.747   3.843   8.865  1.2204 -0.4070  0.1897
 3863SOL     OW23221   2.156   4.493  14.629  0.0309  0.3348 -0.3498
 3863SOL    HW123222   2.105   4.553  14.683  1.1599  2.2984 -1.5053
 3863SOL    HW223223   2.238   4.541  14.622  0.1064 -0.1247 -2.4448
 3864SOL     OW23224   3.044   4.248   8.255  0.1110  0.4046 -0.5991
 3864SOL    HW123225   3.113   4.188   8.226  1.2980  1.3519  0.2481
 3864SOL    HW223226   2.981   4.242   8.184 -0.0920  0.0750 -0.3882
 3865SOL     OW23227   4.723   2.565   9.518 -0.0671 -0.2583 -0.3298
 3865SOL    HW123228   4.725   2.533   9.428 -1.9514  1.5745 -1.0292
 3865SOL    HW223229   4.686   2.652   9.505 -0.9651 -0.4026  1.2400
 3866SOL     OW23230   4.694   2.752  11.590  0.0867 -0.2003  0.4772
 3866SOL    HW123231   0.030   2.741  11.533  1.9840 -0.0730  2.9431
 3866SOL    HW223232   4.638   2.794  11.525 -0.1982 -0.0451  0.8222
 3867SOL     OW23233   2.533   0.974   2.461 -0.3653 -0.5535 -0.2327
 3867SOL    HW123234   2.488   1.058   2.447  0.6879  0.3420  1.8835
 3867SOL    HW223235   2.524   0.948   2.369 -0.1815  1.3917 -0.8032
 3868SOL     OW23236   4.104   2.268   3.151  0.0728  0.0664 -0.3332
 3868SOL    HW123237   4.088   2.213   3.228 -2.6604  0.1090 -0.8742
 3868SOL    HW223238   4.199   2.269   3.153  0.0358  0.1326  2.0551
 3869SOL     OW23239   4.693   1.094   3.758  0.5288  0.3677 -0.2164
 3869SOL    HW123240   4.633   1.153   3.713  1.2836  0.0225 -1.6471
 3869SOL    HW223241   0.008   1.068   3.685  0.2285  1.7310 -0.9236
 3870SOL     OW23242   1.149   1.927   9.351  0.1693  0.2905  0.3037
 3870SOL    HW123243   1.108   1.908   9.267 -1.6175  4.0743  0.3390
 3870SOL    HW223244   1.156   1.837   9.383  0.8442 -0.8354 -3.0048
 3871SOL     OW23245   1.344   1.531  13.158  0.0004 -0.1996  0.2658
 3871SOL    HW123246   1.258   1.497  13.132  0.2942 -1.5437  1.0698
 3871SOL    HW223247   1.397   1.468  13.109  1.0310 -0.4466  1.7109
 3872SOL     OW23248   3.677   1.980  14.763  0.3735 -0.3173 -0.0672
 3872SOL    HW123249   3.636   1.932  14.836 -0.6816  0.8214  0.0780
 3872SOL    HW223250   3.639   1.929  14.692  0.6731  0.2118 -0.6099
 3873SOL     OW23251   0.979   3.668   1.034 -0.2080  0.9290  0.2524
 3873SOL    HW123252   0.908   3.730   1.052  0.1560  1.3223  0.3311
 3873SOL    HW223253   0.958   3.657   0.942  1.3856  0.7289 -0.0902
 3874SOL     OW23254   1.794   3.430   6.924  0.5181 -0.1708  0.2626
 3874SOL    HW123255   1.864   3.374   6.958  1.2184  0.3322 -0.3448
 3874SOL    HW223256   1.723   3.394   6.977  0.6971 -0.2978  0.4167
 3875SOL     OW23257   0.641   0.040  12.905  0.0152  0.2404 -0.5157
 3875SOL    HW123258   0.717   4.726  12.927 -2.1020 -1.5133  2.4658
 3875SOL    HW223259   0.563   4.724  12.905  0.4563 -0.3724 -2.0116
 3876SOL     OW23260   2.167   4.669  10.996  0.2987 -0.2632  0.1239
 3876SOL    HW123261   2.153   4.633  11.084  0.7301 -1.5149 -0.3246
 3876SOL    HW223262   2.073   4.682  10.985  0.2396 -1.4603 -0.6842
 3877SOL     OW23263   3.923   0.605  10.615  0.0757  0.0573 -0.0577
 3877SOL    HW123264   3.957   0.656  10.543 -1.0868  2.5329  1.1541
 3877SOL    HW223265   3.977   0.629  10.690  1.4348 -1.0651 -0.6844
 3878SOL     OW23266   0.373   4.099   7.400  0.4471 -0.0723 -0.5225
 3878SOL    HW123267   0.328   4.043   7.462 -1.9533  1.9448 -0.4184
 3878SOL    HW223268   0.315   4.174   7.416 -1.4251 -1.5087 -0.5697
 3879SOL     OW23269   1.127   0.764   7.962 -0.3208  0.3578 -0.1334
 3879SOL    HW123270   1.070   0.783   8.037  0.9140  4.9523 -0.3514
 3879SOL    HW223271   1.096   0.677   7.937 -1.6686  0.7264  0.2406
 3880SOL     OW23272   0.030   3.662   3.691 -0.1241 -0.2615  0.2672
 3880SOL    HW123273   0.013   3.592   3.629  1.3802 -2.5001  2.3732
 3880SOL    HW223274   0.123   3.655   3.713  0.1110 -0.3860 -0.7906
 3881SOL     OW23275   2.502   0.127   7.539  0.3116 -0.3446  0.1275
 3881SOL    HW123276   2.414   0.124   7.501 -0.1390 -0.7115  1.2092
 3881SOL    HW223277   2.541   0.204   7.499 -0.4091  0.0341  0.1433
 3882SOL     OW23278   0.128   3.069  11.498 -0.2777 -0.0049  0.1322
 3882SOL    HW123279   0.092   3.082  11.586  0.8982  0.9079  0.4875
 3882SOL    HW223280   0.048   3.059  11.448 -0.1449  1.5167 -0.3866
 3883SOL     OW23281   1.961   2.338   2.437 -0.3471 -0.0681  0.5141
 3883SOL    HW123282   1.906   2.380   2.503  0.7694  1.6543  0.3666
 3883SOL    HW223283   1.904   2.334   2.360  1.5338 -0.0178 -0.9092
 3884SOL     OW23284   3.252   1.419   3.221  0.1596  0.5069  0.3073
 3884SOL    HW123285   3.312   1.494   3.226 -1.6003  2.0710 -2.5105
 3884SOL    HW223286   3.306   1.368   3.161  0.9579 -0.2816  1.6865
 3885SOL     OW23287   4.488   1.330   2.616 -0.1129  0.1777 -0.0295
 3885SOL    HW123288   4.533   1.402   2.572  0.5449 -0.9487 -1.2029
 3885SOL    HW223289   4.410   1.367   2.657 -0.1414 -1.5587  1.4822
 3886SOL     OW23290   1.332   1.062   8.599  0.3613  0.5309  0.2564
 3886SOL    HW123291   1.350   1.066   8.693 -1.2751 -0.2603  0.6160
 3886SOL    HW223292   1.368   1.148   8.578  0.0487  0.6977  0.4031
 3887SOL     OW23293   4.152   1.156   6.619  0.4395 -0.2320  0.0363
 3887SOL    HW123294   4.238   1.117   6.604  0.8567  0.7641 -0.1671
 3887SOL    HW223295   4.171   1.249   6.635  2.4685 -0.5465 -0.5624
 3888SOL     OW23296   0.741   3.062   4.405  0.7515 -0.0786  0.1424
 3888SOL    HW123297   0.695   3.052   4.322 -0.5237  1.8316  0.5951
 3888SOL    HW223298   0.804   3.130   4.384  1.5788 -0.3293  1.7905
 3889SOL     OW23299   4.018   2.511   6.163 -0.3709  0.4251  0.2362
 3889SOL    HW123300   3.979   2.526   6.077  1.3009 -1.0298 -0.7872
 3889SOL    HW223301   3.937   2.529   6.210  0.8883 -1.0733  2.9987
 3890SOL     OW23302   0.691   3.904   3.399 -0.1511  0.7928  0.4415
 3890SOL    HW123303   0.785   3.892   3.385 -0.3315  1.2007 -1.0667
 3890SOL    HW223304   0.694   3.990   3.440 -1.5447 -0.4035  3.0637
 3891SOL     OW23305   3.179   0.935   8.958 -0.2911  0.3630  0.2232
 3891SOL    HW123306   3.131   0.977   8.887  1.9950  2.7052  0.0600
 3891SOL    HW223307   3.160   0.841   8.949 -1.4408  0.6604 -0.3262
 3892SOL     OW23308   0.592   4.530  15.865 -0.0838 -0.4332  0.0487
 3892SOL    HW123309   0.566   4.439  15.851  0.0535 -0.4583 -0.0531
 3892SOL    HW223310   0.559   4.567  15.783 -1.5572 -0.2526  0.7378
 3893SOL     OW23311   2.324   2.695   5.633  0.8546  0.5425 -0.1047
 3893SOL    HW123312   2.399   2.639   5.652 -0.3943 -1.9211 -2.5540
 3893SOL    HW223313   2.318   2.751   5.710 -0.4517 -3.1977  2.4799
 3894SOL     OW23314   2.271   2.631   1.558  0.5662 -0.7123 -0.4084
 3894SOL    HW123315   2.275   2.583   1.641  0.0399 -0.8592 -0.4725
 3894SOL    HW223316   2.229   2.711   1.590  0.8256 -0.8781  0.3624
 3895SOL     OW23317   1.687   0.857   7.573 -0.2203 -0.0952 -0.5528
 3895SOL    HW123318   1.750   0.908   7.625 -1.0189 -0.5774  0.8809
 3895SOL    HW223319   1.617   0.922   7.581 -0.1543 -0.1779  0.8336
 3896SOL     OW23320   1.837   0.587  15.631 -0.0345 -0.4771  0.1070
 3896SOL    HW123321   1.893   0.629  15.697  0.0817  1.7981 -1.4258
 3896SOL    HW223322   1.748   0.605  15.662  0.5798 -1.3789  2.3358
 3897SOL     OW23323   3.313   0.790   5.582  0.1692 -0.2937  0.3718
 3897SOL    HW123324   3.366   0.818   5.507  0.2070 -0.1436  0.4549
 3897SOL    HW223325   3.281   0.704   5.554 -1.1201  0.1291  0.5655
 3898SOL     OW23326   1.791   0.132   6.767 -0.0358  0.6188 -0.3680
 3898SOL    HW123327   1.843   0.061   6.730  0.9236 -0.0921  2.3099
 3898SOL    HW223328   1.708   0.116   6.722 -0.8256 -0.4767  1.4344
 3899SOL     OW23329   3.341   3.013   4.215 -0.2262 -0.3706  0.7765
 3899SOL    HW123330   3.380   3.052   4.293  0.0594 -0.4268  0.6637
 3899SOL    HW223331   3.356   3.081   4.150 -2.4163  1.0189  1.7228
 3900SOL     OW23332   4.331   3.022   9.804  0.0882 -0.3108  0.0898
 3900SOL    HW123333   4.274   3.082   9.754  0.3640  0.5635  0.8379
 3900SOL    HW223334   4.261   2.962   9.830 -0.6471 -0.7338 -2.8085
 3901SOL     OW23335   1.043   1.876  16.551 -0.1861  0.2297 -0.1642
 3901SOL    HW123336   1.069   1.880  16.459  0.3943 -2.0365 -0.1098
 3901SOL    HW223337   1.012   1.966  16.556 -0.5498  0.0554  0.7451
 3902SOL     OW23338   0.095   1.858   9.489  0.3006  0.1331 -0.4280
 3902SOL    HW123339   0.135   1.820   9.410  1.0865 -0.6158  0.3275
 3902SOL    HW223340   0.153   1.932   9.504  1.6300 -1.1503  0.8194
 3903SOL     OW23341   2.415   3.433  14.931 -0.2245  0.0258 -0.0375
 3903SOL    HW123342   2.504   3.419  14.898 -0.5802  2.3129 -1.9721
 3903SOL    HW223343   2.420   3.369  15.002  0.4974  1.2459  1.0108
 3904SOL     OW23344   1.438   1.355  12.987  0.5517 -0.2466 -0.0490
 3904SOL    HW123345   1.524   1.340  13.027 -0.7995 -3.1328  1.7705
 3904SOL    HW223346   1.425   1.270  12.946  1.4547 -1.2774  1.7903
 3905SOL     OW23347   2.263   3.893   6.784  0.1976 -0.9427  0.2599
 3905SOL    HW123348   2.264   3.929   6.695 -1.4327  0.4119  0.7910
 3905SOL    HW223349   2.323   3.950   6.832  1.6132 -1.5802 -0.7522
 3906SOL     OW23350   4.640   1.532  11.379  0.0019  0.1191  0.2360
 3906SOL    HW123351   4.689   1.451  11.370 -2.3415 -1.2373 -0.4418
 3906SOL    HW223352   4.590   1.532  11.298 -1.2555 -0.2885  0.9994
 3907SOL     OW23353   0.365   1.922  17.484 -0.1400  0.1551 -0.5150
 3907SOL    HW123354   0.397   1.833  17.492 -0.3586  0.1435  0.1909
 3907SOL    HW223355   0.366   1.935  17.389 -2.2952 -0.7350 -0.6481
 3908SOL     OW23356   2.433   3.322   2.115 -0.1130  0.2464  0.3092
 3908SOL    HW123357   2.427   3.228   2.131  2.7342  0.0828  0.3668
 3908SOL    HW223358   2.409   3.327   2.022  1.3416  1.4333  0.0042
 3909SOL     OW23359   0.945   1.447  10.652 -0.0967  0.9627  0.0813
 3909SOL    HW123360   0.989   1.412  10.574  0.4354 -1.3042  1.4112
 3909SOL    HW223361   1.005   1.409  10.715 -2.2717 -1.2580  0.8046
 3910SOL     OW23362   4.594   0.870   4.910  0.7171  0.6237 -0.1994
 3910SOL    HW123363   4.536   0.841   4.840  1.8922 -1.3399 -0.3669
 3910SOL    HW223364   4.532   0.932   4.949  1.5452  2.6434 -2.1786
 3911SOL     OW23365   1.370   1.845   9.882  0.4023 -0.1203 -0.1021
 3911SOL    HW123366   1.383   1.934   9.914  1.8525  0.9668 -3.7391
 3911SOL    HW223367   1.346   1.804   9.966 -0.6307 -1.9142 -1.2658
 3912SOL     OW23368   3.863   2.257   8.249 -0.4835 -0.2188  0.2470
 3912SOL    HW123369   3.774   2.284   8.270 -0.3044  0.4153  0.1828
 3912SOL    HW223370   3.863   2.176   8.301 -1.5571 -1.0323 -1.0380
 3913SOL     OW23371   1.987   0.439   4.910  0.8581 -0.5662 -0.6722
 3913SOL    HW123372   1.939   0.474   4.835 -2.5682 -1.1852  1.2292
 3913SOL    HW223373   1.957   0.350   4.895  1.6351 -0.9253 -0.1422
 3914SOL     OW23374   3.438   2.293   2.993  0.5872  0.2122 -0.1011
 3914SOL    HW123375   3.395   2.230   3.052  0.8716 -1.3186 -1.5386
 3914SOL    HW223376   3.433   2.243   2.911  0.3577 -0.2231  0.1759
 3915SOL     OW23377   2.692   3.250   6.655 -0.3655 -0.3080 -0.1703
 3915SOL    HW123378   2.676   3.216   6.743  3.1737  0.9534  0.9586
 3915SOL    HW223379   2.732   3.335   6.673  0.1483 -0.6594  0.3688
 3916SOL     OW23380   3.320   3.319   4.436 -0.4156  0.0937  0.1020
 3916SOL    HW123381   3.336   3.228   4.460 -1.2924 -0.4306 -1.3350
 3916SOL    HW223382   3.225   3.312   4.427 -0.3234 -1.0069  0.0385
 3917SOL     OW23383   1.084   4.211  12.130 -0.4198 -0.0201  0.5545
 3917SOL    HW123384   0.995   4.218  12.097 -0.2380 -0.3825 -0.0132
 3917SOL    HW223385   1.108   4.133  12.080 -1.7728  0.6685 -1.1324
 3918SOL     OW23386   3.158   0.291   6.993  0.2156 -0.1056  0.3808
 3918SOL    HW123387   3.149   0.353   6.920 -2.6950  0.0056  0.8651
 3918SOL    HW223388   3.070   0.298   7.030 -0.2238  0.4914 -0.7699
 3919SOL     OW23389   3.136   3.981   8.474 -0.1718  0.2112 -0.6246
 3919SOL    HW123390   3.204   4.023   8.421  0.6107  0.3476  0.4850
 3919SOL    HW223391   3.099   4.059   8.516 -1.5032 -2.0345  2.3765
 3920SOL     OW23392   4.048   0.552   6.338 -0.4163 -0.3848  0.1091
 3920SOL    HW123393   4.111   0.484   6.362 -1.4911 -1.3971  0.0579
 3920SOL    HW223394   4.090   0.630   6.372  3.2408 -2.6286  0.6680
 3921SOL     OW23395   1.150   4.066   8.144 -0.2856  0.0697 -0.2342
 3921SOL    HW123396   1.117   4.013   8.072 -2.0360  1.1193 -0.2114
 3921SOL    HW223397   1.169   4.001   8.212  0.7909  2.3749  1.6911
 3922SOL     OW23398   3.455   0.313   7.040  0.3934 -0.7422 -0.1147
 3922SOL    HW123399   3.361   0.324   7.059  0.1568  0.2986 -1.9740
 3922SOL    HW223400   3.463   0.396   6.994 -1.7403 -0.2094  0.4459
 3923SOL     OW23401   0.162   0.752  14.067 -0.0633 -0.4800 -0.4057
 3923SOL    HW123402   0.145   0.784  13.979 -0.7320 -0.9946 -0.4677
 3923SOL    HW223403   0.209   0.671  14.050 -1.0355 -0.9916 -0.6376
 3924SOL     OW23404   1.978   1.514   9.805 -1.2173 -0.1458  0.0033
 3924SOL    HW123405   1.971   1.425   9.839  0.4884 -0.7413 -1.2219
 3924SOL    HW223406   2.072   1.508   9.793 -1.1753 -1.2906  0.9018
 3925SOL     OW23407   3.058   2.192  15.641  0.0715  0.0955  0.8742
 3925SOL    HW123408   2.969   2.180  15.674  0.4059 -1.7136  1.1153
 3925SOL    HW223409   3.087   2.278  15.672  0.5755 -0.1875  1.1787
 3926SOL     OW23410   3.765   4.143   2.730  0.2631 -0.6153  0.1223
 3926SOL    HW123411   3.724   4.068   2.772  0.2888 -0.8619 -0.2892
 3926SOL    HW223412   3.853   4.128   2.766  0.2673  2.3609  1.3331
 3927SOL     OW23413   3.809   4.045  11.480  0.3280 -0.5582  0.2375
 3927SOL    HW123414   3.772   4.082  11.559 -0.9692  0.8912 -1.0539
 3927SOL    HW223415   3.749   3.973  11.461 -0.6947 -0.0145  1.4350
 3928SOL     OW23416   1.204   3.564   5.068  0.0145 -0.2866 -0.3196
 3928SOL    HW123417   1.156   3.583   5.148 -2.8368  3.2165 -2.8139
 3928SOL    HW223418   1.251   3.646   5.054 -0.1870 -0.3634 -1.4716
 3929SOL     OW23419   1.297   4.081  10.933 -0.1634 -0.4184 -0.1763
 3929SOL    HW123420   1.386   4.048  10.943 -0.3632 -0.4701  1.4331
 3929SOL    HW223421   1.283   4.141  11.006 -0.7576  0.5588 -1.0989
 3930SOL     OW23422   2.667   0.348   4.762 -0.6349 -0.0963  0.2159
 3930SOL    HW123423   2.606   0.292   4.810 -4.0571  1.7863 -1.8937
 3930SOL    HW223424   2.742   0.288   4.767  1.1747  1.8865 -2.7537
 3931SOL     OW23425   1.554   3.011   8.082 -0.3236  0.0600  0.2454
 3931SOL    HW123426   1.541   2.999   7.988  0.0190 -0.3275  0.2456
 3931SOL    HW223427   1.649   3.010   8.093 -0.3813  1.0048  0.8069
 3932SOL     OW23428   1.174   2.417   2.387  0.2882 -0.5225 -0.3469
 3932SOL    HW123429   1.101   2.357   2.402 -0.8826  0.1595 -3.2248
 3932SOL    HW223430   1.133   2.496   2.422 -1.4522  0.0477 -3.6901
 3933SOL     OW23431   1.580   3.722   5.379 -0.3223 -0.7887  0.4959
 3933SOL    HW123432   1.552   3.758   5.294 -0.1805 -0.9711  0.3702
 3933SOL    HW223433   1.644   3.658   5.346 -0.8442 -1.4869  0.8431
 3934SOL     OW23434   3.986   1.935  13.570 -0.2001  0.0371  0.1570
 3934SOL    HW123435   3.910   1.984  13.540 -0.3642 -1.3217 -1.6456
 3934SOL    HW223436   3.944   1.870  13.627 -0.6947 -0.1470 -0.4189
 3935SOL     OW23437   2.864   0.156   1.274  0.4911  0.2498  0.8214
 3935SOL    HW123438   2.859   0.138   1.368  1.8767 -1.5369  0.5515
 3935SOL    HW223439   2.947   0.113   1.255  1.2071  1.9623  0.0650
 3936SOL     OW23440   3.855   4.623   0.519  0.0056 -0.1123  0.3360
 3936SOL    HW123441   3.841   4.676   0.441  1.3983  1.0909  0.9104
 3936SOL    HW223442   3.923   4.674   0.563  0.1225  1.5617 -1.8220
 3937SOL     OW23443   3.157   0.969   4.675 -0.6441  0.5032  0.1792
 3937SOL    HW123444   3.146   1.063   4.688 -0.0777  0.7920 -1.3426
 3937SOL    HW223445   3.202   0.938   4.754 -1.6728 -0.0137  0.5652
 3938SOL     OW23446   4.115   2.254  14.073  0.5045  0.3954  0.1395
 3938SOL    HW123447   4.148   2.344  14.069 -2.3569  1.3747 -1.5033
 3938SOL    HW223448   4.057   2.251  14.148  0.9186 -1.0499  0.3988
 3939SOL     OW23449   1.905   0.572   0.558 -0.3358  0.9381  0.2642
 3939SOL    HW123450   1.821   0.551   0.517 -0.0690 -0.7020  0.5612
 3939SOL    HW223451   1.874   0.573   0.649 -1.7167  1.9224 -0.2016
 3940SOL     OW23452   2.075   2.196   9.744  0.0313 -0.4725  0.5983
 3940SOL    HW123453   2.137   2.228   9.810  2.8601 -2.9232 -0.8928
 3940SOL    HW223454   1.991   2.217   9.787  0.9938  0.4540  2.0409
 3941SOL     OW23455   3.875   1.458  10.148 -0.0996 -0.2017  0.4519
 3941SOL    HW123456   3.869   1.439  10.054  0.9286  1.8268 -0.0138
 3941SOL    HW223457   3.958   1.415  10.170 -0.8243 -1.0308  1.5950
 3942SOL     OW23458   3.242   0.628  11.074 -0.6823  0.3602 -0.3972
 3942SOL    HW123459   3.169   0.654  11.130 -0.1842 -1.0995  0.9299
 3942SOL    HW223460   3.240   0.533  11.087 -2.4047  0.5119  0.3385
 3943SOL     OW23461   3.827   2.064  11.815  0.5482 -0.0380 -0.2188
 3943SOL    HW123462   3.907   2.035  11.771  0.4769  0.9112 -0.9779
 3943SOL    HW223463   3.801   2.129  11.749 -1.6695 -0.2312  0.4595
 3944SOL     OW23464   0.061   1.052   4.942  0.0677 -0.0064 -0.0562
 3944SOL    HW123465   0.012   1.105   5.005 -1.5633 -1.2449 -0.3031
 3944SOL    HW223466   0.014   0.971   4.924 -0.9495  0.5576  0.0285
 3945SOL     OW23467   1.484   2.783   8.670  0.0216 -0.1366 -0.1919
 3945SOL    HW123468   1.462   2.869   8.632  0.1779 -1.1313 -2.5126
 3945SOL    HW223469   1.483   2.805   8.763 -1.9180  0.6064 -0.3846
 3946SOL     OW23470   3.006   2.568   8.188  0.7674  0.1038  0.2789
 3946SOL    HW123471   2.912   2.560   8.170  1.1478 -3.7201  0.0220
 3946SOL    HW223472   3.050   2.486   8.168 -1.0592 -0.6265 -0.7158
 3947SOL     OW23473   0.346   3.895   8.802  0.4099 -0.0578  0.5365
 3947SOL    HW123474   0.252   3.901   8.820  0.0092 -0.3039 -1.4418
 3947SOL    HW223475   0.379   3.840   8.874  0.5544  0.4434  0.8513
 3948SOL     OW23476   1.126   0.560   9.555  0.0467 -0.5493  0.1272
 3948SOL    HW123477   1.034   0.534   9.558 -1.0828  3.8059  3.0392
 3948SOL    HW223478   1.121   0.655   9.560  1.2732 -0.5497  1.4519
 3949SOL     OW23479   1.505   4.046   4.489  0.6201  0.2845  0.1123
 3949SOL    HW123480   1.485   4.138   4.470  1.3683  0.0905 -1.5933
 3949SOL    HW223481   1.590   4.053   4.531  0.6222  0.5321  0.0669
 3950SOL     OW23482   0.705   2.027   1.684  0.2806  0.3043 -0.6443
 3950SOL    HW123483   0.630   2.079   1.713  0.0023 -0.3081 -0.2678
 3950SOL    HW223484   0.784   2.075   1.707  0.7772 -1.4985  1.3851
 3951SOL     OW23485   2.425   3.416   3.791  0.2244 -0.4742  0.4191
 3951SOL    HW123486   2.360   3.411   3.860  0.2216  0.1961  0.4675
 3951SOL    HW223487   2.475   3.492   3.819 -0.7304  1.0084 -1.8623
 3952SOL     OW23488   2.931   1.384   8.891  0.4778  0.5397  0.2865
 3952SOL    HW123489   2.846   1.341   8.896  1.2315 -1.0590 -0.5734
 3952SOL    HW223490   2.938   1.419   8.979  1.6919  1.6970 -0.2722
 3953SOL     OW23491   1.551   3.030   6.425 -0.0130  0.7862 -0.0121
 3953SOL    HW123492   1.486   2.963   6.405  2.1249 -2.4899  4.0143
 3953SOL    HW223493   1.592   2.980   6.497 -2.3691 -0.0904  0.7217
 3954SOL     OW23494   3.897   3.604   8.811  0.0737 -0.0099  0.6597
 3954SOL    HW123495   3.919   3.664   8.740 -1.1499  0.0241  0.3161
 3954SOL    HW223496   3.825   3.646   8.857 -2.2219 -0.4295 -2.5417
 3955SOL     OW23497   0.663   0.178   6.750  0.7617  0.1079 -0.4982
 3955SOL    HW123498   0.629   0.114   6.687  1.1030  0.3536 -0.9227
 3955SOL    HW223499   0.607   0.141   6.819 -0.4928  0.2620 -1.4414
 3956SOL     OW23500   3.213   4.262  14.935 -0.5814 -0.1189 -0.1610
 3956SOL    HW123501   3.183   4.343  14.978  1.7021  0.1171  0.9898
 3956SOL    HW223502   3.251   4.208  15.004  1.7553 -0.1304 -1.4900
 3957SOL     OW23503   0.676   0.139  12.587 -0.3227 -0.3252 -0.4332
 3957SOL    HW123504   0.688   0.086  12.666  0.3437 -1.8052 -1.5307
 3957SOL    HW223505   0.587   0.169  12.602  0.4553  1.2710  1.0998
 3958SOL     OW23506   0.097   4.470   7.826 -0.5087  0.2382  0.1321
 3958SOL    HW123507   0.079   4.401   7.889 -1.9430 -0.1758 -0.7161
 3958SOL    HW223508   0.041   4.447   7.751 -0.7033  2.3853 -0.3787
 3959SOL     OW23509   2.403   1.477  13.855  0.0093 -0.2696 -0.2510
 3959SOL    HW123510   2.325   1.444  13.901  1.6501  0.2763  2.9009
 3959SOL    HW223511   2.449   1.536  13.914  0.1715  1.7582 -2.4426
 3960SOL     OW23512   0.634   1.660   6.944 -0.0537  0.4271 -0.3573
 3960SOL    HW123513   0.588   1.578   6.956  1.0466 -0.2892 -1.0710
 3960SOL    HW223514   0.554   1.712   6.941 -1.1067 -1.2142 -0.5824
 3961SOL     OW23515   1.034   3.104   3.387  0.0149 -0.2623 -0.2150
 3961SOL    HW123516   1.011   3.195   3.368  0.3355 -0.0424  0.4408
 3961SOL    HW223517   1.085   3.077   3.310  0.8441 -2.6975  1.2104
 3962SOL     OW23518   3.321   4.624   4.424 -0.5669 -0.2577 -0.0463
 3962SOL    HW123519   3.260   4.668   4.365 -0.2441  0.1046 -0.1114
 3962SOL    HW223520   3.258   4.572   4.473 -0.5864 -1.6843 -1.6099
 3963SOL     OW23521   4.546   2.847   6.752  0.2258 -0.3221 -0.2619
 3963SOL    HW123522   4.454   2.854   6.728 -0.2515 -0.5624  1.5567
 3963SOL    HW223523   4.543   2.793   6.831  2.2904  0.4062  0.3200
 3964SOL     OW23524   4.314   0.232  12.817 -0.9260  0.2373  0.0332
 3964SOL    HW123525   4.371   0.155  12.823 -2.8166 -1.0984  1.1309
 3964SOL    HW223526   4.348   0.287  12.888 -0.9784  1.1085 -0.6280
 3965SOL     OW23527   3.430   2.503  11.373 -0.1365  0.0427  0.0385
 3965SOL    HW123528   3.427   2.586  11.421  1.4392 -1.1495  2.2126
 3965SOL    HW223529   3.360   2.452  11.413  0.9259 -0.0614  1.7784
 3966SOL     OW23530   4.596   0.117  15.510 -1.2355  0.3769  0.0915
 3966SOL    HW123531   4.615   0.107  15.603  2.1847  1.3394 -0.5035
 3966SOL    HW223532   4.660   0.184  15.487  1.0131 -0.8934  2.6411
 3967SOL     OW23533   1.024   1.104   7.017 -0.0101  0.6450 -0.7938
 3967SOL    HW123534   0.965   1.114   7.091  0.9711  3.3633 -0.3952
 3967SOL    HW223535   1.059   1.192   7.005 -0.7499  1.1900  1.2416
 3968SOL     OW23536   1.882   2.651   3.374 -0.4153  0.1131 -0.6391
 3968SOL    HW123537   1.858   2.560   3.393 -0.8752  0.7877  1.9767
 3968SOL    HW223538   1.968   2.655   3.417 -0.2085  0.1047 -1.0456
 3969SOL     OW23539   3.576   2.165   7.554 -0.5793  0.0941  0.1527
 3969SOL    HW123540   3.574   2.115   7.636 -5.0497 -0.0652 -0.0488
 3969SOL    HW223541   3.671   2.177   7.545 -0.4047 -1.9620 -0.6617
 3970SOL     OW23542   2.776   4.073   4.381 -0.7958 -0.5326 -0.4350
 3970SOL    HW123543   2.775   4.115   4.294  0.4112  2.3697  0.9256
 3970SOL    HW223544   2.762   3.980   4.369  0.9343 -0.6816 -1.3555
 3971SOL     OW23545   0.801   0.662   2.484 -0.2929  0.1365 -0.3402
 3971SOL    HW123546   0.757   0.610   2.416  1.6534  0.3600 -1.7698
 3971SOL    HW223547   0.894   0.646   2.468 -0.2376  1.3510 -1.2700
 3972SOL     OW23548   0.596   0.644   4.692  0.0748  0.0957  0.3803
 3972SOL    HW123549   0.688   0.668   4.702  0.5056 -1.9963  1.2939
 3972SOL    HW223550   0.555   0.701   4.757  1.1840  1.4116 -0.0619
 3973SOL     OW23551   2.754   1.747  13.249  0.2457  0.0705  0.9346
 3973SOL    HW123552   2.824   1.693  13.284  0.7225  0.0829 -0.0154
 3973SOL    HW223553   2.756   1.732  13.155 -1.3043  2.0442  0.5772
 3974SOL     OW23554   0.217   4.280  13.698  0.2728  0.2650 -0.0805
 3974SOL    HW123555   0.155   4.215  13.730 -0.4334  1.4356  0.9432
 3974SOL    HW223556   0.279   4.222  13.653 -0.4468  0.7741 -1.7557
 3975SOL     OW23557   0.980   4.360   7.486  0.2972  0.0182 -0.0511
 3975SOL    HW123558   0.998   4.289   7.548  0.4441  0.2798  0.2026
 3975SOL    HW223559   1.002   4.440   7.533  1.7134 -0.4384  0.0572
 3976SOL     OW23560   4.583   3.111  12.111 -0.0332  0.5049  0.4337
 3976SOL    HW123561   4.536   3.194  12.117 -0.2810  0.2448  2.0867
 3976SOL    HW223562   4.532   3.065  12.045 -0.7631  1.5721  0.2580
 3977SOL     OW23563   2.890   2.064   2.282 -0.5292 -0.2695 -0.0545
 3977SOL    HW123564   2.852   2.031   2.200  0.1419 -2.8927  0.6641
 3977SOL    HW223565   2.849   2.150   2.286  1.3948  0.6418  0.1473
 3978SOL     OW23566   0.875   2.711   2.130  0.0410 -0.3928 -0.3556
 3978SOL    HW123567   0.964   2.739   2.150  0.1667 -2.6697  2.3546
 3978SOL    HW223568   0.894   2.617   2.125  1.3247 -0.1248 -0.5329
 3979SOL     OW23569   4.131   4.694  15.546 -0.1244  0.1453  0.1593
 3979SOL    HW123570   4.068   0.025  15.562 -0.8424 -0.5916  0.5934
 3979SOL    HW223571   4.216   4.735  15.529  0.8964 -2.5322 -1.2518
 3980SOL     OW23572   0.602   2.813   0.396  0.3502 -0.0472  0.2191
 3980SOL    HW123573   0.666   2.795   0.465  0.9542  1.1779 -0.0297
 3980SOL    HW223574   0.652   2.779   0.321 -0.7109 -0.2978 -0.3819
 3981SOL     OW23575   0.311   1.348  11.477 -0.1382  0.2016 -0.8944
 3981SOL    HW123576   0.308   1.439  11.505  1.5102 -0.3760  1.1719
 3981SOL    HW223577   0.254   1.309  11.543  1.6814 -1.2486 -0.1978
 3982SOL     OW23578   4.200   3.672   8.511  0.2348 -0.0933 -0.2234
 3982SOL    HW123579   4.151   3.593   8.535  1.5004 -1.4816 -2.1602
 3982SOL    HW223580   4.156   3.734   8.568 -3.5605 -3.0562  0.0617
 3983SOL     OW23581   0.016   1.164   2.767 -0.0619 -0.0709  0.3148
 3983SOL    HW123582   0.074   1.172   2.842  1.4911 -0.6983 -0.8137
 3983SOL    HW223583   0.056   1.094   2.715  4.1405  1.3423  1.6453
 3984SOL     OW23584   4.739   0.628   2.120  0.3455  0.6681 -0.4958
 3984SOL    HW123585   4.721   0.614   2.213 -1.5017 -2.3533 -1.3143
 3984SOL    HW223586   4.716   0.543   2.083  1.1529  0.9910 -1.7633
 3985SOL     OW23587   0.124   2.679   0.671 -0.0436  0.4068 -0.4515
 3985SOL    HW123588   0.103   2.645   0.759 -1.5426  0.8485 -0.6317
 3985SOL    HW223589   0.102   2.608   0.610 -0.7758  0.3411 -0.1181
 3986SOL     OW23590   0.956   2.888   5.655  0.1328 -0.3518 -0.3598
 3986SOL    HW123591   1.012   2.956   5.619  0.1468 -0.3496 -0.3339
 3986SOL    HW223592   0.959   2.822   5.585 -2.4257  0.1871 -0.9583
 3987SOL     OW23593   1.351   0.993   7.297 -0.8936 -0.6636 -0.1118
 3987SOL    HW123594   1.347   0.948   7.212 -1.0938 -1.6686  0.4294
 3987SOL    HW223595   1.354   0.924   7.363  0.5166  1.4609  2.0070
 3988SOL     OW23596   3.789   0.404  10.159 -0.1870 -0.7018  0.1431
 3988SOL    HW123597   3.741   0.466  10.103  4.5286  1.8947 -1.0781
 3988SOL    HW223598   3.814   0.333  10.100  0.7915 -1.0800  1.0139
 3989SOL     OW23599   0.654   3.504  15.067  0.1219  0.0504 -0.3963
 3989SOL    HW123600   0.706   3.575  15.103 -0.0306 -0.0243 -0.0331
 3989SOL    HW223601   0.703   3.467  14.993  0.3877  1.6272 -0.9992
 3990SOL     OW23602   0.549   1.310   5.449  0.1985 -0.0126 -0.1444
 3990SOL    HW123603   0.562   1.286   5.541 -2.5379  1.8750  0.7739
 3990SOL    HW223604   0.629   1.267   5.421  2.2617  2.6691  1.7222
 3991SOL     OW23605   1.063   1.483   0.631  0.1965  0.2969 -0.4785
 3991SOL    HW123606   1.157   1.486   0.648  0.1600  0.6292 -0.3335
 3991SOL    HW223607   1.022   1.442   0.707  1.3128  1.5385  0.7894
 3992SOL     OW23608   0.918   2.125   9.696  0.0776  0.1796  0.5232
 3992SOL    HW123609   1.008   2.118   9.727  0.7732 -0.3389 -1.5845
 3992SOL    HW223610   0.891   2.212   9.725  1.6450  0.3942  1.2777
 3993SOL     OW23611   2.348   0.533   6.237  0.0226  0.7110 -0.7859
 3993SOL    HW123612   2.289   0.506   6.307  1.6642  1.2258  0.8064
 3993SOL    HW223613   2.301   0.608   6.201  0.0851  1.5157  0.7700
 3994SOL     OW23614   1.745   2.902  16.189 -0.3292  0.2547 -0.4739
 3994SOL    HW123615   1.650   2.887  16.190 -0.4703  1.4037  1.5654
 3994SOL    HW223616   1.782   2.816  16.168  0.6409  0.5156  0.1643
 3995SOL     OW23617   1.579   3.224   7.710  0.4497  0.6689  0.5706
 3995SOL    HW123618   1.552   3.316   7.712  0.8317  0.7783  0.7867
 3995SOL    HW223619   1.637   3.213   7.785  0.2887  0.0834  0.6058
 3996SOL     OW23620   2.676   2.627   8.538 -0.7900  0.1773  0.2811
 3996SOL    HW123621   2.759   2.674   8.529 -0.8113  0.1017 -0.2759
 3996SOL    HW223622   2.624   2.664   8.466  2.8087  3.3179 -0.7084
 3997SOL     OW23623   4.200   1.951   5.635  0.3762 -0.7657  0.1129
 3997SOL    HW123624   4.188   2.044   5.656 -3.1411 -0.8979 -1.3118
 3997SOL    HW223625   4.247   1.961   5.552  0.1173  1.3158  0.2196
 3998SOL     OW23626   4.505   1.814   7.992  0.0224  0.0854  0.0211
 3998SOL    HW123627   4.409   1.810   7.999 -0.0838 -0.8333 -1.9802
 3998SOL    HW223628   4.512   1.877   7.920 -2.5131  1.4076  0.9443
 3999SOL     OW23629   2.347   0.349   4.745  0.4689 -0.1358 -0.3831
 3999SOL    HW123630   2.404   0.348   4.822  0.4814  2.3288 -0.3640
 3999SOL    HW223631   2.282   0.278   4.750 -1.9925  2.1825  0.5747
 4000SOL     OW23632   4.581   4.422  11.714  0.1671  0.9373  0.6640
 4000SOL    HW123633   4.519   4.434  11.785  0.6992 -1.6312  1.5337
 4000SOL    HW223634   4.529   4.452  11.640 -0.6450 -0.5890  0.6261
 4001SOL     OW23635   1.770   1.483   8.548 -0.0883  0.0591 -0.1697
 4001SOL    HW123636   1.757   1.474   8.643  1.6048  1.9364  0.2364
 4001SOL    HW223637   1.787   1.393   8.523 -0.1835  0.6163 -2.2687
 4002SOL     OW23638   0.559   1.601  17.298 -0.1258 -0.0006  0.2456
 4002SOL    HW123639   0.481   1.583  17.245  0.0730  0.0876 -0.0788
 4002SOL    HW223640   0.632   1.542  17.278 -0.6459 -0.1504 -1.1805
 4003SOL     OW23641   4.572   1.469  10.804 -0.1709  0.1038 -0.0664
 4003SOL    HW123642   4.546   1.426  10.722 -0.3705 -1.5842  0.8843
 4003SOL    HW223643   4.585   1.404  10.873  0.4357  0.8092  0.4803
 4004SOL     OW23644   1.629   1.988   7.710 -0.3034 -0.0463 -0.0777
 4004SOL    HW123645   1.632   1.918   7.775 -0.6980 -0.2320 -0.2591
 4004SOL    HW223646   1.710   2.037   7.720  0.0137 -0.9207  1.6610
 4005SOL     OW23647   1.292   0.271  14.752 -0.3623 -0.6058 -0.5065
 4005SOL    HW123648   1.325   0.236  14.669  1.1275  1.8835 -0.9800
 4005SOL    HW223649   1.237   0.341  14.718 -0.9165  0.7947  3.2864
 4006SOL     OW23650   0.664   1.359  13.373  0.6946 -0.4638 -0.2583
 4006SOL    HW123651   0.707   1.416  13.436  3.2163 -0.6715 -1.7688
 4006SOL    HW223652   0.710   1.278  13.397  1.9112  0.7148  1.3466
 4007SOL     OW23653   4.148   4.227  11.707  0.2054  0.2187 -0.6538
 4007SOL    HW123654   4.108   4.227  11.620 -0.3917 -2.3500 -0.3819
 4007SOL    HW223655   4.200   4.147  11.700 -1.3640 -0.9034  0.6796
 4008SOL     OW23656   1.156   3.962  17.565 -0.1303 -0.7446 -0.2135
 4008SOL    HW123657   1.216   3.973  17.639 -0.6904 -0.8175  0.2502
 4008SOL    HW223658   1.098   4.035  17.588 -1.1799 -1.7427  0.2841
 4009SOL     OW23659   2.684   4.443   5.653 -0.0143  0.8757  0.4130
 4009SOL    HW123660   2.669   4.358   5.613 -1.5702  1.0740  0.5959
 4009SOL    HW223661   2.707   4.496   5.577 -0.1865 -0.7780 -0.7915
 4010SOL     OW23662   1.087   1.723   1.846  0.8559  0.0289 -0.2395
 4010SOL    HW123663   1.008   1.745   1.895  1.2027  0.7330  0.0001
 4010SOL    HW223664   1.138   1.655   1.890 -0.5082 -1.8140 -1.5060
 4011SOL     OW23665   3.332   1.662   6.726 -0.8518  0.5462  0.0187
 4011SOL    HW123666   3.319   1.589   6.787  0.2463 -0.1595 -0.6047
 4011SOL    HW223667   3.241   1.681   6.704 -0.2060  0.0085 -3.0444
 4012SOL     OW23668   2.910   0.558  13.606 -0.2584  0.1563 -0.0948
 4012SOL    HW123669   3.002   0.533  13.597 -0.3389 -0.5459  1.0869
 4012SOL    HW223670   2.902   0.614  13.529  0.7638  0.7288  0.2053
 4013SOL     OW23671   3.122   2.367   4.066 -0.3995 -0.3130 -0.3204
 4013SOL    HW123672   3.050   2.314   4.032 -1.5660  0.5014  0.8315
 4013SOL    HW223673   3.114   2.449   4.018 -0.6239 -1.0215 -1.4975
 4014SOL     OW23674   1.518   4.631   6.406 -0.3107  0.1275 -0.2240
 4014SOL    HW123675   1.481   4.542   6.406 -1.1285  0.4665  0.3753
 4014SOL    HW223676   1.436   4.681   6.411  0.0828  0.6509  1.0094
 4015SOL     OW23677   3.136   0.006   4.281  0.6512  0.0178  0.0528
 4015SOL    HW123678   3.112   0.052   4.361 -2.0972 -0.4815 -0.5104
 4015SOL    HW223679   3.106   0.065   4.212  1.9091 -1.5593 -1.8602
 4016SOL     OW23680   3.177   1.859   7.346  0.2022  0.4696  0.0020
 4016SOL    HW123681   3.093   1.896   7.375 -1.2218 -2.2616 -0.6133
 4016SOL    HW223682   3.216   1.810   7.418  0.1767  1.2562  0.5471
 4017SOL     OW23683   1.800   0.109  14.790  0.5691  0.2701  0.7799
 4017SOL    HW123684   1.748   0.144  14.717 -1.2061 -0.6435  1.6155
 4017SOL    HW223685   1.741   0.131  14.861 -0.1778  0.6495  0.0431
 4018SOL     OW23686   0.392   2.227   1.538 -0.2023 -0.3930  0.0630
 4018SOL    HW123687   0.328   2.172   1.493 -1.4792  2.3422 -1.4794
 4018SOL    HW223688   0.336   2.298   1.569 -0.3385  0.1867 -1.4971
 4019SOL     OW23689   0.758   1.993   8.389 -0.5391  0.1815  0.2800
 4019SOL    HW123690   0.671   2.010   8.354  0.0738 -1.2341 -1.9614
 4019SOL    HW223691   0.744   1.978   8.482 -0.3125 -0.0158  0.2825
 4020SOL     OW23692   3.986   0.726   6.624 -0.1435  0.1005  0.0296
 4020SOL    HW123693   4.055   0.775   6.580  0.2961 -3.1703 -2.9761
 4020SOL    HW223694   3.915   0.727   6.559  0.4917 -0.0107 -0.6758
 4021SOL     OW23695   3.245   4.541  13.526  0.2160  0.0060 -0.6406
 4021SOL    HW123696   3.168   4.502  13.484  0.2408 -1.0168  0.2688
 4021SOL    HW223697   3.314   4.508  13.468  1.6117 -0.4792  1.2881
 4022SOL     OW23698   3.179   0.249   3.582 -0.2236  0.2721 -0.3621
 4022SOL    HW123699   3.141   0.295   3.657  2.0019  4.8032 -2.0146
 4022SOL    HW223700   3.242   0.311   3.544  1.4946 -1.9802 -1.1694
 4023SOL     OW23701   1.668   2.224   5.868 -0.3342 -0.3539  0.5569
 4023SOL    HW123702   1.589   2.232   5.814 -1.3959 -3.9182  1.5204
 4023SOL    HW223703   1.643   2.144   5.914 -1.1398 -0.6122 -0.3153
 4024SOL     OW23704   0.082   2.139   5.753  0.0357  0.0273 -0.6342
 4024SOL    HW123705   0.091   2.165   5.844 -1.3539 -2.5229  0.2211
 4024SOL    HW223706   4.727   2.129   5.742 -0.1842  1.6268 -0.1200
 4025SOL     OW23707   4.711   1.345   3.956  0.2768  1.0970  0.1059
 4025SOL    HW123708   0.060   1.350   3.991  0.7047 -1.9872 -0.5779
 4025SOL    HW223709   4.706   1.270   3.897 -0.3140  0.3005  1.1771
 4026SOL     OW23710   2.089   2.445  15.654 -0.5253 -0.0416  0.2292
 4026SOL    HW123711   2.150   2.424  15.583  1.8412  1.2031  1.8768
 4026SOL    HW223712   2.134   2.506  15.713 -0.0029 -2.1195  2.0083
 4027SOL     OW23713   3.373   2.179   4.212 -0.3799  0.3742  0.2661
 4027SOL    HW123714   3.371   2.108   4.147 -0.9334  2.1129 -1.6113
 4027SOL    HW223715   3.371   2.255   4.154  0.2615 -0.8389 -1.3369
 4028SOL     OW23716   0.851   0.799  15.759 -0.4110  0.1393 -0.0373
 4028SOL    HW123717   0.838   0.710  15.728  0.0621  0.2053 -0.4364
 4028SOL    HW223718   0.775   0.835  15.713  1.4847  1.6274 -2.0729
 4029SOL     OW23719   3.913   4.721   5.127  0.5215  0.1946  0.0522
 4029SOL    HW123720   3.898   0.052   5.189 -1.0350 -0.1799  0.0925
 4029SOL    HW223721   3.950   4.655   5.185 -1.2032 -0.4239  0.4295
 4030SOL     OW23722   0.604   0.102  17.591  0.2934  0.4796  0.5336
 4030SOL    HW123723   0.553   0.184  17.592 -2.4440 -1.2125 -0.4425
 4030SOL    HW223724   0.540   0.038  17.561  1.5527  1.0103 -3.1847
 4031SOL     OW23725   4.293   1.875   4.282 -0.0584 -0.0263 -0.3841
 4031SOL    HW123726   4.210   1.875   4.329 -0.8378  1.0989 -1.7604
 4031SOL    HW223727   4.340   1.957   4.298  0.1426  0.2036 -2.1633
 4032SOL     OW23728   4.310   4.256   2.420  0.1831 -0.2656 -0.1266
 4032SOL    HW123729   4.384   4.232   2.476 -1.0936  2.4387  2.7296
 4032SOL    HW223730   4.245   4.212   2.476  0.8734 -2.4916 -1.0872
 4033SOL     OW23731   0.683   3.883   7.889  0.1243 -0.5331 -0.1346
 4033SOL    HW123732   0.726   3.818   7.832 -0.7627  1.2733 -2.8919
 4033SOL    HW223733   0.638   3.836   7.959 -0.7668  0.7528  0.1571
 4034SOL     OW23734   3.005   3.196   7.388 -0.0034  0.2462  0.0124
 4034SOL    HW123735   3.028   3.168   7.477 -0.9193  0.0502  0.1908
 4034SOL    HW223736   2.991   3.108   7.353  2.0521 -0.2398  0.4398
 4035SOL     OW23737   4.276   0.206   3.154  0.4674  0.3420  0.1209
 4035SOL    HW123738   4.237   0.293   3.152 -2.0708 -0.8284 -1.7225
 4035SOL    HW223739   4.265   0.171   3.243  0.3708  1.1912  0.4418
 4036SOL     OW23740   0.067   0.714   5.926 -0.0351  0.0838  0.3269
 4036SOL    HW123741   0.104   0.776   5.862 -0.5567  0.6766  0.5993
 4036SOL    HW223742   0.016   0.773   5.981  0.4500  0.7075  0.1110
 4037SOL     OW23743   3.775   2.791   6.500  0.3275 -0.0906  0.1896
 4037SOL    HW123744   3.796   2.773   6.591  0.8118  2.0902  0.5056
 4037SOL    HW223745   3.728   2.874   6.510 -0.8381 -0.7167 -0.0699
 4038SOL     OW23746   0.278   1.364   5.445  0.0472  0.1310  0.7229
 4038SOL    HW123747   0.234   1.376   5.361  1.9036  1.0348 -0.1361
 4038SOL    HW223748   0.366   1.344   5.411 -0.4210 -1.1054  0.2565
 4039SOL     OW23749   3.502   4.577  16.243 -0.0498 -0.4372 -0.0100
 4039SOL    HW123750   3.502   4.673  16.249  0.1510 -0.5229  1.3676
 4039SOL    HW223751   3.477   4.564  16.151  2.4698  0.6201 -0.8388
 4040SOL     OW23752   3.389   0.722  17.602 -0.3155  0.6835 -0.1500
 4040SOL    HW123753   3.446   0.797  17.591  0.2556  0.2261 -0.3101
 4040SOL    HW223754   3.301   0.757  17.588 -0.7681  0.7630  2.8033
 4041SOL     OW23755   1.792   2.499   6.254  0.0525  0.4214 -0.2180
 4041SOL    HW123756   1.752   2.586   6.245 -0.4463 -0.0812 -2.9486
 4041SOL    HW223757   1.883   2.528   6.260  0.1192  0.0951  0.3550
 4042SOL     OW23758   1.435   1.553   5.120  0.2054  0.1432 -0.4542
 4042SOL    HW123759   1.380   1.602   5.182 -1.1507 -0.7258 -0.9710
 4042SOL    HW223760   1.523   1.568   5.155  0.3878 -0.1216 -0.8067
 4043SOL     OW23761   0.676   3.598   7.229 -0.3105  0.0979  0.1031
 4043SOL    HW123762   0.726   3.658   7.284 -1.0500  1.7633 -1.0151
 4043SOL    HW223763   0.744   3.536   7.205 -0.9128 -1.6926  3.0369
 4044SOL     OW23764   0.747   1.395   3.230  0.1683  0.2430 -0.1671
 4044SOL    HW123765   0.781   1.475   3.190  2.5764  0.2755  1.9842
 4044SOL    HW223766   0.730   1.331   3.162  1.7621  0.5390 -0.8462
 4045SOL     OW23767   0.618   2.098   5.577  0.2879 -0.1855  0.8621
 4045SOL    HW123768   0.526   2.119   5.566  0.3891 -0.2918 -0.1945
 4045SOL    HW223769   0.655   2.151   5.507  1.5112  0.0581  1.6932
 4046SOL     OW23770   3.830   2.421  16.424 -0.7897 -0.4311 -0.8320
 4046SOL    HW123771   3.919   2.402  16.395 -0.3670  0.9993 -0.4535
 4046SOL    HW223772   3.830   2.393  16.515  2.0928  0.7988 -0.4875
 4047SOL     OW23773   3.432   3.508   7.306 -0.3892  0.0819 -0.1660
 4047SOL    HW123774   3.349   3.462   7.316 -0.8452  0.9462  0.0564
 4047SOL    HW223775   3.467   3.458   7.232 -1.3302 -1.8270  0.6825
 4048SOL     OW23776   0.341   1.980  13.834 -0.2425  0.4896  0.5680
 4048SOL    HW123777   0.340   2.044  13.763  2.2371 -1.8427 -1.5594
 4048SOL    HW223778   0.432   1.990  13.863  0.4077 -2.4060 -0.4434
 4049SOL     OW23779   1.808   1.694   9.696  0.1609  0.3055 -0.3164
 4049SOL    HW123780   1.814   1.771   9.753  1.6552  1.5529 -2.1514
 4049SOL    HW223781   1.865   1.625   9.729 -0.1990  1.0925  1.9151
 4050SOL     OW23782   0.983   2.697  15.525  0.3310 -0.1077  0.0020
 4050SOL    HW123783   0.984   2.708  15.620  0.4107  0.4444 -0.0623
 4050SOL    HW223784   0.947   2.608  15.525  0.3959 -0.1346  0.3977
 4051SOL     OW23785   4.606   3.898   1.300 -0.2711 -0.6211  0.8538
 4051SOL    HW123786   4.602   3.920   1.206 -0.9371  1.0686  1.2683
 4051SOL    HW223787   4.514   3.889   1.323 -0.6395  0.0709 -0.2934
 4052SOL     OW23788   1.000   1.566   6.809  0.1258  0.0811  0.0152
 4052SOL    HW123789   0.971   1.553   6.719  0.2527 -1.2689  0.1802
 4052SOL    HW223790   0.938   1.503   6.845 -0.9093  1.0387 -0.0661
 4053SOL     OW23791   3.678   2.831   3.325  0.1549 -0.3009  0.8811
 4053SOL    HW123792   3.717   2.758   3.373 -1.9918 -0.0332  3.0076
 4053SOL    HW223793   3.674   2.899   3.392 -0.4610  1.2374 -0.7303
 4054SOL     OW23794   0.144   1.805   7.467  0.2379 -0.2650  0.5573
 4054SOL    HW123795   0.204   1.811   7.542  0.6108  0.4012  0.2027
 4054SOL    HW223796   0.135   1.710   7.470  0.7586 -0.3203  0.3772
 4055SOL     OW23797   1.477   2.829   5.545 -0.3649  0.3538 -0.0266
 4055SOL    HW123798   1.451   2.880   5.468 -0.6297 -1.1819 -0.9418
 4055SOL    HW223799   1.558   2.792   5.509 -1.0815 -1.3959  0.1708
 4056SOL     OW23800   0.205   3.898   4.944 -0.2496  0.0212  0.1587
 4056SOL    HW123801   0.164   3.922   5.027  0.3744  3.2014 -0.4369
 4056SOL    HW223802   0.165   3.953   4.877 -2.4226 -0.1782  1.2776
 4057SOL     OW23803   2.614   0.916   5.177 -0.4327 -0.3081 -0.0168
 4057SOL    HW123804   2.538   0.881   5.130 -1.0857  2.1174 -0.7836
 4057SOL    HW223805   2.568   0.955   5.252  1.2500  1.2260  0.2268
 4058SOL     OW23806   3.489   0.481  10.350 -0.0316 -0.5851  0.0471
 4058SOL    HW123807   3.552   0.439  10.408  0.5350 -0.1217 -0.2389
 4058SOL    HW223808   3.514   0.573  10.357  1.4478 -1.0690  1.0316
 4059SOL     OW23809   3.630   1.761   1.965 -0.1598  0.2160  0.1573
 4059SOL    HW123810   3.646   1.783   2.056  0.8276 -1.4078  0.3825
 4059SOL    HW223811   3.568   1.830   1.940  0.6898  0.9954  0.2256
 4060SOL     OW23812   0.056   0.740   2.697  0.4513  0.1135 -0.4333
 4060SOL    HW123813   4.717   0.771   2.742  0.5438  0.4574 -0.5145
 4060SOL    HW223814   0.019   0.656   2.670  2.2846 -0.7800 -0.1076
 4061SOL     OW23815   2.604   1.234   6.503  0.3147  0.6742 -0.2377
 4061SOL    HW123816   2.518   1.201   6.528  0.6666 -1.2521 -1.5910
 4061SOL    HW223817   2.666   1.162   6.492  0.4108  0.7145  0.0350
 4062SOL     OW23818   0.040   2.715   2.891 -0.2080  0.0725 -0.6447
 4062SOL    HW123819   0.018   2.722   2.984  0.7424 -0.0575 -0.4071
 4062SOL    HW223820   0.135   2.705   2.890 -0.4123 -1.6353 -1.6566
 4063SOL     OW23821   2.000   0.969  11.867  0.4461 -0.2611  0.0043
 4063SOL    HW123822   2.052   1.045  11.890  0.8497 -1.2911  2.5340
 4063SOL    HW223823   2.070   0.904  11.870 -0.8688 -1.6353  1.4306
 4064SOL     OW23824   0.905   0.494  15.769 -0.1907 -0.4576  0.4314
 4064SOL    HW123825   0.982   0.515  15.822 -0.1851  2.8458 -0.8500
 4064SOL    HW223826   0.923   0.530  15.682  1.1374  0.7853  1.2056
 4065SOL     OW23827   3.776   1.431  16.479 -0.3854  1.1540  0.3283
 4065SOL    HW123828   3.854   1.459  16.526 -1.4176  0.7864  2.2742
 4065SOL    HW223829   3.802   1.453  16.389 -1.1882  0.3811 -0.0982
 4066SOL     OW23830   0.264   1.577   0.761 -0.1398 -0.3144  0.1172
 4066SOL    HW123831   0.291   1.486   0.776 -2.1821 -1.2700 -2.0593
 4066SOL    HW223832   0.280   1.617   0.847 -0.5002  0.6033 -0.2514
 4067SOL     OW23833   4.732   1.646   7.942  0.4796 -0.5566  0.5392
 4067SOL    HW123834   0.055   1.664   8.011  1.0493  1.0014 -0.4100
 4067SOL    HW223835   4.658   1.701   7.966  1.6305  0.0953  2.5269
 4068SOL     OW23836   3.696   4.540   7.636 -0.4486  0.8057  0.1433
 4068SOL    HW123837   3.770   4.485   7.609 -0.5798  0.1565  1.1021
 4068SOL    HW223838   3.630   4.514   7.571  0.3637 -3.9676  1.2413
 4069SOL     OW23839   2.110   1.145   3.121 -0.2838  0.0778 -0.3113
 4069SOL    HW123840   2.201   1.153   3.147 -0.4188 -0.4958  0.3783
 4069SOL    HW223841   2.073   1.223   3.163 -2.2859 -2.2597  2.2785
 4070SOL     OW23842   2.272   0.219   3.034  0.3657 -0.2994  0.5032
 4070SOL    HW123843   2.226   0.207   3.117 -0.8476 -2.8978 -0.5316
 4070SOL    HW223844   2.203   0.269   2.990 -1.0898 -2.3981  0.3934
 4071SOL     OW23845   1.689   1.150   3.592 -0.0830  0.5577  0.2983
 4071SOL    HW123846   1.772   1.120   3.556 -1.1644 -2.6289  0.4024
 4071SOL    HW223847   1.721   1.205   3.663  2.1855 -0.2609 -0.1066
 4072SOL     OW23848   0.233   2.980  17.521  0.7618  0.2770  0.0043
 4072SOL    HW123849   0.220   3.052  17.583  0.2503  1.1407 -1.1222
 4072SOL    HW223850   0.286   2.927  17.581 -0.4650 -0.1616  0.7084
 4073SOL     OW23851   0.325   3.167  10.885 -0.1210  0.6822 -0.1692
 4073SOL    HW123852   0.270   3.112  10.940  2.1095 -1.4498 -0.0500
 4073SOL    HW223853   0.267   3.242  10.875 -0.1894  0.2729 -2.8040
 4074SOL     OW23854   2.236   0.495  17.297 -0.1466  0.0481  0.3221
 4074SOL    HW123855   2.180   0.555  17.249  1.1176  0.8901 -0.1028
 4074SOL    HW223856   2.250   0.422  17.237 -0.1711 -0.7286  1.2555
 4075SOL     OW23857   1.897   0.784  13.929  0.4552 -0.2001  0.0766
 4075SOL    HW123858   1.835   0.771  13.857  0.3944  2.6918 -0.3924
 4075SOL    HW223859   1.943   0.858  13.888 -0.3155 -0.8503 -1.9321
 4076SOL     OW23860   2.774   1.223   8.605 -0.5911 -0.5446  0.3323
 4076SOL    HW123861   2.709   1.268   8.660  0.7750 -1.3450  2.6048
 4076SOL    HW223862   2.784   1.140   8.651 -0.6050 -0.7492 -0.0407
 4077SOL     OW23863   1.788   1.996   5.166  0.1374 -0.2237  0.5377
 4077SOL    HW123864   1.843   2.061   5.212  0.7809 -0.5005  0.1530
 4077SOL    HW223865   1.700   2.034   5.173  0.6798  1.0997  0.3473
 4078SOL     OW23866   3.710   3.387   9.302 -0.6037  0.1475 -0.5806
 4078SOL    HW123867   3.678   3.453   9.241  2.8016  3.2774  1.0330
 4078SOL    HW223868   3.626   3.344   9.317  0.0822 -0.8605  0.3329
 4079SOL     OW23869   4.710   1.753  17.434 -0.3410 -0.1157 -0.1900
 4079SOL    HW123870   4.621   1.761  17.402 -0.6853 -1.0972  0.4917
 4079SOL    HW223871   0.024   1.794  17.366  1.3052 -1.3573  0.3532
 4080SOL     OW23872   2.911   2.058  15.199 -0.1442  0.3454  0.4792
 4080SOL    HW123873   2.860   2.102  15.131  0.7339 -2.3136 -1.9069
 4080SOL    HW223874   2.905   1.968  15.167 -0.5981 -0.0908  1.7885
 4081SOL     OW23875   0.778   1.613   6.194  0.0254  0.1480  0.3141
 4081SOL    HW123876   0.812   1.677   6.257 -0.4263 -1.2593  1.9950
 4081SOL    HW223877   0.683   1.619   6.208 -0.1822 -0.0478 -1.0384
 4082SOL     OW23878   3.957   3.616  17.406  0.1605  0.3834  0.3003
 4082SOL    HW123879   3.977   3.680  17.338  1.2969 -0.5962 -0.2923
 4082SOL    HW223880   4.019   3.629  17.477  0.8815 -2.1169  0.1302
 4083SOL     OW23881   4.395   1.707   4.091  0.9653 -0.4591 -0.0205
 4083SOL    HW123882   4.394   1.763   4.013  0.2826 -1.0870 -0.4582
 4083SOL    HW223883   4.322   1.739   4.143  1.8190 -0.3188  1.0987
 4084SOL     OW23884   4.632   0.363  14.418  0.0545  0.3514 -0.2471
 4084SOL    HW123885   4.604   0.373  14.328 -0.5356 -0.2818 -0.1384
 4084SOL    HW223886   4.563   0.310  14.459 -1.6951  0.4947 -3.0426
 4085SOL     OW23887   0.473   4.657   8.748 -0.2814  0.1004 -0.0612
 4085SOL    HW123888   0.429   4.573   8.739  0.7532 -0.5211  0.5590
 4085SOL    HW223889   0.524   4.647   8.829 -0.6596  0.4367  0.2210
 4086SOL     OW23890   2.565   1.015  12.154 -0.2343  0.3916 -0.0023
 4086SOL    HW123891   2.525   0.982  12.074 -0.6288  0.5823  0.1177
 4086SOL    HW223892   2.505   1.087  12.173 -2.0417 -1.7028  2.1954
 4087SOL     OW23893   2.772   4.562   8.048 -0.4847 -0.9324 -0.1433
 4087SOL    HW123894   2.721   4.589   7.972  1.3148  1.3141 -0.5501
 4087SOL    HW223895   2.806   4.645   8.082 -1.4045 -0.3980 -0.5396
 4088SOL     OW23896   2.080   4.372   4.910  0.1169  0.0999  0.2931
 4088SOL    HW123897   2.131   4.453   4.898 -0.7062  0.6154  0.2277
 4088SOL    HW223898   2.100   4.331   4.826 -0.8878  0.4716 -0.1415
 4089SOL     OW23899   0.085   2.094  16.231 -0.2147 -0.7135  0.0599
 4089SOL    HW123900   4.738   2.057  16.214 -0.1912 -0.6945 -0.0990
 4089SOL    HW223901   0.093   2.157  16.160  0.5698  1.0838  1.7592
 4090SOL     OW23902   1.053   1.321   9.809 -0.2294  0.0725  0.1998
 4090SOL    HW123903   1.045   1.322   9.904  1.0963 -1.5890  0.3209
 4090SOL    HW223904   1.144   1.351   9.801 -0.2293  0.1810  0.5823
 4091SOL     OW23905   4.645   0.437   3.387  0.5156  1.1626 -0.4211
 4091SOL    HW123906   4.638   0.475   3.300  3.5738  2.6372 -0.0109
 4091SOL    HW223907   4.551   0.431   3.406  0.4434 -1.5920 -1.6047
 4092SOL     OW23908   2.639   4.605   6.664 -0.5731 -0.7735 -0.2262
 4092SOL    HW123909   2.618   4.677   6.724  1.2071 -0.6085  0.1975
 4092SOL    HW223910   2.716   4.567   6.705  0.2973  0.8664 -0.3215
 4093SOL     OW23911   1.103   0.421   9.051  0.2608 -0.2331 -0.5406
 4093SOL    HW123912   1.177   0.409   8.991  0.8226 -0.9625  0.3054
 4093SOL    HW223913   1.141   0.393   9.134 -0.6902 -0.1017 -0.0610
 4094SOL     OW23914   4.105   1.278  10.176  0.9913 -0.1321 -0.0829
 4094SOL    HW123915   4.184   1.226  10.193 -0.5621 -2.4622 -0.0366
 4094SOL    HW223916   4.088   1.260  10.084  2.9116 -1.0086 -0.2660
 4095SOL     OW23917   3.472   0.185  16.505  0.0418  0.0560  0.3710
 4095SOL    HW123918   3.528   0.108  16.505  1.8672  1.3698 -1.6578
 4095SOL    HW223919   3.434   0.174  16.592  0.4466 -0.0996  0.5248
 4096SOL     OW23920   2.309   3.589  10.318 -0.1996  0.3366  0.1745
 4096SOL    HW123921   2.307   3.497  10.345 -0.1685  1.0838  2.7147
 4096SOL    HW223922   2.216   3.606  10.304  0.3515 -0.9507 -5.0164
 4097SOL     OW23923   0.029   1.099   5.777  0.4263  0.0716  0.6642
 4097SOL    HW123924   4.680   1.119   5.747  0.5195  1.9336  1.6077
 4097SOL    HW223925   0.085   1.152   5.719 -1.6968  0.8631 -0.6858
 4098SOL     OW23926   0.473   3.731   4.655  0.5061 -0.2617 -0.0010
 4098SOL    HW123927   0.490   3.654   4.599  0.7283 -2.2105  2.7424
 4098SOL    HW223928   0.544   3.719   4.718 -1.4350  1.0446  2.4252
 4099SOL     OW23929   4.599   1.826   9.620  0.3406  0.1100 -0.2364
 4099SOL    HW123930   4.691   1.819   9.594  0.0382 -2.8078 -0.4925
 4099SOL    HW223931   4.570   1.902   9.569  1.2991 -0.6199 -1.8766
 4100SOL     OW23932   4.488   1.348   5.946  0.3837  0.4441 -0.0541
 4100SOL    HW123933   4.579   1.339   5.973  0.3333 -0.3329 -0.1568
 4100SOL    HW223934   4.453   1.412   6.007  0.1510 -0.7831  1.1018
 4101SOL     OW23935   0.469   0.712   8.313 -0.4006  0.1298 -0.0910
 4101SOL    HW123936   0.514   0.786   8.271 -0.6625  0.6575  0.5500
 4101SOL    HW223937   0.534   0.690   8.379  0.2582 -1.8872 -1.4167
 4102SOL     OW23938   0.028   3.619  10.076 -0.0121  0.3610 -0.1037
 4102SOL    HW123939   0.036   3.678  10.151 -2.6415 -1.2831  1.4559
 4102SOL    HW223940   0.061   3.532  10.099 -1.2801  0.0917  0.6633
 4103SOL     OW23941   3.849   4.541   7.092  0.0883  0.5668 -0.3968
 4103SOL    HW123942   3.790   4.541   7.017  1.1376 -0.2137 -1.2252
 4103SOL    HW223943   3.842   4.628   7.131  0.6283  0.7176 -0.6334
 4104SOL     OW23944   3.175   0.523  16.821 -0.2108  0.0307 -0.3037
 4104SOL    HW123945   3.250   0.482  16.777 -0.1044 -2.1341  1.8680
 4104SOL    HW223946   3.213   0.543  16.907  0.5961 -2.5875 -0.0225
 4105SOL     OW23947   2.873   2.243   6.490  0.5789 -0.7171  0.3387
 4105SOL    HW123948   2.818   2.186   6.544 -2.8828  0.4169 -1.9720
 4105SOL    HW223949   2.937   2.263   6.558  0.7348 -2.9894  0.8335
 4106SOL     OW23950   1.917   0.606   7.622  0.2112 -0.5380  0.0025
 4106SOL    HW123951   1.872   0.531   7.661 -0.0011 -0.6513 -0.4615
 4106SOL    HW223952   1.912   0.670   7.694 -1.7207  0.8363 -1.3441
 4107SOL     OW23953   1.912   2.572   1.211 -0.0159 -0.2430  0.0635
 4107SOL    HW123954   1.957   2.655   1.200 -0.2874 -0.1544 -0.4075
 4107SOL    HW223955   1.970   2.527   1.272 -2.0188 -1.6488  0.9192
 4108SOL     OW23956   3.628   0.924   0.704 -0.2984 -0.2674 -0.9676
 4108SOL    HW123957   3.574   0.898   0.629  1.5330 -2.3945 -1.5641
 4108SOL    HW223958   3.607   0.859   0.772 -0.7813  0.7405 -0.1651
 4109SOL     OW23959   3.852   2.123  12.362  0.8302 -0.0762  0.0936
 4109SOL    HW123960   3.772   2.071  12.355 -1.3182  3.2037  0.2748
 4109SOL    HW223961   3.895   2.066  12.426  1.5261 -0.0043 -0.3078
 4110SOL     OW23962   2.485   3.667   9.635  0.1182 -0.4235  0.1811
 4110SOL    HW123963   2.559   3.667   9.695 -1.2052  1.2827  1.8000
 4110SOL    HW223964   2.426   3.614   9.689 -0.6372  2.0507  1.7675
 4111SOL     OW23965   1.250   3.634   6.941 -0.3681 -0.0180  0.0847
 4111SOL    HW123966   1.254   3.721   6.902  0.2871 -0.4812 -0.8954
 4111SOL    HW223967   1.337   3.596   6.930  0.7653  2.6381 -0.0269
 4112SOL     OW23968   2.610   4.132   9.406 -0.0696  0.0909  0.8804
 4112SOL    HW123969   2.598   4.053   9.459 -0.2054  0.9335  2.0884
 4112SOL    HW223970   2.528   4.180   9.418 -0.1986  0.2774 -0.7504
 4113SOL     OW23971   3.524   2.467   5.254 -0.2528 -0.3369 -0.3597
 4113SOL    HW123972   3.517   2.543   5.312  2.0570 -0.3249 -0.1272
 4113SOL    HW223973   3.511   2.388   5.306  0.6727  0.9090  1.7941
 4114SOL     OW23974   0.250   3.284  17.242  0.1812  0.2921  0.3185
 4114SOL    HW123975   0.282   3.353  17.301  1.0178  0.4682 -0.3440
 4114SOL    HW223976   0.314   3.217  17.267 -0.8808 -0.6145  0.6446
 4115SOL     OW23977   3.845   1.623  13.407 -0.5940  0.3311 -0.1168
 4115SOL    HW123978   3.828   1.600  13.316  0.2795  0.5679 -0.3404
 4115SOL    HW223979   3.935   1.654  13.401 -0.0049 -1.4192 -0.0428
 4116SOL     OW23980   2.317   0.721  13.207 -0.7827 -0.4025  0.2886
 4116SOL    HW123981   2.281   0.757  13.126 -0.7660  0.0065  0.4617
 4116SOL    HW223982   2.258   0.649  13.226  0.3790 -1.5339 -0.4479
 4117SOL     OW23983   3.464   0.321   3.643 -0.4228 -0.6590  0.2360
 4117SOL    HW123984   3.496   0.410   3.629 -1.8510 -0.1599  0.1527
 4117SOL    HW223985   3.506   0.284   3.566  0.2168  3.0861 -1.2151
 4118SOL     OW23986   4.441   3.569   8.737  0.0976  0.5256 -0.1085
 4118SOL    HW123987   4.536   3.571   8.733  0.0561 -0.2564 -1.4605
 4118SOL    HW223988   4.430   3.652   8.692  0.0981  0.8158  0.4303
 4119SOL     OW23989   0.717   3.435  12.510 -0.0918 -0.1302 -0.2447
 4119SOL    HW123990   0.775   3.452  12.584 -1.8387  0.0770  1.0794
 4119SOL    HW223991   0.755   3.488  12.440 -1.9661 -1.8137 -2.5553
 4120SOL     OW23992   1.776   4.111   6.300 -0.3571  0.6227  0.0444
 4120SOL    HW123993   1.721   4.188   6.311 -1.4375 -0.2965  1.1292
 4120SOL    HW223994   1.758   4.091   6.208 -1.8691 -3.3730  1.1840
 4121SOL     OW23995   3.409   0.467   5.201  0.6728 -0.1678 -0.4362
 4121SOL    HW123996   3.346   0.406   5.163  0.0349  1.0067 -1.2898
 4121SOL    HW223997   3.468   0.402   5.239  0.5157 -1.3833 -2.2701
 4122SOL     OW23998   0.660   4.407   6.080 -0.0451 -0.3823  0.5947
 4122SOL    HW123999   0.698   4.327   6.043 -2.6620 -2.1929  1.8344
 4122SOL    HW224000   0.575   4.366   6.096 -0.1985  1.0573  3.5543
 4123SOL     OW24001   0.332   0.926  14.370  0.4722 -0.3993 -0.4226
 4123SOL    HW124002   0.291   1.011  14.387  0.4807 -0.6989  1.1765
 4123SOL    HW224003   0.251   0.878  14.354  0.9569 -0.6228 -2.1905
 4124SOL     OW24004   4.278   3.319   6.802  0.2014  0.0530 -0.2507
 4124SOL    HW124005   4.303   3.346   6.714 -0.9046 -3.2124 -1.5586
 4124SOL    HW224006   4.191   3.283   6.783  0.4323  0.6691 -2.4933
 4125SOL     OW24007   2.873   1.716   2.827 -0.0462  0.4372 -0.3496
 4125SOL    HW124008   2.825   1.647   2.781  1.5254  0.1190 -1.5398
 4125SOL    HW224009   2.881   1.786   2.763 -1.7080 -0.2183 -1.2769
 4126SOL     OW24010   3.820   2.662   9.542 -0.6705  0.6009  0.2267
 4126SOL    HW124011   3.787   2.635   9.457  0.8620 -1.0098  0.1730
 4126SOL    HW224012   3.868   2.738   9.507 -1.5439  1.1323  0.1666
 4127SOL     OW24013   0.953   3.757   2.845 -0.0566  0.2638  0.0391
 4127SOL    HW124014   1.046   3.737   2.842  0.0559  0.7135  0.5390
 4127SOL    HW224015   0.953   3.831   2.784 -0.4550  0.2485  0.0226
 4128SOL     OW24016   3.274   2.995   2.808  0.1143  0.0985  0.2592
 4128SOL    HW124017   3.228   3.034   2.734  0.2422 -1.7621 -0.8046
 4128SOL    HW224018   3.305   2.914   2.768  0.5784  0.7953 -0.7845
 4129SOL     OW24019   2.999   0.114   4.520 -0.4964  0.3918  0.3260
 4129SOL    HW124020   2.983   0.080   4.608  2.6464 -0.0819  0.7071
 4129SOL    HW224021   2.941   0.190   4.515 -1.1983 -0.1226  0.6733
 4130SOL     OW24022   4.193   4.433   3.363  0.1281 -0.2609 -0.0099
 4130SOL    HW124023   4.272   4.488   3.360 -2.0187  2.8558  0.2333
 4130SOL    HW224024   4.132   4.495   3.324 -0.4538 -0.6306  0.3143
 4131SOL     OW24025   3.235   0.479  13.911  0.5867  0.0067  0.2951
 4131SOL    HW124026   3.248   0.405  13.971  2.1883 -0.5007 -0.6551
 4131SOL    HW224027   3.320   0.522  13.909  0.6273 -0.0642  0.5382
 4132SOL     OW24028   0.955   1.556   8.086 -0.6051  0.1490  0.3245
 4132SOL    HW124029   0.930   1.475   8.130  0.2395 -0.6421 -0.6380
 4132SOL    HW224030   0.870   1.590   8.059 -0.1336  0.0578 -1.2583
 4133SOL     OW24031   2.328   2.840   6.359  0.2580  0.4207  0.1611
 4133SOL    HW124032   2.363   2.752   6.342 -1.8867 -0.9655  2.8380
 4133SOL    HW224033   2.246   2.824   6.407  0.7124 -0.0675  0.7838
 4134SOL     OW24034   1.429   3.131   3.698 -0.6989  0.7141  0.1718
 4134SOL    HW124035   1.482   3.079   3.758 -0.9696 -1.9825 -1.9660
 4134SOL    HW224036   1.433   3.215   3.745 -0.2065  1.0602 -0.4817
 4135SOL     OW24037   2.266   4.377   0.149  0.3410  0.1120  0.0738
 4135SOL    HW124038   2.261   4.292   0.105  1.6848  0.3060 -0.4589
 4135SOL    HW224039   2.360   4.386   0.165  0.2086 -0.5105  1.1985
 4136SOL     OW24040   0.858   2.828   3.758  0.1844 -0.2482  0.1949
 4136SOL    HW124041   0.901   2.912   3.775 -0.0469  0.4217 -2.5337
 4136SOL    HW224042   0.827   2.840   3.669  1.0097  0.0631 -0.0550
 4137SOL     OW24043   3.974   3.054   5.782 -0.3140  0.7128 -0.3696
 4137SOL    HW124044   4.070   3.049   5.787 -0.1509  0.0676 -4.5197
 4137SOL    HW224045   3.946   2.973   5.741  3.4943  0.4123 -2.3985
 4138SOL     OW24046   3.716   2.413   6.127  0.6010  0.2589  0.0703
 4138SOL    HW124047   3.659   2.488   6.108  0.1553 -0.2577 -0.6140
 4138SOL    HW224048   3.740   2.427   6.219 -1.2205  1.3980  0.3753
 4139SOL     OW24049   1.378   3.651   4.749  0.0692 -0.2245  0.1879
 4139SOL    HW124050   1.453   3.705   4.725  0.6389 -0.5559  1.2160
 4139SOL    HW224051   1.394   3.565   4.709  1.7044  1.0164 -1.8264
 4140SOL     OW24052   3.337   2.383   3.458  0.0220  0.4253 -0.3161
 4140SOL    HW124053   3.400   2.446   3.493  1.3553 -1.4165  0.6042
 4140SOL    HW224054   3.355   2.309   3.516  1.1899 -1.3307 -2.9502
 4141SOL     OW24055   1.231   4.421   3.885  0.5066  0.8485 -0.2803
 4141SOL    HW124056   1.266   4.432   3.797  1.5700 -2.8082 -0.3082
 4141SOL    HW224057   1.140   4.406   3.858 -0.6128  1.3981  3.1352
 4142SOL     OW24058   0.432   2.808   8.279  0.3996 -0.3295 -0.1371
 4142SOL    HW124059   0.425   2.782   8.371  1.0317  2.6047  0.7502
 4142SOL    HW224060   0.523   2.837   8.275 -0.5321  2.2855 -2.1268
 4143SOL     OW24061   3.632   2.498   7.071  0.2475  0.4326 -0.4901
 4143SOL    HW124062   3.665   2.588   7.071 -0.4947  0.7022 -1.4483
 4143SOL    HW224063   3.688   2.458   7.138  1.6731 -0.4561 -2.2075
 4144SOL     OW24064   1.922   3.057   4.868  0.1112 -0.0929 -0.2794
 4144SOL    HW124065   1.998   3.115   4.872 -0.0469 -0.0928  2.4558
 4144SOL    HW224066   1.875   3.070   4.950  1.6385 -2.2611  0.9495
 4145SOL     OW24067   2.829   3.938  10.893 -0.0883 -0.4770 -0.0635
 4145SOL    HW124068   2.852   4.004  10.827  2.1242 -2.4529 -1.2681
 4145SOL    HW224069   2.766   3.881  10.848  0.6710 -2.3147  1.2323
 4146SOL     OW24070   4.389   4.591   4.107  0.1525  0.5417  0.3558
 4146SOL    HW124071   4.386   4.658   4.038  1.6578  0.7371  0.4850
 4146SOL    HW224072   4.442   4.640   4.169  1.5362  0.2327 -0.5802
 4147SOL     OW24073   2.667   3.263  10.345  0.4700  0.5974 -0.4949
 4147SOL    HW124074   2.694   3.353  10.362  0.2844 -0.0373  3.2957
 4147SOL    HW224075   2.635   3.289  10.259 -0.7493  0.1782 -0.1673
 4148SOL     OW24076   0.193   2.907   1.705  0.1418  0.2019 -0.4761
 4148SOL    HW124077   0.278   2.914   1.661  0.3507  0.0515 -0.0961
 4148SOL    HW224078   0.178   2.999   1.724 -2.5889 -0.3273 -0.0613
 4149SOL     OW24079   2.736   2.618   4.467 -0.1623 -0.1108  0.2326
 4149SOL    HW124080   2.820   2.645   4.505  0.6034  3.0444 -3.7396
 4149SOL    HW224081   2.671   2.630   4.536  0.0777 -3.8409  1.1003
 4150SOL     OW24082   4.322   3.758   3.785  0.8122  0.0160 -0.1608
 4150SOL    HW124083   4.271   3.708   3.849  0.2682 -0.1640 -0.7353
 4150SOL    HW224084   4.248   3.801   3.742  2.1360  1.9670 -0.5014
 4151SOL     OW24085   2.864   4.513   6.284 -0.1930  0.2404 -0.6423
 4151SOL    HW124086   2.820   4.437   6.322  1.3135  0.0807  0.7991
 4151SOL    HW224087   2.923   4.476   6.218  0.6695  0.2930  0.0903
 4152SOL     OW24088   3.868   3.238  10.817  0.2329 -0.6006  0.4319
 4152SOL    HW124089   3.909   3.323  10.830  1.3912 -1.3450  1.7009
 4152SOL    HW224090   3.804   3.261  10.750  0.6439 -1.0979 -0.1243
 4153SOL     OW24091   1.812   4.656   5.323 -0.4892 -0.0247  0.2878
 4153SOL    HW124092   1.723   4.622   5.326 -0.4165 -0.1585  0.9330
 4153SOL    HW224093   1.796   0.010   5.332  0.2534  0.0780  0.4990
 4154SOL     OW24094   2.561   3.346   7.037  0.1305  0.4307  0.1212
 4154SOL    HW124095   2.556   3.398   7.117 -1.5581  2.1766 -1.1209
 4154SOL    HW224096   2.653   3.320   7.042  0.0292 -0.6089 -3.3931
 4155SOL     OW24097   0.210   1.508   7.717  0.0228 -0.3864 -1.0214
 4155SOL    HW124098   0.197   1.592   7.761 -0.8774 -0.3212 -1.4162
 4155SOL    HW224099   0.260   1.456   7.780 -1.0551  1.0691  1.0430
 4156SOL     OW24100   0.106   2.150   1.959 -0.3197  0.1745  0.8094
 4156SOL    HW124101   0.178   2.088   1.968 -1.3183 -0.9208  1.2941
 4156SOL    HW224102   0.026   2.098   1.969  0.3622 -0.9054  0.6322
 4157SOL     OW24103   2.429   1.648   7.826 -0.6483 -0.3630 -0.0299
 4157SOL    HW124104   2.479   1.633   7.746  1.2910  1.5498  0.8093
 4157SOL    HW224105   2.472   1.596   7.893  0.4058  0.0726 -0.3682
 4158SOL     OW24106   3.030   0.929  12.977  0.1164  0.2629  0.1757
 4158SOL    HW124107   3.000   0.854  12.925 -1.9961  0.5290  1.0005
 4158SOL    HW224108   2.950   0.942  13.028  0.7887  1.0155  1.0531
 4159SOL     OW24109   1.558   3.676   5.994  0.3475 -0.6462  0.2416
 4159SOL    HW124110   1.606   3.658   5.913 -1.8144 -1.7840 -0.7972
 4159SOL    HW224111   1.621   3.681   6.066 -1.1017  0.1247  1.4421
 4160SOL     OW24112   4.005   0.985  12.826  0.4297  0.3506  0.6110
 4160SOL    HW124113   3.971   0.903  12.860  1.2501 -0.0981  0.3616
 4160SOL    HW224114   4.077   0.960  12.767 -1.3043 -0.3169 -1.1912
 4161SOL     OW24115   2.162   4.285   3.264 -0.0445 -0.1736 -0.0846
 4161SOL    HW124116   2.239   4.243   3.225  0.5879 -1.2098  2.2601
 4161SOL    HW224117   2.118   4.315   3.184 -0.7091  0.5308  0.5502
 4162SOL     OW24118   0.727   2.067   8.966  0.4367  0.0866 -0.8467
 4162SOL    HW124119   0.818   2.079   8.939  0.5737  1.8166  0.3785
 4162SOL    HW224120   0.721   1.978   9.000 -1.4690  0.8932  0.9169
 4163SOL     OW24121   2.514   2.672  12.427 -0.7104  0.0804 -1.1596
 4163SOL    HW124122   2.457   2.599  12.452 -0.0270 -0.3348 -0.8237
 4163SOL    HW224123   2.600   2.643  12.457 -1.4272 -1.6248 -0.7144
 4164SOL     OW24124   1.326   1.506   2.307 -0.2451 -0.1749  0.4569
 4164SOL    HW124125   1.261   1.481   2.373 -1.0390 -0.5244 -0.4505
 4164SOL    HW224126   1.296   1.459   2.229 -0.4107  0.6279  0.0296
 4165SOL     OW24127   1.022   2.290   0.733  0.1504  0.1583 -0.6625
 4165SOL    HW124128   0.946   2.237   0.758 -0.0847  1.2574  0.9292
 4165SOL    HW224129   1.045   2.258   0.646  0.2721  3.3332 -1.7897
 4166SOL     OW24130   3.907   1.886   4.868 -0.3747  0.3440 -0.2752
 4166SOL    HW124131   3.883   1.952   4.932  0.0124 -0.5046  0.7517
 4166SOL    HW224132   3.931   1.810   4.922 -0.3142  1.4555  1.2407
 4167SOL     OW24133   0.697   4.575  14.333 -0.1021  0.1265  0.3426
 4167SOL    HW124134   0.611   4.548  14.300  0.4551 -0.9745 -0.1994
 4167SOL    HW224135   0.664   4.634  14.401 -0.7677 -0.1917  0.2958
 4168SOL     OW24136   3.289   4.127   3.994 -0.5953  0.2583  0.1204
 4168SOL    HW124137   3.339   4.131   4.076 -1.5241  0.8036  0.6597
 4168SOL    HW224138   3.329   4.202   3.948  0.0161 -0.4178 -0.4428
 4169SOL     OW24139   3.557   4.238  17.034  0.0504 -0.4174  0.3600
 4169SOL    HW124140   3.549   4.171  16.967 -0.5112 -0.1664  0.1751
 4169SOL    HW224141   3.512   4.317  17.003  1.5938 -0.1772 -1.2764
 4170SOL     OW24142   4.400   0.672   8.971 -0.0487  0.0207  0.4697
 4170SOL    HW124143   4.467   0.629   9.025 -1.1699 -3.5215 -0.9600
 4170SOL    HW224144   4.392   0.764   8.995 -2.8827 -0.1298  0.0231
 4171SOL     OW24145   2.613   4.641   4.687 -0.1069 -0.0858  0.1979
 4171SOL    HW124146   2.625   4.547   4.700  0.7784  0.0333  0.2304
 4171SOL    HW224147   2.585   4.644   4.595 -0.8274  0.2499  0.4269
 4172SOL     OW24148   0.335   1.253   9.449  0.0703  0.1780  0.3078
 4172SOL    HW124149   0.295   1.316   9.509 -0.5687  1.9365 -1.9781
 4172SOL    HW224150   0.427   1.279   9.455 -0.2507  1.1853  0.7865
 4173SOL     OW24151   4.439   0.935   9.034 -0.0171 -0.6403  0.2965
 4173SOL    HW124152   4.526   0.951   9.070 -0.2023 -0.6844  0.7607
 4173SOL    HW224153   4.417   1.010   8.980 -0.7501 -1.0766 -0.0147
 4174SOL     OW24154   3.815   1.100   6.283  0.7830 -0.4306 -0.3695
 4174SOL    HW124155   3.781   1.011   6.292  2.1131 -1.0070 -0.9422
 4174SOL    HW224156   3.740   1.157   6.294 -0.6480 -2.9107  2.7022
 4175SOL     OW24157   0.149   2.932   1.292  0.1765 -0.4079  0.3017
 4175SOL    HW124158   0.057   2.910   1.301  0.5179 -2.1641 -0.6175
 4175SOL    HW224159   0.136   3.014   1.340  1.0287 -0.0775 -0.0161
 4176SOL     OW24160   3.440   3.438  11.516 -0.2097  0.1266 -0.1213
 4176SOL    HW124161   3.368   3.501  11.523 -0.4509 -0.2838  1.1559
 4176SOL    HW224162   3.469   3.436  11.425 -1.6419  3.8909 -0.6517
 4177SOL     OW24163   3.924   1.622   3.743 -0.2170 -0.8097 -0.1263
 4177SOL    HW124164   3.895   1.627   3.834  0.3111  1.2057 -0.0670
 4177SOL    HW224165   3.914   1.716   3.727 -0.7096 -1.0027 -0.9533
 4178SOL     OW24166   1.915   0.243   4.085  0.2611 -0.2523 -0.3857
 4178SOL    HW124167   1.954   0.174   4.030  3.2322  0.4713  0.8429
 4178SOL    HW224168   1.977   0.314   4.069 -0.4848 -0.1413 -2.8282
 4179SOL     OW24169   0.553   0.608   5.118  0.0367 -0.1623 -0.7347
 4179SOL    HW124170   0.638   0.569   5.098  0.0129 -0.2247 -0.7140
 4179SOL    HW224171   0.530   0.552   5.192 -1.3599 -2.1522 -2.6971
 4180SOL     OW24172   3.010   0.987   6.843  0.0705  0.0538  0.1598
 4180SOL    HW124173   3.081   0.930   6.873  0.1664 -0.3031 -0.7449
 4180SOL    HW224174   3.002   0.955   6.753 -1.9829  1.3568 -0.1452
 4181SOL     OW24175   1.102   0.340   4.630 -0.1411  0.0742  0.1824
 4181SOL    HW124176   1.157   0.262   4.633  0.4208  0.4129 -1.4886
 4181SOL    HW224177   1.027   0.308   4.580  1.2776 -1.9824 -0.6303
 4182SOL     OW24178   1.982   0.593   3.330  0.1830 -0.1019 -0.0704
 4182SOL    HW124179   2.032   0.660   3.285  0.5978 -0.1490  0.3187
 4182SOL    HW224180   1.962   0.530   3.261  0.4057  0.3325 -0.5346
 4183SOL     OW24181   4.680   3.320   3.755 -0.6632  0.1175  0.7026
 4183SOL    HW124182   4.702   3.234   3.791  1.2800 -0.2286 -1.3144
 4183SOL    HW224183   0.007   3.327   3.686 -2.6179  1.2593 -1.0983
 4184SOL     OW24184   0.085   4.725   9.797 -0.1622 -0.0944  0.1481
 4184SOL    HW124185   0.161   0.041   9.779 -0.9366  0.0857 -2.5574
 4184SOL    HW224186   0.019   0.026   9.741 -0.5579 -0.9470  0.0030
 4185SOL     OW24187   4.116   1.585  13.457  0.3810  0.2587  0.1455
 4185SOL    HW124188   4.172   1.627  13.522  2.4595  1.4258 -2.3995
 4185SOL    HW224189   4.110   1.497  13.495 -0.7526  0.6960  0.9939
 4186SOL     OW24190   0.934   2.877   7.157 -0.1200  0.0649  0.6785
 4186SOL    HW124191   0.984   2.837   7.228 -0.3571  0.3220  0.9957
 4186SOL    HW224192   0.955   2.812   7.091 -2.2130  0.4408 -0.3481
 4187SOL     OW24193   0.348   1.776   3.697 -0.3625 -0.0852  0.3515
 4187SOL    HW124194   0.276   1.828   3.661  0.9978  1.1216 -0.6213
 4187SOL    HW224195   0.429   1.819   3.671 -1.0878  1.2637  0.3022
 4188SOL     OW24196   2.350   4.433   2.753 -0.3581 -0.3769 -0.1813
 4188SOL    HW124197   2.286   4.410   2.686 -0.2452  0.1942 -0.4826
 4188SOL    HW224198   2.292   4.484   2.808  0.6334  1.4359 -0.7947
 4189SOL     OW24199   0.801   0.065   4.991  0.6793 -0.1883 -0.0999
 4189SOL    HW124200   0.869   4.737   4.994  1.6458  0.8111  0.4612
 4189SOL    HW224201   0.782   0.059   4.897  1.7839 -0.3635 -0.3122
 4190SOL     OW24202   2.076   4.725   1.553 -0.0355 -0.1672 -0.2720
 4190SOL    HW124203   2.030   0.041   1.616 -1.4542 -1.4731 -0.1253
 4190SOL    HW224204   2.105   0.037   1.478 -0.8493 -0.9732 -1.1486
 4191SOL     OW24205   3.382   0.390   6.415 -0.0978  0.0539 -0.4623
 4191SOL    HW124206   3.353   0.447   6.486 -0.5187  0.0483 -0.6263
 4191SOL    HW224207   3.420   0.322   6.470 -3.3915 -1.1672  0.3286
 4192SOL     OW24208   1.279   1.389  12.180 -0.2989  0.0328  0.1166
 4192SOL    HW124209   1.190   1.359  12.160  0.1353 -1.3967  0.3583
 4192SOL    HW224210   1.317   1.310  12.219  1.0880  0.1344 -1.0412
 4193SOL     OW24211   2.378   2.834   3.885 -0.4060 -0.0355  0.3176
 4193SOL    HW124212   2.362   2.759   3.827  1.7465 -0.4572  0.2769
 4193SOL    HW224213   2.383   2.903   3.818 -0.9074  0.7245  1.0684
 4194SOL     OW24214   4.297   1.516   8.044  0.5220 -0.1957 -0.3362
 4194SOL    HW124215   4.206   1.513   8.074  0.9484  0.7070  1.0723
 4194SOL    HW224216   4.285   1.504   7.950 -1.1327  2.9563 -0.5328
 4195SOL     OW24217   0.731   2.752   4.097  0.7068  0.0835  0.0301
 4195SOL    HW124218   0.702   2.841   4.118 -1.9677 -0.9255  0.4773
 4195SOL    HW224219   0.827   2.758   4.096  0.6860  0.6022  1.7600
 4196SOL     OW24220   1.525   4.472   2.633  0.2292  0.6720 -0.3614
 4196SOL    HW124221   1.454   4.536   2.630  0.0844  0.5290  0.0144
 4196SOL    HW224222   1.603   4.512   2.596  0.0949 -0.3743 -1.7611
 4197SOL     OW24223   4.031   0.683   3.841 -0.6428 -0.7992  0.1608
 4197SOL    HW124224   3.974   0.608   3.856  1.5700 -2.4536  0.2442
 4197SOL    HW224225   4.074   0.693   3.926  3.0982  1.6189 -2.0017
 4198SOL     OW24226   2.740   0.368   8.697 -0.4814 -0.0351 -0.0909
 4198SOL    HW124227   2.769   0.381   8.607  1.8952  0.4547  0.7447
 4198SOL    HW224228   2.800   0.309   8.743 -0.3667  0.5619  0.5437
 4199SOL     OW24229   0.773   0.340   3.013 -0.0886 -0.3768 -0.4809
 4199SOL    HW124230   0.823   0.304   3.086 -1.6505  0.2506  0.8840
 4199SOL    HW224231   0.699   0.374   3.063 -0.3156 -0.0417 -1.0389
 4200SOL     OW24232   0.256   1.045  17.085  0.9515 -0.2777 -0.6685
 4200SOL    HW124233   0.162   1.063  17.080  1.1181  0.3135 -1.6662
 4200SOL    HW224234   0.289   1.125  17.126 -0.5740 -0.1951  0.4308
 4201SOL     OW24235   1.697   0.935   3.179  0.1762 -0.0282 -0.0787
 4201SOL    HW124236   1.774   0.959   3.128  1.9473  1.0768  3.1410
 4201SOL    HW224237   1.740   0.879   3.245 -1.7541 -0.7373  0.5812
 4202SOL     OW24238   4.144   2.302   6.722  0.1930  0.2833 -0.3356
 4202SOL    HW124239   4.106   2.389   6.711  2.9917  1.0436 -3.9759
 4202SOL    HW224240   4.165   2.282   6.631  1.3360 -2.0660  0.4435
 4203SOL     OW24241   3.868   0.129   6.921 -0.3545  0.5266  0.2013
 4203SOL    HW124242   3.918   0.197   6.967 -2.3440  2.1751 -0.0744
 4203SOL    HW224243   3.852   0.070   6.995 -3.2502  1.9794  0.7308
 4204SOL     OW24244   1.660   3.464   1.964 -0.6773  0.5790 -0.2479
 4204SOL    HW124245   1.652   3.389   2.023 -0.6447  1.5198  0.9575
 4204SOL    HW224246   1.700   3.432   1.883 -1.9353  0.9940 -1.0319
 4205SOL     OW24247   1.179   0.221   3.167  0.6651  0.2894 -0.8766
 4205SOL    HW124248   1.168   0.147   3.107  0.4155  0.1538 -0.6647
 4205SOL    HW224249   1.192   0.287   3.099 -3.5248  0.4815 -1.4918
 4206SOL     OW24250   0.843   0.738   4.078  0.0651 -0.0003  0.3024
 4206SOL    HW124251   0.835   0.677   4.004  1.8425 -2.1166  1.8355
 4206SOL    HW224252   0.798   0.692   4.149 -0.1349  1.8509  1.3722
 4207SOL     OW24253   2.418   1.938   4.505 -0.1525 -0.3071 -0.2373
 4207SOL    HW124254   2.510   1.925   4.525 -1.0983 -1.7667  3.1185
 4207SOL    HW224255   2.390   1.858   4.460  0.3914  1.2547 -3.3552
 4208SOL     OW24256   1.417   1.009   6.300 -0.3982  0.1712 -0.0617
 4208SOL    HW124257   1.337   1.057   6.277 -0.2118  1.5067  2.1057
 4208SOL    HW224258   1.385   0.925   6.333  0.8413 -0.3654 -0.2194
 4209SOL     OW24259   0.960   2.408   7.382  0.2253 -0.0289 -0.4220
 4209SOL    HW124260   0.964   2.360   7.299 -0.7704  0.3145 -0.6604
 4209SOL    HW224261   1.004   2.344   7.438 -0.0965 -0.0242 -0.1646
 4210SOL     OW24262   3.361   0.292   2.457  0.1346 -0.6041 -0.0415
 4210SOL    HW124263   3.390   0.210   2.498 -0.9354 -2.0360 -2.1424
 4210SOL    HW224264   3.439   0.342   2.432 -0.4421  0.6905  0.7508
 4211SOL     OW24265   0.664   3.764  11.671 -0.1395 -0.0650 -0.0229
 4211SOL    HW124266   0.657   3.780  11.577 -0.8995 -1.0863 -0.1444
 4211SOL    HW224267   0.756   3.738  11.671 -0.1425 -0.0724  0.1389
 4212SOL     OW24268   3.597   0.494  14.856  0.4307 -0.2959 -0.0914
 4212SOL    HW124269   3.535   0.426  14.835 -1.2320  1.5696 -1.2088
 4212SOL    HW224270   3.549   0.543  14.923 -0.3577 -0.1593 -0.7595
 4213SOL     OW24271   1.454   4.048   7.612  0.3891 -0.3630 -0.4066
 4213SOL    HW124272   1.539   4.088   7.632  0.4683 -0.3812 -0.7013
 4213SOL    HW224273   1.464   4.032   7.518  1.0936  2.1453 -0.7589
 4214SOL     OW24274   1.201   0.955   5.137  0.0995  0.5299 -0.1557
 4214SOL    HW124275   1.107   0.948   5.151  0.2143  0.0924  0.4208
 4214SOL    HW224276   1.206   0.922   5.048  1.1312 -0.1455  0.1508
 4215SOL     OW24277   0.841   1.746   7.093 -0.3885 -0.1309  0.1682
 4215SOL    HW124278   0.767   1.707   7.048 -0.4411  0.3681 -0.1836
 4215SOL    HW224279   0.810   1.736   7.183 -1.2039 -0.1779 -0.1190
 4216SOL     OW24280   0.463   3.831   5.818  0.4915  0.7152  0.1064
 4216SOL    HW124281   0.507   3.886   5.754  1.6103  1.2658  1.3360
 4216SOL    HW224282   0.506   3.850   5.902 -2.0138 -0.0211  1.5662
 4217SOL     OW24283   1.992   2.255  12.693  0.5660  0.1150  0.4994
 4217SOL    HW124284   1.954   2.167  12.698 -1.0374  0.6989 -1.3827
 4217SOL    HW224285   2.087   2.251  12.699  0.6955  0.6770 -1.4093
 4218SOL     OW24286   4.039   4.048   3.283  0.5565 -0.4140  0.2485
 4218SOL    HW124287   4.107   4.115   3.288  0.0251  0.1477  0.1102
 4218SOL    HW224288   3.989   4.069   3.362 -0.2006  2.2130 -0.8902
 4219SOL     OW24289   0.401   3.069   9.906 -0.7088  0.1653  0.7297
 4219SOL    HW124290   0.329   3.032   9.957 -0.9640  2.6986  2.2136
 4219SOL    HW224291   0.390   3.163   9.922 -1.4972  0.2755 -0.4907
 4220SOL     OW24292   2.814   0.663   2.454 -0.1405 -0.1923 -0.3516
 4220SOL    HW124293   2.767   0.734   2.498 -0.4687 -1.1235  0.7695
 4220SOL    HW224294   2.803   0.589   2.513  1.4038 -0.3168 -0.2210
 4221SOL     OW24295   1.642   1.337   4.270 -0.1564 -0.5089  0.0749
 4221SOL    HW124296   1.687   1.262   4.309 -0.0298 -0.3027  0.3322
 4221SOL    HW224297   1.558   1.333   4.314 -0.0115 -0.1168  0.3888
 4222SOL     OW24298   2.812   3.540   7.485 -0.2911 -0.4485 -0.0880
 4222SOL    HW124299   2.757   3.531   7.563 -1.4586  1.6352 -0.6654
 4222SOL    HW224300   2.893   3.571   7.525 -1.5525 -0.2884  2.3817
 4223SOL     OW24301   3.687   4.474   2.006  0.1390  0.4588 -0.8671
 4223SOL    HW124302   3.610   4.485   1.951 -0.0242 -1.5654 -1.0422
 4223SOL    HW224303   3.721   4.561   2.026  0.5219 -0.0147  0.5688
 4224SOL     OW24304   4.126   1.820  13.267 -0.0740 -0.0780 -0.3931
 4224SOL    HW124305   4.118   1.729  13.240  3.6423 -0.6751  0.6340
 4224SOL    HW224306   4.160   1.809  13.356 -0.0411  0.1566 -0.3763
 4225SOL     OW24307   2.355   1.395   1.330  0.0294  0.4023 -0.2534
 4225SOL    HW124308   2.338   1.365   1.240  0.4573  0.3826 -0.3276
 4225SOL    HW224309   2.449   1.374   1.329 -0.4150 -1.5686 -0.3417
 4226SOL     OW24310   0.411   4.567   2.182  0.4636  0.5106  0.3086
 4226SOL    HW124311   0.485   4.542   2.127  0.6538 -0.5782  1.0638
 4226SOL    HW224312   0.373   4.638   2.131 -0.6503  0.5002  1.1343
 4227SOL     OW24313   3.066   3.600  15.782  0.3619  0.2252 -0.5035
 4227SOL    HW124314   2.999   3.599  15.851  1.2444 -0.6209  0.3374
 4227SOL    HW224315   3.060   3.508  15.753 -1.7038  0.6417 -1.4371
 4228SOL     OW24316   2.375   0.168   3.527  0.4753  0.5041  0.1754
 4228SOL    HW124317   2.307   0.140   3.588 -0.9650  1.0496 -1.1813
 4228SOL    HW224318   2.453   0.120   3.555  2.1202  3.0171 -0.0232
 4229SOL     OW24319   2.562   0.598   1.990 -0.1528  0.0777  0.0125
 4229SOL    HW124320   2.618   0.534   1.946  0.0717 -0.2755  0.8050
 4229SOL    HW224321   2.612   0.612   2.071  0.2264  1.2447 -0.4311
 4230SOL     OW24322   4.121   3.903   5.576  0.3650 -0.3324 -0.0347
 4230SOL    HW124323   4.103   3.816   5.609  0.8057 -0.1068  0.8159
 4230SOL    HW224324   4.212   3.917   5.602 -0.3514 -0.6209  2.6085
 4231SOL     OW24325   1.976   3.592  17.199 -0.7791 -0.4174 -0.3328
 4231SOL    HW124326   1.999   3.587  17.106  1.0095  2.3323 -0.0536
 4231SOL    HW224327   1.992   3.501  17.224 -1.1395 -0.1838  0.7638
 4232SOL     OW24328   0.768   1.910  15.048  0.5819 -0.0679 -0.1490
 4232SOL    HW124329   0.706   1.961  15.100 -1.9908 -1.6577 -1.6504
 4232SOL    HW224330   0.712   1.837  15.021  1.1901 -1.0861  1.3562
 4233SOL     OW24331   3.039   0.827   2.332  0.5568 -0.9093 -0.5707
 4233SOL    HW124332   2.954   0.786   2.348  0.0839 -0.2377 -1.3507
 4233SOL    HW224333   3.048   0.888   2.405 -1.6149  0.6811 -1.6277
 4234SOL     OW24334   1.760   4.082   8.192  0.2029 -0.0466  0.3288
 4234SOL    HW124335   1.827   4.142   8.159 -0.8692 -1.1009 -3.7762
 4234SOL    HW224336   1.685   4.100   8.135  1.5757  1.4226 -0.9931
 4235SOL     OW24337   0.349   3.988   8.098 -0.8989 -0.4488  0.3797
 4235SOL    HW124338   0.442   3.972   8.119 -0.0792  0.6593 -2.4699
 4235SOL    HW224339   0.339   3.925   8.026  2.5040 -0.6623  0.0648
 4236SOL     OW24340   2.980   0.843   5.299 -0.0922  0.3199  0.5033
 4236SOL    HW124341   3.012   0.884   5.380  3.2638  1.9487 -1.6659
 4236SOL    HW224342   2.899   0.801   5.329  0.6446 -1.3711  0.0942
 4237SOL     OW24343   2.903   4.189   1.257  0.3497 -0.6554  0.3558
 4237SOL    HW124344   2.908   4.105   1.302 -1.2261  0.5043  2.7462
 4237SOL    HW224345   2.935   4.248   1.326  0.7725 -1.0674  0.5108
 4238SOL     OW24346   1.494   2.099  11.015  0.0373  0.2821  0.3006
 4238SOL    HW124347   1.567   2.119  11.075 -0.7118 -0.7711  1.5704
 4238SOL    HW224348   1.500   2.003  11.011  1.5631  0.4082 -0.3802
 4239SOL     OW24349   2.073   1.001   4.207 -0.2535  0.2582  0.1916
 4239SOL    HW124350   2.144   1.060   4.231 -1.6041  2.1219 -0.3326
 4239SOL    HW224351   2.024   1.052   4.142  1.4011  0.3975 -0.9371
 4240SOL     OW24352   0.022   0.197   4.598 -0.1622  0.1279 -0.4192
 4240SOL    HW124353   4.706   0.246   4.538 -0.6723 -1.3391 -1.1344
 4240SOL    HW224354   0.077   0.154   4.534  0.2588  1.0833 -0.7041
 4241SOL     OW24355   1.118   4.349  12.645  0.0433 -0.3576 -0.3225
 4241SOL    HW124356   1.087   4.377  12.559  1.3120  1.0668 -0.3135
 4241SOL    HW224357   1.043   4.385  12.693  2.2436  0.7627  2.2588
 4242SOL     OW24358   4.526   3.691   6.430 -0.3732 -0.3123 -0.0025
 4242SOL    HW124359   4.588   3.763   6.420  0.6138 -1.2706 -0.9243
 4242SOL    HW224360   4.449   3.733   6.467 -1.1005 -1.1203 -0.5880
 4243SOL     OW24361   0.453   4.318  13.231  0.1841  0.4099 -0.0030
 4243SOL    HW124362   0.446   4.413  13.232  1.2580  0.4974 -2.6613
 4243SOL    HW224363   0.522   4.311  13.297  1.5935 -0.1194 -1.5282
 4244SOL     OW24364   2.317   2.227   9.147  0.2743 -0.4422  0.3757
 4244SOL    HW124365   2.384   2.160   9.131  1.4393  0.7453  0.2302
 4244SOL    HW224366   2.363   2.270   9.219 -0.1645  1.1150 -0.2606
 4245SOL     OW24367   3.176   3.976   4.267 -0.0072 -0.4800  0.6953
 4245SOL    HW124368   3.150   4.044   4.329 -1.0310  0.1509 -0.4212
 4245SOL    HW224369   3.272   3.977   4.270  0.0475 -0.2272 -0.8584
 4246SOL     OW24370   1.898   3.616   2.766 -0.1297 -0.2277 -0.0699
 4246SOL    HW124371   1.850   3.696   2.746 -0.7102 -0.4641  0.3484
 4246SOL    HW224372   1.830   3.559   2.730 -2.3519  1.8758  0.8268
 4247SOL     OW24373   4.625   1.945   8.849 -0.0885 -0.8046  0.1193
 4247SOL    HW124374   4.609   1.991   8.931 -1.8937 -0.0277 -0.6769
 4247SOL    HW224375   4.716   1.965   8.831  0.0285 -2.7679 -1.5691
 4248SOL     OW24376   3.296   3.386   5.982 -1.0829  0.1891 -0.2101
 4248SOL    HW124377   3.231   3.351   6.043  0.9632 -0.4714  1.5828
 4248SOL    HW224378   3.340   3.306   5.953 -0.2887  0.5932 -0.1072
 4249SOL     OW24379   1.863   0.365   3.548  0.1859  0.0100  0.1576
 4249SOL    HW124380   1.837   0.415   3.471  0.5065  0.0012  0.0439
 4249SOL    HW224381   1.778   0.326   3.573 -1.0402  2.2195 -0.5861
 4250SOL     OW24382   3.853   3.449   2.554  0.9980  0.0172  0.4720
 4250SOL    HW124383   3.873   3.449   2.648 -1.1536 -0.8468  0.9387
 4250SOL    HW224384   3.924   3.507   2.527  1.7319 -1.3482 -0.5198
 4251SOL     OW24385   2.802   4.182   6.708 -0.0792  0.0752 -0.1454
 4251SOL    HW124386   2.760   4.150   6.629 -0.2132  1.2747 -0.5602
 4251SOL    HW224387   2.855   4.103   6.720  1.0697  0.9140  0.2923
 4252SOL     OW24388   2.128   3.159  12.316 -0.2928 -0.0227 -0.5884
 4252SOL    HW124389   2.157   3.185  12.229 -1.0536  1.8076 -0.2992
 4252SOL    HW224390   2.215   3.142  12.353 -1.3684  1.4531  2.6892
 4253SOL     OW24391   3.355   3.038   4.527  0.3960  0.3851  0.5294
 4253SOL    HW124392   3.354   2.946   4.500  1.3861  0.8241 -1.0022
 4253SOL    HW224393   3.382   3.043   4.618  1.1759 -0.1923  0.3245
 4254SOL     OW24394   0.922   4.216   6.628  0.0864  0.4303  0.0041
 4254SOL    HW124395   0.855   4.262   6.578 -1.2605 -0.0887  1.3417
 4254SOL    HW224396   0.866   4.185   6.700 -0.0733  0.3180 -0.1706
 4255SOL     OW24397   0.037   0.791  11.684  0.3053  0.5282 -0.2003
 4255SOL    HW124398   4.687   0.801  11.715  0.3768 -1.0798  0.4985
 4255SOL    HW224399   0.083   0.783  11.767  0.5123  0.6184 -0.3039
 4256SOL     OW24400   4.680   2.769   6.247 -0.2689  0.4981 -0.2532
 4256SOL    HW124401   4.676   2.771   6.151  2.2280 -0.7443 -0.3758
 4256SOL    HW224402   4.692   2.676   6.264  3.1849  0.6857 -1.5644
 4257SOL     OW24403   4.456   0.615  17.220 -0.4614 -0.3940 -0.4330
 4257SOL    HW124404   4.457   0.656  17.306 -1.0276 -1.8217  0.2591
 4257SOL    HW224405   4.387   0.668  17.181  0.6887 -0.2104 -2.1944
 4258SOL     OW24406   0.567   0.638  13.728 -0.2765 -0.3006 -0.3629
 4258SOL    HW124407   0.611   0.696  13.667 -1.7602 -0.0054 -1.1478
 4258SOL    HW224408   0.503   0.601  13.667 -1.3990  0.9657  0.0403
 4259SOL     OW24409   4.359   0.488   0.582  0.0740  0.0396 -0.4305
 4259SOL    HW124410   4.268   0.517   0.582  0.4356  1.1697  1.3343
 4259SOL    HW224411   4.384   0.502   0.673  1.9609  1.6081 -1.1588
 4260SOL     OW24412   1.332   3.584   5.436 -0.3095 -0.4739 -0.1644
 4260SOL    HW124413   1.351   3.529   5.512  3.1548  1.7964  0.6182
 4260SOL    HW224414   1.418   3.625   5.423 -0.3090 -0.5156 -0.2920
 4261SOL     OW24415   3.531   0.829   5.884 -0.0237 -0.0232 -0.6472
 4261SOL    HW124416   3.464   0.876   5.934  0.5149  0.1517 -0.0994
 4261SOL    HW224417   3.499   0.740   5.900  2.4532 -0.5519  1.3124
 4262SOL     OW24418   0.140   1.125  10.806  0.6249  0.0978  0.4783
 4262SOL    HW124419   0.188   1.042  10.809 -0.1118 -0.3677 -0.4756
 4262SOL    HW224420   0.172   1.177  10.880  0.3019 -0.6779  1.1572
 4263SOL     OW24421   0.972   3.667   3.159  0.1778  0.1605  0.2963
 4263SOL    HW124422   0.895   3.655   3.104  0.9677 -1.8535 -0.3598
 4263SOL    HW224423   1.039   3.666   3.092 -0.5100 -0.4372 -0.3789
 4264SOL     OW24424   0.199   2.362  13.409  0.6883  0.4170 -0.2279
 4264SOL    HW124425   0.130   2.304  13.378 -1.3816  1.3976  2.5166
 4264SOL    HW224426   0.248   2.379  13.329 -1.9792  0.8629 -1.7457
 4265SOL     OW24427   0.017   0.132   7.347 -0.0688 -0.4307  0.1520
 4265SOL    HW124428   4.696   0.206   7.337 -0.5731 -1.0979 -1.6693
 4265SOL    HW224429   0.003   0.110   7.439  1.9075 -0.2152  0.5100
 4266SOL     OW24430   3.333   0.266  12.098  0.1779  0.2259 -0.3824
 4266SOL    HW124431   3.340   0.354  12.061  0.1439  1.0995  1.6584
 4266SOL    HW224432   3.291   0.296  12.178 -0.4204 -1.3862 -0.0891
 4267SOL     OW24433   3.171   0.188  17.244 -0.4157  0.1028 -0.0135
 4267SOL    HW124434   3.210   0.203  17.158  0.6761  0.3353  0.5230
 4267SOL    HW224435   3.100   0.253  17.243  0.2096  0.7658 -0.9650
 4268SOL     OW24436   0.105   1.587  12.653 -0.1895 -0.4742  0.5404
 4268SOL    HW124437   0.025   1.599  12.703 -1.4807 -0.8875 -1.4360
 4268SOL    HW224438   0.087   1.516  12.592  0.2646 -1.2206  1.2836
 4269SOL     OW24439   2.942   0.911  10.703 -0.3254 -0.2947  0.3817
 4269SOL    HW124440   2.967   0.999  10.675 -0.4373 -0.7159 -1.0468
 4269SOL    HW224441   2.922   0.920  10.796  2.6197  0.9801  0.8908
 4270SOL     OW24442   0.398   0.697   4.919  0.8569 -0.2542  0.2046
 4270SOL    HW124443   0.342   0.729   4.990 -0.3743  0.2938 -1.0228
 4270SOL    HW224444   0.466   0.655   4.972 -0.1431 -0.1159  1.5861
 4271SOL     OW24445   0.547   2.451   4.250 -0.4812  0.1663 -0.0836
 4271SOL    HW124446   0.537   2.533   4.298  1.1442 -0.9680  2.2112
 4271SOL    HW224447   0.532   2.474   4.158  1.1878  0.3488 -0.3122
 4272SOL     OW24448   2.661   4.539  17.205  0.6498 -0.5525 -0.5837
 4272SOL    HW124449   2.708   4.568  17.126  1.8691  0.1491  0.3966
 4272SOL    HW224450   2.723   4.551  17.277  1.7931  2.0352 -1.9683
 4273SOL     OW24451   2.524   2.563   5.759  0.0489  0.1030 -0.8247
 4273SOL    HW124452   2.523   2.471   5.788 -2.5031  0.7740  1.2373
 4273SOL    HW224453   2.516   2.618   5.837  1.3639  0.1288 -0.6986
 4274SOL     OW24454   0.199   2.663   2.374 -0.1150  0.3060  0.2652
 4274SOL    HW124455   0.129   2.681   2.438 -2.1209 -0.2392 -1.7981
 4274SOL    HW224456   0.150   2.684   2.295  0.4667 -2.0312 -0.7024
 4275SOL     OW24457   1.181   3.749   3.462  0.1804 -0.0600 -0.6967
 4275SOL    HW124458   1.259   3.693   3.469 -1.1406 -1.7399  0.5601
 4275SOL    HW224459   1.111   3.689   3.439  1.1476 -1.1759 -0.7676
 4276SOL     OW24460   1.052   4.727   3.034 -0.1882  0.8321 -0.3567
 4276SOL    HW124461   0.976   0.025   2.989 -0.2024 -0.0570 -1.1004
 4276SOL    HW224462   1.071   4.653   2.976  0.8330  1.3958 -0.7304
 4277SOL     OW24463   2.942   0.074  17.569  0.2287  0.1521 -0.1185
 4277SOL    HW124464   3.022   0.050  17.616  0.8700  0.2071 -1.1934
 4277SOL    HW224465   2.953   0.169  17.558 -0.8638  0.4075  0.9255
 4278SOL     OW24466   2.680   1.565   7.399 -0.5838  0.1549  0.0797
 4278SOL    HW124467   2.775   1.570   7.411 -0.7988 -0.0141  1.8828
 4278SOL    HW224468   2.658   1.656   7.421  1.0619  0.8472 -1.1478
 4279SOL     OW24469   0.309   0.087   3.948 -0.0686  0.6084 -0.0655
 4279SOL    HW124470   0.345   0.078   3.860  0.5167 -0.6259  0.2993
 4279SOL    HW224471   0.248   0.161   3.939 -0.4710  0.4378  1.2421
 4280SOL     OW24472   3.100   1.880   1.894 -0.0047  0.1967 -0.5985
 4280SOL    HW124473   3.072   1.888   1.986  1.0861  0.8565 -0.3253
 4280SOL    HW224474   3.156   1.956   1.879 -0.6752  0.9212  0.5958
 4281SOL     OW24475   1.847   3.478   6.410 -0.6853  0.5149  0.2404
 4281SOL    HW124476   1.803   3.399   6.439  0.1715 -0.1567 -0.2989
 4281SOL    HW224477   1.809   3.500   6.325 -0.6569 -1.1790 -0.2003
 4282SOL     OW24478   2.971   3.149   3.518  0.0485 -0.4305 -0.7091
 4282SOL    HW124479   2.981   3.190   3.432  2.8247  0.9461  0.2579
 4282SOL    HW224480   2.928   3.215   3.572  2.4829  0.3072  0.3343
 4283SOL     OW24481   1.199   4.085   7.490  0.2434 -0.3778  0.3421
 4283SOL    HW124482   1.185   3.992   7.510 -1.4102  0.0208  1.0238
 4283SOL    HW224483   1.266   4.106   7.556  0.1085 -1.3227  0.7883
 4284SOL     OW24484   4.575   1.285  10.582 -0.4290 -0.1257 -0.2666
 4284SOL    HW124485   4.648   1.343  10.560  0.2554 -0.5181  0.9975
 4284SOL    HW224486   4.524   1.290  10.501 -1.9025 -1.2192  0.6065
 4285SOL     OW24487   2.343   0.594   1.577 -0.0513  0.2377 -0.1490
 4285SOL    HW124488   2.308   0.679   1.552 -0.0716 -0.7383 -3.4436
 4285SOL    HW224489   2.307   0.592   1.665  0.1723  1.5323 -0.0327
 4286SOL     OW24490   3.225   0.346  10.282  0.2368  0.3706 -0.0046
 4286SOL    HW124491   3.221   0.280  10.351 -2.3512  0.0703 -0.4314
 4286SOL    HW224492   3.312   0.384  10.291  1.2752 -2.0710  0.1618
 4287SOL     OW24493   0.845   1.933  13.813 -0.0807  0.3945  0.1098
 4287SOL    HW124494   0.922   1.975  13.775  0.2396 -2.2497 -2.1473
 4287SOL    HW224495   0.882   1.867  13.872 -0.2292 -0.8285 -1.1613
 4288SOL     OW24496   2.513   2.219   6.150  0.7420  0.2478 -0.1007
 4288SOL    HW124497   2.506   2.181   6.238  1.5544  1.0547  0.3197
 4288SOL    HW224498   2.591   2.274   6.162  0.9658 -0.0183 -0.3429
 4289SOL     OW24499   2.239   4.051   2.779 -0.4025 -0.1815  0.0455
 4289SOL    HW124500   2.267   3.960   2.767  2.5250  0.6033  0.7550
 4289SOL    HW224501   2.165   4.045   2.720  0.9175 -0.2733 -1.6011
 4290SOL     OW24502   2.094   4.046   7.742 -0.4722 -0.4892 -0.2829
 4290SOL    HW124503   2.091   4.129   7.790 -1.4527 -0.0164 -1.1665
 4290SOL    HW224504   2.097   4.078   7.652 -0.9840  0.7358  0.1290
 4291SOL     OW24505   3.943   0.006   1.765 -0.5430 -0.3688 -0.4425
 4291SOL    HW124506   3.892   0.084   1.747  0.1680  0.7244  2.2775
 4291SOL    HW224507   3.896   4.676   1.720 -3.6454 -0.0333  2.3444
 4292SOL     OW24508   2.994   1.104   6.121 -0.1583 -0.6123 -0.2831
 4292SOL    HW124509   3.003   1.068   6.033 -0.1288 -2.2452  0.3927
 4292SOL    HW224510   3.067   1.069   6.172  0.0247  0.6319  0.3277
 4293SOL     OW24511   0.467   2.640   6.086 -0.4935  0.4964  0.2720
 4293SOL    HW124512   0.396   2.586   6.051 -0.8498  2.4326 -1.9543
 4293SOL    HW224513   0.541   2.610   6.033 -0.6553  0.9659 -0.2144
 4294SOL     OW24514   1.094   3.396   8.192  0.0711  0.1719  0.3970
 4294SOL    HW124515   1.088   3.374   8.285  0.3545 -2.6570 -0.2804
 4294SOL    HW224516   1.121   3.313   8.154  0.5803  0.6495 -0.2930
 4295SOL     OW24517   0.769   1.556   9.331 -0.3542 -0.2777 -0.4274
 4295SOL    HW124518   0.758   1.615   9.406 -1.7474  1.2172 -1.8142
 4295SOL    HW224519   0.766   1.618   9.259 -2.0225 -1.4940 -1.4161
 4296SOL     OW24520   2.949   1.182   2.587  0.6693  0.4166 -0.0271
 4296SOL    HW124521   2.979   1.272   2.595 -0.2820  0.7326 -0.0221
 4296SOL    HW224522   3.004   1.131   2.647  0.4183  2.3943  1.8586
 4297SOL     OW24523   2.089   1.462   9.023 -0.2871 -0.1980 -0.3069
 4297SOL    HW124524   2.120   1.538   8.974 -0.3233 -0.2868 -0.4695
 4297SOL    HW224525   2.151   1.398   8.988  0.1109  0.3986 -0.6833
 4298SOL     OW24526   1.922   1.766  10.265  0.0061  0.3201  0.5532
 4298SOL    HW124527   1.946   1.703  10.197  0.1045 -0.1986  1.0653
 4298SOL    HW224528   1.917   1.704  10.339 -1.1315 -0.4753 -0.1900
 4299SOL     OW24529   2.067   3.245  11.620 -0.2942 -0.0599 -0.4007
 4299SOL    HW124530   2.017   3.325  11.608  2.2099  1.5838  0.1748
 4299SOL    HW224531   2.131   3.268  11.687 -2.7420 -0.6258  2.0966
 4300SOL     OW24532   1.487   3.470   6.924  0.5704 -0.6483  0.2477
 4300SOL    HW124533   1.488   3.427   7.009  0.5162  0.2197  0.6818
 4300SOL    HW224534   1.520   3.406   6.861 -0.7409  0.8547 -1.9644
 4301SOL     OW24535   1.107   0.116   2.069 -0.1816  0.2216  0.0253
 4301SOL    HW124536   1.104   0.035   2.119  1.7077  0.3546  0.3639
 4301SOL    HW224537   1.020   0.120   2.029 -0.1845  0.8144  0.0887
 4302SOL     OW24538   1.337   0.799  11.608  0.1100 -0.3013 -0.0054
 4302SOL    HW124539   1.265   0.857  11.635 -1.9455 -1.9650 -1.9045
 4302SOL    HW224540   1.345   0.840  11.521 -1.2334  1.0586  0.5076
 4303SOL     OW24541   1.524   1.261   8.971  0.7698 -0.1399  0.1230
 4303SOL    HW124542   1.541   1.167   8.964  1.1715 -0.1027  0.5399
 4303SOL    HW224543   1.429   1.269   8.958  0.6930 -0.7069  0.3408
 4304SOL     OW24544   2.057   3.610   7.806  0.7382 -0.1052  0.0599
 4304SOL    HW124545   2.121   3.562   7.753  0.1115  0.7131 -1.4401
 4304SOL    HW224546   2.112   3.661   7.864 -0.7080  0.5362  0.8661
 4305SOL     OW24547   2.057   1.970   5.868 -0.1167 -0.5555 -0.3650
 4305SOL    HW124548   2.091   2.023   5.940 -0.9747 -0.0154 -0.3583
 4305SOL    HW224549   1.964   1.973   5.889  0.6054 -1.0831  2.9637
 4306SOL     OW24550   1.125   1.924  14.600 -0.2108 -0.1976  0.4070
 4306SOL    HW124551   1.110   1.878  14.518 -1.1553 -1.7182  1.4320
 4306SOL    HW224552   1.220   1.936  14.597 -0.2407 -0.0103  0.2370
 4307SOL     OW24553   1.662   1.155  12.963  0.0322  0.4264  0.5557
 4307SOL    HW124554   1.723   1.113  12.902  0.7857  1.8503  0.3314
 4307SOL    HW224555   1.705   1.240  12.959  0.6057  0.1191  0.1293
 4308SOL     OW24556   1.548   1.541   5.370 -0.1527  0.2632 -0.2183
 4308SOL    HW124557   1.643   1.532   5.377 -0.2290 -1.6017 -1.8079
 4308SOL    HW224558   1.521   1.616   5.424 -3.6916 -1.4726  0.4534
 4309SOL     OW24559   1.626   3.738   4.720  0.2319 -0.3281 -0.4003
 4309SOL    HW124560   1.647   3.829   4.700 -0.0369  0.2487  1.9888
 4309SOL    HW224561   1.708   3.693   4.697  2.7227  3.1228  1.7061
 4310SOL     OW24562   4.203   0.161   3.409 -0.3321  0.4426  0.1261
 4310SOL    HW124563   4.107   0.170   3.408 -0.3925 -0.1841  0.2916
 4310SOL    HW224564   4.223   0.088   3.467  0.0306  1.4981  1.3355
 4311SOL     OW24565   0.492   4.248   4.863  0.0760 -0.2024 -0.0552
 4311SOL    HW124566   0.499   4.152   4.867  0.6461 -0.2112 -1.4259
 4311SOL    HW224567   0.534   4.271   4.946 -0.0321  0.0270 -0.0644
 4312SOL     OW24568   0.541   1.708   3.170 -0.6421 -0.3021  0.1346
 4312SOL    HW124569   0.450   1.709   3.201 -1.1942 -1.1079 -1.4823
 4312SOL    HW224570   0.572   1.649   3.239 -1.8302  1.1191  1.9188
 4313SOL     OW24571   0.125   4.535   0.755  0.4795 -0.2313 -0.1103
 4313SOL    HW124572   0.059   4.481   0.799  0.7642 -0.8527 -0.4466
 4313SOL    HW224573   0.106   4.619   0.797 -0.1622 -0.5380  0.2207
 4314SOL     OW24574   3.627   2.066   2.540 -0.2462 -0.4660  0.1011
 4314SOL    HW124575   3.702   2.024   2.581  1.2898  2.0502 -0.1465
 4314SOL    HW224576   3.580   1.983   2.541 -1.2223  0.1198  2.5121
 4315SOL     OW24577   4.344   4.248  17.502 -0.3799  0.0583 -0.5567
 4315SOL    HW124578   4.360   4.162  17.464  1.5966  0.2922 -0.2895
 4315SOL    HW224579   4.267   4.231  17.555 -0.6409  2.3428 -0.1942
 4316SOL     OW24580   3.031   0.049   1.478  0.2725 -0.3375 -0.0732
 4316SOL    HW124581   3.097   0.017   1.417 -0.5522  0.1535 -1.2117
 4316SOL    HW224582   3.036   4.717   1.541 -0.4386 -1.4990 -1.3404
 4317SOL     OW24583   3.304   0.862   2.619  0.3120  0.2053 -0.0404
 4317SOL    HW124584   3.254   0.935   2.581  0.7458  0.5898  0.1217
 4317SOL    HW224585   3.373   0.916   2.658 -0.4563 -1.0738  3.1115
 4318SOL     OW24586   0.992   3.985   1.860  0.1215  0.1685 -0.1858
 4318SOL    HW124587   1.077   3.983   1.817 -1.0220  0.3161 -2.4417
 4318SOL    HW224588   1.018   3.924   1.929 -0.3395  1.1728  0.8796
 4319SOL     OW24589   3.580   2.079  10.460  0.2480 -0.2419 -0.1242
 4319SOL    HW124590   3.641   2.053  10.391  0.3442 -2.5749  0.8178
 4319SOL    HW224591   3.508   2.080  10.397  1.2937  1.6920 -1.2842
 4320SOL     OW24592   2.504   1.109   9.320 -0.6284  0.3620 -0.1211
 4320SOL    HW124593   2.482   1.022   9.353 -2.8997  0.6919 -0.8082
 4320SOL    HW224594   2.419   1.136   9.285 -1.7979 -1.0595  1.6216
 4321SOL     OW24595   1.890   3.611   4.683  0.1972  0.1700 -0.2630
 4321SOL    HW124596   1.952   3.639   4.616  1.1830 -2.4822 -0.4605
 4321SOL    HW224597   1.948   3.592   4.757 -1.4595 -0.7678  0.8228
 4322SOL     OW24598   2.002   2.741  11.610 -0.0164 -0.2583  0.4277
 4322SOL    HW124599   1.966   2.810  11.665  0.9534  1.2018 -0.7788
 4322SOL    HW224600   2.035   2.797  11.541 -0.4801  0.0462  0.4543
 4323SOL     OW24601   0.292   4.178  13.407 -0.1475  0.4900 -1.4745
 4323SOL    HW124602   0.349   4.235  13.355  0.1284  1.1456 -0.4629
 4323SOL    HW224603   0.359   4.115  13.435  0.5539  1.5509 -0.7378
 4324SOL     OW24604   3.478   0.534  10.886  0.0839 -0.3462 -0.1012
 4324SOL    HW124605   3.457   0.495  10.801  0.7095 -0.9252  0.0087
 4324SOL    HW224606   3.570   0.550  10.864  0.0705  2.1183  1.7522
 4325SOL     OW24607   2.149   0.111   3.674  0.0771 -0.0443 -0.4549
 4325SOL    HW124608   2.113   0.066   3.751 -0.7611  1.1263 -0.1604
 4325SOL    HW224609   2.148   0.034   3.618 -0.2319 -0.7421  0.5072
 4326SOL     OW24610   4.029   4.710   3.634 -0.2375 -0.1116 -0.2125
 4326SOL    HW124611   3.993   0.055   3.608  1.5838  0.6767 -0.1864
 4326SOL    HW224612   4.120   4.730   3.657  0.1064 -1.8307 -0.0512
 4327SOL     OW24613   3.132   2.977   6.942  0.0218  0.6862  0.3681
 4327SOL    HW124614   3.207   2.932   6.904 -0.3069  0.4073  0.0524
 4327SOL    HW224615   3.062   2.971   6.877 -0.1883  1.9744  0.4766
 4328SOL     OW24616   2.460   3.017   3.304 -0.1874  0.6299  0.3333
 4328SOL    HW124617   2.459   3.112   3.291 -0.6650  0.3421 -1.6964
 4328SOL    HW224618   2.548   3.006   3.339  0.4301  0.8486 -1.1401
 4329SOL     OW24619   4.000   3.888  11.582  0.9105 -0.1041 -0.2298
 4329SOL    HW124620   3.953   3.959  11.539  0.9550  0.6554  0.9835
 4329SOL    HW224621   3.934   3.859  11.645  0.7279 -0.9141 -0.7980
 4330SOL     OW24622   4.407   3.370   4.590 -0.0287  0.3077 -0.4495
 4330SOL    HW124623   4.348   3.304   4.555  0.3319  1.1913 -2.6925
 4330SOL    HW224624   4.417   3.427   4.514  2.0242  2.2633  1.2677
 4331SOL     OW24625   0.151   0.819  16.301  0.1825  0.3953  0.4927
 4331SOL    HW124626   0.240   0.850  16.319  0.7324 -2.5088  2.8253
 4331SOL    HW224627   0.115   0.893  16.252 -0.4262  0.5327  1.1409
 4332SOL     OW24628   0.028   3.096   7.114  0.2199 -0.1259  0.2203
 4332SOL    HW124629   0.080   3.150   7.174  1.2382 -0.8320 -0.0304
 4332SOL    HW224630   0.096   3.057   7.059 -1.1919 -0.5671 -1.2091
 4333SOL     OW24631   1.695   0.573   1.071  0.4643 -0.2298  1.0366
 4333SOL    HW124632   1.703   0.524   1.153  1.4753  0.1715  1.1813
 4333SOL    HW224633   1.784   0.609   1.081  1.2614 -1.3968 -1.8415
 4334SOL     OW24634   2.136   0.610  12.918 -0.6497 -0.1401  0.2125
 4334SOL    HW124635   2.060   0.594  12.862 -0.1736  0.1338 -0.5150
 4334SOL    HW224636   2.128   0.704  12.933  1.5818  0.1234 -0.2062
 4335SOL     OW24637   1.628   0.626   8.922 -0.6746 -0.3608 -0.3807
 4335SOL    HW124638   1.611   0.611   9.015  1.0301  5.5420  0.8697
 4335SOL    HW224639   1.712   0.581   8.914  0.1778  1.1436 -0.0508
 4336SOL     OW24640   0.990   2.431   4.119  0.0606 -0.3238 -0.4913
 4336SOL    HW124641   0.927   2.405   4.052 -1.4370  3.8450 -0.7140
 4336SOL    HW224642   1.008   2.352   4.170  2.5365  0.4202 -0.2139
 4337SOL     OW24643   2.498   3.799   8.924  0.9619  0.1730  0.7234
 4337SOL    HW124644   2.432   3.869   8.923  0.5490 -0.2129  0.8434
 4337SOL    HW224645   2.527   3.807   8.833 -1.7623  1.4428 -0.0420
 4338SOL     OW24646   2.907   4.417  13.948  0.0209  0.3129  0.7811
 4338SOL    HW124647   2.827   4.452  13.909  0.5916  0.8070  0.0495
 4338SOL    HW224648   2.959   4.489  13.984 -0.3042  0.1969  1.4720
 4339SOL     OW24649   0.283   3.922   6.399  0.0147  0.1208  0.6307
 4339SOL    HW124650   0.249   3.890   6.316  0.8708  0.2641  0.2213
 4339SOL    HW224651   0.217   3.896   6.463 -0.8209  0.1566 -0.2172
 4340SOL     OW24652   3.930   1.308   1.403 -0.2083  0.7467  0.0600
 4340SOL    HW124653   3.920   1.378   1.339  1.0439 -2.6493 -3.8242
 4340SOL    HW224654   3.935   1.357   1.485  0.2946 -0.0348  0.5036
 4341SOL     OW24655   0.815   4.245  12.055  0.2161  0.0090 -0.9582
 4341SOL    HW124656   0.772   4.253  12.140  0.6938 -0.6185 -0.6602
 4341SOL    HW224657   0.772   4.163  12.031 -0.1538 -0.5815  1.7565
 4342SOL     OW24658   2.766   4.236   6.263 -0.3942  0.3219 -0.2899
 4342SOL    HW124659   2.803   4.187   6.336 -0.5478  0.8436  0.1455
 4342SOL    HW224660   2.748   4.167   6.200  3.1336 -0.1009 -0.8432
 4343SOL     OW24661   0.883   4.279  14.511 -0.4894  0.0435 -0.5673
 4343SOL    HW124662   0.792   4.251  14.500 -0.5732  0.0810  0.0483
 4343SOL    HW224663   0.919   4.240  14.590  1.8262  1.7789 -0.7425
 4344SOL     OW24664   0.785   3.517   9.141  0.1525 -0.1288 -0.6958
 4344SOL    HW124665   0.867   3.565   9.139 -0.3590  0.7301 -1.1679
 4344SOL    HW224666   0.728   3.589   9.168 -0.0091 -0.9414  1.1302
 4345SOL     OW24667   3.136   1.073   8.081 -0.3918  0.9603 -0.1326
 4345SOL    HW124668   3.072   1.038   8.143 -0.4283  0.9067 -0.2017
 4345SOL    HW224669   3.085   1.073   8.001 -0.9328  2.8408  0.2104
 4346SOL     OW24670   4.388   3.757  14.877 -0.0277 -0.2232  0.1392
 4346SOL    HW124671   4.439   3.771  14.956  0.0583  0.0229  0.0429
 4346SOL    HW224672   4.354   3.669  14.892  1.7108 -0.6340  1.6517
 4347SOL     OW24673   4.064   3.624   5.630  0.4937 -0.1421 -0.3588
 4347SOL    HW124674   4.054   3.555   5.696  0.5766  2.2941  2.2187
 4347SOL    HW224675   4.052   3.583   5.545 -0.0209 -1.6783  0.4542
 4348SOL     OW24676   1.087   2.809   4.773 -0.0983  0.2094  0.1649
 4348SOL    HW124677   1.069   2.748   4.702  0.2364  0.4675 -0.1386
 4348SOL    HW224678   1.136   2.747   4.826  1.8066  0.1175 -1.7181
 4349SOL     OW24679   2.918   1.871   9.327  0.0862 -0.9483  0.1326
 4349SOL    HW124680   2.935   1.839   9.238  1.4504  0.2344 -0.0206
 4349SOL    HW224681   2.959   1.957   9.328  0.5122 -1.1663  1.0333
 4350SOL     OW24682   4.485   1.355  10.329  0.2189 -0.1612 -0.3497
 4350SOL    HW124683   4.450   1.289  10.269 -1.0665 -0.4168  0.6839
 4350SOL    HW224684   4.450   1.438  10.298  3.0942  1.1340 -0.1266
 4351SOL     OW24685   1.522   0.073  14.660 -0.4994  0.0500 -0.2561
 4351SOL    HW124686   1.502   0.044  14.571  0.0968  2.5472 -1.2103
 4351SOL    HW224687   1.559   0.159  14.638  0.7364 -0.5658 -0.5704
 4352SOL     OW24688   1.878   1.456   2.878  0.5107  0.0014  0.4127
 4352SOL    HW124689   1.793   1.474   2.918  0.2106 -1.2646  0.3216
 4352SOL    HW224690   1.876   1.362   2.861  0.4765  0.4928 -2.2378
 4353SOL     OW24691   3.764   1.101  10.167 -0.6078 -0.1981  0.0358
 4353SOL    HW124692   3.733   1.097  10.077 -1.3825 -1.0900  0.3416
 4353SOL    HW224693   3.833   1.035  10.166 -1.5170 -1.1858  2.1392
 4354SOL     OW24694   0.156   3.694   9.096  0.7723  0.0320 -0.1255
 4354SOL    HW124695   0.163   3.603   9.126 -3.2473 -0.3981 -0.4570
 4354SOL    HW224696   0.245   3.704   9.060  0.4307 -4.0083 -2.1721
 4355SOL     OW24697   1.810   2.802   6.040  0.3968  0.0655 -0.1297
 4355SOL    HW124698   1.883   2.852   6.077  0.1720 -0.5958  1.2251
 4355SOL    HW224699   1.765   2.776   6.121  0.6926 -2.6615 -0.8235
 4356SOL     OW24700   0.083   1.539   7.357 -0.4236  0.3214 -0.2566
 4356SOL    HW124701   0.115   1.470   7.299  1.7734  0.2677  0.9923
 4356SOL    HW224702   0.023   1.584   7.298 -0.7303 -0.3299 -0.4362
 4357SOL     OW24703   1.331   3.397   5.664 -0.0347  0.2320  0.4410
 4357SOL    HW124704   1.297   3.403   5.753 -1.3811  1.0342 -0.1259
 4357SOL    HW224705   1.420   3.363   5.672 -0.0353  0.1414  0.0628
 4358SOL     OW24706   1.701   0.834  16.250 -0.1957 -0.4319  0.1368
 4358SOL    HW124707   1.696   0.928  16.234  0.4258 -0.7124 -1.7431
 4358SOL    HW224708   1.705   0.834  16.345 -0.5159 -1.1704  0.1486
 4359SOL     OW24709   2.294   1.360   7.174 -0.0041 -0.4920 -0.2805
 4359SOL    HW124710   2.288   1.265   7.163  0.5306 -0.4664 -0.8031
 4359SOL    HW224711   2.211   1.377   7.217 -0.2136 -1.8575 -0.1576
 4360SOL     OW24712   1.754   3.861   6.416  0.3046  0.1192 -0.2046
 4360SOL    HW124713   1.829   3.852   6.476  0.6952 -0.1662 -0.7380
 4360SOL    HW224714   1.757   3.953   6.390 -0.9329 -0.5478 -2.7548
 4361SOL     OW24715   3.742   4.098   0.809  0.5098 -0.1857  0.1075
 4361SOL    HW124716   3.657   4.143   0.812  1.2315  1.1385  0.4941
 4361SOL    HW224717   3.759   4.063   0.897  0.1335 -1.8354 -0.4691
 4362SOL     OW24718   2.933   0.110   2.505  0.0377  0.8901  1.2647
 4362SOL    HW124719   2.979   0.132   2.586  0.1865  2.6549  0.6979
 4362SOL    HW224720   2.967   0.170   2.438  1.3732 -1.1012  0.1310
 4363SOL     OW24721   0.484   3.728   5.510  0.4222  0.4227 -0.1799
 4363SOL    HW124722   0.572   3.739   5.547  0.6249 -0.6985 -0.3306
 4363SOL    HW224723   0.426   3.726   5.587  2.8771 -1.2056  1.6241
 4364SOL     OW24724   1.317   1.141   1.185 -0.1936  0.0234  0.2344
 4364SOL    HW124725   1.409   1.167   1.191  0.0448 -0.9121  0.5251
 4364SOL    HW224726   1.277   1.228   1.177 -0.6236 -0.2587 -0.7055
 4365SOL     OW24727   2.686   1.278   8.888 -0.6121 -0.1016 -0.0612
 4365SOL    HW124728   2.591   1.274   8.884 -0.6207 -0.5481  0.6047
 4365SOL    HW224729   2.704   1.264   8.982 -2.4312  4.0527  0.9029
 4366SOL     OW24730   2.151   1.826   5.671  0.5273 -0.6433 -0.5234
 4366SOL    HW124731   2.219   1.893   5.660  2.7143 -2.6560  0.8418
 4366SOL    HW224732   2.101   1.868   5.740 -0.1310 -1.9794 -0.1992
 4367SOL     OW24733   3.653   0.434   0.621  0.3429 -0.0313 -0.0949
 4367SOL    HW124734   3.694   0.361   0.575 -2.2553  0.2324 -2.8483
 4367SOL    HW224735   3.725   0.461   0.676  2.5421 -1.1378 -2.4105
 4368SOL     OW24736   3.501   1.039   9.732 -0.8457  0.0030 -0.0970
 4368SOL    HW124737   3.551   1.010   9.808  1.0402  1.8011 -0.6509
 4368SOL    HW224738   3.476   0.955   9.695  0.3993 -0.3245 -0.1917
 4369SOL     OW24739   0.213   3.938  12.676  0.2504 -0.3033 -0.2189
 4369SOL    HW124740   0.148   3.887  12.724 -2.5692  2.4249 -1.1485
 4369SOL    HW224741   0.245   3.995  12.746 -1.2648  0.2698  0.0112
 4370SOL     OW24742   0.593   3.868   2.417  0.2972  0.5322  0.4370
 4370SOL    HW124743   0.628   3.862   2.506 -0.9418 -0.1673  0.8732
 4370SOL    HW224744   0.635   3.789   2.382  1.8558  1.1211  0.9676
 4371SOL     OW24745   4.221   2.555   8.196 -0.5951  0.2885 -0.1765
 4371SOL    HW124746   4.143   2.605   8.171 -0.6457  0.6823  0.7783
 4371SOL    HW224747   4.277   2.632   8.192  1.9171 -1.5203  0.1825
 4372SOL     OW24748   0.354   1.665   4.467  0.2687 -0.2797 -0.1293
 4372SOL    HW124749   0.285   1.603   4.442 -0.1291  0.3919 -0.7017
 4372SOL    HW224750   0.424   1.628   4.413 -0.1335  1.1453 -1.6324
 4373SOL     OW24751   0.111   3.204  17.031  0.1333 -0.1591 -0.1555
 4373SOL    HW124752   0.114   3.108  17.026 -1.0276 -0.2827  1.6517
 4373SOL    HW224753   0.155   3.231  17.111  0.0025  2.3799 -0.9504
 4374SOL     OW24754   3.688   4.118   7.532  0.6708  0.0543  0.0475
 4374SOL    HW124755   3.714   4.081   7.448  1.3482  1.8262 -0.5164
 4374SOL    HW224756   3.769   4.167   7.547  1.1900 -0.4779 -1.0413
 4375SOL     OW24757   3.178   2.618   2.278 -0.2128 -0.0985 -0.4232
 4375SOL    HW124758   3.237   2.591   2.349  1.6156  2.5618 -0.9153
 4375SOL    HW224759   3.232   2.637   2.202  1.6406  0.8781  1.1346
 4376SOL     OW24760   1.704   2.732   4.058  0.0647 -0.0716 -0.1460
 4376SOL    HW124761   1.662   2.787   4.124 -1.2723 -1.1919 -0.0513
 4376SOL    HW224762   1.631   2.695   4.008 -0.0634  0.2770 -0.2141
 4377SOL     OW24763   3.515   4.657   5.623  0.1062  0.3157  0.4643
 4377SOL    HW124764   3.456   4.709   5.570 -0.0722  0.9260  1.2499
 4377SOL    HW224765   3.493   4.674   5.715  0.4768 -2.1741  1.0308
 4378SOL     OW24766   1.828   4.419  11.134  0.5672  0.3159 -0.1794
 4378SOL    HW124767   1.765   4.412  11.205 -0.6464  2.0977 -1.0648
 4378SOL    HW224768   1.813   4.340  11.082  2.1284  0.0942 -0.3048
 4379SOL     OW24769   2.080   3.699   7.497  0.1342  0.3580  0.2368
 4379SOL    HW124770   2.083   3.615   7.450  0.9562  1.3202 -1.4446
 4379SOL    HW224771   2.169   3.696   7.531 -0.6052 -2.9340  1.8293
 4380SOL     OW24772   4.501   3.560   0.881 -0.0150  0.0794  0.0565
 4380SOL    HW124773   4.533   3.608   0.805 -0.6127 -3.6172 -2.5095
 4380SOL    HW224774   4.571   3.582   0.942 -0.9674  0.0846  1.1495
 4381SOL     OW24775   3.987   4.663   2.035 -0.4649  0.3521 -0.1422
 4381SOL    HW124776   3.964   4.704   1.951 -2.1440  2.2641  1.2420
 4381SOL    HW224777   4.020   4.739   2.083  0.7739 -0.0901 -0.3054
 4382SOL     OW24778   3.242   3.455   2.049  0.0550 -0.6980 -0.3551
 4382SOL    HW124779   3.192   3.379   2.080  1.1912 -0.7522  1.3684
 4382SOL    HW224780   3.328   3.436   2.087 -0.9875 -1.3202  1.7280
 4383SOL     OW24781   0.431   3.828  17.720 -0.3711 -0.1018 -0.0750
 4383SOL    HW124782   0.510   3.877  17.697 -0.1440 -1.5639 -2.4616
 4383SOL    HW224783   0.468   3.740  17.711  0.6091  0.2813  0.2251
 4384SOL     OW24784   3.040   3.506   6.527 -0.4696  0.5624  0.1331
 4384SOL    HW124785   3.079   3.534   6.610  0.0229  1.1413 -0.2953
 4384SOL    HW224786   3.105   3.441   6.500  1.0772  1.7013  1.1851
 4385SOL     OW24787   2.163   0.092   1.300  0.3332 -0.4002 -0.4074
 4385SOL    HW124788   2.115   0.173   1.283  0.9116  0.5306  2.4479
 4385SOL    HW224789   2.221   0.099   1.225 -0.3693  0.1754 -0.8958
 4386SOL     OW24790   1.413   0.158  11.918  0.3601  0.0475  0.1603
 4386SOL    HW124791   1.347   0.124  11.858 -0.4561 -1.1070  1.6961
 4386SOL    HW224792   1.443   0.233  11.868 -0.6257 -1.4541 -2.7114
 4387SOL     OW24793   1.462   4.708   7.028  0.0230 -0.1843 -0.3118
 4387SOL    HW124794   1.537   0.023   7.049 -0.3198  0.0835  0.2312
 4387SOL    HW224795   1.502   4.640   6.974 -2.5288 -2.2353  0.3524
 4388SOL     OW24796   2.447   0.721   2.749 -0.2335  0.1110  0.0313
 4388SOL    HW124797   2.476   0.802   2.791 -1.0771  1.2122 -1.5002
 4388SOL    HW224798   2.511   0.661   2.786 -0.5712  0.1384  0.6600
 4389SOL     OW24799   3.556   2.551   2.969  0.0727  0.3775  0.4280
 4389SOL    HW124800   3.498   2.475   2.980  0.8678 -0.2275  0.4720
 4389SOL    HW224801   3.519   2.602   3.040  0.0679  1.2129 -0.1816
 4390SOL     OW24802   0.934   1.695   3.546  0.1025 -0.0652  0.0487
 4390SOL    HW124803   0.948   1.646   3.627  1.5987 -1.1706 -0.8778
 4390SOL    HW224804   0.989   1.773   3.551 -0.2837  0.2825 -1.2376
 4391SOL     OW24805   3.486   2.331   7.321  0.4234  0.1771 -0.6396
 4391SOL    HW124806   3.579   2.311   7.328  0.0436 -1.2564  0.1719
 4391SOL    HW224807   3.482   2.427   7.329 -1.3767  0.1516 -1.0493
 4392SOL     OW24808   3.972   2.115   5.039  0.0431 -0.1826 -0.3493
 4392SOL    HW124809   3.885   2.121   5.080 -0.3973  3.0235 -1.7884
 4392SOL    HW224810   3.975   2.181   4.970  1.6683 -0.5455 -0.6300
 4393SOL     OW24811   4.157   0.670   4.083  0.1307  0.1394  0.1304
 4393SOL    HW124812   4.068   0.660   4.116 -0.1033 -0.0681 -0.5780
 4393SOL    HW224813   4.195   0.688   4.169  0.1408  1.0980 -0.0679
 4394SOL     OW24814   0.481   3.859  14.041  0.3781 -0.1471 -0.3699
 4394SOL    HW124815   0.401   3.912  14.044 -1.6244 -3.1992  0.1479
 4394SOL    HW224816   0.469   3.831  13.951  3.1434  0.5233 -0.9376
 4395SOL     OW24817   3.059   3.566   7.595  0.5423  0.5850  0.4656
 4395SOL    HW124818   3.050   3.477   7.629  0.2495  0.9943  1.4662
 4395SOL    HW224819   3.153   3.574   7.579 -0.0968  1.7428 -2.7429
 4396SOL     OW24820   3.062   4.331   5.809 -0.2233  0.7086  0.3057
 4396SOL    HW124821   3.032   4.263   5.749 -0.0153  1.0597 -0.1959
 4396SOL    HW224822   3.116   4.389   5.756 -1.8685  2.4185  0.4841
 4397SOL     OW24823   2.069   1.891   0.669  0.6157 -0.0325 -0.3863
 4397SOL    HW124824   2.045   1.865   0.757  1.0110  2.0924  0.3550
 4397SOL    HW224825   2.031   1.979   0.659 -1.3152 -0.5536  2.7628
 4398SOL     OW24826   2.587   1.382   3.549  0.0852  0.0927  0.0433
 4398SOL    HW124827   2.652   1.400   3.481 -0.1045 -2.0097 -0.6936
 4398SOL    HW224828   2.563   1.471   3.577  1.3583  0.3645  0.2686
 4399SOL     OW24829   4.476   2.034   9.485  0.5034  0.9067  0.3031
 4399SOL    HW124830   4.524   2.117   9.488 -0.3153  1.4782 -2.5071
 4399SOL    HW224831   4.386   2.067   9.481 -0.0707 -1.0253 -2.6018
 4400SOL     OW24832   4.243   4.028  16.088  0.2869  0.2111 -0.1027
 4400SOL    HW124833   4.311   4.091  16.063  1.4903 -0.9160  0.3338
 4400SOL    HW224834   4.191   4.066  16.159 -2.0527  0.6257 -2.0367
 4401SOL     OW24835   0.377   1.797   5.119  0.0855  0.7549  0.1019
 4401SOL    HW124836   0.332   1.752   5.191  0.5357  1.0230  0.5515
 4401SOL    HW224837   0.307   1.785   5.055  1.3351 -1.0913 -0.8980
 4402SOL     OW24838   2.796   0.137   9.679  0.2373  0.2026 -0.2091
 4402SOL    HW124839   2.774   0.129   9.586 -0.3073 -1.8426  0.0914
 4402SOL    HW224840   2.879   0.090   9.687 -0.0638 -0.1035  1.2572
 4403SOL     OW24841   2.166   0.186   6.580  0.3105 -0.2397 -0.3611
 4403SOL    HW124842   2.104   0.125   6.541  0.5713  0.4264 -1.8178
 4403SOL    HW224843   2.247   0.163   6.534 -0.0854 -0.7561 -0.7966
 4404SOL     OW24844   0.526   3.248   4.967 -0.4635 -0.1550  0.3391
 4404SOL    HW124845   0.454   3.221   4.911 -0.5144 -0.6391  0.6411
 4404SOL    HW224846   0.593   3.188   4.936  1.3946  2.0452  0.0914
 4405SOL     OW24847   4.109   2.420   7.874  0.8077  0.1166 -0.7503
 4405SOL    HW124848   4.130   2.513   7.872 -1.6940  0.7646  2.2914
 4405SOL    HW224849   4.035   2.426   7.813  0.1956 -0.3129 -0.0441
 4406SOL     OW24850   1.084   1.586  10.092 -0.3412  0.1896  0.2512
 4406SOL    HW124851   1.125   1.501  10.108 -0.6665  0.1095  0.6554
 4406SOL    HW224852   0.997   1.563  10.060  1.0438 -2.9054 -1.2878
 4407SOL     OW24853   1.463   2.225   4.458  0.2438 -0.3427  0.1233
 4407SOL    HW124854   1.498   2.267   4.536 -0.2387  1.2381 -0.5284
 4407SOL    HW224855   1.421   2.302   4.421  3.7607  0.9036 -1.2750
 4408SOL     OW24856   0.708   0.742   3.682 -0.1480  0.2259  0.4714
 4408SOL    HW124857   0.699   0.769   3.773  0.9550  2.6442 -0.1626
 4408SOL    HW224858   0.702   0.825   3.634  2.8447 -0.2024 -0.6439
 4409SOL     OW24859   3.446   3.879   8.121  0.0891 -0.4268 -0.4297
 4409SOL    HW124860   3.449   3.878   8.217 -0.3338  0.7842 -0.4117
 4409SOL    HW224861   3.467   3.787   8.105  0.2195 -0.8736  2.3467
 4410SOL     OW24862   1.159   1.616  15.998 -0.0062  0.0894  0.7281
 4410SOL    HW124863   1.133   1.628  15.907  0.4204 -1.0601  0.4557
 4410SOL    HW224864   1.205   1.699  16.014  0.0891  0.2442 -0.3476
 4411SOL     OW24865   0.568   1.905   8.618 -0.1518 -0.1613 -0.5479
 4411SOL    HW124866   0.498   1.925   8.556  1.0098  3.1305 -0.7765
 4411SOL    HW224867   0.561   1.986   8.669 -1.4141 -0.4189 -0.3186
 4412SOL     OW24868   0.233   0.017   3.119 -0.4149  0.3926 -0.1380
 4412SOL    HW124869   0.168   4.728   3.054  1.3474 -1.3409 -1.1339
 4412SOL    HW224870   0.271   0.090   3.070  0.8964 -1.1127 -1.3793
 4413SOL     OW24871   2.882   3.723   4.946 -0.1690  0.2810 -0.0922
 4413SOL    HW124872   2.791   3.749   4.958 -0.4649 -0.4797 -0.6355
 4413SOL    HW224873   2.899   3.729   5.040 -1.0376  4.2625 -0.2138
 4414SOL     OW24874   3.834   4.386   4.718 -0.2778  0.2337  0.6376
 4414SOL    HW124875   3.852   4.381   4.812 -1.1734 -1.6889  0.7029
 4414SOL    HW224876   3.798   4.473   4.702 -2.1458 -0.2767  2.1960
 4415SOL     OW24877   3.207   3.256  11.558  0.1090  0.1565  0.2140
 4415SOL    HW124878   3.295   3.277  11.589 -0.0376  1.8824 -0.5323
 4415SOL    HW224879   3.153   3.308  11.617  3.1981  1.3478  1.9896
 4416SOL     OW24880   4.055   2.064   6.828 -0.1765 -0.3612 -0.1254
 4416SOL    HW124881   4.077   2.144   6.780  0.2802 -1.0071 -0.9926
 4416SOL    HW224882   3.984   2.096   6.883 -0.9967 -2.0509 -0.1905
 4417SOL     OW24883   1.191   2.352  14.380  0.4271  0.3219  0.0777
 4417SOL    HW124884   1.202   2.428  14.438  2.8078 -0.6063  0.8447
 4417SOL    HW224885   1.099   2.355  14.356  0.8006  0.1094 -1.3874
 4418SOL     OW24886   2.858   2.111   1.245  0.4489  0.1057  0.1882
 4418SOL    HW124887   2.895   2.077   1.326 -2.4593 -1.6652  0.7995
 4418SOL    HW224888   2.893   2.047   1.184 -0.7829 -0.5413  0.1453
 4419SOL     OW24889   3.499   1.329   8.552 -0.8888 -0.1830 -0.1060
 4419SOL    HW124890   3.561   1.362   8.617 -0.1836  0.7524 -1.2450
 4419SOL    HW224891   3.412   1.363   8.573 -0.0871  1.7220  0.1497
 4420SOL     OW24892   2.858   1.729   4.458 -0.5977  0.7246  0.1270
 4420SOL    HW124893   2.855   1.723   4.362  1.0699  1.0160  0.0583
 4420SOL    HW224894   2.952   1.740   4.468 -0.0263 -1.3219 -2.9730
 4421SOL     OW24895   2.814   3.129   2.297  0.3484  0.7555 -0.0925
 4421SOL    HW124896   2.883   3.127   2.363  0.7781  1.7817 -0.5163
 4421SOL    HW224897   2.757   3.192   2.341 -1.2889 -0.0273 -1.0712
 4422SOL     OW24898   4.336   2.285  13.804  0.4667  0.0994  0.1191
 4422SOL    HW124899   4.278   2.224  13.759  2.1567  0.2346 -2.2776
 4422SOL    HW224900   4.389   2.310  13.728 -0.1140  1.6454  0.2241
 4423SOL     OW24901   0.924   3.282   0.102  0.0493  0.1175  0.4156
 4423SOL    HW124902   0.995   3.314   0.158  0.4933 -1.5871  0.8425
 4423SOL    HW224903   0.974   3.225   0.043  1.5513  1.9336 -0.0641
 4424SOL     OW24904   2.878   3.047   6.065 -0.0145 -0.1822  0.1419
 4424SOL    HW124905   2.785   3.065   6.054 -0.4713 -1.1518  2.4636
 4424SOL    HW224906   2.868   2.952   6.056  0.8338 -0.1585 -1.0781
 4425SOL     OW24907   1.241   3.850   8.631 -0.1411  0.1818  0.1604
 4425SOL    HW124908   1.235   3.773   8.687  0.5601  0.3937  0.5317
 4425SOL    HW224909   1.162   3.900   8.653  0.2052  1.3700 -1.3039
 4426SOL     OW24910   0.960   3.104  15.119  0.4276  0.2002  0.0834
 4426SOL    HW124911   0.906   3.025  15.107  1.6821 -0.2774 -2.3170
 4426SOL    HW224912   0.935   3.152  15.040 -1.5144  2.5939  2.1547
 4427SOL     OW24913   1.017   0.633  15.569 -0.2084  0.1814  0.7383
 4427SOL    HW124914   1.024   0.728  15.559  0.5754  0.0047 -0.3536
 4427SOL    HW224915   1.014   0.596  15.481  1.2520 -0.5709  1.0058
 4428SOL     OW24916   2.531   0.018   4.953  0.8601 -0.0902  0.0183
 4428SOL    HW124917   2.500   4.697   5.019  1.2053  1.6311  1.7606
 4428SOL    HW224918   2.550   4.703   4.877 -0.2037 -1.7630  0.9712
 4429SOL     OW24919   4.227   3.531   3.526 -0.4160  0.2197  0.1485
 4429SOL    HW124920   4.248   3.464   3.591 -0.4938 -0.0730 -0.1326
 4429SOL    HW224921   4.143   3.504   3.491 -0.3417  2.9358 -2.1896
 4430SOL     OW24922   1.378   2.708   4.497 -0.0825 -0.4784 -0.3437
 4430SOL    HW124923   1.448   2.762   4.460  1.1322 -0.1308  2.4521
 4430SOL    HW224924   1.308   2.711   4.433  0.4583  1.8727 -0.8390
 4431SOL     OW24925   0.689   1.143   6.170 -0.2395 -0.5587 -0.2627
 4431SOL    HW124926   0.649   1.180   6.249 -0.1796 -0.6759 -0.1760
 4431SOL    HW224927   0.694   1.227   6.124  1.9434  0.3569  1.6198
 4432SOL     OW24928   0.347   2.549   0.859  0.3874  0.6210  0.7943
 4432SOL    HW124929   0.300   2.476   0.821  1.6497  1.1976 -1.8368
 4432SOL    HW224930   0.417   2.569   0.797 -0.8437 -0.0457 -0.7754
 4433SOL     OW24931   2.567   1.760   3.864 -0.0678 -0.3943 -0.3996
 4433SOL    HW124932   2.538   1.759   3.773  0.6971  0.4770 -0.6531
 4433SOL    HW224933   2.486   1.786   3.908  1.6271  1.1683  1.7854
 4434SOL     OW24934   0.618   2.014   7.080 -0.6502  0.2367 -0.1047
 4434SOL    HW124935   0.648   2.053   6.998  0.2880  0.8693  0.5573
 4434SOL    HW224936   0.665   1.931   7.080  1.5119  1.4904  1.5814
 4435SOL     OW24937   0.532   1.595   4.281 -0.6052  0.2486  0.8775
 4435SOL    HW124938   0.534   1.502   4.259  0.7556  0.9412 -1.8705
 4435SOL    HW224939   0.485   1.634   4.207  0.6977 -0.7515 -0.4836
 4436SOL     OW24940   0.866   2.101  15.382 -0.1490 -0.0091  0.2524
 4436SOL    HW124941   0.787   2.119  15.332  0.5329  1.8322 -0.1495
 4436SOL    HW224942   0.827   2.097  15.470 -1.1925  2.0714 -0.1113
 4437SOL     OW24943   0.518   3.763   8.360  0.3112  0.3388 -0.6159
 4437SOL    HW124944   0.434   3.755   8.405  1.6585  0.6384  2.0273
 4437SOL    HW224945   0.560   3.681   8.387  0.0986  0.2488 -0.5584
 4438SOL     OW24946   4.139   2.184  17.471 -0.1919  0.6483 -0.8449
 4438SOL    HW124947   4.072   2.197  17.404  0.7672  1.6949 -1.6119
 4438SOL    HW224948   4.089   2.137  17.537 -0.8138  1.1130 -0.9866
 4439SOL     OW24949   1.820   4.672   2.059 -0.3841 -0.8945  0.2714
 4439SOL    HW124950   1.746   4.709   2.011  1.0023  0.3096 -0.9215
 4439SOL    HW224951   1.844   4.730   2.131 -0.5700  0.9845 -1.1899
 4440SOL     OW24952   1.122   1.028  13.816  0.6481 -0.5815  0.0502
 4440SOL    HW124953   1.050   0.977  13.852 -0.1885  0.4480 -0.1587
 4440SOL    HW224954   1.092   1.119  13.824  1.1997 -0.3194 -0.9405
 4441SOL     OW24955   0.795   2.416   5.523  0.5036  0.1185 -0.2466
 4441SOL    HW124956   0.846   2.338   5.499 -2.2890 -2.3791  1.8245
 4441SOL    HW224957   0.718   2.398   5.469 -0.9783 -0.5365  2.0622
 4442SOL     OW24958   2.298   1.828   6.926 -0.4949  0.0508  0.2105
 4442SOL    HW124959   2.221   1.771   6.930  0.0395 -0.6041  1.3334
 4442SOL    HW224960   2.256   1.893   6.870 -1.4663 -0.1828  0.6528
 4443SOL     OW24961   0.492   1.882   7.411 -0.0292  0.1377 -0.2770
 4443SOL    HW124962   0.496   1.922   7.498 -1.3106 -2.6801  1.0959
 4443SOL    HW224963   0.414   1.930   7.383 -0.0664 -0.1669 -0.6998
 4444SOL     OW24964   2.414   2.844  10.929  0.0808  0.3092 -0.1460
 4444SOL    HW124965   2.477   2.915  10.937 -1.0290  1.0539  1.8236
 4444SOL    HW224966   2.351   2.887  10.872 -2.1018 -0.5774  1.6022
 4445SOL     OW24967   4.136   0.140   6.752 -0.2824  0.4450 -0.9726
 4445SOL    HW124968   4.168   0.229   6.738  3.5258 -0.5898  1.2860
 4445SOL    HW224969   4.044   0.157   6.773  0.4141  3.8965 -0.6064
 4446SOL     OW24970   1.321   2.258   3.980  0.3895  0.0260 -0.1214
 4446SOL    HW124971   1.347   2.172   3.945  0.8698 -0.3012  1.0510
 4446SOL    HW224972   1.252   2.242   4.044  0.4574 -0.8046 -0.2603
 4447SOL     OW24973   0.608   0.810   7.303 -0.8137  0.1041 -0.3554
 4447SOL    HW124974   0.655   0.888   7.333  0.3310 -1.6228  2.4191
 4447SOL    HW224975   0.681   0.748   7.298 -1.9872 -1.3557  0.3443
 4448SOL     OW24976   2.223   3.025   5.611 -0.5228  0.2749  0.4168
 4448SOL    HW124977   2.176   2.950   5.647 -1.2566  0.5099 -0.0578
 4448SOL    HW224978   2.189   3.100   5.660 -1.6996 -1.5814  2.4459
 4449SOL     OW24979   1.124   0.648   6.401 -0.6086 -0.3482  0.1509
 4449SOL    HW124980   1.096   0.616   6.487  0.8524 -1.2621  0.2796
 4449SOL    HW224981   1.052   0.703   6.369 -0.1417 -0.9308 -1.8409
 4450SOL     OW24982   2.580   2.545   7.270 -0.9510  0.2627  0.3865
 4450SOL    HW124983   2.546   2.483   7.205 -0.2166  0.6793 -0.3904
 4450SOL    HW224984   2.672   2.536   7.246 -1.0382  2.6246 -0.7820
 4451SOL     OW24985   2.318   1.947  14.774 -0.0340 -0.2670 -0.3703
 4451SOL    HW124986   2.231   1.977  14.748  0.1170 -0.6633 -1.3399
 4451SOL    HW224987   2.367   1.994  14.706 -0.1441 -1.4986 -1.3112
 4452SOL     OW24988   3.601   0.589   1.382  0.4315 -0.3198  0.4319
 4452SOL    HW124989   3.623   0.545   1.465 -0.8921  1.0679  1.5178
 4452SOL    HW224990   3.632   0.679   1.392  1.4444 -0.4132 -1.8036
 4453SOL     OW24991   4.373   1.473   5.142 -0.5895  0.0038  0.2739
 4453SOL    HW124992   4.357   1.387   5.102  0.5929  0.3468 -0.9223
 4453SOL    HW224993   4.315   1.532   5.094  0.7233 -0.4097 -1.7871
 4454SOL     OW24994   4.419   1.834   4.983  0.1867 -0.2433 -0.6909
 4454SOL    HW124995   4.340   1.780   4.980 -0.8386  1.3421 -2.1896
 4454SOL    HW224996   4.401   1.915   5.033  0.6008 -0.1512 -0.6935
 4455SOL     OW24997   0.522   1.454   7.721  0.1399  0.3166 -0.9318
 4455SOL    HW124998   0.487   1.482   7.637 -2.0079  1.2462  0.2944
 4455SOL    HW224999   0.566   1.537   7.740 -0.5254 -0.1275  2.5711
 4456SOL     OW25000   2.224   1.764   9.258 -0.4184  0.4975  0.5983
 4456SOL    HW125001   2.248   1.794   9.346  0.5155 -2.2513  1.2835
 4456SOL    HW225002   2.133   1.744   9.279 -0.0625 -2.2454 -0.4184
 4457SOL     OW25003   4.138   3.829  14.263 -0.2664  0.0811 -0.3718
 4457SOL    HW125004   4.065   3.878  14.300 -0.2854 -0.0021 -0.3000
 4457SOL    HW225005   4.214   3.865  14.308 -1.1541  0.3695  0.8803
 4458SOL     OW25006   1.470   0.243  14.275 -0.5873 -0.0251  0.3879
 4458SOL    HW125007   1.397   0.196  14.233 -0.5826 -0.9933  1.4678
 4458SOL    HW225008   1.550   0.224  14.227  0.4780  0.2787  2.0633
 4459SOL     OW25009   4.252   3.830   2.469 -0.3030  0.0348  0.5073
 4459SOL    HW125010   4.248   3.862   2.560  0.9712  0.7497  0.3141
 4459SOL    HW225011   4.203   3.900   2.426 -3.1216 -0.9281  2.1477
 4460SOL     OW25012   1.495   2.573   8.052 -0.1013  0.1044  0.5324
 4460SOL    HW125013   1.590   2.584   8.044 -0.0017 -1.7381 -0.7473
 4460SOL    HW225014   1.477   2.548   7.962  1.3632 -0.0326  0.2835
 4461SOL     OW25015   1.530   1.049   6.052 -0.0810 -0.4864  0.4022
 4461SOL    HW125016   1.471   0.980   6.021  0.6061 -1.5606  1.4437
 4461SOL    HW225017   1.516   1.056   6.146 -2.2895  0.1970  0.0091
 4462SOL     OW25018   2.489   4.071   5.736 -0.1587 -0.7847 -0.5032
 4462SOL    HW125019   2.523   4.127   5.805  0.3509 -0.5034 -0.9721
 4462SOL    HW225020   2.432   4.134   5.693  0.2281 -0.8852 -1.1733
 4463SOL     OW25021   0.940   0.161   4.484 -0.1198  0.0062  0.1278
 4463SOL    HW125022   0.964   0.068   4.489  2.9640  0.8393  1.1464
 4463SOL    HW225023   0.943   0.172   4.389  1.0134 -0.4523  0.1107
 4464SOL     OW25024   4.684   4.571   4.409 -0.5303  0.8959  0.0851
 4464SOL    HW125025   4.708   4.618   4.330  0.0857  0.4207 -0.0174
 4464SOL    HW225026   0.032   4.566   4.448 -0.7271  2.6867  0.7433
 4465SOL     OW25027   0.932   4.672  13.477  0.7479  0.5362  0.2415
 4465SOL    HW125028   0.922   4.629  13.562 -0.2709 -1.2729 -0.8010
 4465SOL    HW225029   0.946   0.021  13.508 -0.7703  0.1934  1.9422
 4466SOL     OW25030   0.118   0.723  15.375  0.5836 -0.7104 -0.1560
 4466SOL    HW125031   0.104   0.698  15.284 -1.1526 -1.3218  0.2681
 4466SOL    HW225032   0.088   0.643  15.419 -0.2170  0.1539  0.8781
 4467SOL     OW25033   0.430   0.761  13.940  0.2379  0.0175 -0.8069
 4467SOL    HW125034   0.449   0.708  14.017 -3.1721  1.9523  1.3764
 4467SOL    HW225035   0.474   0.709  13.873  0.1254 -1.7691  0.4906
 4468SOL     OW25036   0.051   3.695  14.543  0.6068  0.4132 -0.2577
 4468SOL    HW125037   0.019   3.783  14.523  0.8345  0.7666  0.9608
 4468SOL    HW225038   0.043   3.663  14.453 -1.2833 -0.8883  0.3761
 4469SOL     OW25039   4.256   3.278   6.168  0.5870 -0.0225 -0.1699
 4469SOL    HW125040   4.307   3.352   6.201  1.8760 -0.1432 -1.8595
 4469SOL    HW225041   4.274   3.220   6.242  2.8593 -0.6798 -1.2041
 4470SOL     OW25042   1.152   1.140   4.851  0.2561  0.1640 -0.0818
 4470SOL    HW125043   1.059   1.150   4.874  0.0869 -0.6782 -0.4032
 4470SOL    HW225044   1.200   1.210   4.896  0.3053  0.2289 -0.2351
 4471SOL     OW25045   0.821   2.570   1.768 -0.5375 -0.1451  0.0519
 4471SOL    HW125046   0.791   2.634   1.704  0.7956  0.0007 -0.4336
 4471SOL    HW225047   0.774   2.582   1.851  1.4084 -3.3966  1.6632
 4472SOL     OW25048   0.050   2.529   4.717  0.0007  0.1162  0.0305
 4472SOL    HW125049   0.140   2.496   4.717 -0.1053 -0.1689 -0.2772
 4472SOL    HW225050   0.069   2.617   4.750  2.0774 -0.2495 -0.1682
 4473SOL     OW25051   2.002   1.132   5.827 -0.0388  0.2434  0.4438
 4473SOL    HW125052   1.933   1.135   5.893  2.1535 -1.5068  2.8049
 4473SOL    HW225053   2.077   1.149   5.885 -0.6021  2.5962  0.5053
 4474SOL     OW25054   2.938   4.476   7.158 -0.0848 -0.1764  0.2926
 4474SOL    HW125055   2.978   4.420   7.224 -1.1040 -1.6641 -0.3431
 4474SOL    HW225056   2.931   4.405   7.093 -1.5415 -0.5803  0.8901
 4475SOL     OW25057   0.416   3.447   8.972 -0.3323  0.1341 -0.0609
 4475SOL    HW125058   0.511   3.454   8.974 -0.3946  0.4397  1.5424
 4475SOL    HW225059   0.402   3.364   9.019  0.9626 -1.2007 -2.0398
 4476SOL     OW25060   4.444   4.652   7.852 -0.0170  0.2690 -1.0318
 4476SOL    HW125061   4.537   4.670   7.868 -0.1581  1.2273 -1.2986
 4476SOL    HW225062   4.448   4.556   7.851  1.7654  0.3454 -1.2892
 4477SOL     OW25063   0.176   1.466  15.450 -0.0421 -0.2301  0.1829
 4477SOL    HW125064   0.194   1.373  15.467 -1.2747 -0.3238  1.0408
 4477SOL    HW225065   0.094   1.449  15.403 -0.4611 -1.1285  1.2231
 4478SOL     OW25066   3.359   1.283   1.880 -0.6131 -0.0199 -0.1002
 4478SOL    HW125067   3.354   1.194   1.915  0.0602 -1.4868 -3.7584
 4478SOL    HW225068   3.267   1.294   1.857 -0.7218 -1.1666 -0.2109
 4479SOL     OW25069   1.961   0.665   2.446 -0.2231  0.3529  0.6274
 4479SOL    HW125070   1.988   0.715   2.369  3.0146  0.2345  1.6644
 4479SOL    HW225071   2.007   0.711   2.518  1.4362  0.0248 -0.2176
 4480SOL     OW25072   2.343   0.468   2.425 -0.0163 -0.1975 -0.1566
 4480SOL    HW125073   2.379   0.443   2.510  0.2123  1.5641  0.2677
 4480SOL    HW225074   2.259   0.422   2.422  0.3182 -0.7589 -0.9556
 4481SOL     OW25075   3.545   1.190   4.917 -0.2134 -0.3546  0.2555
 4481SOL    HW125076   3.542   1.198   5.013 -1.2771 -1.2495  0.2982
 4481SOL    HW225077   3.486   1.261   4.892 -0.7889 -0.6751  0.6914
 4482SOL     OW25078   1.355   2.181   2.961 -0.3985 -0.6567 -0.4032
 4482SOL    HW125079   1.342   2.244   3.032  2.9925  1.9864 -2.1339
 4482SOL    HW225080   1.416   2.118   2.997 -0.4340 -0.7767 -0.5555
 4483SOL     OW25081   0.812   1.479   5.802  0.0177  0.0001  0.0832
 4483SOL    HW125082   0.783   1.569   5.817  4.0786  1.6555 -2.0985
 4483SOL    HW225083   0.877   1.506   5.737  0.9096  0.4778  1.1749
 4484SOL     OW25084   1.086   2.486   9.036 -0.3173 -0.7340  0.1671
 4484SOL    HW125085   1.002   2.485   9.081 -0.8294  1.3068 -0.7145
 4484SOL    HW225086   1.146   2.445   9.097  1.0712 -0.5320 -1.0709
 4485SOL     OW25087   2.980   3.451   9.498 -0.0318  0.1844 -0.5117
 4485SOL    HW125088   3.033   3.394   9.443 -1.5943 -1.3343 -0.4424
 4485SOL    HW225089   2.988   3.529   9.444  3.3547  0.2914  0.1311
 4486SOL     OW25090   0.344   1.924  13.408  0.1495 -0.0960  0.0749
 4486SOL    HW125091   0.261   1.875  13.415 -0.0757  0.1537 -0.8859
 4486SOL    HW225092   0.312   2.005  13.447  0.4727  0.3690 -0.6373
 4487SOL     OW25093   4.328   0.295   7.652  0.6790  0.4385  0.1690
 4487SOL    HW125094   4.394   0.363   7.664 -1.4395  2.6862 -0.9091
 4487SOL    HW225095   4.316   0.261   7.740  0.6000  0.3528  0.1255
 4488SOL     OW25096   3.084   1.448   7.639  0.2292 -0.1794  0.0704
 4488SOL    HW125097   3.052   1.522   7.587  0.1543  0.0454  0.4323
 4488SOL    HW225098   3.161   1.427   7.586  0.5020  0.8505  0.0405
 4489SOL     OW25099   0.235   0.553   1.751  0.2213 -0.4904 -0.1616
 4489SOL    HW125100   0.330   0.541   1.744  0.3703 -0.5384  2.0399
 4489SOL    HW225101   0.231   0.648   1.746  0.0685 -0.4434  0.9033
 4490SOL     OW25102   0.544   1.374   5.017 -0.7367 -0.0718  0.0432
 4490SOL    HW125103   0.582   1.412   5.097 -0.0149 -0.6219 -0.0379
 4490SOL    HW225104   0.452   1.397   5.021 -1.1519 -1.8559  0.8147
 4491SOL     OW25105   0.617   3.360  16.141  0.4576 -0.3008 -0.0126
 4491SOL    HW125106   0.613   3.414  16.220 -0.8668 -0.3162 -0.0748
 4491SOL    HW225107   0.701   3.317  16.154  2.3167  2.8399 -1.6268
 4492SOL     OW25108   0.620   0.482   7.337 -0.3046  0.1731 -0.2410
 4492SOL    HW125109   0.641   0.404   7.285 -0.4089 -0.0579  0.0627
 4492SOL    HW225110   0.532   0.459   7.366  0.1251 -1.3937 -0.1708
 4493SOL     OW25111   2.070   0.181   1.764  0.1940 -0.1816 -0.1425
 4493SOL    HW125112   2.157   0.219   1.778  0.3786  0.4952 -3.3052
 4493SOL    HW225113   2.087   0.093   1.798  2.6916  1.2470  2.2626
 4494SOL     OW25114   4.171   4.004   8.572  0.3980 -0.6540  0.3434
 4494SOL    HW125115   4.263   4.026   8.557  1.4161 -3.3375  2.5608
 4494SOL    HW225116   4.133   4.087   8.599  3.0214  0.2789  1.2260
 4495SOL     OW25117   4.651   3.221   4.816  0.0877  0.4796 -0.0965
 4495SOL    HW125118   4.717   3.241   4.883  0.7339 -0.6250 -0.4083
 4495SOL    HW225119   4.608   3.144   4.853  0.3131  0.1979 -0.4214
 4496SOL     OW25120   2.106   0.571   5.782 -0.4010 -0.5821 -0.0379
 4496SOL    HW125121   2.141   0.507   5.720 -0.1126 -1.2125  0.7766
 4496SOL    HW225122   2.047   0.621   5.726  0.2912 -0.8593 -1.0147
 4497SOL     OW25123   0.917   3.424  15.320  0.0790 -0.1871 -0.1277
 4497SOL    HW125124   0.849   3.471  15.369 -0.0448 -0.9256  0.4099
 4497SOL    HW225125   0.892   3.335  15.346  0.9669 -0.0574  1.2063
 4498SOL     OW25126   3.199   3.077   1.400  0.3852  0.5342 -0.1131
 4498SOL    HW125127   3.200   3.026   1.319 -0.7104  1.7839 -0.9288
 4498SOL    HW225128   3.176   3.162   1.362  1.4373  0.8162 -0.1231
 4499SOL     OW25129   2.764   0.952   0.197  0.0324  0.1902  0.0824
 4499SOL    HW125130   2.756   0.879   0.259 -0.4790  0.8962  0.8598
 4499SOL    HW225131   2.673   0.983   0.207  0.8221  1.6829  2.6190
 4500SOL     OW25132   4.394   4.398   2.161  0.1562  0.3141  0.2443
 4500SOL    HW125133   4.313   4.419   2.114  1.8375  1.4093 -2.1230
 4500SOL    HW225134   4.353   4.353   2.235 -1.3549  1.0797 -0.1108
 4501SOL     OW25135   0.246   2.961   0.849 -0.0649  0.3008 -0.1780
 4501SOL    HW125136   0.239   2.868   0.827 -1.4658 -0.2895  2.7667
 4501SOL    HW225137   0.181   2.996   0.789 -1.1950 -2.6960 -0.6487
 4502SOL     OW25138   3.922   2.410   4.117  0.0959 -0.1175  0.4009
 4502SOL    HW125139   3.967   2.472   4.174  0.0663 -1.5902  2.0413
 4502SOL    HW225140   3.969   2.430   4.036 -2.4372 -2.2980 -1.5980
 4503SOL     OW25141   4.707   0.299  11.905 -0.2186 -1.0860  0.3430
 4503SOL    HW125142   0.038   0.355  11.873  0.4712 -2.0516  0.1859
 4503SOL    HW225143   0.028   0.226  11.916  0.5600 -0.1475  2.1755
 4504SOL     OW25144   0.039   2.469  14.011 -0.0151 -0.3545 -0.4008
 4504SOL    HW125145   0.068   2.552  14.048  0.8216 -1.4644  1.3930
 4504SOL    HW225146   4.692   2.494  13.979 -0.6690 -0.1470  1.5271
 4505SOL     OW25147   2.518   4.251   5.936 -0.0002 -0.3322 -0.3450
 4505SOL    HW125148   2.613   4.252   5.924 -0.0537 -0.4606 -0.7859
 4505SOL    HW225149   2.513   4.291   6.023  0.0421 -2.0810  0.4647
 4506SOL     OW25150   2.476   0.213  14.451 -0.2194 -0.0397  0.1886
 4506SOL    HW125151   2.500   0.228  14.360  1.0188 -0.0154  0.5044
 4506SOL    HW225152   2.530   0.135  14.468 -1.2483 -0.8457 -0.2723
 4507SOL     OW25153   3.375   2.353   5.952 -0.5899  0.0503  0.1487
 4507SOL    HW125154   3.357   2.396   6.036 -0.5677 -0.2173  0.2901
 4507SOL    HW225155   3.287   2.321   5.932 -0.8854  0.3509  0.9753
 4508SOL     OW25156   3.858   2.664  12.160  0.0956 -0.0015  0.1424
 4508SOL    HW125157   3.909   2.637  12.236  0.5016 -2.5402 -1.0078
 4508SOL    HW225158   3.784   2.603  12.149 -1.0240  1.2043  0.9561
 4509SOL     OW25159   2.917   1.565   6.860  0.2832 -0.7383 -0.4045
 4509SOL    HW125160   2.824   1.545   6.856  0.1521  0.2476 -2.1979
 4509SOL    HW225161   2.955   1.485   6.824  0.3001 -1.1042  0.4323
 4510SOL     OW25162   0.824   4.040   0.988  0.3195 -0.1156 -0.0392
 4510SOL    HW125163   0.919   4.042   0.996  0.0534 -1.1937  3.4242
 4510SOL    HW225164   0.803   3.967   1.046  1.0126 -1.5654 -1.6174
 4511SOL     OW25165   1.667   0.979   9.001  0.2061  0.5102  0.7885
 4511SOL    HW125166   1.728   0.963   9.073  2.9586  0.4647 -1.5475
 4511SOL    HW225167   1.596   0.920   9.025 -1.3950  2.5226  0.9296
 4512SOL     OW25168   2.762   1.388   0.085  0.1750  0.2186  0.0811
 4512SOL    HW125169   2.747   1.463   0.028 -0.0889 -1.1944 -1.6891
 4512SOL    HW225170   2.724   1.320   0.030 -0.6909  1.3063 -0.6568
 4513SOL     OW25171   3.195   2.598   3.597 -0.0122  0.2229 -0.5159
 4513SOL    HW125172   3.159   2.649   3.525 -1.3782 -1.2900 -0.9017
 4513SOL    HW225173   3.209   2.517   3.549  3.1042  1.0467 -0.9935
 4514SOL     OW25174   0.131   1.747   8.649 -0.1434  0.4270  0.1241
 4514SOL    HW125175   0.070   1.710   8.585  1.5399 -0.5345 -0.9320
 4514SOL    HW225176   0.107   1.839   8.655 -0.4954  0.3963 -0.8909
 4515SOL     OW25177   2.810   2.270   3.514  0.1772 -0.0329  0.2721
 4515SOL    HW125178   2.896   2.272   3.472 -0.5853 -2.6048 -1.4554
 4515SOL    HW225179   2.821   2.182   3.551 -0.2063  0.1105  0.7249
 4516SOL     OW25180   4.659   3.951  14.498  0.1027  0.7089  0.2507
 4516SOL    HW125181   4.653   4.039  14.461 -3.3335  1.4570  2.6068
 4516SOL    HW225182   4.569   3.927  14.520  0.4967 -0.1957  0.8870
 4517SOL     OW25183   2.905   3.328   3.723  0.0405  0.0757 -0.3002
 4517SOL    HW125184   2.983   3.359   3.769  0.2369  1.4733 -1.5493
 4517SOL    HW225185   2.848   3.405   3.730  2.3000  1.7037  0.4662
 4518SOL     OW25186   4.201   1.519   4.616 -0.2572  0.2577  0.2174
 4518SOL    HW125187   4.127   1.580   4.623  0.9763  1.8809 -1.1447
 4518SOL    HW225188   4.260   1.572   4.563  0.4534  0.5882  1.3398
 4519SOL     OW25189   0.735   2.161   9.317  0.1623 -0.4328  0.2556
 4519SOL    HW125190   0.717   2.214   9.395  0.4581 -1.9525  1.3536
 4519SOL    HW225191   0.735   2.083   9.372 -0.3235 -1.0932 -0.6719
 4520SOL     OW25192   4.033   4.671   7.825  0.3423  0.0548  0.2769
 4520SOL    HW125193   4.038   0.014   7.777 -1.0587 -0.3354 -0.5525
 4520SOL    HW225194   4.046   4.611   7.752  2.1399  2.2719 -1.2418
 4521SOL     OW25195   4.018   2.294   9.650  0.0573 -0.3452 -0.5579
 4521SOL    HW125196   3.952   2.322   9.714  1.0014  0.7005 -0.0563
 4521SOL    HW225197   4.058   2.225   9.704 -0.0667 -0.8549 -1.1187
 4522SOL     OW25198   3.521   2.679   0.919 -0.1146  0.3951 -0.1726
 4522SOL    HW125199   3.614   2.691   0.942  0.2485  0.7084 -1.7806
 4522SOL    HW225200   3.508   2.754   0.862 -0.4202  0.8098  0.4458
 4523SOL     OW25201   3.278   0.281  16.010 -0.5115 -0.1285 -0.0950
 4523SOL    HW125202   3.242   0.238  16.088  0.6526 -0.5442  0.2247
 4523SOL    HW225203   3.369   0.251  16.004 -0.2279  0.7150  0.0254
 4524SOL     OW25204   3.315   0.676   3.895 -0.1711  0.3201 -0.8027
 4524SOL    HW125205   3.272   0.735   3.956 -1.6055 -1.7405  0.1344
 4524SOL    HW225206   3.255   0.670   3.820 -0.7100  1.4443 -0.4576
 4525SOL     OW25207   1.318   3.096   9.129 -0.5503  0.2679 -0.1560
 4525SOL    HW125208   1.269   3.039   9.188 -1.3562  0.7507 -0.3558
 4525SOL    HW225209   1.287   3.056   9.048  1.0318 -3.5400  1.1164
 4526SOL     OW25210   2.565   4.122   0.606  0.4324 -0.2781 -0.0067
 4526SOL    HW125211   2.652   4.162   0.610 -0.0182  1.0456 -3.2647
 4526SOL    HW225212   2.563   4.062   0.680 -0.6320 -0.4108 -0.1427
 4527SOL     OW25213   0.734   4.691   8.335  0.1688 -0.5735 -0.3765
 4527SOL    HW125214   0.691   4.736   8.407 -0.3582 -0.4501 -0.7703
 4527SOL    HW225215   0.765   0.032   8.295 -1.0295  1.0731  2.0972
 4528SOL     OW25216   1.601   4.303   7.332 -0.4356 -0.1072  0.0183
 4528SOL    HW125217   1.690   4.316   7.366 -0.2284 -1.4456 -0.0162
 4528SOL    HW225218   1.542   4.308   7.407 -3.5205 -0.7451 -2.3369
 4529SOL     OW25219   3.128   0.969   1.740 -0.3545  0.5394  0.0699
 4529SOL    HW125220   3.189   0.984   1.811 -1.1993 -0.6119  1.0441
 4529SOL    HW225221   3.138   0.874   1.740  4.7761  1.0879 -0.8668
 4530SOL     OW25222   1.351   3.189   4.631 -0.7920  0.1524 -0.3136
 4530SOL    HW125223   1.371   3.273   4.591 -0.0292 -0.2152 -0.6968
 4530SOL    HW225224   1.310   3.144   4.558 -0.2617 -0.4117 -0.2653
 4531SOL     OW25225   1.568   3.533   2.764  0.1875  0.4058 -0.2653
 4531SOL    HW125226   1.581   3.569   2.676 -0.1929  1.4566  0.1099
 4531SOL    HW225227   1.593   3.442   2.747 -1.7592 -0.0001 -0.9874
 4532SOL     OW25228   0.631   2.505   2.723  0.7502  0.7319 -0.2452
 4532SOL    HW125229   0.708   2.459   2.755  1.8958  1.9413 -1.2506
 4532SOL    HW225230   0.572   2.486   2.795  1.5253 -0.1451  0.1623
 4533SOL     OW25231   1.707   0.717   8.632  0.2850  0.3391  0.0173
 4533SOL    HW125232   1.681   0.714   8.724  1.9228 -1.4715  0.4282
 4533SOL    HW225233   1.779   0.654   8.632  1.8667  2.1392 -0.7215
 4534SOL     OW25234   4.679   0.083   8.447 -0.0110  0.1020  0.1194
 4534SOL    HW125235   0.012   0.140   8.473  0.5299  0.1279 -1.4445
 4534SOL    HW225236   4.610   0.149   8.455 -2.9387 -2.9006 -0.3312
 4535SOL     OW25237   4.060   4.423  17.277  0.0488 -0.2119  0.2055
 4535SOL    HW125238   4.104   4.387  17.200 -0.8944  1.5868 -1.1511
 4535SOL    HW225239   3.996   4.481  17.238  0.2393 -1.3014 -1.7086
 4536SOL     OW25240   0.391   0.951  16.341  0.0508  0.0851  0.1404
 4536SOL    HW125241   0.480   0.925  16.367 -0.4462 -0.1277  1.6306
 4536SOL    HW225242   0.409   1.012  16.269 -0.8223  1.1604  0.8377
 4537SOL     OW25243   0.890   0.918   4.831  0.2998  0.3566 -0.0039
 4537SOL    HW125244   0.807   0.883   4.865 -0.0795  1.3821  0.1306
 4537SOL    HW225245   0.890   1.013   4.843  1.2837  0.4432 -0.6747
 4538SOL     OW25246   1.231   3.964   1.734 -0.5585  0.5031  0.5641
 4538SOL    HW125247   1.286   3.931   1.663 -0.3868 -2.3937  2.0605
 4538SOL    HW225248   1.259   4.053   1.711  0.2011  0.3081  0.7119
 4539SOL     OW25249   0.183   1.671  11.226  0.2821  0.0804 -0.2376
 4539SOL    HW125250   0.095   1.673  11.264  0.5710 -1.6696  0.5165
 4539SOL    HW225251   0.175   1.687  11.132 -0.0688 -3.1690 -0.7496
 4540SOL     OW25252   2.765   2.991   2.088  0.3706 -0.5618 -0.3101
 4540SOL    HW125253   2.785   3.040   2.167  0.9366  0.6871 -1.2387
 4540SOL    HW225254   2.764   3.055   2.017 -2.1434 -1.6454 -1.2570
 4541SOL     OW25255   4.644   0.679  13.757 -0.2714 -0.0692  0.3424
 4541SOL    HW125256   4.625   0.756  13.810 -2.5631 -2.0328  2.3472
 4541SOL    HW225257   4.557   0.660  13.721 -1.0227  2.7107  0.6634
 4542SOL     OW25258   0.154   4.664   5.344  0.0721 -0.4758 -0.7384
 4542SOL    HW125259   0.182   4.696   5.258 -3.9457  2.0489 -1.1067
 4542SOL    HW225260   0.199   4.725   5.402  1.0043 -2.8595  1.0787
 4543SOL     OW25261   4.189   2.600   4.510 -0.4765  0.1341 -0.6134
 4543SOL    HW125262   4.272   2.556   4.491 -0.6340 -0.4431  0.0467
 4543SOL    HW225263   4.193   2.614   4.604  4.7515 -2.1675 -0.5058
 4544SOL     OW25264   1.151   3.273  16.267 -0.1296  0.2521 -0.1970
 4544SOL    HW125265   1.165   3.267  16.361  2.0079 -2.3285 -0.6657
 4544SOL    HW225266   1.228   3.322  16.241  0.5109 -0.5138  0.2551
 4545SOL     OW25267   3.671   1.243   5.258  0.1150 -0.0002  0.2198
 4545SOL    HW125268   3.637   1.160   5.293 -1.7036  0.6353 -0.0618
 4545SOL    HW225269   3.764   1.235   5.279  0.2359 -0.8316 -0.6165
 4546SOL     OW25270   2.066   3.089   6.658  0.4374 -0.0694  0.3152
 4546SOL    HW125271   2.050   3.020   6.722 -3.2592 -0.5532 -1.1418
 4546SOL    HW225272   2.030   3.167   6.701  0.5894 -0.2221  0.7190
 4547SOL     OW25273   4.055   2.151   4.571 -0.0879  0.4678  0.7978
 4547SOL    HW125274   4.135   2.175   4.524 -1.7969 -0.3761 -2.5780
 4547SOL    HW225275   4.063   2.210   4.646  1.0385  2.2004 -0.6935
 4548SOL     OW25276   3.927   3.789   9.570 -0.1661  0.2007 -0.3615
 4548SOL    HW125277   3.874   3.712   9.549 -0.2224  0.1106  0.1031
 4548SOL    HW225278   4.011   3.753   9.597  0.7561  2.9777  0.4861
 4549SOL     OW25279   2.258   2.287   2.630  0.2086  0.3739  0.5157
 4549SOL    HW125280   2.174   2.244   2.642  0.6612 -0.7133 -0.1752
 4549SOL    HW225281   2.239   2.318   2.542 -0.5923 -1.9919 -0.1416
 4550SOL     OW25282   1.025   3.041   1.347 -0.5472 -0.3173 -0.4481
 4550SOL    HW125283   1.019   2.946   1.354 -1.1357 -0.1064  1.7657
 4550SOL    HW225284   0.994   3.081   1.428  1.0531 -0.5595  0.2847
 4551SOL     OW25285   0.545   4.505   9.448  0.2045  0.3337 -0.1676
 4551SOL    HW125286   0.456   4.536   9.434 -0.2392 -0.9457 -0.1896
 4551SOL    HW225287   0.540   4.411   9.429 -2.8974  0.5099 -0.1939
 4552SOL     OW25288   2.974   4.416   0.535 -0.6898  0.0752  0.1488
 4552SOL    HW125289   2.927   4.352   0.589  1.2069 -2.6339 -1.4171
 4552SOL    HW225290   2.908   4.485   0.529 -0.9145 -0.2840 -1.4644
 4553SOL     OW25291   3.986   3.892   3.788 -0.3625  0.1133  0.2672
 4553SOL    HW125292   4.001   3.870   3.696 -1.9979  1.3543 -0.3056
 4553SOL    HW225293   4.009   3.984   3.778 -3.0988  0.6834 -0.9799
 4554SOL     OW25294   0.644   2.984   8.425  0.2164 -0.4754  0.1438
 4554SOL    HW125295   0.713   2.990   8.491  1.3677  1.0499 -1.1772
 4554SOL    HW225296   0.681   3.028   8.349 -0.9692 -2.5596 -1.6351
 4555SOL     OW25297   1.394   2.683   3.137  0.0320 -0.2232  0.0926
 4555SOL    HW125298   1.387   2.765   3.186 -0.8753 -0.6920  0.7487
 4555SOL    HW225299   1.487   2.664   3.149 -0.4177 -0.3241  3.4106
 4556SOL     OW25300   4.207   3.751   3.224  0.5080  0.9044  0.1781
 4556SOL    HW125301   4.253   3.817   3.276  0.9193  0.3128  0.5635
 4556SOL    HW225302   4.123   3.761   3.269  1.8429 -1.1431  3.1127
 4557SOL     OW25303   0.779   2.651  14.728  0.1398 -0.0266 -0.0256
 4557SOL    HW125304   0.703   2.664  14.671 -1.2721 -0.5377  1.7458
 4557SOL    HW225305   0.826   2.585  14.677  0.5005 -0.2833  0.6325
 4558SOL     OW25306   4.159   3.582   4.743  0.3697 -0.0237  0.2568
 4558SOL    HW125307   4.078   3.633   4.741  2.7127  3.7149 -0.5078
 4558SOL    HW225308   4.222   3.655   4.746  0.4074 -0.0256 -0.5480
 4559SOL     OW25309   2.223   3.610  13.804 -0.1586 -0.6683 -0.0183
 4559SOL    HW125310   2.309   3.569  13.802  0.3426  0.3551  0.5338
 4559SOL    HW225311   2.243   3.703  13.789 -2.1654 -0.4180 -1.1904
 4560SOL     OW25312   4.150   1.909   4.670 -0.3968 -0.1468 -0.3751
 4560SOL    HW125313   4.071   1.878   4.715 -0.4290  0.5514  0.0459
 4560SOL    HW225314   4.111   1.981   4.619  0.6602  0.7415  0.0833
 4561SOL     OW25315   2.207   0.234   3.311 -0.0670 -0.0514 -0.1137
 4561SOL    HW125316   2.183   0.317   3.351 -0.8727 -0.3997  0.1108
 4561SOL    HW225317   2.275   0.207   3.373  0.7887 -1.7491 -1.7871
 4562SOL     OW25318   1.586   1.579   1.532 -0.4012  0.3711 -0.3164
 4562SOL    HW125319   1.517   1.558   1.469 -1.1613  0.7232  0.4050
 4562SOL    HW225320   1.617   1.662   1.498  4.1778 -0.4882  1.7937
 4563SOL     OW25321   4.316   2.799   4.300  0.0827  0.1388  0.1289
 4563SOL    HW125322   4.408   2.778   4.317 -0.5185 -3.1845 -0.6036
 4563SOL    HW225323   4.276   2.736   4.359  1.3152 -0.1388  0.6718
 4564SOL     OW25324   1.872   1.690   5.837 -0.3039  0.0665 -0.0986
 4564SOL    HW125325   1.839   1.710   5.925  1.2545  0.0127  0.5108
 4564SOL    HW225326   1.860   1.595   5.836  1.5113 -0.1690  0.6376
 4565SOL     OW25327   2.323   3.261   7.348 -0.1793 -0.3271  0.0742
 4565SOL    HW125328   2.326   3.240   7.254  1.0443  3.0995 -0.6513
 4565SOL    HW225329   2.385   3.334   7.344 -0.4966 -0.1532 -2.1387
 4566SOL     OW25330   4.734   4.436   5.208  0.7270 -0.1603  0.2377
 4566SOL    HW125331   0.063   4.403   5.151  1.0118  1.4033 -0.3098
 4566SOL    HW225332   4.720   4.526   5.180  3.8202 -0.0112 -0.7499
 4567SOL     OW25333   0.061   4.402   3.737 -0.2352 -0.1772 -0.6232
 4567SOL    HW125334   0.011   4.320   3.729  1.5466 -1.1466 -1.7321
 4567SOL    HW225335   0.031   4.457   3.664 -1.3791 -1.0301 -0.8113
 4568SOL     OW25336   0.887   1.414   8.707 -0.1342 -0.2463 -0.4919
 4568SOL    HW125337   0.913   1.466   8.630 -0.3099  0.8595  0.1932
 4568SOL    HW225338   0.920   1.327   8.687 -3.4654 -1.5870 -0.2324
 4569SOL     OW25339   2.787   1.829   3.204  0.2832  0.5855 -0.2941
 4569SOL    HW125340   2.726   1.902   3.195  0.0798  0.4525  0.0189
 4569SOL    HW225341   2.868   1.874   3.178  0.4747 -0.9060 -2.2958
 4570SOL     OW25342   0.827   2.449   6.612  0.5626 -0.5047  0.0838
 4570SOL    HW125343   0.804   2.383   6.546 -1.3908  0.0016  0.2338
 4570SOL    HW225344   0.760   2.515   6.588  2.2830  0.9692 -0.6661
 4571SOL     OW25345   3.432   2.784   8.538  0.7155 -0.3305 -0.1573
 4571SOL    HW125346   3.450   2.720   8.606 -2.5877 -0.5434  0.5031
 4571SOL    HW225347   3.502   2.849   8.543  0.1619  0.3171 -0.6932
 4572SOL     OW25348   4.332   4.267   6.016  0.2304 -0.1565 -0.0731
 4572SOL    HW125349   4.307   4.298   5.929  1.4184  0.4382 -0.1978
 4572SOL    HW225350   4.402   4.329   6.034  0.1913 -0.2292  0.3324
 4573SOL     OW25351   0.359   3.011  15.879  0.1973  0.1982 -0.3335
 4573SOL    HW125352   0.363   3.078  15.947 -3.0472  0.2618 -0.2039
 4573SOL    HW225353   0.450   2.982  15.870  0.9104  2.0203  1.1321
 4574SOL     OW25354   2.351   1.689   6.356 -0.4419 -0.0395  0.2909
 4574SOL    HW125355   2.394   1.707   6.440 -2.1055  0.6723  0.9900
 4574SOL    HW225356   2.268   1.735   6.371 -0.2466  0.1478  0.8353
 4575SOL     OW25357   3.715   1.857  14.108 -0.0978  0.1187  0.0339
 4575SOL    HW125358   3.768   1.849  14.187  0.9491  0.3169 -0.6442
 4575SOL    HW225359   3.777   1.907  14.055 -0.7247  1.2557  0.3734
 4576SOL     OW25360   4.571   4.736   7.176 -0.2202  0.0287  0.3723
 4576SOL    HW125361   4.558   0.069   7.115 -0.8681 -1.1203 -0.8548
 4576SOL    HW225362   4.597   0.041   7.257  0.7781 -1.4425  0.8585
 4577SOL     OW25363   2.311   1.538   6.142 -0.4932  0.2380  0.3237
 4577SOL    HW125364   2.314   1.579   6.228  1.3771  1.5049 -0.3434
 4577SOL    HW225365   2.271   1.610   6.093  0.0884  0.2369 -0.1482
 4578SOL     OW25366   4.001   3.434   1.502 -0.1673  0.3589  0.2164
 4578SOL    HW125367   3.997   3.512   1.446  0.9044  0.7413  0.6733
 4578SOL    HW225368   4.095   3.416   1.501  0.1449  1.8753  1.7351
 4579SOL     OW25369   2.127   1.031   2.432  0.0762 -0.0052  0.0853
 4579SOL    HW125370   2.202   0.981   2.466  1.6064  1.0560 -1.7535
 4579SOL    HW225371   2.145   1.114   2.477  2.2588  0.1990 -1.1439
 4580SOL     OW25372   3.040   1.983   8.272  0.0492  0.2800 -0.6920
 4580SOL    HW125373   3.051   1.897   8.312  0.8094  0.0782 -1.3313
 4580SOL    HW225374   3.130   2.014   8.260 -0.3012  2.0816  1.1726
 4581SOL     OW25375   1.465   2.798   9.316  0.0600 -0.7619 -0.3423
 4581SOL    HW125376   1.431   2.720   9.360  0.3148 -2.2661 -2.8397
 4581SOL    HW225377   1.385   2.839   9.283 -0.5953 -0.1918  1.9186
 4582SOL     OW25378   0.158   1.629   3.576  0.1889  0.1078 -0.2009
 4582SOL    HW125379   0.197   1.690   3.638 -1.2718  0.9835 -0.1529
 4582SOL    HW225380   0.211   1.631   3.497 -0.5519 -1.1691 -0.7417
 4583SOL     OW25381   1.539   3.991   2.785  0.1815 -1.0178  0.3453
 4583SOL    HW125382   1.489   4.071   2.767  1.9378  0.3576  1.5243
 4583SOL    HW225383   1.499   3.970   2.869  2.1974 -1.3616  1.2125
 4584SOL     OW25384   1.146   3.762   5.390 -0.4596 -0.9740 -0.5522
 4584SOL    HW125385   1.083   3.702   5.350  0.0791 -1.6647 -0.3657
 4584SOL    HW225386   1.209   3.694   5.414 -0.5602 -1.2475 -1.0463
 4585SOL     OW25387   3.932   4.150   6.095  0.0062  0.5776  0.7999
 4585SOL    HW125388   3.951   4.091   6.168  1.8783 -1.8523 -1.6724
 4585SOL    HW225389   3.962   4.114   6.012  4.2378  2.6824  1.4049
 4586SOL     OW25390   1.495   3.600  14.118 -0.1325 -0.0941 -0.1433
 4586SOL    HW125391   1.508   3.515  14.077 -0.5548  0.0004 -0.4761
 4586SOL    HW225392   1.422   3.631  14.064 -0.1808  2.9557  1.6811
 4587SOL     OW25393   0.957   4.572   5.153  0.5973 -0.1245  0.2715
 4587SOL    HW125394   0.980   4.654   5.196  0.5471 -0.7716  1.5437
 4587SOL    HW225395   0.974   4.517   5.230  0.3555 -0.8364 -0.1803
 4588SOL     OW25396   2.002   2.895   6.195 -0.1311  0.3155 -0.0871
 4588SOL    HW125397   2.082   2.920   6.148  0.2224 -1.4089 -0.4139
 4588SOL    HW225398   2.002   2.956   6.268  1.1370 -2.0142  1.8643
 4589SOL     OW25399   2.347   1.748  11.420  0.5116 -0.4984  1.0205
 4589SOL    HW125400   2.379   1.838  11.430  0.4128 -0.1393 -2.1101
 4589SOL    HW225401   2.264   1.762  11.376  1.7882 -0.7417 -1.4518
 4590SOL     OW25402   1.579   1.523  11.487 -0.3758  0.3164  0.2156
 4590SOL    HW125403   1.582   1.602  11.434  3.3164 -0.1609 -0.2669
 4590SOL    HW225404   1.666   1.483  11.486 -0.4470  0.2445 -1.8352
 4591SOL     OW25405   1.560   0.571  14.215  1.0619  0.5044 -0.1153
 4591SOL    HW125406   1.571   0.585  14.121  2.0799  1.0783  0.0912
 4591SOL    HW225407   1.610   0.492  14.235  1.0458  0.7624  0.9279
 4592SOL     OW25408   3.091   2.771   9.241  0.0464 -0.1926  0.6077
 4592SOL    HW125409   3.064   2.842   9.298  3.4150  1.0485  0.6288
 4592SOL    HW225410   3.077   2.815   9.157  1.3014 -1.4634 -0.2723
 4593SOL     OW25411   4.383   3.300   1.652 -0.3673  0.8424  0.6640
 4593SOL    HW125412   4.386   3.274   1.744  0.7607  0.3450  0.4894
 4593SOL    HW225413   4.466   3.266   1.618 -1.3112  0.7292 -1.5574
 4594SOL     OW25414   0.673   2.836   4.560  0.0254  0.3275  0.2619
 4594SOL    HW125415   0.747   2.820   4.618  0.3235  1.0063  0.0704
 4594SOL    HW225416   0.703   2.908   4.505 -1.6145  0.3008 -0.6789
 4595SOL     OW25417   0.843   2.709   9.755 -0.0259  0.0174 -0.2879
 4595SOL    HW125418   0.761   2.745   9.788 -0.0105 -0.9416  0.8179
 4595SOL    HW225419   0.874   2.790   9.715  0.6976 -0.5055 -0.8171
 4596SOL     OW25420   1.637   1.867   9.491 -0.0359 -0.1253 -0.0713
 4596SOL    HW125421   1.657   1.936   9.554 -0.0139  0.7982 -1.0891
 4596SOL    HW225422   1.721   1.821   9.488 -0.0712 -0.1414 -0.8772
 4597SOL     OW25423   4.498   3.478  17.476 -0.2804  0.0740 -0.2074
 4597SOL    HW125424   4.513   3.430  17.558  1.9233 -0.0693 -0.7074
 4597SOL    HW225425   4.573   3.447  17.426 -1.4405 -1.1075 -1.2010
 4598SOL     OW25426   0.424   3.683   0.669 -0.4545 -0.4761  0.2198
 4598SOL    HW125427   0.380   3.755   0.623 -0.2861 -0.4028  0.1726
 4598SOL    HW225428   0.345   3.649   0.712  0.8161  1.5260  4.0344
 4599SOL     OW25429   0.618   4.680  14.589 -0.1527 -0.1718  0.3619
 4599SOL    HW125430   0.602   0.034  14.577 -1.7519 -0.2556  1.8784
 4599SOL    HW225431   0.530   4.645  14.574  0.3057 -0.1444 -2.4255
 4600SOL     OW25432   3.379   1.493  13.183  0.3537  0.5722 -0.0907
 4600SOL    HW125433   3.336   1.463  13.263  0.4730  0.7616  0.0453
 4600SOL    HW225434   3.465   1.524  13.213  0.7661  0.7511 -1.4833
 4601SOL     OW25435   1.749   2.886   8.729  0.2417 -0.0510  0.0430
 4601SOL    HW125436   1.680   2.926   8.783  1.0161 -1.6687  2.2275
 4601SOL    HW225437   1.807   2.846   8.793  1.2256  1.0694 -0.1618
 4602SOL     OW25438   4.593   2.586   8.411 -0.1022 -0.8751 -0.3056
 4602SOL    HW125439   4.576   2.506   8.461 -0.4909  1.7858  3.9202
 4602SOL    HW225440   4.537   2.640   8.467  0.6523 -2.3213  1.8766
 4603SOL     OW25441   1.076   1.633   7.823 -0.2223 -0.4037 -0.0847
 4603SOL    HW125442   1.068   1.612   7.916 -0.5016 -1.7253 -0.3980
 4603SOL    HW225443   1.170   1.618   7.813  0.0079  1.2560 -0.3545
 4604SOL     OW25444   3.267   2.924   1.632  0.2383 -0.4645  0.1113
 4604SOL    HW125445   3.210   2.917   1.708  0.2869 -0.1020  0.1821
 4604SOL    HW225446   3.217   2.982   1.575  0.0904 -1.2913 -0.5926
 4605SOL     OW25447   2.356   1.802   5.006  0.5674  0.5464 -0.2254
 4605SOL    HW125448   2.324   1.852   5.082  0.5053  1.4201 -0.8281
 4605SOL    HW225449   2.303   1.838   4.935 -0.6738  0.9503  0.8857
 4606SOL     OW25450   2.115   4.176   6.333 -0.0701  0.0466  0.1424
 4606SOL    HW125451   2.021   4.163   6.323  0.0547 -1.8278  1.4428
 4606SOL    HW225452   2.124   4.256   6.385  1.2564 -0.7026  1.0456
 4607SOL     OW25453   3.398   0.088   1.515 -0.0986  0.2363 -0.1793
 4607SOL    HW125454   3.492   0.108   1.514 -0.3536  1.3078 -2.4939
 4607SOL    HW225455   3.379   0.132   1.598  0.7952 -0.1551  0.2315
 4608SOL     OW25456   0.900   1.553  15.111 -0.6573  0.2243 -0.3101
 4608SOL    HW125457   0.932   1.577  15.023 -0.8073 -0.5320 -0.5690
 4608SOL    HW225458   0.871   1.467  15.082 -2.0270  0.3020  0.8690
 4609SOL     OW25459   3.663   2.377   5.799  0.0169 -0.4741 -0.3971
 4609SOL    HW125460   3.596   2.361   5.866  1.7539 -0.3991  1.3598
 4609SOL    HW225461   3.607   2.408   5.728 -0.3329  2.0185  0.9377
 4610SOL     OW25462   1.436   4.274   4.023 -0.1404 -0.1107  0.6627
 4610SOL    HW125463   1.365   4.315   3.974  2.6757  1.5824 -1.9660
 4610SOL    HW225464   1.510   4.331   4.004 -1.2515  1.3609  0.7209
 4611SOL     OW25465   3.410   3.258  16.330 -0.6880 -0.0867 -0.3680
 4611SOL    HW125466   3.341   3.215  16.280  1.2924 -0.7567 -2.5113
 4611SOL    HW225467   3.457   3.189  16.376 -0.5247  0.9015  0.9664
 4612SOL     OW25468   4.241   2.191   3.626  0.0345  0.7279 -0.8610
 4612SOL    HW125469   4.329   2.155   3.625  0.6459  2.2051  0.7005
 4612SOL    HW225470   4.209   2.174   3.714 -0.6094 -2.9027 -1.7861
 4613SOL     OW25471   3.108   3.133   7.912  0.0688  0.2549  0.1490
 4613SOL    HW125472   3.126   3.173   7.998 -1.8791 -2.0935  1.6619
 4613SOL    HW225473   3.077   3.212   7.867  0.4937  0.3823  0.0838
 4614SOL     OW25474   0.801   2.404   9.453  0.9179  0.0682  0.2847
 4614SOL    HW125475   0.851   2.405   9.534  0.4078  0.5111  0.5975
 4614SOL    HW225476   0.733   2.468   9.476  1.1482  1.1291 -1.9771
 4615SOL     OW25477   0.075   2.917   3.574  0.3266  0.2322  0.0851
 4615SOL    HW125478   0.067   2.954   3.662  1.6427  1.2667 -0.2381
 4615SOL    HW225479   0.020   2.838   3.578 -1.2208  1.2763 -0.5150
 4616SOL     OW25480   2.830   4.283  11.822 -0.1013  0.4997  0.2157
 4616SOL    HW125481   2.918   4.249  11.840  0.0423  1.5582  1.5478
 4616SOL    HW225482   2.859   4.372  11.802 -1.2998  0.7542 -0.3748
 4617SOL     OW25483   0.182   2.411   5.659  0.3074  0.8030  0.2277
 4617SOL    HW125484   0.114   2.478   5.654 -1.6522 -1.0461  2.1384
 4617SOL    HW225485   0.132   2.331   5.672 -0.9361  1.9449  2.6447
 4618SOL     OW25486   2.098   0.713   3.575  0.2358  0.3465  0.2491
 4618SOL    HW125487   2.086   0.665   3.493 -0.2048 -1.0965  1.1484
 4618SOL    HW225488   2.028   0.776   3.559  0.4959  0.6961  0.5133
 4619SOL     OW25489   4.227   1.596  15.355 -0.0411  0.7162 -0.2388
 4619SOL    HW125490   4.208   1.635  15.441  0.7992  1.3253 -0.3254
 4619SOL    HW225491   4.147   1.626  15.311  2.0820  1.0997 -3.7830
 4620SOL     OW25492   0.276   3.843   6.688  0.3451  0.2480 -0.4685
 4620SOL    HW125493   0.295   3.810   6.776  0.0382  1.8310  0.2054
 4620SOL    HW225494   0.288   3.937   6.703  0.9398 -0.3225  2.7122
 4621SOL     OW25495   1.378   2.250   2.281  0.2358  0.0894  0.3008
 4621SOL    HW125496   1.384   2.181   2.347 -1.4996 -0.4969 -0.1335
 4621SOL    HW225497   1.300   2.299   2.309  1.2927  1.0366  1.5625
 4622SOL     OW25498   1.458   2.898   3.315  0.0443  0.3237  0.0980
 4622SOL    HW125499   1.528   2.899   3.381  1.3193 -2.3069 -1.2401
 4622SOL    HW225500   1.399   2.970   3.340 -0.1407 -1.0448  3.5950
 4623SOL     OW25501   1.276   3.967   3.949  0.5474 -0.0235  0.2435
 4623SOL    HW125502   1.251   3.936   3.862  2.0496 -1.0025  0.1740
 4623SOL    HW225503   1.189   3.982   3.987  0.6906  0.2971  0.4509
 4624SOL     OW25504   3.885   4.031  10.116 -0.1123 -0.3892 -0.8527
 4624SOL    HW125505   3.861   4.124  10.121  0.1366 -0.4372  1.3085
 4624SOL    HW225506   3.923   4.022  10.029  0.8849  0.8032 -0.5420
 4625SOL     OW25507   3.797   4.675  16.700  0.0355 -0.5617 -0.0987
 4625SOL    HW125508   3.882   4.644  16.666  0.9801  2.5056 -0.5692
 4625SOL    HW225509   3.812   4.668  16.794 -0.8422 -3.6375 -0.2161
 4626SOL     OW25510   2.581   1.923   9.216 -0.0075 -0.6244 -0.1629
 4626SOL    HW125511   2.635   1.897   9.142  2.6597  0.4954  1.3952
 4626SOL    HW225512   2.497   1.945   9.176 -1.1715  0.2787  2.7514
 4627SOL     OW25513   4.207   0.555  10.832 -0.1636  0.0137 -0.3244
 4627SOL    HW125514   4.150   0.633  10.831 -0.4778 -0.2134  0.4208
 4627SOL    HW225515   4.145   0.486  10.809  0.9949 -0.7652 -1.0495
 4628SOL     OW25516   0.702   3.302   8.538 -0.2419 -0.4724  0.2523
 4628SOL    HW125517   0.633   3.303   8.605 -0.6259 -4.2078 -0.0992
 4628SOL    HW225518   0.770   3.278   8.600  0.0808 -0.0306  0.0691
 4629SOL     OW25519   2.023   4.500   3.898  0.4201 -0.4092  0.3631
 4629SOL    HW125520   1.969   4.423   3.916  0.9470 -0.5169  1.4928
 4629SOL    HW225521   2.071   4.471   3.821  2.4307  0.0121  1.4612
 4630SOL     OW25522   4.521   3.187   8.355  0.1757  0.0381  0.3634
 4630SOL    HW125523   4.505   3.269   8.401  2.4481  1.2531 -1.0409
 4630SOL    HW225524   4.597   3.163   8.407 -0.0007 -2.0936 -0.3442
 4631SOL     OW25525   3.305   2.419   9.220 -0.2243 -0.2392 -0.0386
 4631SOL    HW125526   3.382   2.472   9.240  0.8389 -1.3685 -1.1144
 4631SOL    HW225527   3.342   2.330   9.216 -1.3121 -0.7177  0.4457
 4632SOL     OW25528   0.456   4.085  13.618  0.3418  0.1965 -0.1776
 4632SOL    HW125529   0.475   4.022  13.549 -0.8838  1.4002 -1.6249
 4632SOL    HW225530   0.475   4.028  13.692  0.2533 -0.5826 -0.7554
 4633SOL     OW25531   2.268   3.468   9.229 -0.0207  0.2126  0.5913
 4633SOL    HW125532   2.222   3.516   9.161  0.7886 -0.3253 -0.3417
 4633SOL    HW225533   2.349   3.519   9.225 -0.2507  0.5550  0.3527
 4634SOL     OW25534   1.441   0.282   5.963  0.0827 -0.0822 -0.2034
 4634SOL    HW125535   1.422   0.206   6.018 -0.9487 -0.2484 -0.7723
 4634SOL    HW225536   1.386   0.269   5.886 -0.8375  1.4820  0.1931
 4635SOL     OW25537   2.303   2.666  12.815  0.2203 -0.2756  0.6317
 4635SOL    HW125538   2.257   2.650  12.897 -1.3661  2.0465  0.1810
 4635SOL    HW225539   2.234   2.676  12.750 -0.2075  1.1958  1.3246
 4636SOL     OW25540   4.638   2.401   9.949  0.0044  0.3019  0.3616
 4636SOL    HW125541   4.715   2.442   9.908  0.4727 -0.8923  0.0484
 4636SOL    HW225542   4.658   2.396  10.043 -3.3557 -1.5530  0.9826
 4637SOL     OW25543   3.163   1.185   4.896 -0.0777 -0.4862 -0.4969
 4637SOL    HW125544   3.175   1.200   4.990  0.5209 -2.4202 -0.2643
 4637SOL    HW225545   3.195   1.270   4.868  1.6312 -1.2727 -0.9157
 4638SOL     OW25546   0.298   3.766  16.619  0.3545  0.4226  0.0543
 4638SOL    HW125547   0.294   3.841  16.559 -0.8846  0.2521 -0.0794
 4638SOL    HW225548   0.390   3.739  16.619  0.4739  0.7720 -2.2348
 4639SOL     OW25549   2.999   3.016  11.365 -0.0577 -0.3401 -0.3302
 4639SOL    HW125550   2.982   2.962  11.288  3.7222  0.6933 -1.8896
 4639SOL    HW225551   3.026   3.097  11.323  2.2246  0.3538  2.4470
 4640SOL     OW25552   3.057   0.556  10.285  0.0060 -0.5174  0.0449
 4640SOL    HW125553   3.103   0.472  10.283  1.0710  0.0959 -1.6891
 4640SOL    HW225554   3.100   0.593  10.363  1.8997 -3.2422  0.2791
 4641SOL     OW25555   2.143   1.516   5.298  0.8623 -0.5664 -0.1533
 4641SOL    HW125556   2.096   1.571   5.235  1.1178  0.6703  0.7210
 4641SOL    HW225557   2.175   1.460   5.228 -0.5958 -0.0698 -1.2217
 4642SOL     OW25558   0.154   3.964   7.516 -0.0994  0.6291  0.1197
 4642SOL    HW125559   0.128   3.883   7.472 -2.1844  0.5813  1.3858
 4642SOL    HW225560   0.150   3.932   7.607  1.6171 -0.9318 -0.3568
 4643SOL     OW25561   3.338   1.052   7.893  0.6678 -0.3788 -0.6365
 4643SOL    HW125562   3.421   1.031   7.937  0.2716  0.5885  0.5890
 4643SOL    HW225563   3.278   1.067   7.966  0.1671 -1.4631 -0.8181
 4644SOL     OW25564   0.997   4.610   2.146 -0.5271  0.2785  0.4151
 4644SOL    HW125565   0.920   4.597   2.090  0.3583 -2.2573 -0.2169
 4644SOL    HW225566   1.010   4.526   2.190  0.0802  0.5311  0.7130
 4645SOL     OW25567   1.683   4.078   9.098  0.7472  0.7363 -0.5858
 4645SOL    HW125568   1.728   4.031   9.028  0.9017 -0.1681  0.1320
 4645SOL    HW225569   1.739   4.053   9.171  1.0820  1.8876 -0.4443
 4646SOL     OW25570   0.953   0.414  16.655 -0.5550  0.3020 -0.4674
 4646SOL    HW125571   0.881   0.471  16.630  0.9190  1.0722 -2.9142
 4646SOL    HW225572   0.927   0.331  16.616 -1.4384 -0.9080  2.7099
 4647SOL     OW25573   0.332   0.970   5.527  0.2683 -0.3242 -0.1162
 4647SOL    HW125574   0.415   0.923   5.519  1.0588  0.9098  0.9268
 4647SOL    HW225575   0.325   0.981   5.433 -3.5696  1.8598  0.3956
 4648SOL     OW25576   0.869   0.607   2.898 -0.3573  0.0114 -0.3724
 4648SOL    HW125577   0.954   0.563   2.888 -1.1258 -1.8495  1.1576
 4648SOL    HW225578   0.833   0.557   2.972  2.2873 -0.2575  0.7398
 4649SOL     OW25579   2.299   0.206   6.852  0.1047 -0.5384  0.5579
 4649SOL    HW125580   2.266   0.119   6.827 -2.7961  0.4772  0.9559
 4649SOL    HW225581   2.253   0.268   6.796  1.7735 -1.3293 -1.6866
 4650SOL     OW25582   0.579   1.460  11.652 -0.3075  0.3557  0.0676
 4650SOL    HW125583   0.600   1.493  11.565 -1.9886  0.5779 -0.2612
 4650SOL    HW225584   0.642   1.506  11.707 -1.2233  0.8403  0.7280
 4651SOL     OW25585   3.069   3.771   0.756  0.1377  0.3630 -0.0087
 4651SOL    HW125586   3.032   3.764   0.668  0.7629  3.9738 -0.5672
 4651SOL    HW225587   3.162   3.757   0.735 -0.2925 -1.5539 -0.6213
 4652SOL     OW25588   2.057   3.470   7.371 -0.2580  0.9823 -0.4215
 4652SOL    HW125589   1.961   3.460   7.376 -0.0817 -0.0643  0.9541
 4652SOL    HW225590   2.070   3.478   7.276 -0.4524 -3.8234 -0.8942
 4653SOL     OW25591   1.148   4.388   1.897 -0.0267 -0.1698 -0.3642
 4653SOL    HW125592   1.164   4.478   1.866 -2.0464  0.8332  1.4826
 4653SOL    HW225593   1.206   4.330   1.849 -1.8859 -1.1411 -1.4275
 4654SOL     OW25594   1.388   1.090   1.487  0.4262 -0.7992 -0.2559
 4654SOL    HW125595   1.353   1.160   1.432  0.0802  0.2074  1.2475
 4654SOL    HW225596   1.452   1.043   1.433  1.4402 -0.9294  1.0684
 4655SOL     OW25597   1.883   1.304   3.283 -0.3900 -0.1579  0.7081
 4655SOL    HW125598   1.902   1.230   3.342 -1.1086 -0.6537  0.3157
 4655SOL    HW225599   1.901   1.376   3.343 -1.3266 -1.6125  2.7670
 4656SOL     OW25600   0.123   2.885   4.872  0.1561 -0.1391  0.2375
 4656SOL    HW125601   0.169   2.965   4.848 -2.9747  1.5546 -0.1242
 4656SOL    HW225602   0.104   2.915   4.961  1.7100 -0.1159  0.5639
 4657SOL     OW25603   1.549   2.193   0.197  0.2625  0.1208 -0.2765
 4657SOL    HW125604   1.533   2.151   0.281  0.8180 -2.2954 -1.3763
 4657SOL    HW225605   1.596   2.270   0.226 -1.9856  1.9630 -1.4875
 4658SOL     OW25606   4.101   1.365  16.363  0.5783 -0.2665 -0.3084
 4658SOL    HW125607   4.089   1.321  16.279 -3.8461  1.1410 -0.3940
 4658SOL    HW225608   4.065   1.314  16.436  1.5404  0.5906  0.7761
 4659SOL     OW25609   4.194   1.697  12.018  0.6179 -0.4680  0.3017
 4659SOL    HW125610   4.216   1.643  11.942  1.7264 -0.9545  0.9573
 4659SOL    HW225611   4.101   1.682  12.029  0.5477 -0.2195  0.0352
 4660SOL     OW25612   3.625   4.458   5.452 -0.5029 -0.4477  0.0667
 4660SOL    HW125613   3.582   4.524   5.505 -1.6812 -0.3887 -0.9690
 4660SOL    HW225614   3.686   4.417   5.513 -0.5007  1.0140  1.0507
 4661SOL     OW25615   0.012   4.571   6.085  0.1738  0.5062  0.2958
 4661SOL    HW125616   0.015   4.645   6.145 -0.2024  0.5162  0.3020
 4661SOL    HW225617   0.052   4.616   6.010  0.0106 -0.3658 -0.3112
 4662SOL     OW25618   2.034   1.898  17.464  0.0311  0.1661 -0.6264
 4662SOL    HW125619   2.111   1.930  17.511 -1.5191  0.2932  1.8572
 4662SOL    HW225620   2.030   1.809  17.500  0.5494  0.3737 -0.0498
 4663SOL     OW25621   3.259   4.346  10.409  0.4846 -0.0613 -0.0842
 4663SOL    HW125622   3.175   4.329  10.365  0.0225  1.8840  0.0741
 4663SOL    HW225623   3.281   4.437  10.393  1.6649 -0.7446 -2.3990
 4664SOL     OW25624   2.241   1.592  17.630 -0.3578 -0.5985 -0.0920
 4664SOL    HW125625   2.262   1.656  17.699 -2.0305 -0.6727  0.5044
 4664SOL    HW225626   2.145   1.597  17.632 -0.2855  1.2757 -1.2595
 4665SOL     OW25627   3.490   1.955   5.561  0.0671  0.1767  0.1195
 4665SOL    HW125628   3.552   2.024   5.583  0.0300  0.0908  0.4980
 4665SOL    HW225629   3.507   1.892   5.631 -0.1326 -0.6365 -0.5659
 4666SOL     OW25630   2.146   0.592   7.995 -0.7084 -0.2988 -0.0035
 4666SOL    HW125631   2.196   0.525   8.042  2.8164  0.9315 -2.0312
 4666SOL    HW225632   2.171   0.574   7.904 -1.2401  0.2306 -0.2505
 4667SOL     OW25633   3.520   3.135  15.471 -0.4846 -0.1687 -0.0642
 4667SOL    HW125634   3.445   3.166  15.421 -1.5233 -0.9895  0.9766
 4667SOL    HW225635   3.591   3.156  15.411  2.7753 -1.6534  3.2412
 4668SOL     OW25636   4.301   3.840   4.243  0.1547  0.9330 -0.0532
 4668SOL    HW125637   4.393   3.814   4.252 -0.2254 -1.3101 -2.3743
 4668SOL    HW225638   4.315   3.926   4.204 -2.4618  1.3246 -0.1075
 4669SOL     OW25639   0.666   3.946   2.004  0.5265  0.0784 -0.1032
 4669SOL    HW125640   0.594   3.899   1.963  0.8276 -0.5108  0.0391
 4669SOL    HW225641   0.687   4.011   1.937 -1.3713 -1.0820 -1.8027
 4670SOL     OW25642   2.104   3.959   8.173  0.3093  0.3141  0.1812
 4670SOL    HW125643   2.062   4.044   8.185  1.9446  1.1666 -0.1461
 4670SOL    HW225644   2.055   3.916   8.104  0.1757  0.0025  0.4701
 4671SOL     OW25645   1.985   0.867  12.912  0.2688  0.2203 -0.2499
 4671SOL    HW125646   1.927   0.852  12.986 -0.8649  3.4383 -0.4836
 4671SOL    HW225647   1.940   0.933  12.860  1.0244  0.5876 -0.4502
 4672SOL     OW25648   4.591   2.362  15.869  0.0540 -0.3093 -0.2883
 4672SOL    HW125649   4.578   2.274  15.835  0.9657 -1.6196  2.7744
 4672SOL    HW225650   4.685   2.377  15.857  0.2655 -0.8165  0.8134
 4673SOL     OW25651   3.716   2.365   9.995  0.2274 -0.1894 -0.0106
 4673SOL    HW125652   3.715   2.288   9.939 -2.0034  0.4864 -0.8932
 4673SOL    HW225653   3.725   2.425   9.921  1.2210  0.0649  0.3056
 4674SOL     OW25654   3.626   2.317   8.365 -0.4684 -0.6284  0.1703
 4674SOL    HW125655   3.565   2.251   8.397 -2.1090  0.4140 -0.8207
 4674SOL    HW225656   3.571   2.393   8.384  1.0681  0.2753  1.0389
 4675SOL     OW25657   0.066   3.579   5.775 -0.6037  0.3003  0.1097
 4675SOL    HW125658   0.104   3.555   5.690 -1.1922  0.7168 -0.2704
 4675SOL    HW225659   0.104   3.510   5.829 -1.1742 -1.2875 -1.4825
 4676SOL     OW25660   3.156   2.696   1.832 -0.0935 -0.2327  0.1740
 4676SOL    HW125661   3.105   2.748   1.895  1.3791  0.9199  0.4127
 4676SOL    HW225662   3.126   2.730   1.747 -0.7356  2.1071  1.3533
 4677SOL     OW25663   3.899   3.800   2.926  0.0232  0.0632  0.2753
 4677SOL    HW125664   3.893   3.871   2.990  0.1149  1.6497 -1.4714
 4677SOL    HW225665   3.822   3.817   2.872 -1.8304 -1.9886  2.2757
 4678SOL     OW25666   0.920   0.517   4.758  0.9973  0.7406 -0.2868
 4678SOL    HW125667   0.975   0.440   4.740  1.2400  0.9803 -0.5570
 4678SOL    HW225668   0.928   0.564   4.675 -0.4127 -0.0493 -0.8941
 4679SOL     OW25669   4.373   4.030  17.252  0.6932 -0.2619  0.3580
 4679SOL    HW125670   4.414   4.104  17.206 -1.4877 -0.1445 -1.4071
 4679SOL    HW225671   4.436   3.958  17.255  1.8045  0.6751 -0.1818
 4680SOL     OW25672   1.341   0.599   6.817  0.3746 -0.3598 -0.0634
 4680SOL    HW125673   1.286   0.617   6.893 -2.1864 -1.3697 -1.6741
 4680SOL    HW225674   1.417   0.656   6.827 -0.3435  0.5273  0.4256
 4681SOL     OW25675   3.613   3.470   7.653 -0.1589  0.2254  0.5618
 4681SOL    HW125676   3.669   3.545   7.675  1.1717 -0.8442  0.8323
 4681SOL    HW225677   3.593   3.434   7.740 -2.7689 -0.7991 -0.4704
 4682SOL     OW25678   1.399   2.334   7.196  0.6458  0.4227  0.1665
 4682SOL    HW125679   1.352   2.322   7.279  0.1142 -2.6808 -0.5600
 4682SOL    HW225680   1.490   2.320   7.220 -0.2600 -0.5549  3.0767
 4683SOL     OW25681   0.069   0.213   8.190  0.8227 -0.3277 -0.2132
 4683SOL    HW125682   0.098   0.221   8.281 -2.6653  1.7126  0.7474
 4683SOL    HW225683   0.125   0.266   8.132 -0.3874 -0.2108 -1.2695
 4684SOL     OW25684   2.676   1.296   7.656  0.2916  0.3086  0.0069
 4684SOL    HW125685   2.609   1.238   7.619  0.7714 -0.6060  0.5676
 4684SOL    HW225686   2.751   1.238   7.643  0.2835  1.0603 -3.3999
 4685SOL     OW25687   4.289   3.581   1.703  0.2723 -0.3041  0.7149
 4685SOL    HW125688   4.365   3.526   1.687  1.1593  0.8077  1.0324
 4685SOL    HW225689   4.255   3.542   1.783 -0.6202 -0.1426  0.4108
 4686SOL     OW25690   2.238   2.250   6.962 -0.0291 -0.1176 -0.4302
 4686SOL    HW125691   2.160   2.294   6.993  0.3035 -0.8795  1.4733
 4686SOL    HW225692   2.197   2.189   6.901  0.5837 -0.6797 -0.2915
 4687SOL     OW25693   4.646   0.147   3.066 -1.0476  0.4213 -0.3137
 4687SOL    HW125694   4.675   0.085   2.999  0.1539 -0.6912  1.2448
 4687SOL    HW225695   4.551   0.139   3.060 -1.2277  1.8824  0.5515
 4688SOL     OW25696   0.665   2.858  12.613 -0.5648 -0.2377 -0.4224
 4688SOL    HW125697   0.674   2.878  12.520  1.0925 -2.4750 -0.7280
 4688SOL    HW225698   0.569   2.857  12.620 -0.5853  1.2654 -0.5453
 4689SOL     OW25699   2.360   1.973   2.422 -0.0534 -0.5504 -0.4838
 4689SOL    HW125700   2.268   1.975   2.448 -0.3899  1.5234 -1.8192
 4689SOL    HW225701   2.353   2.036   2.350  0.2961  1.8813  1.6047
 4690SOL     OW25702   1.119   1.732   9.762  0.2082 -0.3519  0.1706
 4690SOL    HW125703   1.103   1.675   9.837  1.9680  2.0763  2.4090
 4690SOL    HW225704   1.214   1.741   9.756  0.1289 -0.1487 -0.7633
 4691SOL     OW25705   4.266   4.073  12.192  0.5722  0.4718 -0.7275
 4691SOL    HW125706   4.216   4.051  12.114  0.0418 -0.9488  0.0135
 4691SOL    HW225707   4.201   4.122  12.243  0.5258  0.5321 -0.8454
 4692SOL     OW25708   2.928   1.839  17.416 -0.3071  0.5846 -0.4989
 4692SOL    HW125709   3.015   1.875  17.432  1.2796 -3.4556  0.0773
 4692SOL    HW225710   2.882   1.898  17.356 -1.0196  1.4044  0.8617
 4693SOL     OW25711   1.044   1.340   1.781 -0.4037 -0.0593  0.7316
 4693SOL    HW125712   0.950   1.329   1.764 -0.0806  0.2958 -1.2168
 4693SOL    HW225713   1.063   1.250   1.807  2.2784 -0.9921 -4.5344
 4694SOL     OW25714   3.361   3.025   5.959  0.2855 -0.0142  0.4942
 4694SOL    HW125715   3.336   2.937   5.986  1.1016 -0.1647  0.7724
 4694SOL    HW225716   3.316   3.022   5.874 -0.1415 -1.8663  0.7993
 4695SOL     OW25717   1.468   4.465   9.379  0.5596 -0.2793 -0.1974
 4695SOL    HW125718   1.562   4.450   9.367  0.7413 -0.1930  1.1863
 4695SOL    HW225719   1.472   4.559   9.400 -3.2938 -0.5245  1.5742
 4696SOL     OW25720   2.613   3.748   4.983 -0.6465  0.1599  0.0798
 4696SOL    HW125721   2.565   3.830   4.996  0.8820  0.8433  1.3969
 4696SOL    HW225722   2.605   3.736   4.889  2.6806 -0.2763 -0.1105
 4697SOL     OW25723   2.325   0.728   2.332 -0.5731  0.4360 -0.6506
 4697SOL    HW125724   2.294   0.768   2.413 -1.3940 -0.7356 -0.3897
 4697SOL    HW225725   2.358   0.643   2.361 -0.3041  1.3616  1.7219
 4698SOL     OW25726   3.776   0.339   2.776  0.1021 -0.0358 -0.2109
 4698SOL    HW125727   3.738   0.426   2.790 -0.6195 -0.4057  0.0911
 4698SOL    HW225728   3.870   0.357   2.776  0.3259 -1.1830 -4.6780
 4699SOL     OW25729   0.160   0.289   3.850  0.1868  0.5496  0.2618
 4699SOL    HW125730   0.122   0.298   3.762 -1.3316 -0.6762  0.7953
 4699SOL    HW225731   0.173   0.382   3.869 -0.2524  0.8012 -0.6713
 4700SOL     OW25732   4.624   0.833   3.128 -0.0784  0.2641  0.1309
 4700SOL    HW125733   4.604   0.887   3.205  1.3493 -1.4660  1.6994
 4700SOL    HW225734   4.712   0.864   3.107  0.0514 -0.4929 -0.4504
 4701SOL     OW25735   1.193   0.284   8.610  0.0882  1.1548  0.1955
 4701SOL    HW125736   1.168   0.331   8.689 -0.2472  0.5647  0.4410
 4701SOL    HW225737   1.149   0.199   8.621 -0.3222  1.4150  0.5263
 4702SOL     OW25738   2.678   4.675  15.515 -0.0140 -1.1021  0.1951
 4702SOL    HW125739   2.703   4.656  15.425 -1.4229  5.3016 -1.5725
 4702SOL    HW225740   2.600   4.728  15.501  0.1373 -0.4022  1.9463
 4703SOL     OW25741   3.528   0.971   2.322  0.0079  0.0343 -0.2413
 4703SOL    HW125742   3.458   0.923   2.277 -0.4892  1.2364 -0.7456
 4703SOL    HW225743   3.474   1.048   2.340 -1.3958 -1.0219  0.0287
 4704SOL     OW25744   4.593   4.122   9.985  0.2406 -0.5541 -0.5372
 4704SOL    HW125745   4.589   4.198   9.927 -0.4814 -0.4128 -0.3050
 4704SOL    HW225746   4.663   4.149  10.044  0.4097  0.2813 -1.1093
 4705SOL     OW25747   2.134   2.331   7.562  0.0174 -0.9515  0.2724
 4705SOL    HW125748   2.135   2.237   7.544  2.0677 -1.0293  0.8235
 4705SOL    HW225749   2.046   2.354   7.593  0.3382  0.7397 -0.1127
 4706SOL     OW25750   2.881   2.403   3.192 -0.1634  0.4411 -0.3970
 4706SOL    HW125751   2.932   2.334   3.150  0.7412 -0.4048  2.0759
 4706SOL    HW225752   2.859   2.454   3.114  1.5642 -0.3089 -1.3546
 4707SOL     OW25753   2.098   0.442   6.366  0.5938  0.0358 -0.0767
 4707SOL    HW125754   2.048   0.375   6.318  0.7923 -0.4582  0.4067
 4707SOL    HW225755   2.040   0.477   6.433  0.7808 -0.2891  0.2551
 4708SOL     OW25756   0.614   2.379   6.903  0.0035  0.0607 -0.3843
 4708SOL    HW125757   0.585   2.366   6.994  0.9374  1.8467  0.1741
 4708SOL    HW225758   0.644   2.294   6.873 -2.6343  0.8817 -5.3609
 4709SOL     OW25759   3.456   2.427   0.607 -0.3634  0.9050 -0.3005
 4709SOL    HW125760   3.402   2.460   0.679 -1.9215  0.1715 -1.1291
 4709SOL    HW225761   3.410   2.347   0.579  3.6712 -1.2376 -0.8019
 4710SOL     OW25762   4.469   2.408   2.689  0.6085  0.4019 -0.3001
 4710SOL    HW125763   4.458   2.491   2.642 -0.6885  1.4836  1.8857
 4710SOL    HW225764   4.474   2.341   2.621  0.3396 -0.4206  0.4846
 4711SOL     OW25765   2.808   2.058   5.232 -0.1055 -0.0336 -0.3097
 4711SOL    HW125766   2.746   2.010   5.177  3.3027 -1.4096 -2.8945
 4711SOL    HW225767   2.891   2.011   5.225 -0.1575 -0.4314  1.5208
 4712SOL     OW25768   3.574   4.053  10.541 -0.2069 -0.1293 -0.2435
 4712SOL    HW125769   3.484   4.087  10.534 -0.8128 -1.4267  1.2657
 4712SOL    HW225770   3.566   3.972  10.591 -1.0869 -0.7425 -1.3781
 4713SOL     OW25771   0.495   3.110   7.842 -0.4703  0.0524 -0.1988
 4713SOL    HW125772   0.525   3.185   7.791 -0.7732  1.7863  2.1620
 4713SOL    HW225773   0.514   3.142   7.930 -0.3458 -0.6279  0.0245
 4714SOL     OW25774   0.562   0.916  13.274 -1.2817 -0.2635 -0.3922
 4714SOL    HW125775   0.646   0.940  13.233 -0.4890  0.8020  1.8740
 4714SOL    HW225776   0.516   0.996  13.297 -0.3347 -0.1037  0.9180
 4715SOL     OW25777   4.543   1.796  12.039 -0.6522  0.4209  0.9912
 4715SOL    HW125778   4.547   1.719  12.096  1.7775  0.0441  0.2800
 4715SOL    HW225779   4.452   1.828  12.039  0.3591  3.2837  2.5697
 4716SOL     OW25780   3.278   2.855   3.999  0.2602  0.1516  0.9613
 4716SOL    HW125781   3.270   2.779   4.056  2.4033 -0.3065  0.6625
 4716SOL    HW225782   3.294   2.921   4.067 -2.9534  0.8339  1.0728
 4717SOL     OW25783   4.685   4.247  10.453  0.3181  0.2958 -0.2248
 4717SOL    HW125784   0.006   4.320  10.445 -1.8008  2.0518 -0.6114
 4717SOL    HW225785   4.609   4.290  10.412 -0.1955 -0.4413 -0.0551
 4718SOL     OW25786   0.139   0.333   0.977 -0.4548 -0.0824  0.2068
 4718SOL    HW125787   0.203   0.328   1.047 -0.7431 -0.0646  0.4730
 4718SOL    HW225788   0.194   0.301   0.906  0.3334 -1.3194  1.3681
 4719SOL     OW25789   1.714   3.810  17.449 -0.2525  0.1753 -0.4753
 4719SOL    HW125790   1.742   3.856  17.528  0.0638  2.6951 -2.0353
 4719SOL    HW225791   1.620   3.805  17.466 -0.1569  0.3892  0.1237
 4720SOL     OW25792   4.491   3.576   9.521  0.2814 -0.4114  0.0941
 4720SOL    HW125793   4.526   3.656   9.559 -0.2371  0.1014 -0.5256
 4720SOL    HW225794   4.468   3.600   9.431 -2.0220  0.2372  0.8628
 4721SOL     OW25795   2.057   2.825   5.691  0.0426  0.7763  0.3854
 4721SOL    HW125796   2.045   2.760   5.760 -2.5188 -0.0255 -0.8265
 4721SOL    HW225797   1.966   2.852   5.677  0.4143  1.4695 -0.7054
 4722SOL     OW25798   0.823   0.368  16.912 -0.1973 -0.2441  0.2572
 4722SOL    HW125799   0.916   0.355  16.895 -0.5936 -0.0387 -2.0600
 4722SOL    HW225800   0.832   0.420  16.992  1.2797 -0.3326  0.1535
 4723SOL     OW25801   0.855   0.814   5.288 -0.1716 -0.1534 -0.1830
 4723SOL    HW125802   0.911   0.762   5.346  0.8863  1.2474  0.0346
 4723SOL    HW225803   0.892   0.806   5.200 -0.3481 -0.9791 -0.1795
 4724SOL     OW25804   0.515   3.997  11.235 -0.3248  0.2347  0.7958
 4724SOL    HW125805   0.448   4.059  11.265  0.2782  0.3729  1.8568
 4724SOL    HW225806   0.495   3.992  11.142  0.6367  0.8994  0.5615
 4725SOL     OW25807   4.317   3.007   9.468 -0.1648 -0.3766  0.4380
 4725SOL    HW125808   4.299   3.068   9.540 -0.4114 -1.6937  1.5056
 4725SOL    HW225809   4.297   2.925   9.514 -0.2811 -1.9971 -2.4934
 4726SOL     OW25810   0.421   3.864   7.604  0.2725 -0.2465 -1.0753
 4726SOL    HW125811   0.367   3.877   7.682 -1.0191 -1.4549 -1.7616
 4726SOL    HW225812   0.472   3.945   7.603 -0.2902  0.1161 -0.0558
 4727SOL     OW25813   3.110   0.003   5.378  0.5152 -0.3142 -0.1203
 4727SOL    HW125814   3.102   4.656   5.337 -0.8634 -1.5067  2.6760
 4727SOL    HW225815   3.040   0.050   5.334  0.9713  0.0766 -0.4179
 4728SOL     OW25816   0.791   3.905   5.426 -0.3132  0.5046 -0.2474
 4728SOL    HW125817   0.795   3.876   5.335 -0.3568  0.5710 -0.2708
 4728SOL    HW225818   0.759   3.827   5.470  2.5840  0.3754  1.6304
 4729SOL     OW25819   2.218   4.018   4.978  0.2779  0.2893 -0.1047
 4729SOL    HW125820   2.310   4.032   4.957  0.2806  0.9634  0.3625
 4729SOL    HW225821   2.212   4.021   5.074 -1.1637  0.5410 -0.1994
 4730SOL     OW25822   4.727   1.327   1.705 -0.0751  0.1729 -0.2502
 4730SOL    HW125823   4.717   1.393   1.637  1.0702  0.6626  0.0586
 4730SOL    HW225824   0.037   1.262   1.656 -0.2626 -0.3315  0.2290
 4731SOL     OW25825   4.027   3.521   9.709 -0.1192  0.3514 -0.5640
 4731SOL    HW125826   4.016   3.462   9.635 -1.9406  0.8312 -0.6772
 4731SOL    HW225827   3.976   3.467   9.770 -3.2342  1.4671 -2.1919
 4732SOL     OW25828   2.238   2.950   9.235 -0.5195  0.3720 -0.5200
 4732SOL    HW125829   2.264   3.037   9.205 -1.1264 -0.4858 -3.4589
 4732SOL    HW225830   2.213   2.969   9.326 -1.9191 -1.5062 -0.4954
 4733SOL     OW25831   0.473   3.244   9.173 -0.3089  0.2994  0.5512
 4733SOL    HW125832   0.430   3.159   9.182 -0.4499  0.5221  2.0014
 4733SOL    HW225833   0.564   3.217   9.157 -0.8733 -2.1966  1.5498
 4734SOL     OW25834   0.720   2.554   3.153  0.2916  0.1174  0.2636
 4734SOL    HW125835   0.807   2.572   3.117  0.9566 -2.3030  0.6594
 4734SOL    HW225836   0.686   2.637   3.188  2.3703  2.0377 -2.2812
 4735SOL     OW25837   3.024   3.945   9.555 -0.4384  0.1294 -0.5900
 4735SOL    HW125838   2.957   3.944   9.623 -0.2269  1.2149 -0.3712
 4735SOL    HW225839   3.106   3.940   9.604 -0.1406  0.0007 -1.1033
 4736SOL     OW25840   4.462   2.078   5.126 -0.0019 -0.3715 -0.4114
 4736SOL    HW125841   4.535   2.139   5.131  0.9329 -1.5437  0.2048
 4736SOL    HW225842   4.404   2.124   5.066  0.6814  0.1504 -0.6699
 4737SOL     OW25843   0.259   1.085   5.285 -0.1381  0.0648  0.3460
 4737SOL    HW125844   0.192   1.153   5.276 -1.1765 -1.0956 -0.5563
 4737SOL    HW225845   0.301   1.093   5.200  0.1531 -3.5150  0.1818
 4738SOL     OW25846   3.028   3.106  13.618 -0.3616 -0.0488  0.4620
 4738SOL    HW125847   3.009   3.012  13.617  2.3926 -0.5991  0.1566
 4738SOL    HW225848   3.123   3.095  13.620 -0.2655  0.6183 -0.5221
 4739SOL     OW25849   4.149   3.057   8.576  0.0077 -0.1521  0.1451
 4739SOL    HW125850   4.058   3.075   8.600  0.0660 -0.5814  0.6912
 4739SOL    HW225851   4.192   3.120   8.633 -0.4184  0.9268 -0.7256
 4740SOL     OW25852   3.896   4.408  14.560  0.1720 -0.4055 -0.6412
 4740SOL    HW125853   3.863   4.492  14.526  1.2027  0.5167  0.6473
 4740SOL    HW225854   3.811   4.369  14.583  0.9893 -0.4886  2.1731
 4741SOL     OW25855   3.681   1.856   3.050 -0.0408 -0.8194 -0.0347
 4741SOL    HW125856   3.623   1.822   2.982 -1.9575 -1.6216  1.9922
 4741SOL    HW225857   3.747   1.900   2.996 -1.1765  1.7915  0.6797
 4742SOL     OW25858   0.752   2.818   6.631 -0.3002  0.7998 -0.2560
 4742SOL    HW125859   0.688   2.767   6.681  2.3241 -0.8729  1.3809
 4742SOL    HW225860   0.741   2.775   6.546 -1.0938 -0.0586  0.2902
 4743SOL     OW25861   0.429   3.945   1.087 -0.0871 -0.2116 -0.1835
 4743SOL    HW125862   0.350   3.901   1.055 -0.4547 -1.6165  2.5901
 4743SOL    HW225863   0.450   4.004   1.014 -1.3030 -0.8203 -1.0214
 4744SOL     OW25864   2.465   1.739   5.913  0.5728 -0.1597  0.5342
 4744SOL    HW125865   2.439   1.798   5.842  1.3682  2.3092  2.3046
 4744SOL    HW225866   2.458   1.807   5.980  3.0157  1.1779 -0.5799
 4745SOL     OW25867   4.624   2.381   4.959  0.3627  0.1418  0.7351
 4745SOL    HW125868   4.683   2.321   5.005  0.8222 -0.0662 -0.1129
 4745SOL    HW225869   4.634   2.359   4.866  0.0572  1.3448  0.4136
 4746SOL     OW25870   0.731   3.788   1.040 -0.1176 -0.1774  0.1610
 4746SOL    HW125871   0.709   3.765   0.949  1.4676 -1.5598  0.1356
 4746SOL    HW225872   0.646   3.781   1.084 -0.9059  2.2064 -1.0000
 4747SOL     OW25873   0.742   3.541  15.470  0.1407 -0.3139  1.1018
 4747SOL    HW125874   0.695   3.479  15.525  1.5793  1.4708  4.2878
 4747SOL    HW225875   0.788   3.597  15.532  0.2583  0.1917  0.5560
 4748SOL     OW25876   0.865   2.500   6.885 -0.5567 -0.2071 -0.6194
 4748SOL    HW125877   0.864   2.504   6.789  0.8210 -0.0839 -0.6347
 4748SOL    HW225878   0.792   2.442   6.905  0.3773 -0.8740  0.8124
 4749SOL     OW25879   0.566   3.904   6.066  0.0245 -0.1386  0.3256
 4749SOL    HW125880   0.610   3.985   6.041 -0.0390 -0.7816 -1.8910
 4749SOL    HW225881   0.591   3.903   6.158  1.7268 -1.8524 -0.1782
 4750SOL     OW25882   1.239   3.755   2.854 -0.2510  0.4493 -0.4286
 4750SOL    HW125883   1.281   3.820   2.910  0.1660  0.2028 -0.4510
 4750SOL    HW225884   1.276   3.772   2.767  1.6761  0.2595  0.3415
 4751SOL     OW25885   4.497   1.816   9.901  0.3917 -0.0864 -0.3242
 4751SOL    HW125886   4.480   1.910   9.904  1.2816  0.1216 -2.3243
 4751SOL    HW225887   4.522   1.804   9.810  1.3868  1.8601 -0.3013
 4752SOL     OW25888   1.916   1.623   9.240  0.0804  0.2051 -0.5727
 4752SOL    HW125889   1.927   1.701   9.294 -0.6935  1.7010 -2.5899
 4752SOL    HW225890   1.903   1.672   9.159  1.0915  1.7273  0.1904
 4753SOL     OW25891   0.336   0.163  12.236 -0.0938  0.1314 -0.2492
 4753SOL    HW125892   0.330   0.131  12.147 -2.7568 -2.3316  0.8142
 4753SOL    HW225893   0.398   0.235  12.225  0.2309  0.0296  0.8976
 4754SOL     OW25894   4.726   1.316   6.044  0.0135  0.1819 -0.6372
 4754SOL    HW125895   0.068   1.363   6.026  1.1494 -1.6240 -0.1880
 4754SOL    HW225896   0.037   1.242   6.077 -0.2764 -0.3409 -1.3556
 4755SOL     OW25897   0.903   2.526   7.956 -0.2587  0.1217 -0.1644
 4755SOL    HW125898   0.908   2.533   7.861  0.6804  0.5041 -0.0954
 4755SOL    HW225899   0.994   2.551   7.973 -0.1144 -0.3970 -0.1807
 4756SOL     OW25900   0.060   4.146  13.228 -0.3894 -0.7831 -0.2761
 4756SOL    HW125901   0.126   4.186  13.284 -2.2738  1.3661  0.4367
 4756SOL    HW225902   0.114   4.125  13.152  0.0911 -2.0194  0.4131
 4757SOL     OW25903   1.984   2.210   3.396  0.3364  0.0430  0.2178
 4757SOL    HW125904   1.909   2.253   3.436 -0.4702  0.9662 -2.2747
 4757SOL    HW225905   2.045   2.279   3.370 -1.3752  1.2095 -0.6259
 4758SOL     OW25906   1.451   0.954   2.804 -1.1793  0.4450 -0.6022
 4758SOL    HW125907   1.394   0.987   2.734 -1.5757  1.2253  0.0900
 4758SOL    HW225908   1.416   0.999   2.881 -0.8135 -0.6332  0.1775
 4759SOL     OW25909   3.717   1.522   1.847 -0.2563  0.2634  0.0639
 4759SOL    HW125910   3.623   1.512   1.854  0.0804 -1.5456  1.7937
 4759SOL    HW225911   3.713   1.607   1.892  0.1338  0.0928  0.4192
 4760SOL     OW25912   1.058   4.106   4.140 -0.1466  0.6212  0.0083
 4760SOL    HW125913   1.013   4.190   4.147 -1.6763 -0.1269 -0.8573
 4760SOL    HW225914   0.988   4.042   4.151  0.7902 -0.7605 -2.0394
 4761SOL     OW25915   4.180   4.164   4.350 -0.1126 -0.3207 -0.4194
 4761SOL    HW125916   4.172   4.220   4.273  2.3099  0.7915  0.1554
 4761SOL    HW225917   4.275   4.155   4.360 -0.0657 -1.7137 -2.0700
 4762SOL     OW25918   4.416   2.382   8.558 -0.1340  0.0205 -0.1432
 4762SOL    HW125919   4.348   2.372   8.490  1.9412  1.1668 -2.3894
 4762SOL    HW225920   4.416   2.294   8.593  2.2927  0.2708  0.4453
 4763SOL     OW25921   2.154   3.150  16.472 -0.1629 -0.4757  0.3087
 4763SOL    HW125922   2.088   3.091  16.434 -1.4858  0.4041  1.2553
 4763SOL    HW225923   2.110   3.231  16.446 -0.2150  0.2783  2.7658
 4764SOL     OW25924   2.866   1.501   4.825 -0.1060  0.1587  0.2128
 4764SOL    HW125925   2.798   1.568   4.828 -0.4353 -0.1241 -0.8398
 4764SOL    HW225926   2.852   1.455   4.908  0.4800  0.8628  0.6987
 4765SOL     OW25927   0.280   4.331   7.527 -0.4190  0.0627  0.1858
 4765SOL    HW125928   0.284   4.426   7.525 -0.0367  0.0590  0.7821
 4765SOL    HW225929   0.192   4.309   7.557 -0.2974 -0.1726  0.3664
 4766SOL     OW25930   2.275   1.975  10.554  0.1046 -0.1300  0.0885
 4766SOL    HW125931   2.206   1.988  10.489 -1.0434  1.0508  1.5467
 4766SOL    HW225932   2.244   2.043  10.615  1.1102  0.1493  0.2961
 4767SOL     OW25933   3.421   3.953   1.999 -0.0445 -0.6661 -0.0244
 4767SOL    HW125934   3.417   3.994   2.086 -2.3805 -2.4229  0.6802
 4767SOL    HW225935   3.508   3.988   1.978 -0.6041  0.0732 -1.0823
 4768SOL     OW25936   3.582   2.801   1.985  0.2762  0.8267  0.3172
 4768SOL    HW125937   3.624   2.725   1.944  1.4054  0.3317  2.4046
 4768SOL    HW225938   3.583   2.869   1.918  1.7849  0.0933 -0.4025
 4769SOL     OW25939   4.071   2.046  11.681  1.1723  0.3972  0.2628
 4769SOL    HW125940   4.099   2.137  11.691 -1.5583  1.8051 -4.5484
 4769SOL    HW225941   4.107   2.033  11.593 -0.3927  0.7884 -0.4289
 4770SOL     OW25942   3.216   1.657   1.765 -0.1283  1.0780 -0.2768
 4770SOL    HW125943   3.170   1.735   1.798  0.7369  1.9731 -1.1779
 4770SOL    HW225944   3.213   1.606   1.846 -2.6601  1.0969 -0.3398
 4771SOL     OW25945   4.265   0.984  17.312 -0.1716 -0.6544  0.9179
 4771SOL    HW125946   4.329   1.054  17.303  0.8486 -1.4759  1.7872
 4771SOL    HW225947   4.300   0.929  17.382  0.6078 -1.7510 -0.3450
 4772SOL     OW25948   0.348   1.322   1.120 -0.4368  0.3027 -0.8070
 4772SOL    HW125949   0.277   1.354   1.175  1.1524  1.3240  0.6609
 4772SOL    HW225950   0.408   1.390   1.151  0.3072 -0.9287  0.4859
 4773SOL     OW25951   3.689   2.145   5.118 -0.3416 -0.4242 -0.4824
 4773SOL    HW125952   3.630   2.072   5.101 -0.7342  0.1750 -1.6864
 4773SOL    HW225953   3.696   2.133   5.212  0.1547 -1.1862 -0.6157
 4774SOL     OW25954   3.346   2.855   8.061 -0.4367 -0.1804  0.1795
 4774SOL    HW125955   3.356   2.763   8.036 -0.2024 -0.1088  0.0082
 4774SOL    HW225956   3.408   2.859   8.133  3.1010  1.8383 -2.9769
 4775SOL     OW25957   1.356   4.644   0.400 -0.0448 -0.3618  0.1395
 4775SOL    HW125958   1.343   4.673   0.310 -2.2070 -1.5400  0.0606
 4775SOL    HW225959   1.315   4.710   0.455  1.5090  0.2485  0.5520
 4776SOL     OW25960   4.414   1.003   3.592  0.8871  0.0039  0.0295
 4776SOL    HW125961   4.336   0.951   3.608  0.6399  0.2541 -0.3790
 4776SOL    HW225962   4.408   1.057   3.671 -4.6168 -0.6159  0.0255
 4777SOL     OW25963   3.231   1.311   1.557 -0.9249  0.6121 -0.1556
 4777SOL    HW125964   3.278   1.228   1.562 -2.3236 -0.1000  0.9987
 4777SOL    HW225965   3.305   1.358   1.517 -0.4349  0.9618  1.1824
 4778SOL     OW25966   4.655   0.061   4.270  0.6095  0.2211 -0.8052
 4778SOL    HW125967   0.005   0.075   4.300  0.2817 -0.5023  0.5303
 4778SOL    HW225968   4.659   0.079   4.176 -1.7743  0.9392 -0.7592
 4779SOL     OW25969   0.743   4.440   3.141  0.4732  0.2093  0.4543
 4779SOL    HW125970   0.683   4.374   3.175  1.5385  0.2252  2.3700
 4779SOL    HW225971   0.700   4.450   3.056 -2.6231  0.2789  2.0109
 4780SOL     OW25972   1.934   2.390   3.121 -0.4924 -0.4595  0.3002
 4780SOL    HW125973   2.007   2.444   3.091 -0.8903 -0.0392  0.0798
 4780SOL    HW225974   1.979   2.331   3.181 -0.9271  0.2649  1.3329
 4781SOL     OW25975   0.521   2.488   8.469  0.2901 -0.1236  0.2157
 4781SOL    HW125976   0.595   2.546   8.453 -0.0212 -0.2792 -1.7139
 4781SOL    HW225977   0.535   2.431   8.394 -0.5237  0.8196 -0.6595
 4782SOL     OW25978   4.538   2.327   1.470 -0.4316 -0.2249  0.4148
 4782SOL    HW125979   4.553   2.412   1.428  1.0907  1.2600  3.9900
 4782SOL    HW225980   4.501   2.355   1.554  0.9839 -0.0661  0.9761
 4783SOL     OW25981   1.301   1.715   1.674 -0.2436 -0.0223  0.1864
 4783SOL    HW125982   1.299   1.620   1.682  0.9837  0.0789  1.6685
 4783SOL    HW225983   1.231   1.746   1.732 -0.6426 -1.8725  0.6953
 4784SOL     OW25984   4.359   0.805  16.707 -0.3646  0.0209  0.1836
 4784SOL    HW125985   4.392   0.716  16.690  0.7385  0.2926  0.9074
 4784SOL    HW225986   4.420   0.831  16.776 -2.2711 -0.1402  1.9263
 4785SOL     OW25987   2.537   0.167  14.808 -0.5891  0.0577  0.1583
 4785SOL    HW125988   2.578   0.250  14.785 -0.5049  0.3537  1.4154
 4785SOL    HW225989   2.590   0.107  14.755  2.8476  1.5100  1.9676
 4786SOL     OW25990   0.711   2.246   5.819 -0.4276 -0.1853 -0.4817
 4786SOL    HW125991   0.777   2.306   5.785 -0.3143 -0.4976 -0.8064
 4786SOL    HW225992   0.692   2.193   5.742 -3.4769  1.8629 -1.1237
 4787SOL     OW25993   4.614   1.086   5.177  0.0647  0.4421 -0.1147
 4787SOL    HW125994   4.569   1.036   5.109 -1.8321  0.5293  1.0699
 4787SOL    HW225995   4.571   1.058   5.257 -1.6010 -2.0906 -1.9053
 4788SOL     OW25996   3.220   0.165   7.232  0.0743 -0.1416  0.7631
 4788SOL    HW125997   3.178   0.083   7.206  1.9026 -0.3038 -1.6643
 4788SOL    HW225998   3.225   0.201   7.144 -0.4850  1.3201  1.3282
 4789SOL     OW25999   3.309   1.199  14.311 -0.1666 -0.2266  0.3558
 4789SOL    HW126000   3.333   1.154  14.392 -1.4668 -0.7411  0.4467
 4789SOL    HW226001   3.251   1.271  14.338 -1.1400 -1.2884  1.0799
 4790SOL     OW26002   2.299   1.774   0.849  0.4418 -0.5068  0.2567
 4790SOL    HW126003   2.292   1.868   0.831 -2.6021 -0.5783  1.0688
 4790SOL    HW226004   2.256   1.774   0.935 -2.4893 -0.3114 -1.2239
 4791SOL     OW26005   1.566   0.239   3.872 -0.3091  0.3381  0.2073
 4791SOL    HW126006   1.487   0.286   3.899 -0.7607 -0.7192  0.7084
 4791SOL    HW226007   1.629   0.311   3.872 -0.0990  0.1621 -1.1618
 4792SOL     OW26008   2.631   4.640  10.820 -0.4099  0.4534  0.6534
 4792SOL    HW126009   2.643   4.701  10.894  0.4081  0.0447  0.8568
 4792SOL    HW226010   2.687   4.690  10.761  0.7189 -0.1243  1.2411
 4793SOL     OW26011   2.218   0.563   4.859 -0.4211 -0.0386 -0.0986
 4793SOL    HW126012   2.252   0.509   4.787 -0.6538  1.8324 -1.6050
 4793SOL    HW226013   2.146   0.506   4.888  1.1627 -1.2452  1.4073
 4794SOL     OW26014   0.869   3.695   4.191  0.7301 -0.3596 -0.0562
 4794SOL    HW126015   0.887   3.644   4.269 -1.8106  0.2931  0.9718
 4794SOL    HW226016   0.826   3.629   4.137 -1.0856 -0.4080  1.4612
 4795SOL     OW26017   3.369   4.639  10.362  0.1068 -0.1875 -0.1691
 4795SOL    HW126018   3.401   4.602  10.280  0.1645 -1.8709  0.6167
 4795SOL    HW226019   3.450   4.632  10.413  0.0732 -0.6432 -0.1829
 4796SOL     OW26020   3.950   1.372  10.994 -0.0345 -0.2586 -0.0414
 4796SOL    HW126021   3.973   1.441  11.055 -1.7990 -2.7469  3.4236
 4796SOL    HW226022   3.913   1.315  11.061 -0.8233 -0.4671 -0.6536
 4797SOL     OW26023   0.133   0.421   7.126 -0.2864 -0.0993 -0.5547
 4797SOL    HW126024   0.146   0.360   7.054 -0.1500 -1.1676  0.3878
 4797SOL    HW226025   0.206   0.406   7.187  0.0757  0.9544 -0.7156
 4798SOL     OW26026   3.457   1.133  11.996 -0.2954 -0.4386  0.1329
 4798SOL    HW126027   3.432   1.224  11.979 -1.2448 -0.8201 -0.4909
 4798SOL    HW226028   3.368   1.097  11.995  0.0397 -1.3445  2.2331
 4799SOL     OW26029   2.070   4.645   5.854  0.1927 -0.2952 -0.3113
 4799SOL    HW126030   2.034   4.733   5.858  1.0737  0.0715 -0.4278
 4799SOL    HW226031   2.158   4.645   5.816  0.7165  1.5538  0.9045
 4800SOL     OW26032   2.177   4.189  10.490  0.3317 -0.5853  0.3433
 4800SOL    HW126033   2.137   4.273  10.512  1.0114 -0.5156  1.3350
 4800SOL    HW226034   2.115   4.119  10.510 -2.8858  2.3107  0.6276
 4801SOL     OW26035   2.995   2.016   3.162  0.1158  0.0304 -0.0197
 4801SOL    HW126036   2.998   2.098   3.112  2.5959 -0.5554 -0.8751
 4801SOL    HW226037   3.085   1.988   3.143  0.2888  0.5008  0.0897
 4802SOL     OW26038   2.567   0.397   6.195  0.4427 -0.0701 -0.0611
 4802SOL    HW126039   2.493   0.457   6.208  0.1812 -0.5243  0.5306
 4802SOL    HW226040   2.521   0.333   6.141  2.2434 -0.4504 -1.1413
 4803SOL     OW26041   1.411   0.431   6.611 -0.0845  0.2140  0.1607
 4803SOL    HW126042   1.389   0.503   6.670  2.0545  0.0541  1.1349
 4803SOL    HW226043   1.373   0.359   6.662 -1.3956 -0.5504 -1.8637
 4804SOL     OW26044   1.415   2.411   6.531 -0.3963  0.1957  0.1057
 4804SOL    HW126045   1.392   2.453   6.448 -0.8328 -0.0605  0.0969
 4804SOL    HW226046   1.511   2.412   6.533 -0.3368 -2.0033 -1.9442
 4805SOL     OW26047   2.257   4.533   7.694  0.1878  0.5760  0.1817
 4805SOL    HW126048   2.315   4.582   7.636 -0.6873 -1.8766 -2.7514
 4805SOL    HW226049   2.190   4.502   7.633  0.4389  0.5955 -0.1044
 4806SOL     OW26050   0.594   3.507   9.832  0.2655 -0.0689  0.2550
 4806SOL    HW126051   0.657   3.484   9.901  0.9990  0.9715 -0.0786
 4806SOL    HW226052   0.645   3.488   9.753 -0.8168 -1.0857 -0.2061
 4807SOL     OW26053   4.656   0.074   3.757  0.6657 -0.3590 -0.1998
 4807SOL    HW126054   4.736   0.029   3.781  0.8159 -0.2905 -0.5645
 4807SOL    HW226055   4.689   0.133   3.688 -0.9843  1.6095  0.6659
 4808SOL     OW26056   3.901   3.821   7.528  0.7824 -0.4356  0.2479
 4808SOL    HW126057   3.873   3.732   7.504  1.4321 -0.3234 -0.9043
 4808SOL    HW226058   3.889   3.870   7.447 -0.2142  0.2109  0.7842
 4809SOL     OW26059   2.269   0.774  12.266  0.0545  0.3033 -0.3218
 4809SOL    HW126060   2.311   0.689  12.277  0.3122  0.5570  0.6300
 4809SOL    HW226061   2.333   0.828  12.312 -0.5535  0.6707  0.0874
 4810SOL     OW26062   1.179   4.541   6.520 -0.0405  0.0155  0.0089
 4810SOL    HW126063   1.212   4.631   6.524 -0.6575  0.1401  2.4701
 4810SOL    HW226064   1.166   4.509   6.609 -1.4565  0.7966  0.0835
 4811SOL     OW26065   1.841   3.115   3.309  0.1773  0.3031  0.0118
 4811SOL    HW126066   1.808   3.026   3.293  0.5056  0.6338 -2.5160
 4811SOL    HW226067   1.797   3.165   3.241 -0.1847  0.5617  0.4339
 4812SOL     OW26068   3.370   1.691  16.751 -0.2539 -0.0727  0.0324
 4812SOL    HW126069   3.388   1.604  16.715  2.2172 -0.4504  2.1897
 4812SOL    HW226070   3.275   1.690  16.753 -0.2260 -0.4501  1.0119
 4813SOL     OW26071   1.332   3.952   2.370 -0.2532 -0.2046 -0.0191
 4813SOL    HW126072   1.258   3.971   2.311 -0.0816  1.4789  0.3185
 4813SOL    HW226073   1.340   4.038   2.411 -1.7626 -0.2111  0.2924
 4814SOL     OW26074   2.313   1.003  17.377 -0.0587 -0.4670  0.4313
 4814SOL    HW126075   2.368   0.944  17.429  1.3313  1.6740  1.4024
 4814SOL    HW226076   2.262   1.048  17.444 -0.5708  0.7111 -0.7450
 4815SOL     OW26077   2.320   2.512   6.911 -0.0345  0.6524 -0.3507
 4815SOL    HW126078   2.343   2.438   6.968 -2.6253 -0.2472 -0.4400
 4815SOL    HW226079   2.277   2.463   6.841 -1.1981  1.4276 -0.1932
 4816SOL     OW26080   3.284   2.558   7.509 -0.3499 -0.5961  0.0944
 4816SOL    HW126081   3.368   2.519   7.485 -0.9874 -1.5923 -0.5310
 4816SOL    HW226082   3.315   2.603   7.587 -0.9259  0.4352 -0.2756
 4817SOL     OW26083   3.346   3.547  16.148 -0.3106 -0.0407  0.4527
 4817SOL    HW126084   3.367   3.614  16.083  0.1551 -0.9777 -0.3597
 4817SOL    HW226085   3.427   3.531  16.196 -0.0871  2.0186  0.7709
 4818SOL     OW26086   2.228   2.405   8.009 -0.7057 -0.6702 -0.7404
 4818SOL    HW126087   2.216   2.498   8.028 -0.0184 -0.6270 -0.5143
 4818SOL    HW226088   2.139   2.379   7.988 -1.2330  0.8297 -0.3800
 4819SOL     OW26089   0.604   4.496   3.564  0.0547 -0.4562  0.0347
 4819SOL    HW126090   0.552   4.495   3.484  0.1289 -0.0058 -0.0198
 4819SOL    HW226091   0.692   4.482   3.529  0.4278  2.9402 -0.4003
 4820SOL     OW26092   2.166   2.936   5.035 -0.3136 -0.0150  0.1983
 4820SOL    HW126093   2.175   2.908   5.125  2.0716 -2.0753 -0.6683
 4820SOL    HW226094   2.253   2.909   5.003 -0.8037 -2.8366  1.2802
 4821SOL     OW26095   2.112   1.708   4.551  0.5379  0.2989 -0.0545
 4821SOL    HW126096   2.060   1.632   4.577 -2.6144  2.5661  0.2371
 4821SOL    HW226097   2.082   1.782   4.604  1.6776 -0.4403  1.6069
 4822SOL     OW26098   3.145   1.975   2.171  0.3596 -0.5568  0.0300
 4822SOL    HW126099   3.216   2.022   2.214  0.6627 -0.1171 -0.9658
 4822SOL    HW226100   3.069   2.009   2.218  2.5177  2.1275  1.5566
 4823SOL     OW26101   1.698   1.584   7.568 -0.0057  0.0879  0.1221
 4823SOL    HW126102   1.720   1.510   7.626  3.9633  0.6065 -0.7344
 4823SOL    HW226103   1.607   1.569   7.543 -0.0605  0.1517  0.2798
 4824SOL     OW26104   1.197   4.370  12.979  0.2479 -0.3868 -0.1085
 4824SOL    HW126105   1.220   4.282  13.010  2.2179  0.5739  1.1881
 4824SOL    HW226106   1.189   4.367  12.884  0.0749  0.2794 -0.1133
 4825SOL     OW26107   4.499   3.906  15.326 -0.1111  0.0109 -0.4560
 4825SOL    HW126108   4.445   3.971  15.372 -0.2360  0.8517 -1.8032
 4825SOL    HW226109   4.586   3.936  15.352  0.1873 -1.1299 -0.1675
 4826SOL     OW26110   1.234   4.006   7.226 -0.0734  0.3196  0.2500
 4826SOL    HW126111   1.223   4.060   7.304 -0.4922  0.4759  0.0803
 4826SOL    HW226112   1.247   4.073   7.160  1.1066 -0.9078 -0.7791
 4827SOL     OW26113   2.902   0.368   7.011 -0.1198  0.4229  0.2048
 4827SOL    HW126114   2.839   0.313   6.964  2.4375  0.1750 -2.9777
 4827SOL    HW226115   2.852   0.449   6.996 -2.4064 -1.1799 -0.8059
 4828SOL     OW26116   3.151   0.052  11.587  0.7531  0.5529  0.0806
 4828SOL    HW126117   3.241   0.074  11.565  1.1005 -1.1824 -0.2530
 4828SOL    HW226118   3.166   4.706  11.627  1.9359 -0.6617 -2.9094
 4829SOL     OW26119   3.685   2.977   5.338 -0.2206 -0.6762  0.1297
 4829SOL    HW126120   3.625   2.909   5.309  0.0048 -1.1237  0.7210
 4829SOL    HW226121   3.740   2.980   5.260 -0.6987 -0.2556 -0.1950
 4830SOL     OW26122   4.710   2.574   1.338 -0.1839 -0.4045  0.0055
 4830SOL    HW126123   4.634   2.625   1.311 -0.8952 -0.4730  1.8390
 4830SOL    HW226124   4.738   2.531   1.257  2.0399 -1.3066  1.2677
 4831SOL     OW26125   4.581   3.998   3.462 -0.5486 -0.1786  0.5356
 4831SOL    HW126126   4.643   4.032   3.527 -0.2637  1.8369 -0.7698
 4831SOL    HW226127   4.567   4.083   3.420  2.4013  0.3612  0.5842
 4832SOL     OW26128   2.090   3.150   5.815  0.1131  0.2202  0.3695
 4832SOL    HW126129   2.031   3.212   5.858  1.6598  2.0971 -0.1772
 4832SOL    HW226130   2.110   3.090   5.887  0.2969  1.8944  1.7356
 4833SOL     OW26131   4.444   0.190  16.998  0.5878 -0.4190  0.0335
 4833SOL    HW126132   4.467   0.102  17.028  0.0812 -0.9746 -1.1996
 4833SOL    HW226133   4.364   0.178  16.947  0.6120  0.3143 -0.1762
 4834SOL     OW26134   3.591   0.973   5.310 -0.4242  0.3701 -0.9835
 4834SOL    HW126135   3.581   0.907   5.240 -2.3532  0.8083 -1.1094
 4834SOL    HW226136   3.503   0.996   5.338 -0.3934  2.3488 -2.5008
 4835SOL     OW26137   1.424   2.839   8.971  0.6354  0.1824 -0.2219
 4835SOL    HW126138   1.412   2.843   9.066  0.7017 -0.1901 -0.1977
 4835SOL    HW226139   1.419   2.745   8.957 -1.3032  0.5426 -1.9702
 4836SOL     OW26140   4.513   1.895   5.832  0.4265 -0.3652 -0.2529
 4836SOL    HW126141   4.601   1.878   5.867  1.0813  0.8872 -1.2967
 4836SOL    HW226142   4.455   1.838   5.882 -1.2521  0.1113 -1.6664
 4837SOL     OW26143   1.055   4.218   2.085 -0.1748 -0.1470  0.8077
 4837SOL    HW126144   1.082   4.292   2.032 -1.1312 -0.1442  0.3270
 4837SOL    HW226145   1.054   4.260   2.171 -2.5337  0.7754  0.3064
 4838SOL     OW26146   2.957   4.030   2.473  0.5236  0.2487  0.2202
 4838SOL    HW126147   3.004   4.035   2.556 -0.9432  1.7421  0.9420
 4838SOL    HW226148   2.971   3.938   2.449  0.5437 -0.1869  1.8891
 4839SOL     OW26149   0.476   2.394   8.710 -0.1249 -0.0672  0.0719
 4839SOL    HW126150   0.493   2.447   8.633 -0.7253  1.2693  0.8571
 4839SOL    HW226151   0.562   2.378   8.750  0.4589  0.8701 -0.8122
 4840SOL     OW26152   2.780   1.091   1.304  0.0917 -1.0255  0.6985
 4840SOL    HW126153   2.803   1.018   1.248  0.8791 -1.6559  1.8445
 4840SOL    HW226154   2.857   1.089   1.360 -0.8929 -0.4011  2.0822
 4841SOL     OW26155   2.485   0.791  17.721 -0.2424 -0.2303 -0.1790
 4841SOL    HW126156   2.529   0.740   0.031 -2.0448 -0.5656  0.7504
 4841SOL    HW226157   2.410   0.828   0.010 -0.2199 -1.6888  0.9872
 4842SOL     OW26158   2.742   4.384   4.026  0.1211 -0.6254 -0.2446
 4842SOL    HW126159   2.787   4.420   3.949  0.0917 -0.4117 -0.1633
 4842SOL    HW226160   2.786   4.438   4.092 -0.7035 -0.0682 -0.1443
 4843SOL     OW26161   0.030   4.051   9.562 -0.2364  0.0826 -0.6228
 4843SOL    HW126162   4.708   3.986   9.598 -0.0192  0.3319  0.2003
 4843SOL    HW226163   0.062   4.003   9.486 -0.0465  1.0243 -1.1335
 4844SOL     OW26164   3.946   3.910   6.241 -0.3387  0.3445  0.1837
 4844SOL    HW126165   3.894   3.859   6.179  2.2778 -0.0970 -1.6106
 4844SOL    HW226166   4.016   3.853   6.272  0.0902  1.4574  1.2471
 4845SOL     OW26167   4.559   2.439   6.428  0.5284  0.2316  0.5645
 4845SOL    HW126168   4.546   2.510   6.491 -4.5403  0.0338 -0.2584
 4845SOL    HW226169   4.622   2.478   6.367 -1.1171 -0.2388 -1.4131
 4846SOL     OW26170   1.823   3.723   4.293 -0.0361  0.0172  0.4639
 4846SOL    HW126171   1.749   3.766   4.335 -0.1150 -0.1269  0.4689
 4846SOL    HW226172   1.781   3.706   4.209  1.0940  0.6024 -0.2225
 4847SOL     OW26173   0.437   2.817   2.377  0.3935  0.1837 -0.1474
 4847SOL    HW126174   0.452   2.795   2.285  1.6095 -1.6353  0.4984
 4847SOL    HW226175   0.362   2.758   2.388 -0.3817  1.3814  1.0156
 4848SOL     OW26176   4.623   3.122  14.130 -0.0144  0.0102  0.1353
 4848SOL    HW126177   4.639   3.197  14.187 -1.0382 -1.3417  2.2069
 4848SOL    HW226178   4.542   3.085  14.165  0.1820 -1.3324 -0.8111
 4849SOL     OW26179   3.818   1.286   6.796 -0.4754 -0.6783  0.3520
 4849SOL    HW126180   3.832   1.360   6.736 -0.5263 -2.0850 -1.4101
 4849SOL    HW226181   3.809   1.209   6.739  0.6354 -0.1962 -0.4832
 4850SOL     OW26182   1.139   2.765   2.963  0.1861  0.1993 -0.2375
 4850SOL    HW126183   1.160   2.705   2.891 -1.4094 -1.6738  0.8577
 4850SOL    HW226184   1.224   2.785   3.001 -0.5765 -0.2218  1.6826
 4851SOL     OW26185   0.304   3.610  16.844  0.4270  0.5485 -0.3078
 4851SOL    HW126186   0.282   3.665  16.768  1.0652  2.1247  0.6539
 4851SOL    HW226187   0.235   3.545  16.830  1.8772 -1.1289  0.3122
 4852SOL     OW26188   3.752   1.171  10.906  0.0440 -0.3424 -0.3981
 4852SOL    HW126189   3.681   1.111  10.928 -2.6817  2.7842 -0.5930
 4852SOL    HW226190   3.752   1.226  10.984  1.1929 -0.6303 -0.2022
 4853SOL     OW26191   0.728   2.401   8.841 -0.1511 -0.5371  0.1528
 4853SOL    HW126192   0.773   2.398   8.757  0.1011 -1.7371  0.3288
 4853SOL    HW226193   0.793   2.355   8.894 -0.5558  0.0985  1.2041
 4854SOL     OW26194   2.666   1.924   6.553 -0.4208  0.1128  0.1588
 4854SOL    HW126195   2.656   1.874   6.635 -0.4854 -1.0160 -0.5301
 4854SOL    HW226196   2.757   1.954   6.558 -0.5003  0.4418 -0.4420
 4855SOL     OW26197   1.380   0.873   9.549  0.1009 -0.0067 -0.2401
 4855SOL    HW126198   1.379   0.968   9.564 -1.8870  0.0602 -0.7345
 4855SOL    HW226199   1.286   0.857   9.553  0.1424 -0.1575  0.1780
 4856SOL     OW26200   1.932   2.051   2.450  0.5470  0.0550 -0.2774
 4856SOL    HW126201   1.996   2.040   2.380 -0.4539  2.5278 -1.5694
 4856SOL    HW226202   1.911   2.144   2.449  0.0603 -0.0701 -1.1922
 4857SOL     OW26203   0.484   4.039   0.359 -0.5489 -0.2471  0.3819
 4857SOL    HW126204   0.487   4.131   0.336  2.5601  0.0412  1.9341
 4857SOL    HW226205   0.467   3.987   0.281 -3.1879  1.6545 -0.3260
 4858SOL     OW26206   2.658   1.790  14.677  0.3530  0.0848 -0.0953
 4858SOL    HW126207   2.620   1.801  14.764  1.9196 -0.5466  0.6631
 4858SOL    HW226208   2.751   1.814  14.687  1.1566 -2.1222 -2.3758
 4859SOL     OW26209   4.594   3.820  15.038 -0.1030 -0.1475  0.6595
 4859SOL    HW126210   4.632   3.803  14.952  1.3194 -1.5052  1.5512
 4859SOL    HW226211   4.613   3.736  15.081 -0.0293  0.1793  1.2648
 4860SOL     OW26212   1.477   2.074   6.079 -0.3004 -0.1505 -0.2037
 4860SOL    HW126213   1.519   2.003   6.031  0.9653  0.6779 -0.3190
 4860SOL    HW226214   1.506   2.063   6.170 -1.1380  0.9686  0.1983
 4861SOL     OW26215   2.312   4.530   4.866  0.3226 -0.3825 -0.0383
 4861SOL    HW126216   2.300   4.598   4.932 -0.2398  0.7362 -1.2929
 4861SOL    HW226217   2.394   4.488   4.891 -0.7782 -2.3299  0.2946
 4862SOL     OW26218   0.876   0.696   6.957 -0.2944  0.3254 -0.0073
 4862SOL    HW126219   0.896   0.614   6.911  2.0206  2.0305 -2.0625
 4862SOL    HW226220   0.947   0.694   7.021  0.3911  0.0649 -0.7760
 4863SOL     OW26221   1.004   2.627   4.560 -0.1592  0.6932  0.0759
 4863SOL    HW126222   1.023   2.539   4.526 -1.7598  1.2143 -2.1640
 4863SOL    HW226223   1.041   2.685   4.494  1.7646 -0.4128  0.1525
 4864SOL     OW26224   4.436   2.566   1.171 -0.0388  0.3155 -0.5975
 4864SOL    HW126225   4.371   2.632   1.193  0.1560  0.6115 -0.9289
 4864SOL    HW226226   4.389   2.549   1.090 -0.5665  0.9223 -0.4101
 4865SOL     OW26227   1.976   1.342   2.303 -0.3647 -0.1947  0.2498
 4865SOL    HW126228   1.998   1.297   2.385  1.4393  0.1162 -0.0644
 4865SOL    HW226229   1.889   1.381   2.313 -1.1129 -1.9762  0.7177
 4866SOL     OW26230   4.232   0.420   4.006 -0.0838  0.7099  0.2780
 4866SOL    HW126231   4.218   0.514   3.993  0.4219  0.7130 -0.2142
 4866SOL    HW226232   4.292   0.389   3.939 -2.2996  0.1382 -1.4279
 4867SOL     OW26233   0.273   2.749  12.123  0.0452  0.0336 -0.0056
 4867SOL    HW126234   0.247   2.696  12.199 -0.4791  0.4902  0.1293
 4867SOL    HW226235   0.185   2.757  12.086  0.0774 -0.5651 -0.2097
 4868SOL     OW26236   0.216   2.721  16.207 -0.3027  0.2532 -0.0195
 4868SOL    HW126237   0.214   2.668  16.287 -2.0928  1.3404  0.6709
 4868SOL    HW226238   0.310   2.739  16.206 -0.3992  0.7648  0.1240
 4869SOL     OW26239   4.275   2.514   7.536  0.0879  0.0040 -0.6554
 4869SOL    HW126240   4.303   2.568   7.610 -2.1663 -0.1896  0.3506
 4869SOL    HW226241   4.354   2.486   7.490  1.0807  1.8690 -0.0853
 4870SOL     OW26242   1.687   0.686   2.986  0.5252 -0.0943  0.6185
 4870SOL    HW126243   1.648   0.691   2.899 -1.4098 -0.1532  1.4938
 4870SOL    HW226244   1.645   0.765   3.018 -0.7917 -1.7292  2.8660
 4871SOL     OW26245   1.807   0.935   4.691 -0.3008  0.1726 -0.0543
 4871SOL    HW126246   1.877   0.979   4.643  0.7355 -1.7215 -0.3115
 4871SOL    HW226247   1.774   0.880   4.621  0.3916 -0.7343  0.3256
 4872SOL     OW26248   3.166   0.300   1.903  0.2510 -0.3746  0.3288
 4872SOL    HW126249   3.145   0.370   1.965 -0.8623 -0.3246 -0.0908
 4872SOL    HW226250   3.081   0.255   1.913 -0.9185  1.8722  0.5289
 4873SOL     OW26251   4.167   0.143   4.053  0.1835  0.0918 -0.1005
 4873SOL    HW126252   4.159   0.238   4.045 -1.5681 -0.3617 -3.4271
 4873SOL    HW226253   4.261   0.128   4.046  0.1911  0.3226 -0.4947
 4874SOL     OW26254   0.917   3.705  11.417 -0.0337  0.3752 -0.1298
 4874SOL    HW126255   0.880   3.622  11.447 -0.6325  0.4185 -0.7638
 4874SOL    HW226256   0.862   3.725  11.341  2.4441 -1.0179 -2.3239
 4875SOL     OW26257   1.226   3.208   6.239 -0.3345  0.1137 -0.0501
 4875SOL    HW126258   1.242   3.119   6.208  2.3446 -0.5583  3.3370
 4875SOL    HW226259   1.235   3.259   6.158  0.7736 -0.1933 -0.1180
 4876SOL     OW26260   2.357   2.947   2.787  0.1416  0.1110  0.1233
 4876SOL    HW126261   2.346   3.035   2.822  1.8719  0.4501 -0.2108
 4876SOL    HW226262   2.449   2.943   2.762  0.5779 -1.2081  1.8989
 4877SOL     OW26263   3.113   4.718   7.549  0.0336 -0.1344 -0.3651
 4877SOL    HW126264   3.159   0.061   7.556  0.5987 -0.4391 -0.4445
 4877SOL    HW226265   3.187   4.659   7.530 -1.0059 -1.4114 -0.4891
 4878SOL     OW26266   1.774   2.318  13.485  0.1259  0.1982 -0.8690
 4878SOL    HW126267   1.765   2.391  13.424 -0.1857  0.8127 -0.0841
 4878SOL    HW226268   1.768   2.245  13.423 -3.0348 -0.3925  0.1548
 4879SOL     OW26269   3.600   2.542  12.145  0.8894  0.6307 -0.1185
 4879SOL    HW126270   3.610   2.517  12.236 -0.8374  3.0398  0.7473
 4879SOL    HW226271   3.552   2.472  12.100  1.3947  0.2269 -0.0333
 4880SOL     OW26272   0.472   1.140  11.373  0.1757  0.5959 -0.0993
 4880SOL    HW126273   0.390   1.093  11.354  1.8173 -1.7299 -1.4279
 4880SOL    HW226274   0.435   1.226  11.395 -0.0667  0.9548 -1.9254
 4881SOL     OW26275   3.928   2.357   2.166 -0.6018 -0.2610  0.2713
 4881SOL    HW126276   3.917   2.451   2.160  0.0971 -0.2008  0.0077
 4881SOL    HW226277   3.941   2.337   2.259 -1.5383  0.0147  0.4647
 4882SOL     OW26278   1.395   4.525   3.125  0.0679 -0.2731 -0.6131
 4882SOL    HW126279   1.446   4.597   3.162  0.4511 -0.7584 -0.2011
 4882SOL    HW226280   1.332   4.518   3.197 -0.7602  0.6037 -1.2510
 4883SOL     OW26281   4.481   3.357  12.165  0.1899 -0.5367 -0.6584
 4883SOL    HW126282   4.449   3.417  12.098  0.9537  0.8698  0.2361
 4883SOL    HW226283   4.433   3.364  12.247 -1.6319  1.4233 -1.9010
 4884SOL     OW26284   1.192   1.869   4.195  0.4381 -0.5992 -0.2698
 4884SOL    HW126285   1.229   1.782   4.207  0.2927 -0.8452 -1.5745
 4884SOL    HW226286   1.100   1.850   4.174  0.4274 -1.2225  0.3515
 4885SOL     OW26287   3.515   2.429   3.891 -0.2392  0.3098  0.3179
 4885SOL    HW126288   3.497   2.473   3.975 -1.2426 -1.4796  1.0450
 4885SOL    HW226289   3.593   2.477   3.864 -0.0903  1.8032  3.4249
 4886SOL     OW26290   1.428   1.608   7.540  0.2589 -0.5681 -0.3297
 4886SOL    HW126291   1.446   1.702   7.542  1.2482 -0.7417 -0.9927
 4886SOL    HW226292   1.424   1.606   7.444 -1.1906 -1.1381 -0.2496
 4887SOL     OW26293   4.728   1.268   3.112  0.1157  0.3580  0.3839
 4887SOL    HW126294   4.637   1.275   3.084 -0.0012 -2.0509  0.1274
 4887SOL    HW226295   4.719   1.237   3.202  0.6212  0.8956  0.6158
 4888SOL     OW26296   4.534   3.955   3.861  0.1593 -0.3200 -0.5143
 4888SOL    HW126297   4.458   4.004   3.894 -0.1177 -1.2841  0.2725
 4888SOL    HW226298   4.595   3.977   3.931  0.2290 -1.3546 -0.2477
 4889SOL     OW26299   3.707   4.189   7.264  0.6926  0.2469 -0.7146
 4889SOL    HW126300   3.790   4.230   7.240  1.0971  0.1813  0.6141
 4889SOL    HW226301   3.645   4.259   7.245 -0.6121 -0.7995 -0.3884
 4890SOL     OW26302   3.098   1.854  17.709 -0.1926 -0.1126  0.6711
 4890SOL    HW126303   3.081   1.933   0.003 -0.7451  0.3307 -0.1974
 4890SOL    HW226304   3.104   1.890  17.621 -0.0461  2.1859  1.6126
 4891SOL     OW26305   3.569   0.920   6.727  0.3532 -0.0519 -0.2650
 4891SOL    HW126306   3.538   1.011   6.727 -0.9866 -0.5194 -0.5609
 4891SOL    HW226307   3.665   0.918   6.726  0.3397 -1.1275  1.4413
 4892SOL     OW26308   4.439   1.151   8.864  0.1513  0.3079 -0.1588
 4892SOL    HW126309   4.448   1.099   8.784 -0.3287 -0.6344  0.3927
 4892SOL    HW226310   4.441   1.242   8.834 -1.0965  0.4774  0.2808
 4893SOL     OW26311   3.736   2.685   8.052  0.2446 -0.0912 -0.0766
 4893SOL    HW126312   3.770   2.748   7.989  0.8027  0.7327  1.0532
 4893SOL    HW226313   3.676   2.744   8.097  1.2503  0.7915  0.1046
 4894SOL     OW26314   4.508   2.942   8.724  0.3882 -0.2926 -0.0702
 4894SOL    HW126315   4.593   2.912   8.693  0.7179  0.5518  0.0201
 4894SOL    HW226316   4.450   2.876   8.686 -0.9124  1.8483 -1.7517
 4895SOL     OW26317   4.559   1.779   1.645  0.3354 -0.1453 -0.4506
 4895SOL    HW126318   4.630   1.784   1.710 -0.6996  0.5917  0.6422
 4895SOL    HW226319   4.553   1.871   1.621  1.7965  0.2513  0.7397
 4896SOL     OW26320   4.680   3.354  14.244 -0.0816 -0.0630 -0.3556
 4896SOL    HW126321   4.719   3.425  14.295 -0.6063  0.6526 -0.9439
 4896SOL    HW226322   4.589   3.383  14.229  0.3958  1.7280  0.2539
 4897SOL     OW26323   0.510   0.751   1.908 -0.0269 -0.2562 -0.1522
 4897SOL    HW126324   0.437   0.813   1.918 -1.3120 -1.5303 -1.7202
 4897SOL    HW226325   0.578   0.803   1.951 -1.0888  1.4898 -0.6049
 4898SOL     OW26326   4.553   2.150   5.735 -0.1418  0.4535 -0.1042
 4898SOL    HW126327   4.483   2.215   5.736 -0.3702  0.2191 -0.6953
 4898SOL    HW226328   4.500   2.073   5.755  1.5443 -0.3224  1.3083
 4899SOL     OW26329   1.574   2.859   4.367  0.4907  0.1099  0.5809
 4899SOL    HW126330   1.550   2.914   4.442  2.2625  2.2876 -0.4304
 4899SOL    HW226331   1.602   2.930   4.309  1.0563 -0.6725 -0.1021
 4900SOL     OW26332   1.929   1.033   3.877  0.4569  0.0152  0.2373
 4900SOL    HW126333   2.009   1.081   3.857  0.6162  0.0269  0.9222
 4900SOL    HW226334   1.872   1.090   3.929 -0.4536 -0.4959 -0.1910
 4901SOL     OW26335   1.145   1.676   9.474  0.0742 -0.3169 -0.3980
 4901SOL    HW126336   1.111   1.718   9.553  1.4061 -0.6939  0.3815
 4901SOL    HW226337   1.240   1.681   9.480 -0.0550 -1.8957  2.5884
 4902SOL     OW26338   0.592   3.278   3.192  0.1992  0.3630 -0.2999
 4902SOL    HW126339   0.541   3.235   3.261 -0.9838 -0.2887 -1.5755
 4902SOL    HW226340   0.557   3.365   3.176 -0.4886  0.2322  0.4905
 4903SOL     OW26341   1.052   3.802  16.276 -0.0605 -0.2795  0.1574
 4903SOL    HW126342   1.096   3.795  16.361 -1.2767  0.6225  0.8607
 4903SOL    HW226343   0.965   3.774  16.306 -0.1832  0.3294  0.3721
 4904SOL     OW26344   0.617   2.920  15.091 -0.2061 -0.3774 -0.4029
 4904SOL    HW126345   0.664   2.904  15.009 -0.3529 -0.7612 -0.4144
 4904SOL    HW226346   0.615   2.828  15.118  0.3797 -0.8811 -2.1122
 4905SOL     OW26347   2.134   0.454  12.070  0.3207 -0.2352  0.0238
 4905SOL    HW126348   2.062   0.509  12.038  0.7017 -0.0446 -0.5056
 4905SOL    HW226349   2.140   0.459  12.166 -0.5072  0.0959  0.0568
 4906SOL     OW26350   1.743   0.676   5.375  0.2532  0.2053 -0.1418
 4906SOL    HW126351   1.715   0.599   5.325 -0.5236  0.0608  0.5174
 4906SOL    HW226352   1.670   0.703   5.430  1.1179  1.3562  0.4362
 4907SOL     OW26353   4.720   0.172   5.000 -0.7308 -0.1489 -0.4196
 4907SOL    HW126354   4.659   0.246   4.993  2.0591  2.2910  0.6418
 4907SOL    HW226355   0.045   0.190   4.932  1.6532 -2.5270  1.2596
 4908SOL     OW26356   2.677   1.188   4.937 -0.2073 -0.3680 -0.2544
 4908SOL    HW126357   2.605   1.128   4.918 -0.9849 -0.0348  1.6826
 4908SOL    HW226358   2.737   1.135   4.989 -2.0866 -0.7122  1.5539
 4909SOL     OW26359   0.136   2.904   3.858 -0.0876  0.0422  0.0238
 4909SOL    HW126360   0.120   2.813   3.834  0.0041 -0.4969  1.9447
 4909SOL    HW226361   0.182   2.898   3.942  1.3041 -0.6963 -0.8037
 4910SOL     OW26362   4.657   3.785   9.228 -0.0920 -0.0280  0.1400
 4910SOL    HW126363   4.614   3.699   9.233 -0.5766  0.2348  0.3796
 4910SOL    HW226364   4.736   3.773   9.174  0.4166  1.2567  0.6088
 4911SOL     OW26365   2.908   0.778  10.439  0.7325 -0.2017 -0.0089
 4911SOL    HW126366   2.985   0.782  10.496  0.1684  0.5547  0.6951
 4911SOL    HW226367   2.862   0.697  10.462  0.6279 -0.4018 -0.9284
 4912SOL     OW26368   1.064   0.985   6.485 -0.4516 -0.1315  0.2371
 4912SOL    HW126369   1.085   1.076   6.508  3.1420 -1.1828  1.1772
 4912SOL    HW226370   1.038   0.993   6.394  0.6038 -0.2735 -0.0680
 4913SOL     OW26371   4.325   3.258  13.132  0.2194  0.2214 -0.1796
 4913SOL    HW126372   4.333   3.328  13.197 -1.3476 -0.0648  0.3092
 4913SOL    HW226373   4.413   3.250  13.094 -0.4056 -1.4031 -1.2703
 4914SOL     OW26374   1.808   1.903   3.431 -0.0674 -0.2737 -0.5140
 4914SOL    HW126375   1.840   1.828   3.481  0.8307 -1.4702 -2.8946
 4914SOL    HW226376   1.747   1.859   3.371  0.2921  0.6337 -1.5555
 4915SOL     OW26377   3.435   4.413   1.571  0.5991 -0.4676  0.5242
 4915SOL    HW126378   3.351   4.377   1.599 -0.4562 -0.3357 -2.4649
 4915SOL    HW226379   3.409   4.503   1.549 -1.5193 -1.0106  0.8455
 4916SOL     OW26380   1.488   1.217   2.312  0.0538 -0.1622 -0.4625
 4916SOL    HW126381   1.541   1.249   2.385 -1.2051 -0.4662  0.5847
 4916SOL    HW226382   1.503   1.284   2.246  3.0687 -1.5522 -1.1706
 4917SOL     OW26383   4.042   4.323  17.517  0.0469 -0.2711  0.1900
 4917SOL    HW126384   4.061   4.369  17.435 -4.6233 -1.0673 -1.3259
 4917SOL    HW226385   3.988   4.254  17.478 -0.4852 -0.6968  1.6891
 4918SOL     OW26386   2.364   2.454   1.110 -0.4274 -0.3708 -0.0889
 4918SOL    HW126387   2.435   2.510   1.080  0.6237 -1.8860 -0.4138
 4918SOL    HW226388   2.310   2.499   1.175  0.0026 -1.7619  1.2247
 4919SOL     OW26389   0.832   1.524   2.656 -0.2746  0.6653  0.0473
 4919SOL    HW126390   0.870   1.611   2.668  0.2773  0.5844 -1.0386
 4919SOL    HW226391   0.835   1.482   2.741 -1.0460  0.8275  0.1547
 4920SOL     OW26392   2.558   3.947   3.984  0.1131  0.0729  0.0235
 4920SOL    HW126393   2.641   3.981   4.019 -0.7340  1.9145  0.2475
 4920SOL    HW226394   2.563   3.970   3.892 -1.1650 -1.9044 -0.5332
 4921SOL     OW26395   0.677   4.576   8.094  0.6770 -0.0075 -0.0168
 4921SOL    HW126396   0.685   4.481   8.086 -0.0136  0.0342 -1.2726
 4921SOL    HW226397   0.704   4.578   8.185  1.3896  1.9014 -0.2770
 4922SOL     OW26398   4.466   3.938   6.993  0.2566 -0.5087  0.3731
 4922SOL    HW126399   4.557   3.963   6.981 -0.4008  1.2547 -0.9765
 4922SOL    HW226400   4.422   4.012   6.951  3.5563  1.3320  0.1527
 4923SOL     OW26401   2.330   2.059  15.156  0.3555 -0.1038 -0.0964
 4923SOL    HW126402   2.395   2.066  15.086  0.4720  0.2749  0.0499
 4923SOL    HW226403   2.263   2.113  15.113 -1.1841 -1.6600  0.3328
 4924SOL     OW26404   1.217   1.760   8.712 -0.0072 -0.1327 -0.0250
 4924SOL    HW126405   1.129   1.780   8.681 -0.3295  0.9871  1.6427
 4924SOL    HW226406   1.260   1.784   8.629 -1.6005  2.6132 -0.0596
 4925SOL     OW26407   3.557   0.824   4.171 -0.3140  0.6292 -0.0107
 4925SOL    HW126408   3.478   0.876   4.158 -0.9064  0.5089  3.1640
 4925SOL    HW226409   3.625   0.871   4.123  1.1247 -1.1963  0.2243
 4926SOL     OW26410   4.437   1.133  13.808 -0.2824 -0.2289  0.7937
 4926SOL    HW126411   4.348   1.168  13.801  0.5553  1.8030  0.3343
 4926SOL    HW226412   4.476   1.203  13.754 -0.8751 -1.6233 -1.4395
 4927SOL     OW26413   0.845   1.373   9.129 -0.2294 -0.5866 -0.8382
 4927SOL    HW126414   0.798   1.403   9.207  0.8967  0.6350 -0.6300
 4927SOL    HW226415   0.926   1.339   9.168 -0.0542 -0.5678 -1.1868
 4928SOL     OW26416   3.131   3.736   5.793 -0.3224 -0.3340 -0.0405
 4928SOL    HW126417   3.085   3.713   5.873  1.1139  0.8622  1.1282
 4928SOL    HW226418   3.187   3.804   5.831 -0.8706  0.8706 -1.3764
 4929SOL     OW26419   4.438   2.327   9.757 -0.2300 -0.1739 -0.5301
 4929SOL    HW126420   4.504   2.365   9.814 -0.5526  1.5603 -1.3245
 4929SOL    HW226421   4.409   2.254   9.813  0.5720 -0.4949 -0.5391
 4930SOL     OW26422   0.772   4.493  12.295  0.0902  0.4731  0.2329
 4930SOL    HW126423   0.706   4.561  12.302 -0.0045  0.3770  0.2814
 4930SOL    HW226424   0.822   4.514  12.216 -2.1085 -2.1623 -1.8441
 4931SOL     OW26425   2.598   0.385   6.497  0.3166  0.0194 -0.0814
 4931SOL    HW126426   2.609   0.386   6.402  0.4759 -1.4323 -0.0790
 4931SOL    HW226427   2.674   0.435   6.527  1.4888 -2.6321  1.3074
 4932SOL     OW26428   2.773   0.340  12.564  0.1648 -0.5097  0.2705
 4932SOL    HW126429   2.683   0.328  12.534  0.2796 -3.1679  0.9943
 4932SOL    HW226430   2.822   0.356  12.483 -0.9861  2.5273  0.1696
 4933SOL     OW26431   4.108   0.739   9.186  0.3472 -0.1222 -0.2874
 4933SOL    HW126432   4.168   0.679   9.231 -0.4710  0.0845  1.0827
 4933SOL    HW226433   4.120   0.722   9.093 -0.4216 -0.9875 -0.2412
 4934SOL     OW26434   0.757   4.007  11.958  0.5013  0.3716 -0.8684
 4934SOL    HW126435   0.683   3.953  11.930 -0.1281  1.0861 -0.5870
 4934SOL    HW226436   0.823   3.940  11.977 -1.7713 -1.9151 -1.0823
 4935SOL     OW26437   0.851   2.285   1.763  0.1209 -0.3050 -0.3818
 4935SOL    HW126438   0.927   2.325   1.721  0.7741 -0.4644  0.6400
 4935SOL    HW226439   0.818   2.361   1.810 -0.9713 -0.7676 -0.3915
 4936SOL     OW26440   3.530   4.582   7.405  0.4063 -0.1506 -0.1697
 4936SOL    HW126441   3.543   4.528   7.327  0.7044  0.5399 -0.5938
 4936SOL    HW226442   3.544   4.669   7.368 -1.9293 -1.1536 -3.4489
 4937SOL     OW26443   0.813   0.798   1.533  0.2135 -0.1804 -0.6729
 4937SOL    HW126444   0.756   0.856   1.483 -2.1165 -1.4842  0.4786
 4937SOL    HW226445   0.825   0.866   1.599  1.6451 -0.8629 -0.2396
 4938SOL     OW26446   3.080   0.065  11.867  1.1100  0.1373  0.2923
 4938SOL    HW126447   3.048   0.090  11.780  1.0471  0.6538  0.4649
 4938SOL    HW226448   3.061   0.147  11.912 -0.8278 -0.8582  1.2871
 4939SOL     OW26449   4.463   4.712   5.497  0.1933 -0.3642 -0.1814
 4939SOL    HW126450   4.457   0.068   5.501  0.6436 -0.3926  1.0607
 4939SOL    HW226451   4.538   4.692   5.553 -0.8162  1.9929  1.9919
 4940SOL     OW26452   1.248   3.950   4.285 -0.3434  0.6519  0.4057
 4940SOL    HW126453   1.204   4.018   4.233  0.1560  1.6686  1.3090
 4940SOL    HW226454   1.331   3.947   4.237 -0.3635  0.4320  0.3871
 4941SOL     OW26455   0.937   1.400  10.281  0.6686 -0.2084 -0.0259
 4941SOL    HW126456   0.892   1.319  10.256 -0.9637  0.8036 -0.3723
 4941SOL    HW226457   0.951   1.431  10.191 -0.2844 -2.4076 -0.9367
 4942SOL     OW26458   4.725   4.565   8.493 -0.3250 -0.1685 -0.9212
 4942SOL    HW126459   4.705   4.658   8.504  0.4225  0.1712 -2.5218
 4942SOL    HW226460   4.648   4.539   8.442 -0.3206  1.2829 -1.6449
 4943SOL     OW26461   2.368   0.473   3.522  0.0566 -0.0924 -0.1516
 4943SOL    HW126462   2.277   0.443   3.529 -0.2582  1.1261  0.9699
 4943SOL    HW226463   2.417   0.395   3.497  0.8549  0.4367 -0.2530
 4944SOL     OW26464   2.536   4.335   6.985 -0.3967  0.4219  0.0137
 4944SOL    HW126465   2.598   4.320   7.056 -0.0496 -0.4399 -0.4650
 4944SOL    HW226466   2.604   4.368   6.927  0.3762 -1.6548 -0.2568
 4945SOL     OW26467   2.458   3.792  11.464  0.1926 -0.1266 -0.2231
 4945SOL    HW126468   2.488   3.849  11.393 -0.1733  0.0163 -0.2639
 4945SOL    HW226469   2.464   3.702  11.432 -0.7695  0.3788 -1.7966
 4946SOL     OW26470   0.313   1.364   7.943  0.0073 -0.4516  0.3013
 4946SOL    HW126471   0.386   1.305   7.962  2.0878  1.1031 -2.7428
 4946SOL    HW226472   0.354   1.449   7.953 -1.3495  0.1019  1.1263
 4947SOL     OW26473   0.026   3.145   9.325 -0.3123  0.2116 -0.0120
 4947SOL    HW126474   4.675   3.150   9.295 -0.1952 -1.4737 -0.6624
 4947SOL    HW226475   0.034   3.220   9.385  1.5226  0.7423 -0.8980
 4948SOL     OW26476   3.123   0.520   6.832 -0.2955 -0.2842 -0.2864
 4948SOL    HW126477   3.205   0.545   6.873 -1.0052  1.3022  0.1699
 4948SOL    HW226478   3.059   0.575   6.877  0.1912  1.3983 -1.6542
 4949SOL     OW26479   2.702   2.886   5.458  0.5082 -0.2916 -0.0243
 4949SOL    HW126480   2.609   2.867   5.469  0.4058  0.8993  1.1482
 4949SOL    HW226481   2.743   2.809   5.498 -1.2839 -1.7235 -0.8970
 4950SOL     OW26482   3.745   1.844   8.947 -0.0445 -0.7837 -0.1948
 4950SOL    HW126483   3.781   1.817   8.862 -1.4186  0.1372 -1.0597
 4950SOL    HW226484   3.755   1.769   9.005  0.7042 -1.3378 -1.0287
 4951SOL     OW26485   0.953   0.689   5.044 -0.0960  0.8015  0.2096
 4951SOL    HW126486   1.000   0.648   4.972 -0.3274  2.2694 -0.7740
 4951SOL    HW226487   0.871   0.640   5.040 -0.5761  1.6711 -0.5971
 4952SOL     OW26488   1.289   2.598   8.871 -0.4463 -0.0507 -0.4099
 4952SOL    HW126489   1.206   2.567   8.907 -0.6425 -0.3870 -1.1445
 4952SOL    HW226490   1.254   2.613   8.783  0.4941  0.4801 -0.7023
 4953SOL     OW26491   1.538   0.951  13.074 -0.3892  0.0684 -0.0646
 4953SOL    HW126492   1.562   1.030  13.024  1.0071  0.4674  1.2544
 4953SOL    HW226493   1.444   0.963  13.086 -0.2330  1.0779  0.2055
 4954SOL     OW26494   2.066   0.295   9.050 -0.3107 -0.2557  0.3684
 4954SOL    HW126495   2.101   0.308   9.138  0.5632  0.4406 -0.0859
 4954SOL    HW226496   2.140   0.324   8.997 -1.3453  1.1482 -0.3166
 4955SOL     OW26497   3.852   2.321   3.595 -0.1231  0.3444  0.2433
 4955SOL    HW126498   3.774   2.268   3.615  0.2668 -0.2514  0.1887
 4955SOL    HW226499   3.880   2.287   3.510  0.4113  1.9125 -0.2021
 4956SOL     OW26500   3.407   2.327  16.278 -0.4723 -0.2189 -0.5475
 4956SOL    HW126501   3.311   2.327  16.278 -0.4741 -2.0399  0.6534
 4956SOL    HW226502   3.433   2.292  16.193 -0.0706  0.5539 -0.7387
 4957SOL     OW26503   2.609   3.221   8.054  0.6222 -0.7400  0.2046
 4957SOL    HW126504   2.628   3.269   8.135 -0.3560  2.5510 -1.5109
 4957SOL    HW226505   2.697   3.197   8.026  0.0891 -2.2491 -0.2009
 4958SOL     OW26506   3.764   2.963   5.590 -0.0159 -0.3874  0.1884
 4958SOL    HW126507   3.725   2.981   5.504  0.9874  1.4827  0.1312
 4958SOL    HW226508   3.693   2.975   5.653 -0.3300  1.3578 -0.4910
 4959SOL     OW26509   0.061   2.761  11.151  0.1984 -0.3513 -0.4422
 4959SOL    HW126510   0.103   2.678  11.172  0.6222 -0.2253 -0.8112
 4959SOL    HW226511   4.718   2.741  11.108  1.1282 -1.0950 -1.8444
 4960SOL     OW26512   2.862   2.482   6.902 -0.2105  0.0252  0.2427
 4960SOL    HW126513   2.878   2.547   6.971 -1.1601  1.1518 -0.6027
 4960SOL    HW226514   2.841   2.409   6.961 -2.6058  1.3821  1.0523
 4961SOL     OW26515   1.754   3.959   3.076  0.0054 -0.2478  0.1979
 4961SOL    HW126516   1.762   4.013   2.998 -0.7771 -1.8812 -1.0260
 4961SOL    HW226517   1.723   4.016   3.147 -0.6884 -0.0635 -0.2514
 4962SOL     OW26518   4.110   3.413   9.480 -0.3555 -0.2365  0.2526
 4962SOL    HW126519   4.193   3.408   9.433  0.6192 -1.5478  2.1161
 4962SOL    HW226520   4.063   3.447   9.404 -0.4654 -0.6744  0.1297
 4963SOL     OW26521   3.147   0.541   3.132  0.4922 -0.2788  0.6374
 4963SOL    HW126522   3.090   0.471   3.165 -1.3192  1.2357  0.7317
 4963SOL    HW226523   3.173   0.501   3.049 -1.2203  1.0068 -0.5157
 4964SOL     OW26524   2.680   1.942  10.252 -0.4542  0.3968 -0.3530
 4964SOL    HW126525   2.645   1.957  10.164  0.5874  0.0344 -0.8228
 4964SOL    HW226526   2.607   1.897  10.293 -0.5477  0.5500 -0.3496
 4965SOL     OW26527   1.782   3.610  16.265  0.7726  0.1060  0.3237
 4965SOL    HW126528   1.770   3.536  16.326 -1.6451 -0.7233 -1.1364
 4965SOL    HW226529   1.690   3.601  16.239  0.8318 -2.4571  0.9402
 4966SOL     OW26530   2.269   3.946  16.691 -0.3814  0.2039 -0.1274
 4966SOL    HW126531   2.216   3.878  16.650  0.3394  0.8307 -2.0867
 4966SOL    HW226532   2.354   3.905  16.672 -1.3251 -1.8451  0.1017
 4967SOL     OW26533   0.392   3.101   7.221 -0.4865  1.0336 -0.3662
 4967SOL    HW126534   0.468   3.121   7.276  0.8739 -3.0171 -0.8126
 4967SOL    HW226535   0.420   3.151   7.144 -1.6126  0.6684 -1.0112
 4968SOL     OW26536   1.823   2.333   8.692  0.1552 -0.6882 -0.1567
 4968SOL    HW126537   1.767   2.408   8.673  0.8838  0.0163  0.4817
 4968SOL    HW226538   1.761   2.286   8.748  0.7225 -0.1171  0.9607
 4969SOL     OW26539   1.880   4.457   5.864  0.0335 -0.2491 -0.0570
 4969SOL    HW126540   1.924   4.385   5.910  0.7357 -0.7449 -1.5227
 4969SOL    HW226541   1.947   4.525   5.868 -2.7693  2.4698  0.5060
 4970SOL     OW26542   3.090   3.958  11.528 -0.1163 -0.3962 -0.4902
 4970SOL    HW126543   3.079   3.992  11.617 -0.9367 -2.4419  0.1973
 4970SOL    HW226544   3.025   4.007  11.476 -0.0736  1.4297  1.1628
 4971SOL     OW26545   4.454   3.516   9.854  0.0862 -0.3145 -0.0329
 4971SOL    HW126546   4.404   3.577   9.908 -1.0319 -1.9062  0.7265
 4971SOL    HW226547   4.415   3.540   9.770 -1.5803 -0.1140  0.8027
 4972SOL     OW26548   1.610   3.018   3.871  0.3960  0.6333 -0.2698
 4972SOL    HW126549   1.579   2.959   3.939  0.0861  0.9689 -0.1208
 4972SOL    HW226550   1.694   3.046   3.908  0.4165  0.8845 -0.5055
 4973SOL     OW26551   4.033   1.131   7.116 -0.3903 -0.3953  0.2709
 4973SOL    HW126552   4.028   1.145   7.211  0.9251 -2.0844  0.5765
 4973SOL    HW226553   3.948   1.168   7.093  0.2568  0.4002 -0.8080
 4974SOL     OW26554   3.946   2.404  15.104 -0.2070  0.0882 -0.3881
 4974SOL    HW126555   3.954   2.407  15.199 -0.6614 -3.5470 -0.2503
 4974SOL    HW226556   3.944   2.310  15.085  3.6562  0.0370 -0.5058
 4975SOL     OW26557   3.357   1.161   8.211  0.8679 -0.0261 -0.1542
 4975SOL    HW126558   3.280   1.216   8.200  0.8627 -0.0369 -0.1711
 4975SOL    HW226559   3.330   1.089   8.154  0.7909  1.2053 -1.6709
 4976SOL     OW26560   4.577   0.976   3.380  0.3693  0.2306 -0.0388
 4976SOL    HW126561   4.619   1.062   3.382 -1.6688  1.1664  2.0957
 4976SOL    HW226562   4.529   0.979   3.462  2.5280 -2.8051  1.3469
 4977SOL     OW26563   1.390   3.017  16.391 -0.4778  0.1577  0.2199
 4977SOL    HW126564   1.446   3.094  16.383  0.2183 -0.5684 -1.8254
 4977SOL    HW226565   1.389   2.970  16.308 -0.0975 -0.2196  0.4285
 4978SOL     OW26566   1.303   2.908  13.389  0.0080 -0.5642 -0.0378
 4978SOL    HW126567   1.208   2.909  13.378 -0.0434 -0.4747  0.3949
 4978SOL    HW226568   1.332   2.934  13.302 -0.8555 -0.5963 -0.3320
 4979SOL     OW26569   0.450   0.472  13.530  0.0904 -0.1921 -0.3568
 4979SOL    HW126570   0.359   0.445  13.542 -0.3957  1.4998 -0.2349
 4979SOL    HW226571   0.489   0.400  13.580 -0.3315  0.0089  0.2556
 4980SOL     OW26572   0.259   0.477   5.487 -0.3201 -0.7419  0.0531
 4980SOL    HW126573   0.169   0.452   5.470 -0.5480  1.5009 -2.0461
 4980SOL    HW226574   0.272   0.530   5.565  0.4326 -0.3131 -0.3634
 4981SOL     OW26575   1.633   0.133   9.170 -0.2224 -0.5187 -0.1675
 4981SOL    HW126576   1.568   0.070   9.202  2.2706 -2.0004  1.9438
 4981SOL    HW226577   1.592   0.213   9.204  0.0999  0.1606 -1.3463
 4982SOL     OW26578   3.264   3.865   5.485 -0.0516  0.0461 -0.3644
 4982SOL    HW126579   3.212   3.875   5.405 -0.1569  2.5601  0.0232
 4982SOL    HW226580   3.213   3.795   5.525 -0.2135  0.7260  0.6243
 4983SOL     OW26581   4.176   4.177   7.741 -0.7531 -0.3581  0.0100
 4983SOL    HW126582   4.101   4.180   7.800  0.0171  0.7656  0.9318
 4983SOL    HW226583   4.159   4.094   7.696 -1.3990 -1.6243  2.5822
 4984SOL     OW26584   0.074   0.600  10.231 -0.1752  0.1446  0.2182
 4984SOL    HW126585   0.118   0.685  10.229  1.2299 -0.6474 -3.2958
 4984SOL    HW226586   0.059   0.598  10.136  2.7359  0.8721 -0.2623
 4985SOL     OW26587   2.188   3.829   0.862  0.0616  0.0753  0.1714
 4985SOL    HW126588   2.156   3.741   0.882 -1.0850  0.0477 -1.7543
 4985SOL    HW226589   2.280   3.803   0.859  0.1031  0.0964  1.4831
 4986SOL     OW26590   0.024   0.382  16.765 -0.6112  0.4378  0.5653
 4986SOL    HW126591   0.061   0.406  16.680 -2.1241 -0.7038 -0.4233
 4986SOL    HW226592   0.018   0.464  16.814  1.8589  0.9227  0.0565
 4987SOL     OW26593   0.657   4.205   1.126 -0.2642  0.0063  0.1084
 4987SOL    HW126594   0.641   4.134   1.189 -0.3517  2.7604  3.1617
 4987SOL    HW226595   0.695   4.154   1.054 -2.4810 -1.0030 -0.3610
 4988SOL     OW26596   0.188   1.238  11.098  0.2167  0.5587 -0.0724
 4988SOL    HW126597   0.218   1.329  11.103 -1.4168  1.0826  0.2430
 4988SOL    HW226598   0.125   1.247  11.171 -1.4716 -1.7761 -1.2479
 4989SOL     OW26599   0.057   3.884   8.878 -0.0730  0.3899 -0.4253
 4989SOL    HW126600   0.103   3.885   8.962 -1.1405 -2.1452  0.1752
 4989SOL    HW226601   0.020   3.973   8.877  0.1405  0.4893  0.8973
 4990SOL     OW26602   2.304   2.521   5.232 -0.2061 -0.1851  0.0666
 4990SOL    HW126603   2.277   2.527   5.141 -1.5254 -0.8373  0.4057
 4990SOL    HW226604   2.348   2.437   5.222 -1.3910 -0.7709 -0.2451
 4991SOL     OW26605   1.863   1.987   6.930  0.4004  0.8495 -0.0115
 4991SOL    HW126606   1.863   1.891   6.930 -0.9205  0.8540  0.3259
 4991SOL    HW226607   1.771   1.993   6.956 -0.4700  1.4724 -3.1591
 4992SOL     OW26608   3.708   3.532   8.590 -0.3361 -0.1595 -0.1666
 4992SOL    HW126609   3.700   3.626   8.575 -1.6378 -0.5110 -1.6559
 4992SOL    HW226610   3.672   3.498   8.508  1.1168  0.7887 -1.1824
 4993SOL     OW26611   4.060   2.596   0.068  0.1166 -0.5511 -0.1888
 4993SOL    HW126612   4.010   2.524   0.107 -0.9880 -0.9830 -2.3804
 4993SOL    HW226613   4.141   2.591   0.117 -1.0459  1.9385  1.9969
 4994SOL     OW26614   1.811   2.349   4.492  0.0016 -0.1449  0.4671
 4994SOL    HW126615   1.717   2.329   4.497 -0.2353  0.7411 -0.3402
 4994SOL    HW226616   1.807   2.431   4.542  1.7006 -0.7478  1.6155
 4995SOL     OW26617   3.958   2.916   8.306 -0.3386 -0.2038 -0.5849
 4995SOL    HW126618   4.009   2.995   8.286 -0.6637  0.7231  2.3438
 4995SOL    HW226619   3.988   2.867   8.229 -0.1172 -1.2931  0.2008
 4996SOL     OW26620   0.530   4.576   5.160 -0.3762 -0.4521  0.3731
 4996SOL    HW126621   0.507   4.669   5.164  2.1518  0.3281 -2.7326
 4996SOL    HW226622   0.570   4.563   5.074  1.6494  1.0871  1.0853
 4997SOL     OW26623   2.137   3.470  11.918 -0.2318  0.2419  0.1792
 4997SOL    HW126624   2.188   3.390  11.906 -1.4015 -0.4327 -0.2273
 4997SOL    HW226625   2.092   3.480  11.834 -1.3198  1.0637  0.8801
 4998SOL     OW26626   3.390   2.470   4.751 -0.2129 -0.1903  0.4839
 4998SOL    HW126627   3.450   2.401   4.780  0.2549  0.7472  1.7082
 4998SOL    HW226628   3.403   2.544   4.810 -1.0446  1.3414 -1.2351
 4999SOL     OW26629   4.092   0.783   7.684 -0.2020 -0.4349  0.5491
 4999SOL    HW126630   4.004   0.762   7.717 -0.7174 -0.0930 -0.6104
 4999SOL    HW226631   4.107   0.730   7.605 -0.8951  0.3869 -0.1328
 5000SOL     OW26632   2.042   4.712   2.878 -0.3357  0.0301  0.3780
 5000SOL    HW126633   2.037   0.046   2.818 -2.0776  2.0800  3.0151
 5000SOL    HW226634   1.991   4.649   2.827 -2.2342  1.4399  0.5386
 5001SOL     OW26635   3.117   4.646   4.807 -0.5238 -0.1377  0.2668
 5001SOL    HW126636   3.121   4.605   4.720  1.8879 -1.6673  1.0975
 5001SOL    HW226637   3.124   4.567   4.861  0.0433 -0.7982 -0.7710
 5002SOL     OW26638   3.108   1.812   3.508 -0.2328 -0.1271  0.0176
 5002SOL    HW126639   3.026   1.762   3.517 -0.0092 -0.7247 -1.2296
 5002SOL    HW226640   3.140   1.759   3.435  0.9422 -0.1975  0.5976
 5003SOL     OW26641   4.721   4.385   7.404  0.2290  0.2832  0.1983
 5003SOL    HW126642   4.723   4.428   7.318 -1.0296 -2.0818 -1.0341
 5003SOL    HW226643   0.013   4.299   7.376 -0.0365  0.2304  0.0519
 5004SOL     OW26644   3.969   3.037   0.612 -0.2877 -0.2097 -0.2750
 5004SOL    HW126645   3.947   3.127   0.586  0.1130 -0.0984 -0.2251
 5004SOL    HW226646   3.891   2.993   0.579  0.3670 -2.1531  0.7626
 5005SOL     OW26647   0.005   3.596  17.735 -0.1084 -0.2433 -0.0491
 5005SOL    HW126648   4.719   3.518   0.027 -1.4579  1.0488  1.2818
 5005SOL    HW226649   0.091   3.565  17.705  0.2813  0.3237  0.4583
 5006SOL     OW26650   0.007   2.179   9.265 -0.0818 -0.1944 -0.0843
 5006SOL    HW126651   4.677   2.113   9.268  0.3249 -0.5896  0.6331
 5006SOL    HW226652   4.694   2.246   9.307  0.3551 -0.7547  1.3833
 5007SOL     OW26653   1.199   0.427   4.866 -0.1737 -0.5220  0.4968
 5007SOL    HW126654   1.185   0.336   4.891  0.2550  0.0302  2.7709
 5007SOL    HW226655   1.149   0.433   4.785 -1.5432 -1.2105  1.2679
 5008SOL     OW26656   1.878   4.157  10.998  0.4918 -0.0195  0.0586
 5008SOL    HW126657   1.967   4.175  11.028 -0.2591  0.6912  1.9340
 5008SOL    HW226658   1.883   4.095  10.926  0.5792  0.6904 -0.5363
 5009SOL     OW26659   0.965   3.667   0.765 -0.4664  0.4470  0.4224
 5009SOL    HW126660   0.932   3.735   0.707 -0.3169 -0.1049 -0.3044
 5009SOL    HW226661   0.903   3.595   0.754  1.8181 -1.3450 -0.7594
 5010SOL     OW26662   0.210   1.167   0.151  0.1759 -0.0614  0.2231
 5010SOL    HW126663   0.273   1.121   0.094  1.0408  2.0850 -0.5683
 5010SOL    HW226664   0.167   1.097   0.200 -0.4367 -0.5190 -0.9738
 5011SOL     OW26665   0.409   0.353   7.459  0.6678  0.2140  0.1065
 5011SOL    HW126666   0.333   0.412   7.451  0.9984  0.7737  1.0421
 5011SOL    HW226667   0.368   0.270   7.484  1.0405 -0.0406 -0.1314
 5012SOL     OW26668   3.442   4.251   3.473  0.6671  0.5240 -0.3672
 5012SOL    HW126669   3.535   4.248   3.449  0.4713 -2.7772 -0.7776
 5012SOL    HW226670   3.461   4.277   3.563  0.2872  1.0626 -0.4491
 5013SOL     OW26671   1.932   0.587   4.538 -0.1229  0.1881  0.1503
 5013SOL    HW126672   1.851   0.625   4.504 -1.9299 -1.0338  3.0862
 5013SOL    HW226673   1.909   0.494   4.547  2.5795 -0.4995  0.1881
 5014SOL     OW26674   2.917   3.513   2.820  0.4824 -0.3614  0.1382
 5014SOL    HW126675   2.850   3.535   2.885 -1.0606 -2.8561 -0.5946
 5014SOL    HW226676   2.978   3.586   2.830  0.1203 -0.0661  0.1733
 5015SOL     OW26677   3.604   4.404   8.514 -0.7562  0.0202  0.1027
 5015SOL    HW126678   3.661   4.451   8.453 -0.7617 -0.1529 -0.0346
 5015SOL    HW226679   3.568   4.478   8.564 -1.7729 -2.3821  2.9458
 5016SOL     OW26680   3.587   3.010   2.498 -0.2611  0.2044  0.4068
 5016SOL    HW126681   3.637   2.963   2.565  0.3244 -1.0375 -0.9107
 5016SOL    HW226682   3.655   3.039   2.437  0.3132 -2.3655 -0.1425
 5017SOL     OW26683   2.840   1.177   6.930 -0.1146  0.4930  0.3688
 5017SOL    HW126684   2.896   1.101   6.915 -1.7121 -0.4840 -0.6540
 5017SOL    HW226685   2.856   1.221   6.847  0.9686 -0.6031 -0.0065
 5018SOL     OW26686   4.496   2.872   5.584 -0.0415 -0.2226 -0.1360
 5018SOL    HW126687   4.417   2.921   5.560  0.1981 -0.0946 -0.6474
 5018SOL    HW226688   4.540   2.935   5.641 -0.5686 -1.3460  1.5187
 5019SOL     OW26689   3.518   4.040   8.783 -0.6935 -0.0279  0.0161
 5019SOL    HW126690   3.439   4.038   8.837 -2.7504  0.6712 -3.0101
 5019SOL    HW226691   3.574   4.087   8.844  2.2675  0.0272 -2.7546
 5020SOL     OW26692   1.733   0.238   5.102 -0.2323  0.4556 -0.1378
 5020SOL    HW126693   1.760   0.254   5.012  4.9321 -2.8977  0.7971
 5020SOL    HW226694   1.657   0.180   5.096 -0.5594  0.9319 -0.5909
 5021SOL     OW26695   1.476   3.885   8.764  0.0083 -0.1548 -0.1003
 5021SOL    HW126696   1.390   3.872   8.724  0.7753 -1.9440 -1.1891
 5021SOL    HW226697   1.467   3.980   8.756 -0.3350 -0.0171  1.9743
 5022SOL     OW26698   3.190   4.522   5.203 -0.6089  0.5157  0.3115
 5022SOL    HW126699   3.160   4.520   5.112 -1.5223  1.7988  0.5946
 5022SOL    HW226700   3.284   4.518   5.184  0.0142  0.3434  3.5581
 5023SOL     OW26701   4.612   4.485   9.620 -0.0526 -0.5389 -0.1420
 5023SOL    HW126702   4.654   4.544   9.682  2.3862  0.1607 -2.4879
 5023SOL    HW226703   4.658   4.405   9.646  0.8053 -0.4932 -1.5131
 5024SOL     OW26704   3.212   4.058   3.746  0.0503 -0.0535  0.5161
 5024SOL    HW126705   3.228   4.082   3.837  2.0687  2.3246 -0.4673
 5024SOL    HW226706   3.287   4.001   3.732  0.5349  0.2088  2.1174
 5025SOL     OW26707   2.673   0.901   5.844  0.3191 -0.2241  0.5114
 5025SOL    HW126708   2.660   0.915   5.938 -0.6423  0.6880  0.2364
 5025SOL    HW226709   2.641   0.985   5.811  2.4590  1.1195  1.8316
 5026SOL     OW26710   1.435   2.997   5.342  0.4901  0.6148 -0.1888
 5026SOL    HW126711   1.417   3.087   5.370 -3.3410 -0.8526  2.0724
 5026SOL    HW226712   1.486   3.014   5.263 -1.1049 -1.0168 -1.5900
 5027SOL     OW26713   3.461   4.195   1.784  0.4147  0.0171  0.8064
 5027SOL    HW126714   3.383   4.206   1.730  1.9015  0.1329 -1.2939
 5027SOL    HW226715   3.519   4.147   1.724  0.0369  0.1923  0.3001
 5028SOL     OW26716   3.835   0.332  13.687 -0.1469  0.3400  0.0592
 5028SOL    HW126717   3.908   0.290  13.734 -0.6407 -2.3388 -1.5510
 5028SOL    HW226718   3.822   0.268  13.617  0.9775 -0.6565  0.7548
 5029SOL     OW26719   0.959   0.267  17.253  0.2720  0.5055 -0.1868
 5029SOL    HW126720   0.940   0.272  17.347  0.3050 -1.4801 -0.0825
 5029SOL    HW226721   0.886   0.215  17.218 -0.1800 -0.0016  1.4988
 5030SOL     OW26722   4.531   0.579   7.416  0.5941  0.3226 -0.2036
 5030SOL    HW126723   4.466   0.650   7.410 -1.6177 -1.7092 -0.2711
 5030SOL    HW226724   4.607   0.634   7.398  2.0722 -1.3165  1.0289
 5031SOL     OW26725   0.362   3.806   7.319  0.5582  0.1567 -0.0720
 5031SOL    HW126726   0.361   3.901   7.316 -3.9754  0.1317  0.6707
 5031SOL    HW226727   0.406   3.802   7.404  0.3694  0.0523  0.0202
 5032SOL     OW26728   2.655   4.542  16.471  0.5671  0.1079  0.3417
 5032SOL    HW126729   2.605   4.496  16.404 -0.1442  1.5244 -0.1114
 5032SOL    HW226730   2.729   4.482  16.482 -0.3160 -1.6956 -3.6115
 5033SOL     OW26731   3.652   4.292  14.604 -1.0437 -0.1600  0.1244
 5033SOL    HW126732   3.633   4.214  14.551 -1.2033 -0.2317  0.2882
 5033SOL    HW226733   3.584   4.282  14.670 -0.2399 -1.1722  0.8106
 5034SOL     OW26734   2.013   0.559   0.303 -0.1027  0.8418  0.1119
 5034SOL    HW126735   2.047   0.471   0.290 -1.2002 -0.0168  3.0462
 5034SOL    HW226736   1.989   0.561   0.396  0.8542  3.2499  0.3178
 5035SOL     OW26737   3.595   0.089  17.301 -0.2857  0.6408  0.2801
 5035SOL    HW126738   3.626   0.128  17.383  0.6922 -0.0781  0.2498
 5035SOL    HW226739   3.676   0.089  17.250 -0.2163 -3.3326  0.3745
 5036SOL     OW26740   1.844   4.233  12.113  0.3992 -0.0689  0.2323
 5036SOL    HW126741   1.849   4.259  12.021  1.7369  0.3852  0.4371
 5036SOL    HW226742   1.866   4.317  12.153  1.6823  0.6154 -1.9052
 5037SOL     OW26743   3.280   3.435   0.685  0.2020 -1.4855 -0.1471
 5037SOL    HW126744   3.226   3.452   0.608 -2.9222 -1.0571  2.1149
 5037SOL    HW226745   3.284   3.525   0.719 -0.0142 -0.8897 -1.7348
 5038SOL     OW26746   0.122   0.626  13.590  0.5229  0.2254  0.9412
 5038SOL    HW126747   0.109   0.554  13.651 -0.3726  0.0670  0.5702
 5038SOL    HW226748   0.069   0.684  13.645 -3.4483  0.0540 -2.6652
 5039SOL     OW26749   1.379   1.452   8.003  0.2350 -0.0563 -0.1556
 5039SOL    HW126750   1.354   1.513   8.073 -0.0241 -0.3974  0.0463
 5039SOL    HW226751   1.299   1.402   7.992  0.4207 -0.8898  2.3045
 5040SOL     OW26752   2.395   4.227   8.609 -0.1674 -0.0077 -0.8913
 5040SOL    HW126753   2.403   4.133   8.629  0.3370  0.0082 -1.0102
 5040SOL    HW226754   2.352   4.214   8.525 -0.3677  1.7656 -1.0645
 5041SOL     OW26755   1.963   0.517   9.814 -0.2728  0.4007 -0.0095
 5041SOL    HW126756   2.033   0.509   9.749 -0.4345 -2.6180  0.1877
 5041SOL    HW226757   2.016   0.530   9.893  0.1893  0.7111 -0.3712
 5042SOL     OW26758   2.779   4.660   3.953 -0.8287 -0.0108 -0.2287
 5042SOL    HW126759   2.803   4.609   3.875 -3.0942 -1.3719 -0.0301
 5042SOL    HW226760   2.869   4.687   3.975 -1.4288  0.9884  0.9945
 5043SOL     OW26761   2.098   3.878   1.345  0.4091  0.3632 -0.0053
 5043SOL    HW126762   2.086   3.801   1.401 -1.4202  1.5565  1.2426
 5043SOL    HW226763   2.052   3.944   1.396  0.5796  0.6791 -0.2655
 5044SOL     OW26764   4.214   2.013   4.008  0.1554  0.2052 -0.1756
 5044SOL    HW126765   4.137   2.009   3.952  1.7461  1.2774 -2.4597
 5044SOL    HW226766   4.273   1.957   3.957 -2.6999 -2.7396 -0.2365
 5045SOL     OW26767   3.124   2.948   2.282 -0.5858  0.2715 -0.0499
 5045SOL    HW126768   3.144   3.041   2.293  0.2469  0.2602 -1.5164
 5045SOL    HW226769   3.209   2.907   2.299 -0.1793  0.8578 -0.6672
 5046SOL     OW26770   1.287   0.361   5.167 -0.1001  0.5125 -0.2186
 5046SOL    HW126771   1.217   0.369   5.231 -0.4573  1.1153 -0.6769
 5046SOL    HW226772   1.272   0.445   5.123  1.3961  0.2425 -1.2627
 5047SOL     OW26773   4.004   2.703   8.116 -0.9751  0.0490  0.4606
 5047SOL    HW126774   4.029   2.704   8.024 -2.1427  0.8950  0.1526
 5047SOL    HW226775   3.908   2.702   8.113 -0.8773  0.1688 -2.5779
 5048SOL     OW26776   0.010   2.455   4.282  0.1525  0.1469  0.5147
 5048SOL    HW126777   4.733   2.543   4.317  1.3627  0.0830  1.2358
 5048SOL    HW226778   0.090   2.472   4.233 -0.3467 -1.7250 -0.9311
 5049SOL     OW26779   4.133   0.010   9.059 -0.1191 -0.1566 -0.1638
 5049SOL    HW126780   4.188   4.720   8.986  1.6094 -0.5881  1.3242
 5049SOL    HW226781   4.082   0.078   9.016  0.8658 -0.3326 -1.6331
 5050SOL     OW26782   0.941   3.831   8.829 -0.0689  0.1407  0.6363
 5050SOL    HW126783   0.919   3.891   8.901 -0.6915 -1.6555  1.9291
 5050SOL    HW226784   0.976   3.900   8.772  1.7479 -2.0330 -0.8680
 5051SOL     OW26785   4.591   1.381   7.042 -0.2885 -0.0040 -0.2830
 5051SOL    HW126786   4.645   1.455   7.070 -0.3422 -0.4920  1.1406
 5051SOL    HW226787   4.516   1.431   7.009 -0.3601 -0.0091 -0.1286
 5052SOL     OW26788   0.978   2.582   2.503 -0.0482  0.6492 -0.5301
 5052SOL    HW126789   0.893   2.616   2.477  0.5106  0.1467 -2.9806
 5052SOL    HW226790   0.983   2.614   2.593 -3.6200 -2.3050  0.7085
 5053SOL     OW26791   2.000   1.238   5.255  0.2137 -0.4006  0.3045
 5053SOL    HW126792   1.945   1.217   5.331 -1.4999 -0.1952 -0.8732
 5053SOL    HW226793   2.079   1.195   5.287  1.6245  0.2623 -2.3305
 5054SOL     OW26794   0.471   1.997   0.272  0.5479  0.7538  0.6226
 5054SOL    HW126795   0.503   1.909   0.254  1.9703  1.1575  1.1420
 5054SOL    HW226796   0.481   2.044   0.189  2.6565 -1.1884 -0.2125
 5055SOL     OW26797   2.451   0.117   2.133  0.1660 -0.2073  0.3610
 5055SOL    HW126798   2.489   0.160   2.057 -0.2397 -2.8891 -1.3555
 5055SOL    HW226799   2.442   0.181   2.204 -1.5428  0.4892 -0.4850
 5056SOL     OW26800   4.323   0.954  15.876  0.1507  0.2945  0.0713
 5056SOL    HW126801   4.405   0.949  15.826  0.3605  0.8355  0.3646
 5056SOL    HW226802   4.354   1.001  15.954  0.1169 -1.6171  1.2174
 5057SOL     OW26803   4.064   3.388   6.024 -0.1401  0.3657  0.0440
 5057SOL    HW126804   4.143   3.344   6.057  0.7676 -0.0457 -2.7152
 5057SOL    HW226805   4.006   3.359   6.095  0.0201 -1.1820 -0.4427
 5058SOL     OW26806   0.167   2.625   2.100 -0.6605 -0.2218  0.3373
 5058SOL    HW126807   0.127   2.649   2.017 -0.4338  1.5022  0.7270
 5058SOL    HW226808   0.183   2.532   2.083 -2.1874 -0.4421  0.1510
 5059SOL     OW26809   2.982   3.184   5.822  0.0214  0.1889 -0.1033
 5059SOL    HW126810   2.922   3.143   5.884 -1.8131 -1.7712 -3.1213
 5059SOL    HW226811   2.945   3.185   5.733  1.0147 -1.0854 -0.5243
 5060SOL     OW26812   2.695   3.132   4.944 -0.1494  0.3920  0.4970
 5060SOL    HW126813   2.624   3.111   4.883  0.2369 -1.1149  0.5751
 5060SOL    HW226814   2.762   3.179   4.893 -0.6203 -0.4035 -0.8576
 5061SOL     OW26815   2.933   3.718  10.013 -0.2562  0.3280 -0.7359
 5061SOL    HW126816   2.938   3.669  10.095  0.5457  1.8656  0.1320
 5061SOL    HW226817   2.954   3.806  10.042 -0.3862 -0.2990  1.2486
 5062SOL     OW26818   3.512   3.555   3.664  0.2387  0.2046 -0.0932
 5062SOL    HW126819   3.443   3.489   3.668 -1.2729  1.8464  1.1568
 5062SOL    HW226820   3.590   3.502   3.677  0.7028  0.6272 -1.2150
 5063SOL     OW26821   4.649   2.097   7.890  0.0492  0.0644 -0.4062
 5063SOL    HW126822   4.723   2.113   7.949 -1.2646 -0.3660  1.3669
 5063SOL    HW226823   4.701   2.083   7.812 -2.2968 -0.8280 -1.8031
 5064SOL     OW26824   0.186   3.042   8.687  0.1913  0.0068 -0.1396
 5064SOL    HW126825   0.254   3.064   8.750  1.8741  1.3354 -2.3847
 5064SOL    HW226826   0.235   3.038   8.605 -0.0823  1.8474 -0.3888
 5065SOL     OW26827   3.506   1.768   6.549 -0.0135 -0.1707  0.0794
 5065SOL    HW126828   3.459   1.782   6.467 -2.8129 -1.3859  1.4609
 5065SOL    HW226829   3.436   1.735   6.606  0.4515 -3.6159 -1.3303
 5066SOL     OW26830   2.429   3.115   4.010  0.1201  0.0155  0.4091
 5066SOL    HW126831   2.372   3.153   4.077 -1.1145  2.0820 -1.8145
 5066SOL    HW226832   2.423   3.024   4.039  1.9690 -0.4120 -0.5548
 5067SOL     OW26833   2.221   3.307   8.527  0.5369  0.3671  0.1024
 5067SOL    HW126834   2.151   3.370   8.512 -1.1557 -2.0478 -2.2086
 5067SOL    HW226835   2.190   3.228   8.482  0.3837  0.5664 -0.1409
 5068SOL     OW26836   1.619   1.654   3.552  0.4110  0.1025  0.5479
 5068SOL    HW126837   1.700   1.603   3.555 -0.1706 -0.7563  1.7915
 5068SOL    HW226838   1.643   1.724   3.613 -0.3039  0.0488  0.8855
 5069SOL     OW26839   1.350   3.998   3.008 -0.1414 -0.0705  0.2233
 5069SOL    HW126840   1.339   3.943   3.085 -1.0286 -1.3896 -0.8339
 5069SOL    HW226841   1.375   4.078   3.053 -0.3519  0.2216 -0.1813
 5070SOL     OW26842   2.816   0.687   9.469  0.2325 -0.3296 -0.0378
 5070SOL    HW126843   2.720   0.690   9.464  0.1577  0.1943  1.7480
 5070SOL    HW226844   2.837   0.765   9.520 -0.4629 -0.2770  0.1760
 5071SOL     OW26845   3.163   3.712  11.284  0.0421  0.0757  0.2324
 5071SOL    HW126846   3.145   3.785  11.223 -0.1702 -0.2338 -0.0761
 5071SOL    HW226847   3.185   3.642  11.223  0.3150 -1.0710  1.6588
 5072SOL     OW26848   3.726   4.197   3.977  0.1360 -0.5398  0.2169
 5072SOL    HW126849   3.750   4.284   4.008 -3.5772  0.0233  1.5020
 5072SOL    HW226850   3.740   4.144   4.055 -0.1283 -1.3944 -0.3081
 5073SOL     OW26851   2.961   3.620  10.795  0.0791  0.3395  0.0802
 5073SOL    HW126852   2.886   3.679  10.796 -1.5357 -1.6597 -1.4517
 5073SOL    HW226853   2.950   3.574  10.878 -1.5453 -0.2895 -0.4772
 5074SOL     OW26854   3.010   2.771   7.879 -0.0222 -0.5055  0.1892
 5074SOL    HW126855   2.922   2.791   7.910 -0.5446  0.8274 -2.1665
 5074SOL    HW226856   2.996   2.689   7.831 -0.1223 -0.8484  0.8083
 5075SOL     OW26857   2.178   1.228   3.898  0.6615 -0.0700  0.1068
 5075SOL    HW126858   2.134   1.238   3.982  0.4370 -1.0061  0.1034
 5075SOL    HW226859   2.158   1.313   3.861 -1.5222 -0.2515  0.8694
 5076SOL     OW26860   2.118   2.028   7.488  0.2645  0.1667  0.1878
 5076SOL    HW126861   2.153   1.954   7.538  1.2395  1.0635  0.8387
 5076SOL    HW226862   2.027   2.009   7.466  0.1659 -0.0065  0.7488
 5077SOL     OW26863   1.351   4.406   8.765  0.6786  0.6448  0.2637
 5077SOL    HW126864   1.425   4.440   8.816 -0.3454  0.8989  1.5877
 5077SOL    HW226865   1.326   4.490   8.726 -1.5076 -0.2535 -0.2894
 5078SOL     OW26866   1.358   1.715   6.524 -0.3103 -0.2981  0.1220
 5078SOL    HW126867   1.284   1.776   6.529  0.2817  0.3839  0.4819
 5078SOL    HW226868   1.318   1.644   6.576 -1.0591  1.7501  2.3419
 5079SOL     OW26869   2.106   4.347   7.126 -0.2727  0.1400 -0.2622
 5079SOL    HW126870   2.197   4.317   7.130 -0.3042  0.4581  3.0482
 5079SOL    HW226871   2.120   4.439   7.149  0.6216 -0.2014  0.5552
 5080SOL     OW26872   0.925   2.251   8.274  0.0644 -0.2241  0.2865
 5080SOL    HW126873   0.923   2.160   8.305  0.8296 -0.1472  0.5506
 5080SOL    HW226874   1.015   2.280   8.283 -0.0949  0.6702 -0.9720
 5081SOL     OW26875   4.418   2.795   6.039  0.0347 -0.5274  0.0251
 5081SOL    HW126876   4.511   2.803   6.018  0.5306 -1.9106  1.7225
 5081SOL    HW226877   4.396   2.718   5.987 -0.6653  0.1633 -0.7036
 5082SOL     OW26878   0.884   4.402   8.288  0.0361  0.1061 -0.4394
 5082SOL    HW126879   0.926   4.436   8.367  0.2610  2.3382 -1.5027
 5082SOL    HW226880   0.948   4.402   8.217  0.4177 -0.4930 -0.0920
 5083SOL     OW26881   2.501   4.603   7.592 -0.3848  0.1168  1.0257
 5083SOL    HW126882   2.571   4.598   7.656  1.7805  0.0354 -1.3735
 5083SOL    HW226883   2.507   4.693   7.561 -0.8799 -0.3782 -0.5381
 5084SOL     OW26884   1.002   3.389   6.289  0.2298  0.0305  0.1316
 5084SOL    HW126885   1.048   3.447   6.350 -0.1019 -0.5146  0.9036
 5084SOL    HW226886   1.077   3.337   6.259  0.3620 -0.2387  0.9297
 5085SOL     OW26887   1.973   0.434   7.175  0.2305 -0.1106 -0.3809
 5085SOL    HW126888   2.054   0.405   7.132  1.0321  1.6532 -0.0668
 5085SOL    HW226889   1.997   0.515   7.219 -1.2797  0.4453 -0.5919
 5086SOL     OW26890   1.317   0.029   3.824 -0.4910 -0.4350 -0.1047
 5086SOL    HW126891   1.352   4.691   3.867 -0.7396  1.3229  3.2866
 5086SOL    HW226892   1.404   0.051   3.790 -1.8698 -1.5683 -4.3074
 5087SOL     OW26893   1.132   2.543   8.234 -0.7310 -0.1673 -0.6447
 5087SOL    HW126894   1.157   2.564   8.144  0.2928 -0.1056 -0.3452
 5087SOL    HW226895   1.184   2.605   8.284 -0.5145 -1.7241  1.0410
 5088SOL     OW26896   0.102   1.236  11.623  0.5138  0.0625 -0.4435
 5088SOL    HW126897   0.162   1.165  11.647  1.5034  0.3341 -2.0770
 5088SOL    HW226898   0.027   1.219  11.680  0.6022  1.4706  0.0944
 5089SOL     OW26899   3.362   1.006   3.218 -0.3576 -0.0994  0.2518
 5089SOL    HW126900   3.385   0.919   3.185 -0.2001  0.3823 -0.8907
 5089SOL    HW226901   3.361   0.994   3.313 -0.2955 -0.6046  0.1875
 5090SOL     OW26902   4.626   3.957   4.880  0.3892  0.4709 -0.2525
 5090SOL    HW126903   4.643   3.866   4.904 -1.5439  0.1539 -0.0846
 5090SOL    HW226904   4.569   3.934   4.806  0.9888 -0.1446 -0.5277
 5091SOL     OW26905   0.422   4.472   3.372 -0.8426 -0.3146  0.4641
 5091SOL    HW126906   0.465   4.446   3.291  1.0759 -2.1326  2.0658
 5091SOL    HW226907   0.330   4.444   3.365  0.0271 -3.5441  1.6629
 5092SOL     OW26908   3.561   4.221  13.084 -0.6260  0.7467  0.4194
 5092SOL    HW126909   3.648   4.185  13.102 -1.0889  0.5575  2.3510
 5092SOL    HW226910   3.553   4.163  13.009  1.2313  0.9626  0.0430
 5093SOL     OW26911   3.994   3.332  12.046 -0.0836  0.5702 -0.3228
 5093SOL    HW126912   4.029   3.244  12.040  0.3646  0.7374 -0.1908
 5093SOL    HW226913   3.899   3.321  12.053  0.1308 -1.0200  0.1062
 5094SOL     OW26914   3.973   0.684  11.765  0.2536  0.0350  0.1726
 5094SOL    HW126915   3.967   0.591  11.783 -2.7423  0.3020  0.4427
 5094SOL    HW226916   3.979   0.719  11.854 -0.1786 -3.1302  1.4147
 5095SOL     OW26917   4.273   4.683  16.320  0.1142 -0.0909  0.0721
 5095SOL    HW126918   4.286   4.616  16.387  0.9971  1.3369  1.3213
 5095SOL    HW226919   4.247   0.020  16.371 -1.5937  0.2024 -1.2400
 5096SOL     OW26920   2.839   2.463   2.929 -0.1012  0.3807  0.5195
 5096SOL    HW126921   2.792   2.547   2.923  0.9597  1.0404  1.2576
 5096SOL    HW226922   2.823   2.430   2.841  0.1684 -1.6237  1.2434
 5097SOL     OW26923   0.413   4.006   8.575  0.5049  0.2718  0.3505
 5097SOL    HW126924   0.395   3.970   8.663 -0.5086 -1.6541 -0.6415
 5097SOL    HW226925   0.506   3.992   8.559  0.0394 -1.0400 -1.1786
 5098SOL     OW26926   0.696   0.351   4.666 -0.0400 -0.7246 -0.4573
 5098SOL    HW126927   0.668   0.442   4.661  2.3703 -0.1044 -3.0703
 5098SOL    HW226928   0.664   0.325   4.579 -1.7014  0.3061 -0.1539
 5099SOL     OW26929   0.642   2.169  10.515  0.3950 -0.3709  0.3618
 5099SOL    HW126930   0.713   2.160  10.452  0.3950  0.4903  0.2367
 5099SOL    HW226931   0.608   2.082  10.495 -0.0962 -0.4674  1.6243
 5100SOL     OW26932   0.902   2.087   8.676  0.3266  0.0070 -0.0427
 5100SOL    HW126933   0.884   2.168   8.628 -0.6499  0.1990  0.6311
 5100SOL    HW226934   0.917   2.122   8.763  0.2217 -1.1774  0.4483
 5101SOL     OW26935   1.046   2.901   5.911 -0.4599  0.6180 -0.0612
 5101SOL    HW126936   1.011   2.926   5.825  2.2664 -1.0220 -1.6643
 5101SOL    HW226937   0.965   2.907   5.962 -2.0146 -2.7164 -2.1528
 5102SOL     OW26938   1.680   2.644   4.482  0.1731  0.0755  0.3986
 5102SOL    HW126939   1.648   2.723   4.439  0.5250 -0.3235 -0.5990
 5102SOL    HW226940   1.615   2.584   4.447 -0.2247  1.3053 -0.9593
 5103SOL     OW26941   3.049   0.632   6.208 -0.3743  0.3593  0.0557
 5103SOL    HW126942   2.988   0.612   6.136  2.4637  1.4903 -2.6866
 5103SOL    HW226943   3.115   0.563   6.196  0.9104  1.8133 -1.2401
 5104SOL     OW26944   2.006   2.444  13.118 -0.1603  0.5533 -0.3837
 5104SOL    HW126945   2.073   2.506  13.092  0.1132  0.4817  0.1605
 5104SOL    HW226946   1.946   2.467  13.046 -2.4913  0.5676  1.5721
 5105SOL     OW26947   2.971   1.609  13.343 -0.8417 -0.3679 -0.0618
 5105SOL    HW126948   3.022   1.663  13.403 -0.5288 -0.3137 -0.3783
 5105SOL    HW226949   2.938   1.547  13.409  0.5715 -0.2425  0.7546
 5106SOL     OW26950   1.755   2.747   8.193  0.5023  0.2568  0.1856
 5106SOL    HW126951   1.807   2.673   8.161 -0.4030 -0.5303  0.5445
 5106SOL    HW226952   1.727   2.717   8.279 -3.8936  1.9999 -0.6605
 5107SOL     OW26953   2.273   2.099  10.076 -0.9589 -0.1720 -0.1907
 5107SOL    HW126954   2.331   2.135  10.143 -0.7979 -2.1185  0.7105
 5107SOL    HW226955   2.271   2.161  10.003  0.9266 -0.1690 -0.2260
 5108SOL     OW26956   0.625   4.457   2.060  0.2619  0.3219 -0.0728
 5108SOL    HW126957   0.672   4.373   2.068 -1.5976 -0.8052 -0.8696
 5108SOL    HW226958   0.699   4.515   2.042  0.9689 -0.6934 -0.4665
 5109SOL     OW26959   0.148   0.258   8.455  0.3825  0.3158  0.0475
 5109SOL    HW126960   0.150   0.346   8.493 -0.4138  0.9908 -1.4843
 5109SOL    HW226961   0.221   0.212   8.495 -1.2280 -2.3756 -0.1003
 5110SOL     OW26962   2.595   3.819  10.035  0.4527 -0.4848  0.0704
 5110SOL    HW126963   2.644   3.821  10.117 -1.5851  0.7894  1.2594
 5110SOL    HW226964   2.596   3.725  10.017 -0.5413 -0.4794 -0.0295
 5111SOL     OW26965   3.730   2.637  10.750 -0.6750 -0.3040  0.2617
 5111SOL    HW126966   3.706   2.570  10.686 -0.4918 -0.4580  0.3554
 5111SOL    HW226967   3.652   2.634  10.807 -0.7301  1.0894  0.2511
 5112SOL     OW26968   0.545   4.427   6.661  0.4329 -0.1385 -0.0579
 5112SOL    HW126969   0.510   4.368   6.728  0.0983  0.7174  0.5270
 5112SOL    HW226970   0.466   4.436   6.608 -0.3867 -2.2565  0.8132
 5113SOL     OW26971   2.623   2.177   9.335  0.5570 -0.3465  0.0258
 5113SOL    HW126972   2.621   2.082   9.322 -1.1382 -0.2025 -0.7381
 5113SOL    HW226973   2.660   2.214   9.255 -1.6673  0.0605 -0.8159
 5114SOL     OW26974   2.282   0.991   4.698  0.4056 -0.1828 -0.2313
 5114SOL    HW126975   2.238   0.948   4.772  0.7307  0.3463  0.2756
 5114SOL    HW226976   2.264   1.081   4.726 -1.2192 -0.3520 -0.7749
 5115SOL     OW26977   2.519   0.202   2.420 -0.8555  0.0164 -0.2688
 5115SOL    HW126978   2.435   0.158   2.434  0.1319 -1.3983  1.2809
 5115SOL    HW226979   2.568   0.151   2.485  1.6483  2.5419 -0.1432
 5116SOL     OW26980   3.140   1.078   8.465 -0.1818  0.3532  0.1286
 5116SOL    HW126981   3.154   1.160   8.418  0.8648 -0.4388 -0.9561
 5116SOL    HW226982   3.078   1.040   8.402  0.2635  0.7236 -0.5396
 5117SOL     OW26983   0.435   3.348  15.057  0.0649  0.6926 -0.4384
 5117SOL    HW126984   0.521   3.388  15.071  0.1687  1.7545 -4.2210
 5117SOL    HW226985   0.413   3.326  15.148 -3.4031  1.1967 -1.1613
 5118SOL     OW26986   1.128   0.032   5.258 -0.6312  0.0439  0.3012
 5118SOL    HW126987   1.218   0.006   5.238 -0.7111  1.6276 -2.1232
 5118SOL    HW226988   1.129   0.037   5.354 -2.4348  0.2367  0.3119
 5119SOL     OW26989   1.074   3.500   1.259  0.3055 -0.3179  0.1644
 5119SOL    HW126990   1.091   3.578   1.312 -0.3662 -0.1621  0.1420
 5119SOL    HW226991   1.069   3.539   1.172 -2.9416 -0.4765  0.2942
 5120SOL     OW26992   2.407   3.124   6.220  0.3941  0.6559 -0.1512
 5120SOL    HW126993   2.362   3.200   6.255 -0.3014 -0.3853  1.2103
 5120SOL    HW226994   2.442   3.100   6.305  3.0517  0.1941 -1.3695
 5121SOL     OW26995   4.608   3.776   7.905  0.4066  0.3157  0.7609
 5121SOL    HW126996   4.624   3.742   7.993  0.3903 -1.9649 -0.1066
 5121SOL    HW226997   4.582   3.694   7.863  2.7213 -0.5093  0.9391
 5122SOL     OW26998   0.754   3.233   7.049  0.1804 -0.9361  0.3534
 5122SOL    HW126999   0.805   3.229   6.968 -0.4828  0.7470 -0.1432
 5122SOL    HW227000   0.805   3.300   7.093  1.9971 -1.6161 -0.6858
 5123SOL     OW27001   4.568   3.360  16.958  0.1186 -0.0781  0.1739
 5123SOL    HW127002   4.603   3.283  16.912 -0.0101  0.5312 -0.9397
 5123SOL    HW227003   4.550   3.420  16.886 -0.3160  1.7611  1.8346
 5124SOL     OW27004   2.096   4.417  14.124  0.3121  0.4955 -0.0815
 5124SOL    HW127005   2.148   4.404  14.203 -0.4840  1.0262  0.5364
 5124SOL    HW227006   2.160   4.454  14.063 -0.1241 -2.2026 -2.2021
 5125SOL     OW27007   2.427   3.587   2.838 -0.0835 -0.3520 -0.4256
 5125SOL    HW127008   2.337   3.619   2.831  0.0671  0.5653  1.9159
 5125SOL    HW227009   2.467   3.656   2.786 -0.1934  0.3914  0.4719
 5126SOL     OW27010   2.430   1.565   1.020 -0.3428  0.1753 -0.6354
 5126SOL    HW127011   2.393   1.625   0.956 -0.8496 -1.3283 -1.7579
 5126SOL    HW227012   2.403   1.608   1.101 -1.3296  0.8131 -1.3038
 5127SOL     OW27013   0.795   2.909   7.682 -0.3951 -0.4208  0.6468
 5127SOL    HW127014   0.775   2.904   7.588  2.6796 -2.2148  0.0787
 5127SOL    HW227015   0.710   2.877   7.712 -0.1309 -3.1304 -1.5349
 5128SOL     OW27016   4.403   3.480   4.291  0.5667 -0.3994 -0.8448
 5128SOL    HW127017   4.325   3.529   4.315  0.0868 -1.4891 -0.1927
 5128SOL    HW227018   4.375   3.423   4.219 -2.4389 -1.3408  1.1189
 5129SOL     OW27019   2.425   2.943   7.427 -0.4990 -0.3431 -0.1229
 5129SOL    HW127020   2.488   2.908   7.365  1.4779  1.5334  0.8396
 5129SOL    HW227021   2.470   3.026   7.443 -1.8035  0.3825 -0.2013
 5130SOL     OW27022   2.025   1.125   2.103  0.3578  0.1477 -0.4356
 5130SOL    HW127023   1.974   1.194   2.144  0.1010  0.5555 -1.4452
 5130SOL    HW227024   1.957   1.068   2.068  0.3113 -0.4415  0.6250
 5131SOL     OW27025   0.923   2.616  10.254 -0.1104  0.5724 -0.2362
 5131SOL    HW127026   0.987   2.627  10.184 -0.0782  0.8991 -0.1514
 5131SOL    HW227027   0.838   2.632  10.213 -1.0588  0.5371  1.7210
 5132SOL     OW27028   3.883   1.582   9.729 -0.1636 -0.0450 -0.3548
 5132SOL    HW127029   3.975   1.587   9.755 -1.3032 -1.3938  3.9573
 5132SOL    HW227030   3.852   1.507   9.780  0.5769 -0.1534 -0.0648
 5133SOL     OW27031   1.877   2.652  16.221 -0.1285  0.0851  0.2284
 5133SOL    HW127032   1.959   2.672  16.266 -0.1106  0.3199  0.0934
 5133SOL    HW227033   1.819   2.644  16.296  1.8734 -0.6374  1.7041
 5134SOL     OW27034   2.291   0.145   2.551 -0.0941  0.3159  0.3895
 5134SOL    HW127035   2.330   0.138   2.638 -0.9835 -0.8192  0.6973
 5134SOL    HW227036   2.197   0.135   2.570 -0.6794  1.1139 -2.1292
 5135SOL     OW27037   4.200   0.656   1.272 -0.1786  0.5330 -0.0226
 5135SOL    HW127038   4.188   0.603   1.193 -1.1257  0.4655  0.1780
 5135SOL    HW227039   4.245   0.738   1.248  0.8032  0.5956  2.0211
 5136SOL     OW27040   0.482   2.771   4.746 -0.3809  0.1159 -0.5183
 5136SOL    HW127041   0.534   2.700   4.785 -0.3900  0.7785  0.7051
 5136SOL    HW227042   0.531   2.778   4.665 -0.2662 -0.3660 -0.4923
 5137SOL     OW27043   2.402   2.865   4.917  0.1783  0.3120 -0.1874
 5137SOL    HW127044   2.492   2.835   4.934 -0.3556 -1.2304 -0.1019
 5137SOL    HW227045   2.411   2.945   4.864 -0.3795 -0.9274 -2.1358
 5138SOL     OW27046   3.322   3.397  17.359  0.6111  0.1720 -0.1505
 5138SOL    HW127047   3.294   3.328  17.419  0.1985 -0.3882 -0.9932
 5138SOL    HW227048   3.363   3.466  17.411  2.3776 -2.0425  1.3849
 5139SOL     OW27049   2.188   0.770  10.155  0.3471  0.1203  0.2530
 5139SOL    HW127050   2.254   0.737  10.215 -0.8385 -1.5209  0.6600
 5139SOL    HW227051   2.147   0.690  10.121  1.6699 -0.7456  0.6981
 5140SOL     OW27052   2.685   3.043   8.615  0.2124 -0.3057 -0.1890
 5140SOL    HW127053   2.629   3.037   8.692  0.4790 -0.4785 -0.0120
 5140SOL    HW227054   2.633   3.111   8.572  0.3963 -0.2513 -0.3261
 5141SOL     OW27055   3.301   3.158   2.173 -0.2521  0.0263 -0.0406
 5141SOL    HW127056   3.384   3.112   2.165  0.3974  0.8209  2.2178
 5141SOL    HW227057   3.316   3.189   2.262  1.2851 -1.4870  0.2244
 5142SOL     OW27058   3.220   2.076   7.166 -0.5618  0.1136 -0.0063
 5142SOL    HW127059   3.151   2.108   7.108  1.1897  0.9020 -1.6466
 5142SOL    HW227060   3.192   1.990   7.199 -1.5817  0.2497 -0.4995
 5143SOL     OW27061   3.202   3.513  11.119  0.6298  0.0247 -0.2009
 5143SOL    HW127062   3.131   3.520  11.055 -1.0427  1.6938  1.8332
 5143SOL    HW227063   3.278   3.491  11.065  0.8313  0.6539 -0.1779
 5144SOL     OW27064   1.974   0.063   3.407  0.6246  0.0387 -0.5546
 5144SOL    HW127065   2.032   0.139   3.404 -1.5802  1.7883  1.4244
 5144SOL    HW227066   1.994   0.030   3.319  0.3162  0.4812 -0.7971
 5145SOL     OW27067   3.587   3.810  10.687  0.1901  0.0867  0.1562
 5145SOL    HW127068   3.645   3.737  10.708  2.1787  0.8662 -2.6390
 5145SOL    HW227069   3.548   3.846  10.767 -0.6206  0.2411 -0.3156
 5146SOL     OW27070   3.395   3.321  10.096 -0.2455 -0.3448  0.0680
 5146SOL    HW127071   3.415   3.239  10.141  1.3090  0.1250  0.2651
 5146SOL    HW227072   3.321   3.346  10.151  0.0328 -0.8961  0.6863
 5147SOL     OW27073   0.177   4.106   5.305 -0.0323  0.8376 -0.6825
 5147SOL    HW127074   0.098   4.150   5.335 -1.2130 -2.5955  1.2249
 5147SOL    HW227075   0.155   4.093   5.213 -0.8260 -1.7369 -0.1299
 5148SOL     OW27076   3.803   4.526   1.601  0.1054  0.5241 -0.8748
 5148SOL    HW127077   3.740   4.593   1.625  0.5417  0.2072  1.1284
 5148SOL    HW227078   3.744   4.451   1.592  0.8896 -0.3176  0.8759
 5149SOL     OW27079   1.954   2.008  10.095 -0.3377 -0.2835  0.4161
 5149SOL    HW127080   2.046   1.988  10.109 -0.0300  1.6280  1.2012
 5149SOL    HW227081   1.912   1.934  10.138 -1.3589 -0.8488 -1.5689
 5150SOL     OW27082   4.362   0.134  14.762 -0.0150 -0.3449 -0.1150
 5150SOL    HW127083   4.296   0.195  14.729  0.6267  0.7768  0.6715
 5150SOL    HW227084   4.332   0.056  14.714 -0.9111 -0.4866  0.6849
 5151SOL     OW27085   3.463   4.073   2.922 -0.2555 -0.2854 -0.4404
 5151SOL    HW127086   3.459   4.075   2.827  0.1702  1.9234 -0.4034
 5151SOL    HW227087   3.373   4.063   2.955  0.8286 -2.0453  2.0230
 5152SOL     OW27088   4.532   1.491  17.447  0.5361  0.2237  0.2670
 5152SOL    HW127089   4.550   1.489  17.541 -0.2582  1.6082  0.4530
 5152SOL    HW227090   4.555   1.580  17.423  0.6457  0.3873  0.9672
 5153SOL     OW27091   4.546   0.885  11.790  0.4130 -0.2302  0.4618
 5153SOL    HW127092   4.466   0.856  11.746 -0.4037  0.8677  1.2273
 5153SOL    HW227093   4.535   0.841  11.874  0.9642  0.3268  0.8253
 5154SOL     OW27094   4.644   3.582   1.941  0.3652  0.3925 -0.2954
 5154SOL    HW127095   4.615   3.518   2.006  0.7737  1.1639  0.6600
 5154SOL    HW227096   4.610   3.666   1.972 -1.5871 -0.5419  0.0793
 5155SOL     OW27097   3.239   3.699   4.616  0.1145 -0.0553  0.1592
 5155SOL    HW127098   3.240   3.708   4.521  2.1817  0.5977  0.2222
 5155SOL    HW227099   3.308   3.634   4.629 -0.8548 -0.6975  2.1079
 5156SOL     OW27100   2.922   2.659  13.314 -0.5338  0.1113 -0.4587
 5156SOL    HW127101   2.998   2.688  13.264  0.4566 -0.1892  0.8491
 5156SOL    HW227102   2.877   2.742  13.327 -0.1381  0.5423 -1.9106
 5157SOL     OW27103   3.357   4.550   8.034 -0.0524 -0.2474  0.2951
 5157SOL    HW127104   3.274   4.598   8.042 -0.3661 -1.2763  2.8802
 5157SOL    HW227105   3.418   4.624   8.030 -2.4999  1.8589  1.4226
 5158SOL     OW27106   0.527   2.794   7.026  0.2770  0.3101  0.1544
 5158SOL    HW127107   0.598   2.858   7.030 -0.1723  0.8990 -0.9326
 5158SOL    HW227108   0.452   2.849   7.051  0.0774 -1.2636  2.9840
 5159SOL     OW27109   1.312   1.761  16.287  0.6044  0.0298 -0.1870
 5159SOL    HW127110   1.389   1.775  16.232  0.5859  0.1726 -0.1779
 5159SOL    HW227111   1.329   1.823  16.358  1.4719 -2.2142  1.5365
 5160SOL     OW27112   2.328   3.039   1.975  0.2463 -0.3117 -0.1613
 5160SOL    HW127113   2.332   2.955   1.930 -0.3548  0.0571 -0.8972
 5160SOL    HW227114   2.285   3.011   2.056  2.4369  2.1205  1.8671
 5161SOL     OW27115   1.502   0.996   3.691  0.5431  0.4428  0.6330
 5161SOL    HW127116   1.551   1.060   3.640  1.0143 -1.5761 -1.4552
 5161SOL    HW227117   1.413   1.031   3.695 -0.3396 -1.7960  0.4128
 5162SOL     OW27118   3.660   1.403   3.971  0.0750 -0.5616 -0.1769
 5162SOL    HW127119   3.726   1.335   3.958 -0.1147 -0.5178 -1.3847
 5162SOL    HW227120   3.689   1.457   4.044  0.5111 -1.4294  0.2880
 5163SOL     OW27121   2.044   0.728  12.097 -0.5539 -0.1367 -0.1246
 5163SOL    HW127122   2.115   0.750  12.158  0.2095  0.0950 -1.0826
 5163SOL    HW227123   2.082   0.709  12.011  3.3122  1.7869  1.1310
 5164SOL     OW27124   1.303   0.767   3.799 -0.1050  0.3297  0.0820
 5164SOL    HW127125   1.326   0.848   3.844  2.0471 -0.1312 -0.1828
 5164SOL    HW227126   1.258   0.710   3.861 -0.1761 -0.5118 -0.7472
 5165SOL     OW27127   1.770   4.257   1.039  0.2110 -0.5726  0.3287
 5165SOL    HW127128   1.681   4.226   1.022 -0.6945  1.2980  1.6278
 5165SOL    HW227129   1.771   4.230   1.131 -0.2909 -2.1316 -0.1178
 5166SOL     OW27130   4.423   2.599  10.015 -0.4686  0.3282  0.1558
 5166SOL    HW127131   4.441   2.689   9.988 -0.2140  0.0008 -0.7597
 5166SOL    HW227132   4.478   2.543   9.961  0.1430  1.6234 -0.5671
 5167SOL     OW27133   1.725   1.873   2.590  0.3804  0.2389  0.1259
 5167SOL    HW127134   1.682   1.900   2.509  0.0051  1.3398  0.6819
 5167SOL    HW227135   1.817   1.887   2.571  0.6378 -0.6886  0.7094
 5168SOL     OW27136   4.730   1.863  15.568  0.6893  0.5509  0.1650
 5168SOL    HW127137   0.052   1.912  15.622  0.6946  1.8750 -1.0458
 5168SOL    HW227138   4.723   1.927  15.497  1.2505  1.1368  0.6362
 5169SOL     OW27139   2.536   3.910   6.881  0.3455 -0.5369  0.0945
 5169SOL    HW127140   2.571   3.834   6.927 -0.2398 -0.1982  1.1080
 5169SOL    HW227141   2.586   3.911   6.799  1.6194  4.1977  0.9226
 5170SOL     OW27142   2.647   1.322   8.136  1.2190 -0.1310 -0.1469
 5170SOL    HW127143   2.670   1.246   8.189 -0.7531 -0.3846  0.3702
 5170SOL    HW227144   2.675   1.395   8.192 -1.2896  0.0754  0.8609
 5171SOL     OW27145   4.113   4.649   0.892 -0.7864  0.3331  0.0499
 5171SOL    HW127146   4.125   4.557   0.914 -0.4066 -0.3108 -2.7842
 5171SOL    HW227147   4.111   4.696   0.975 -0.8607  0.6865 -0.1485
 5172SOL     OW27148   4.121   3.448   0.413 -0.2699 -0.3305 -0.3975
 5172SOL    HW127149   4.028   3.470   0.417 -0.1757 -0.2471  1.3332
 5172SOL    HW227150   4.174   3.525   0.434 -4.2477  1.1385  4.3691
 5173SOL     OW27151   2.536   0.322   3.348 -0.1202  0.7268  0.4656
 5173SOL    HW127152   2.514   0.274   3.268  0.9437 -1.0768  1.2451
 5173SOL    HW227153   2.498   0.261   3.410 -0.3638 -1.4366 -1.8146
 5174SOL     OW27154   4.344   2.357  17.459 -0.1089  0.4197  0.1457
 5174SOL    HW127155   4.302   2.435  17.423 -0.6403 -0.7926 -1.8288
 5174SOL    HW227156   4.267   2.302  17.470 -0.2646  0.3668 -1.2099
 5175SOL     OW27157   0.908   3.593  14.600 -0.5868  0.0144 -0.4048
 5175SOL    HW127158   0.948   3.679  14.611  0.0014 -0.4363  0.8856
 5175SOL    HW227159   0.864   3.600  14.515  0.2262 -1.1008 -0.9092
 5176SOL     OW27160   3.595   0.770   1.956 -0.7278 -0.2521 -0.2977
 5176SOL    HW127161   3.673   0.775   2.012 -0.1090  0.3796 -1.2224
 5176SOL    HW227162   3.591   0.847   1.899  2.7543  2.0879  2.6343
 5177SOL     OW27163   0.115   0.852   7.609  0.4802  0.2074 -0.6510
 5177SOL    HW127164   0.118   0.818   7.698  1.6620  2.8966  0.3389
 5177SOL    HW227165   0.207   0.855   7.583  0.0111  3.8332 -1.9094
 5178SOL     OW27166   3.442   1.534   2.209  0.5047 -0.2424  0.7131
 5178SOL    HW127167   3.400   1.615   2.182 -0.3891 -1.1983 -0.7555
 5178SOL    HW227168   3.390   1.471   2.160 -0.1025  0.7778  0.0586
 5179SOL     OW27169   0.729   2.249   4.264 -0.3348 -0.0361 -0.5837
 5179SOL    HW127170   0.669   2.324   4.267  0.6718  0.7044  1.1648
 5179SOL    HW227171   0.664   2.184   4.290 -0.1650  0.4428  1.0785
 5180SOL     OW27172   0.725   2.799  15.465  0.2847 -0.0710 -0.1844
 5180SOL    HW127173   0.663   2.776  15.534  0.1949 -1.0648 -0.5849
 5180SOL    HW227174   0.804   2.756  15.496 -0.8816 -3.3370 -1.6583
 5181SOL     OW27175   2.766   0.812   7.822 -0.9382 -0.1244 -0.0672
 5181SOL    HW127176   2.717   0.777   7.748 -1.1067 -0.3929  0.1737
 5181SOL    HW227177   2.700   0.832   7.888  0.2236 -1.3186  1.4484
 5182SOL     OW27178   3.875   0.686   6.132 -0.3673  0.1120  0.1027
 5182SOL    HW127179   3.831   0.611   6.092 -1.2301  0.4773  0.3646
 5182SOL    HW227180   3.947   0.637   6.173 -1.6167 -1.6683  0.1549
 5183SOL     OW27181   2.147   0.891  14.076  0.1394  0.2185 -0.4372
 5183SOL    HW127182   2.175   0.956  14.011  0.1747  1.0224  0.3932
 5183SOL    HW227183   2.160   0.806  14.034 -0.0896  0.0054 -0.0745
 5184SOL     OW27184   4.683   1.210  15.664 -0.0572 -0.0790 -0.2367
 5184SOL    HW127185   0.014   1.203  15.599 -0.0027  1.1359 -0.3177
 5184SOL    HW227186   4.624   1.277  15.628  1.4319 -0.2019 -2.8882
 5185SOL     OW27187   0.582   1.993   2.046 -0.2090 -0.5505 -1.0124
 5185SOL    HW127188   0.622   1.915   2.083 -1.6078 -1.1727 -0.8076
 5185SOL    HW227189   0.496   1.967   2.078  0.6409 -2.3141 -0.1717
 5186SOL     OW27190   4.535   0.401   8.215  0.1703  0.5807  0.4687
 5186SOL    HW127191   4.629   0.414   8.225  0.6861 -1.4889 -1.6935
 5186SOL    HW227192   4.501   0.381   8.303  2.0188  1.8149  1.4779
 5187SOL     OW27193   1.857   4.512   7.013 -0.5713  0.0651 -0.1212
 5187SOL    HW127194   1.876   4.526   6.920 -1.9763 -0.8462 -0.5558
 5187SOL    HW227195   1.939   4.479   7.048 -0.6514 -1.1340 -1.0800
 5188SOL     OW27196   3.217   1.576   8.866 -0.3137  0.2270  0.0181
 5188SOL    HW127197   3.242   1.500   8.919  0.9345 -0.4991 -1.6014
 5188SOL    HW227198   3.189   1.633   8.937 -1.4132  1.6789 -1.5730
 5189SOL     OW27199   0.735   3.137   8.059  0.2664 -0.1691  0.0041
 5189SOL    HW127200   0.647   3.127   8.095  0.4076  1.5628  0.8246
 5189SOL    HW227201   0.782   3.162   8.139  0.5979 -0.1621 -0.1923
 5190SOL     OW27202   3.753   2.880   0.535  0.5523 -0.0760  0.3916
 5190SOL    HW127203   3.712   2.800   0.567 -1.1910  1.0981  1.0566
 5190SOL    HW227204   3.677   2.936   0.552  0.0967 -0.8605  0.9605
 5191SOL     OW27205   4.332   0.337   2.237  0.2463 -0.5478  0.2960
 5191SOL    HW127206   4.299   0.358   2.150  2.1728 -1.6770 -0.7030
 5191SOL    HW227207   4.251   0.300   2.274 -0.3977  0.6094  0.0532
 5192SOL     OW27208   3.776   2.992   3.576 -0.0245  0.5416 -0.5084
 5192SOL    HW127209   3.713   2.943   3.630  0.5619 -1.1508 -1.3564
 5192SOL    HW227210   3.845   2.928   3.559 -0.4644 -0.2910  0.8167
 5193SOL     OW27211   4.496   0.854  10.746 -0.6092 -0.0084  0.2871
 5193SOL    HW127212   4.518   0.799  10.822 -3.1140  1.1322  1.8295
 5193SOL    HW227213   4.527   0.934  10.788  1.4746 -0.0996 -1.0925
 5194SOL     OW27214   0.107   1.003   3.547 -0.0051 -1.0708 -0.3770
 5194SOL    HW127215   0.123   0.945   3.472  1.5409 -2.4861  1.0339
 5194SOL    HW227216   0.182   0.973   3.598  0.8723  0.4378 -0.8015
 5195SOL     OW27217   0.283   3.925   0.572 -0.3283  0.4265 -0.2624
 5195SOL    HW127218   0.329   3.972   0.642  0.4639 -1.5778  0.5741
 5195SOL    HW227219   0.337   3.952   0.498  0.9654  2.5355  1.4331
 5196SOL     OW27220   1.353   1.123  17.281  0.2646  0.4682  0.5521
 5196SOL    HW127221   1.299   1.047  17.260 -1.7829  1.6007  1.7240
 5196SOL    HW227222   1.409   1.081  17.347  1.1360  0.1178 -0.4082
 5197SOL     OW27223   2.060   2.141   7.948  0.3669  0.3958 -0.2214
 5197SOL    HW127224   2.085   2.124   8.039  0.1181  3.0166  0.3111
 5197SOL    HW227225   2.008   2.221   7.949 -0.5128 -0.1633 -0.9213
 5198SOL     OW27226   3.199   1.194   6.841 -0.3443  0.0494  0.6109
 5198SOL    HW127227   3.238   1.158   6.920  1.0784 -2.2305 -1.1320
 5198SOL    HW227228   3.127   1.132   6.830 -0.3824  0.4953 -1.6723
 5199SOL     OW27229   2.196   3.595   3.640  0.7646 -0.5270  0.6246
 5199SOL    HW127230   2.154   3.616   3.723  0.8643  2.7152 -0.1536
 5199SOL    HW227231   2.129   3.629   3.580 -0.0142 -1.8750  0.7194
 5200SOL     OW27232   2.957   3.058   5.074  0.2999 -0.5757 -0.5204
 5200SOL    HW127233   2.957   2.995   5.146 -0.4131  2.1399  1.8984
 5200SOL    HW227234   2.915   3.001   5.010 -2.1834 -0.3098  0.8503
 5201SOL     OW27235   0.850   3.787   4.913  0.0958  0.2403 -0.2140
 5201SOL    HW127236   0.841   3.870   4.866  0.3711  0.8367  0.7896
 5201SOL    HW227237   0.945   3.772   4.909  0.2865  1.4698 -0.3392
 5202SOL     OW27238   1.955   2.789   4.092  0.0773  0.5223  0.1653
 5202SOL    HW127239   1.866   2.786   4.059  0.6316 -3.5041 -0.9611
 5202SOL    HW227240   1.953   2.721   4.159 -1.0180  1.0727  0.6847
 5203SOL     OW27241   3.518   4.574   6.988 -0.2005 -0.1076  0.7857
 5203SOL    HW127242   3.593   4.598   6.933 -1.6706  2.8848  0.1069
 5203SOL    HW227243   3.448   4.594   6.926  0.0379 -1.1366  0.1708
 5204SOL     OW27244   3.076   0.024   1.135 -0.1300  0.3678  0.7502
 5204SOL    HW127245   3.106   4.700   1.071 -2.3526  0.2223 -0.1624
 5204SOL    HW227246   3.157   0.026   1.185  1.5568 -0.5211 -1.9616
 5205SOL     OW27247   4.677   4.551  17.089 -0.2823 -0.1078 -0.0171
 5205SOL    HW127248   4.712   4.481  17.033  0.6395  1.7625 -1.7745
 5205SOL    HW227249   0.014   4.607  17.098 -1.9312  2.0743  0.4300
 5206SOL     OW27250   0.972   3.545   5.505 -0.2811 -0.5569  0.3033
 5206SOL    HW127251   1.018   3.462   5.518  1.8926  0.3683 -1.5257
 5206SOL    HW227252   0.982   3.602   5.582 -0.9467  0.7099 -0.5546
 5207SOL     OW27253   3.255   2.376  13.153 -0.6303  0.0728 -0.0969
 5207SOL    HW127254   3.174   2.376  13.101  0.0552  1.6677 -1.1715
 5207SOL    HW227255   3.303   2.323  13.089  0.6387 -1.0366  1.7854
 5208SOL     OW27256   3.879   2.265   1.559  0.0586  0.2665 -0.0373
 5208SOL    HW127257   3.936   2.189   1.561 -2.7159 -1.8256 -0.2813
 5208SOL    HW227258   3.815   2.240   1.627 -0.7248 -0.5792 -1.0889
 5209SOL     OW27259   2.943   1.617   3.925  0.2231  0.2343  0.0302
 5209SOL    HW127260   2.934   1.638   3.832  0.6284 -2.0241 -0.5164
 5209SOL    HW227261   2.917   1.526   3.936  0.4496  0.0430 -1.0550
 5210SOL     OW27262   0.264   0.732   9.532  0.6428  0.2863  0.0756
 5210SOL    HW127263   0.317   0.685   9.468  1.5792 -0.1689  1.1805
 5210SOL    HW227264   0.307   0.817   9.544 -0.7132  0.9860 -0.0263
 5211SOL     OW27265   4.049   4.164   5.681  0.0166 -0.2221 -0.2193
 5211SOL    HW127266   4.038   4.074   5.649 -1.1134 -0.5817  1.1684
 5211SOL    HW227267   4.013   4.216   5.610  0.6383  1.2395  0.5379
 5212SOL     OW27268   3.853   0.486   3.833  0.1078 -0.1373  0.2037
 5212SOL    HW127269   3.797   0.419   3.872 -0.9611  0.3857 -0.4123
 5212SOL    HW227270   3.912   0.427   3.786 -0.8895 -0.6383 -0.4372
 5213SOL     OW27271   3.218   0.716   1.816 -0.2199  0.1429 -0.3811
 5213SOL    HW127272   3.232   0.670   1.899  3.4572  2.2764  0.1548
 5213SOL    HW227273   3.298   0.688   1.772 -2.0306 -1.1578 -2.8955
 5214SOL     OW27274   0.054   2.452  12.056  0.3659 -0.4709  0.6242
 5214SOL    HW127275   0.128   2.493  12.101 -1.2918  2.2875  0.8467
 5214SOL    HW227276   4.730   2.484  12.120  1.2541  2.2779  0.1230
 5215SOL     OW27277   1.751   4.126   1.267  0.0720  0.7539  0.3123
 5215SOL    HW127278   1.763   4.031   1.260 -2.2370  0.5896 -1.5908
 5215SOL    HW227279   1.741   4.134   1.362  0.3381 -0.2331  0.4163
 5216SOL     OW27280   1.161   3.583   5.960  0.3646  0.3119 -0.4065
 5216SOL    HW127281   1.085   3.579   6.017  1.8545  1.5806  1.6999
 5216SOL    HW227282   1.186   3.491   5.949  1.7263  0.4418  1.5056
 5217SOL     OW27283   2.132   2.427   6.720  0.0726 -0.6935  0.2585
 5217SOL    HW127284   2.117   2.442   6.627  1.5473  0.0624  0.1465
 5217SOL    HW227285   2.051   2.456   6.761  0.2367  0.2837 -0.0987
 5218SOL     OW27286   1.954   1.710   2.869 -0.3630  0.6301  0.3093
 5218SOL    HW127287   1.907   1.627   2.860  0.7899  0.1270 -1.0844
 5218SOL    HW227288   1.899   1.753   2.935 -1.1611  0.4393 -0.2319
 5219SOL     OW27289   1.885   3.288  11.307  0.0050  0.0093 -0.2584
 5219SOL    HW127290   1.946   3.257  11.375 -1.1339  1.8520  1.6122
 5219SOL    HW227291   1.889   3.383  11.305  2.1969 -0.0714  0.6328
 5220SOL     OW27292   1.185   2.909   3.732 -0.2667  0.8481  0.0014
 5220SOL    HW127293   1.178   3.003   3.745  0.0964  0.7309  1.0557
 5220SOL    HW227294   1.275   2.893   3.758 -0.0567  3.7394  0.9969
 5221SOL     OW27295   3.453   3.559   4.383 -0.3899  0.1180 -1.0737
 5221SOL    HW127296   3.415   3.471   4.385  0.3588 -0.1755  0.5617
 5221SOL    HW227297   3.374   3.609   4.363  0.8543  2.5221  0.0159
 5222SOL     OW27298   0.502   4.633   3.799  0.6066  0.1945 -0.3627
 5222SOL    HW127299   0.470   4.711   3.752  2.1952  0.6468 -0.7025
 5222SOL    HW227300   0.556   4.599   3.728 -0.7928 -0.3258 -1.1830
 5223SOL     OW27301   0.227   3.438  17.703  0.7208 -0.8835 -1.0460
 5223SOL    HW127302   0.302   3.485  17.741 -1.3207  2.0702 -0.6370
 5223SOL    HW227303   0.257   3.441  17.612  1.1941  1.3695 -0.8126
 5224SOL     OW27304   2.712   2.962   3.097  0.1382 -0.6664  0.2310
 5224SOL    HW127305   2.707   2.993   3.188  0.8970  2.3899 -0.7741
 5224SOL    HW227306   2.715   3.044   3.048  0.0272  0.3346  1.8794
 5225SOL     OW27307   1.682   0.578  15.887 -0.3645 -0.1463 -0.6889
 5225SOL    HW127308   1.589   0.600  15.894 -0.3415 -0.6022  1.0907
 5225SOL    HW227309   1.670   0.484  15.899  1.9220  0.1547  3.6745
 5226SOL     OW27310   0.400   4.072   9.040  0.2304  0.2518 -0.1912
 5226SOL    HW127311   0.418   4.140   8.974  1.9494  0.1823  0.1982
 5226SOL    HW227312   0.440   3.996   8.998 -1.6777  1.0985 -3.5540
 5227SOL     OW27313   0.213   1.666   1.865 -0.0992 -0.1248  0.8256
 5227SOL    HW127314   0.214   1.571   1.865  0.8608 -0.1070 -1.7189
 5227SOL    HW227315   0.264   1.697   1.790 -0.7712 -0.7766  0.1072
 5228SOL     OW27316   1.877   1.263   8.962  0.4396 -0.5443 -0.0965
 5228SOL    HW127317   1.937   1.203   8.917  1.1530 -0.2830  0.5045
 5228SOL    HW227318   1.933   1.323   9.010 -0.5849 -0.3454  0.8443
 5229SOL     OW27319   0.677   2.763   1.951 -0.8714  0.6455 -0.2393
 5229SOL    HW127320   0.598   2.736   1.997  0.1994 -1.0813  0.6263
 5229SOL    HW227321   0.747   2.746   2.014 -0.4246  1.4133 -0.5305
 5230SOL     OW27322   0.489   2.626   4.035  0.4219  0.4149 -0.2827
 5230SOL    HW127323   0.569   2.666   4.070  0.1785  1.6849 -1.2061
 5230SOL    HW227324   0.467   2.672   3.954 -1.9443 -0.7420 -0.3104
 5231SOL     OW27325   3.793   4.038   9.658 -0.3480  0.2898 -0.0585
 5231SOL    HW127326   3.847   4.035   9.737 -1.3477  1.1422  0.6527
 5231SOL    HW227327   3.855   3.989   9.604 -2.1537 -1.6400 -0.3891
 5232SOL     OW27328   2.850   0.407   2.634  0.2463 -0.5606  0.6305
 5232SOL    HW127329   2.849   0.323   2.588  1.8853  0.3944 -1.1422
 5232SOL    HW227330   2.945   0.422   2.634  0.3900 -1.5583 -0.5946
 5233SOL     OW27331   4.660   1.665   4.900 -0.0845  0.8360 -0.5227
 5233SOL    HW127332   4.591   1.720   4.937 -1.5995 -1.0531 -0.4840
 5233SOL    HW227333   4.623   1.634   4.817  0.1976  2.1208 -1.1282
 5234SOL     OW27334   4.359   1.208   8.377  0.9918  0.5205 -0.1791
 5234SOL    HW127335   4.319   1.179   8.295  0.4077 -0.5461  0.4935
 5234SOL    HW227336   4.413   1.130   8.392  0.3780  0.1090 -0.1151
 5235SOL     OW27337   2.993   2.004   1.500  0.1620  0.1275  0.0714
 5235SOL    HW127338   3.088   1.998   1.493 -0.1515 -0.5239 -3.6698
 5235SOL    HW227339   2.971   1.911   1.500  1.2361 -0.1277  0.8554
 5236SOL     OW27340   3.498   2.207  14.795  0.3179 -0.2382 -0.2342
 5236SOL    HW127341   3.506   2.181  14.886 -2.5758  0.3800  0.1810
 5236SOL    HW227342   3.560   2.152  14.747 -0.4139 -0.1656 -1.2676
 5237SOL     OW27343   1.108   1.749   7.397 -0.0122  0.1455 -0.1366
 5237SOL    HW127344   1.184   1.784   7.445  0.1684 -0.4631  0.0161
 5237SOL    HW227345   1.046   1.754   7.470  0.6365  0.5638  0.3963
 5238SOL     OW27346   3.222   4.108  17.037  0.7520 -0.0205  0.5786
 5238SOL    HW127347   3.228   4.194  17.079  0.6894  0.1600  0.2239
 5238SOL    HW227348   3.187   4.046  17.101 -0.0247 -0.7310 -0.5340
 5239SOL     OW27349   4.279   0.165   7.888  0.6739 -0.1366  0.2042
 5239SOL    HW127350   4.242   0.196   7.971  0.8823 -0.3548  0.3803
 5239SOL    HW227351   4.287   0.072   7.906 -1.0991 -0.0882  1.2679
 5240SOL     OW27352   2.625   1.489   8.660  0.8127  0.2461 -0.2561
 5240SOL    HW127353   2.557   1.472   8.725  0.0875 -1.7212 -1.5389
 5240SOL    HW227354   2.578   1.530   8.588 -0.9813  0.3862  0.9988
 5241SOL     OW27355   1.892   4.198  13.771  0.3876 -0.4391 -0.4643
 5241SOL    HW127356   1.882   4.167  13.861 -0.8193 -1.3231 -0.9034
 5241SOL    HW227357   1.815   4.254  13.762  0.0780 -0.6368  0.9956
 5242SOL     OW27358   1.150   3.703  16.506 -0.1413  0.2242  0.7456
 5242SOL    HW127359   1.160   3.608  16.505 -0.8853  0.1118  2.8806
 5242SOL    HW227360   1.161   3.725  16.599 -2.2192 -2.9861  1.7329
 5243SOL     OW27361   3.134   3.327   8.097  0.0697  0.1776  0.2547
 5243SOL    HW127362   3.104   3.332   8.188 -0.6485  0.2304  0.0167
 5243SOL    HW227363   3.227   3.310   8.109  0.1789 -0.2229 -1.1741
 5244SOL     OW27364   0.283   0.936   1.918  0.0752 -0.5019  0.4516
 5244SOL    HW127365   0.320   1.014   1.960  0.4991  0.0098 -0.8670
 5244SOL    HW227366   0.265   0.880   1.994  1.2024 -0.0285  1.0699
 5245SOL     OW27367   1.368   3.039   5.022  0.7171  0.4031 -0.3843
 5245SOL    HW127368   1.452   3.084   5.027  0.7527  0.5575 -2.1671
 5245SOL    HW227369   1.305   3.109   5.008  2.0921  2.1306  2.2480
 5246SOL     OW27370   4.045   1.939  17.552  0.1838  0.7952  0.3553
 5246SOL    HW127371   4.059   1.861  17.606 -0.1894 -1.6903 -3.1035
 5246SOL    HW227372   4.021   1.902  17.467  2.2519  0.1938  0.0327
 5247SOL     OW27373   2.519   2.110   2.111 -0.0139  0.0173  0.3224
 5247SOL    HW127374   2.491   2.162   2.036  0.9153  0.6334  0.4073
 5247SOL    HW227375   2.455   2.150   2.169 -0.5092 -0.1326 -0.1275
 5248SOL     OW27376   4.432   0.540   4.809 -0.2404  0.0041  0.3140
 5248SOL    HW127377   4.381   0.612   4.847 -1.2100  0.5235 -2.0192
 5248SOL    HW227378   4.450   0.574   4.722 -1.3177 -0.7920 -0.2264
 5249SOL     OW27379   2.236   0.830   2.567  0.0528  0.1001 -0.5252
 5249SOL    HW127380   2.309   0.803   2.622 -1.1147  0.4075  1.1588
 5249SOL    HW227381   2.154   0.812   2.613  1.3780 -1.6802  1.1325
 5250SOL     OW27382   0.645   1.784   1.592 -0.3086 -0.6506 -0.0330
 5250SOL    HW127383   0.676   1.867   1.629 -0.5649 -1.3490  1.7733
 5250SOL    HW227384   0.730   1.740   1.602 -0.3101 -1.2208 -2.5548
 5251SOL     OW27385   0.452   0.477   4.249 -0.5180  0.2938  0.3840
 5251SOL    HW127386   0.440   0.384   4.227  1.1533  0.3210 -0.6335
 5251SOL    HW227387   0.501   0.502   4.171 -0.7127 -0.9904 -0.1423
 5252SOL     OW27388   1.796   3.494   9.176 -0.0976 -0.1038 -0.8690
 5252SOL    HW127389   1.773   3.535   9.092 -0.1977  4.8897  1.6252
 5252SOL    HW227390   1.718   3.526   9.221 -0.3254 -0.0956 -1.2647
 5253SOL     OW27391   1.774   3.520   7.364  0.1676 -0.1869  0.3467
 5253SOL    HW127392   1.768   3.522   7.459 -2.9282  1.2907  0.1104
 5253SOL    HW227393   1.764   3.613   7.344  0.5580 -0.4221 -1.0085
 5254SOL     OW27394   2.787   2.788   6.198  0.3442  0.8363 -0.2927
 5254SOL    HW127395   2.742   2.803   6.281  0.0027  1.4817 -0.5909
 5254SOL    HW227396   2.872   2.762   6.234 -0.1121  0.1244  0.2752
 5255SOL     OW27397   4.390   1.002   5.002 -0.0307 -1.1810  0.1081
 5255SOL    HW127398   4.350   1.051   4.929  1.3273 -1.7859 -1.0432
 5255SOL    HW227399   4.341   1.044   5.073 -1.8898 -2.2095 -0.5533
 5256SOL     OW27400   3.342   0.800   1.391 -0.3984  0.3099  0.4301
 5256SOL    HW127401   3.375   0.754   1.468  0.1125  0.2354  0.1668
 5256SOL    HW227402   3.396   0.766   1.319 -1.6662 -3.1984  1.1356
 5257SOL     OW27403   2.395   2.265  10.567  0.5904 -0.2455  0.1283
 5257SOL    HW127404   2.311   2.295  10.534  0.2756  0.3546  1.4442
 5257SOL    HW227405   2.436   2.350  10.584  0.5685 -0.1977 -0.0577
 5258SOL     OW27406   0.132   1.602   2.756 -0.2241  0.0531 -0.3780
 5258SOL    HW127407   0.182   1.525   2.785  0.1994  0.6180  0.3917
 5258SOL    HW227408   0.203   1.663   2.735 -0.1863  0.0656 -0.2175
 5259SOL     OW27409   1.098   2.803   4.366  0.3738  0.2081 -0.0446
 5259SOL    HW127410   1.038   2.821   4.293  0.5419  0.2243 -0.1776
 5259SOL    HW227411   1.154   2.749   4.311  0.3437 -1.7908  1.8593
 5260SOL     OW27412   1.511   0.775   1.827 -0.8935 -0.3893 -0.2620
 5260SOL    HW127413   1.548   0.783   1.915 -1.0158 -2.7177 -0.0110
 5260SOL    HW227414   1.448   0.848   1.830  1.7582  1.9850 -2.3486
 5261SOL     OW27415   0.362   0.721   4.348 -0.2265  0.0844  0.0561
 5261SOL    HW127416   0.391   0.630   4.353  1.0496  0.6555  2.6924
 5261SOL    HW227417   0.341   0.744   4.438  0.9448 -3.5832  1.2728
 5262SOL     OW27418   3.787   2.878   4.085  0.4441 -0.7356 -0.3930
 5262SOL    HW127419   3.770   2.972   4.084 -0.2048 -0.8624 -1.6999
 5262SOL    HW227420   3.879   2.864   4.108  0.7273  1.7788 -0.0126
 5263SOL     OW27421   1.466   3.428   4.554  0.6177  0.2190  0.2614
 5263SOL    HW127422   1.558   3.437   4.531  0.7462 -2.2372 -0.0915
 5263SOL    HW227423   1.433   3.497   4.495  0.8698 -0.1241 -0.2817
 5264SOL     OW27424   1.701   0.120   7.032  0.4205  0.4502  0.5267
 5264SOL    HW127425   1.781   0.080   7.065  0.0111 -1.6754 -1.0895
 5264SOL    HW227426   1.730   0.137   6.942 -0.4825  0.0237  0.1476
 5265SOL     OW27427   2.318   1.710   3.428  0.5175  0.6929  0.3654
 5265SOL    HW127428   2.348   1.701   3.337 -0.0846  0.4693  0.1904
 5265SOL    HW227429   2.262   1.787   3.418  0.2787  0.4139 -0.4679
 5266SOL     OW27430   4.074   3.441  15.199  0.2504  0.6739 -0.3309
 5266SOL    HW127431   4.108   3.502  15.264 -1.4920  2.1093 -0.7668
 5266SOL    HW227432   4.049   3.370  15.257  0.6423  2.2087  1.6994
 5267SOL     OW27433   4.697   4.667   1.267 -0.3052 -0.1456  0.0190
 5267SOL    HW127434   4.607   4.666   1.235  0.4944  0.7732 -2.3079
 5267SOL    HW227435   4.723   0.019   1.265  1.3719 -0.6173  0.1166
 5268SOL     OW27436   1.262   1.105   3.586  0.0457  0.0185  0.1536
 5268SOL    HW127437   1.216   1.183   3.556  0.3108 -0.2549 -0.9785
 5268SOL    HW227438   1.198   1.068   3.646  0.3146  0.1400  0.5133
 5269SOL     OW27439   4.121   4.383   3.636  0.1614  0.2837  0.4743
 5269SOL    HW127440   4.147   4.442   3.708  0.6679 -0.1433  0.6417
 5269SOL    HW227441   4.134   4.425   3.551  0.6445 -0.5814  0.1195
 5270SOL     OW27442   3.964   2.738   1.315  0.0752  0.5167 -0.2418
 5270SOL    HW127443   3.881   2.768   1.279 -1.2969 -2.3334  0.5264
 5270SOL    HW227444   3.944   2.672   1.381 -1.5643 -1.6176 -2.8834
 5271SOL     OW27445   3.101   1.898   2.490  0.7639  0.2254  0.0376
 5271SOL    HW127446   3.060   1.857   2.414 -0.0673 -0.1407  0.6913
 5271SOL    HW227447   3.021   1.920   2.538  0.4364 -3.0387  0.9609
 5272SOL     OW27448   1.827   1.176   8.170 -0.3059 -0.0403 -0.2026
 5272SOL    HW127449   1.770   1.213   8.237  0.7189 -0.4825  0.9082
 5272SOL    HW227450   1.775   1.112   8.121  0.5191 -0.5182 -0.4581
 5273SOL     OW27451   3.021   0.685   5.826  0.5121 -0.0928 -0.8857
 5273SOL    HW127452   3.085   0.614   5.820  0.3321 -0.3358  0.0096
 5273SOL    HW227453   2.946   0.627   5.830 -1.2892  2.1595 -1.8658
 5274SOL     OW27454   0.286   3.563   4.310  0.4024 -0.2905  0.5370
 5274SOL    HW127455   0.253   3.490   4.363 -0.5082 -0.8643 -0.8255
 5274SOL    HW227456   0.347   3.512   4.256 -0.7369 -0.4487 -0.6053
 5275SOL     OW27457   3.245   1.507   6.358 -0.2025  0.4613  0.4283
 5275SOL    HW127458   3.153   1.517   6.334  0.2438 -0.5055 -1.6720
 5275SOL    HW227459   3.264   1.424   6.314  0.4136  0.1400  1.2911
 5276SOL     OW27460   3.032   0.224   2.294 -0.5309 -0.0679 -0.4327
 5276SOL    HW127461   3.099   0.163   2.263 -0.9260 -1.1685  0.9009
 5276SOL    HW227462   3.081   0.305   2.278  2.1737 -2.0585 -2.2554
 5277SOL     OW27463   2.111   1.896   2.227 -0.4233  0.6030  0.9781
 5277SOL    HW127464   2.061   1.875   2.148  1.3347 -0.2703  0.1078
 5277SOL    HW227465   2.201   1.880   2.201 -0.4790  2.0543 -0.1648
 5278SOL     OW27466   2.205   4.521   8.748  0.0635  0.0011 -0.0202
 5278SOL    HW127467   2.203   4.482   8.835 -1.7310  3.5238  1.5361
 5278SOL    HW227468   2.272   4.473   8.699 -1.5533  0.2441 -2.4752
 5279SOL     OW27469   1.744   4.306  11.452  0.2125 -0.2257  0.3941
 5279SOL    HW127470   1.702   4.268  11.530  1.9617 -3.3134 -0.1877
 5279SOL    HW227471   1.834   4.275  11.462  0.9422  0.9362 -2.4692
 5280SOL     OW27472   3.169   0.446   2.358  0.3156  0.7792 -0.0349
 5280SOL    HW127473   3.227   0.386   2.404 -1.6631 -2.0122 -1.1662
 5280SOL    HW227474   3.188   0.518   2.418  2.1252 -1.5268  2.1991
 5281SOL     OW27475   4.133   0.092   2.194  0.8475  0.3246  0.0787
 5281SOL    HW127476   4.092   0.165   2.241  2.0606 -0.6458  2.6120
 5281SOL    HW227477   4.143   0.026   2.261  1.9079  1.1485  0.7265
 5282SOL     OW27478   2.488   2.065  14.950  0.2782 -0.2370  0.1627
 5282SOL    HW127479   2.429   2.022  14.887 -1.8797 -0.5912  2.4151
 5282SOL    HW227480   2.531   2.129  14.893 -0.6357  0.8073  0.6591
 5283SOL     OW27481   1.548   0.632  16.176  0.0489 -0.3101 -0.2342
 5283SOL    HW127482   1.609   0.706  16.172 -2.1837  1.5665  0.8524
 5283SOL    HW227483   1.482   0.664  16.114  0.0958 -2.1522 -1.2287
 5284SOL     OW27484   0.784   0.121   6.183  0.2644  0.5316  0.1108
 5284SOL    HW127485   0.762   0.067   6.258 -3.1084  4.5072  1.9635
 5284SOL    HW227486   0.754   0.063   6.113  1.1813  1.9137 -1.4316
 5285SOL     OW27487   2.423   2.803   2.514  0.3329 -0.3107  0.5043
 5285SOL    HW127488   2.476   2.822   2.591 -1.0658 -0.5028  1.5076
 5285SOL    HW227489   2.436   2.887   2.470  2.4880  0.8874  3.3968
 5286SOL     OW27490   1.212   0.277   8.275 -0.1034  0.4472 -0.4995
 5286SOL    HW127491   1.279   0.329   8.232  0.6113 -0.3356 -0.3245
 5286SOL    HW227492   1.160   0.338   8.326 -1.1549 -1.5308  0.8178
 5287SOL     OW27493   1.890   0.978   7.734 -0.4382 -0.1258 -0.1609
 5287SOL    HW127494   1.890   0.977   7.829 -2.1808  1.6540 -0.1497
 5287SOL    HW227495   1.914   1.070   7.726 -1.2672  0.3324  2.6275
 5288SOL     OW27496   3.482   2.952  17.283 -0.0000  0.3250  0.1627
 5288SOL    HW127497   3.521   3.018  17.340 -0.2953  0.7074 -0.0767
 5288SOL    HW227498   3.543   2.882  17.306  0.9077  0.8590 -0.5833
 5289SOL     OW27499   1.361   1.958   3.447  0.4368  0.4380  0.3155
 5289SOL    HW127500   1.412   1.937   3.525  2.1005 -0.6462 -1.0697
 5289SOL    HW227501   1.437   1.966   3.390 -0.1298  0.4393 -0.4453
 5290SOL     OW27502   2.056   1.446   3.848 -0.0981 -0.1306 -0.5992
 5290SOL    HW127503   2.014   1.449   3.934  1.2901  0.4393  0.0652
 5290SOL    HW227504   2.058   1.540   3.830 -1.4342 -0.3324 -1.8315
 5291SOL     OW27505   3.821   0.921   5.473  0.2127  0.1101 -0.2531
 5291SOL    HW127506   3.772   0.885   5.547 -0.9794  0.4746 -0.8595
 5291SOL    HW227507   3.754   0.969   5.424 -2.1121 -1.0777  1.7345
 5292SOL     OW27508   4.463   0.342  17.243 -0.2176  0.1682  0.7915
 5292SOL    HW127509   4.458   0.436  17.228 -2.0983 -0.1248 -0.3594
 5292SOL    HW227510   4.429   0.301  17.163 -0.0722  0.6690  0.4701
 5293SOL     OW27511   0.581   1.268  13.762 -0.6045 -0.0539  0.4623
 5293SOL    HW127512   0.515   1.305  13.821  0.8850  2.0101  0.8196
 5293SOL    HW227513   0.643   1.338  13.746  1.4389 -1.9824 -0.0642
 5294SOL     OW27514   2.229   1.204   1.627 -0.1565  0.2153  0.8198
 5294SOL    HW127515   2.242   1.172   1.716 -3.1324 -0.9038  0.8723
 5294SOL    HW227516   2.170   1.139   1.588 -1.5250  1.2966  1.0966
 5295SOL     OW27517   2.809   2.116   1.799 -0.0629 -0.1725 -0.1347
 5295SOL    HW127518   2.865   2.169   1.741 -0.5131 -1.2549 -1.5743
 5295SOL    HW227519   2.824   2.031   1.756 -2.7462  0.4994 -2.3872
 5296SOL     OW27520   1.712   3.983  11.364 -0.5951  0.4818  0.6679
 5296SOL    HW127521   1.710   4.063  11.417  1.9651 -1.7886  4.2255
 5296SOL    HW227522   1.664   4.027  11.295  0.4090  0.6851  0.1066
 5297SOL     OW27523   0.348   2.651  15.289 -0.0161 -0.3834 -0.4788
 5297SOL    HW127524   0.340   2.616  15.201 -0.6594  0.5333 -0.7832
 5297SOL    HW227525   0.266   2.699  15.300  0.1562 -0.1013 -0.4241
 5298SOL     OW27526   3.709   1.489   0.596 -0.2941 -0.0334 -0.4587
 5298SOL    HW127527   3.643   1.556   0.610  2.3477  2.3494  0.6070
 5298SOL    HW227528   3.657   1.412   0.573 -1.2866  1.0012 -1.6579
 5299SOL     OW27529   0.714   4.579   6.292  0.5717  0.1096 -0.3586
 5299SOL    HW127530   0.625   4.560   6.320  0.6665  0.9929  0.5704
 5299SOL    HW227531   0.705   4.515   6.222 -1.0311 -0.5765  0.4648
 5300SOL     OW27532   3.684   0.757   2.369 -0.1353 -0.4769  0.2409
 5300SOL    HW127533   3.728   0.765   2.284  0.8792  1.9398  0.9958
 5300SOL    HW227534   3.633   0.838   2.371  1.3182  0.4461 -0.0572
 5301SOL     OW27535   4.052   2.200   6.285  0.0683  0.0497 -0.5792
 5301SOL    HW127536   4.023   2.279   6.238  0.2860  1.4377  1.6074
 5301SOL    HW227537   4.095   2.152   6.214  0.7797 -1.7675  1.0830
 5302SOL     OW27538   1.474   4.167   8.685 -0.0542 -0.1129  0.0744
 5302SOL    HW127539   1.427   4.250   8.693 -0.9749 -0.5238 -1.0332
 5302SOL    HW227540   1.564   4.193   8.704  0.7149 -1.5099 -1.7466
 5303SOL     OW27541   2.319   1.952   3.920  0.0706  0.9515 -0.4114
 5303SOL    HW127542   2.250   1.992   3.974 -0.4278  2.3551 -2.0857
 5303SOL    HW227543   2.296   1.862   3.943  1.0227  0.8289  0.0798
 5304SOL     OW27544   3.284   0.002   1.292 -0.8026  0.5661 -0.0819
 5304SOL    HW127545   3.326   0.020   1.376  0.7913 -1.2143 -0.4913
 5304SOL    HW227546   3.337   0.057   1.234  0.7624 -0.7215  0.1494
 5305SOL     OW27547   3.793   1.479   7.245  0.1349 -0.3175 -0.7030
 5305SOL    HW127548   3.879   1.441   7.263 -0.3417 -1.0951 -0.0712
 5305SOL    HW227549   3.741   1.400   7.234 -2.2375  0.9740  1.1006
 5306SOL     OW27550   1.178   0.785   8.613  0.2893  0.4280  0.0601
 5306SOL    HW127551   1.116   0.764   8.683  1.3605  2.4602  1.5975
 5306SOL    HW227552   1.248   0.820   8.667 -0.3582 -0.0854  1.2231
 5307SOL     OW27553   2.197   4.699  10.717 -0.6308  0.6615  0.0325
 5307SOL    HW127554   2.187   4.705  10.812  0.6725 -2.3364  0.3429
 5307SOL    HW227555   2.218   0.046  10.683 -1.7331  2.1755  3.2117
 5308SOL     OW27556   2.398   2.434   8.927  0.7205  0.1163  0.4800
 5308SOL    HW127557   2.405   2.454   9.020  1.8915  1.6383  0.0662
 5308SOL    HW227558   2.462   2.495   8.889  1.9034 -1.8373 -0.7012
 5309SOL     OW27559   4.731   0.433   5.413  0.1217 -0.6327  0.4552
 5309SOL    HW127560   4.694   0.513   5.374  0.9778 -0.7523 -0.6304
 5309SOL    HW227561   4.693   0.429   5.500  1.9650  0.9288  1.3365
 5310SOL     OW27562   2.565   1.810   7.394  0.6102 -0.0495  0.3970
 5310SOL    HW127563   2.586   1.825   7.486 -1.8828  1.1956  0.7614
 5310SOL    HW227564   2.609   1.890   7.364 -1.4313  0.5590 -0.9797
 5311SOL     OW27565   4.416   2.477   7.999  0.3700  0.0171  0.3046
 5311SOL    HW127566   4.363   2.498   8.076  1.1087  1.9437  0.2940
 5311SOL    HW227567   4.505   2.479   8.035  0.9611  1.1368 -1.1953
 5312SOL     OW27568   2.101   0.178   5.419  0.5143  0.8263 -0.1018
 5312SOL    HW127569   2.026   0.141   5.465 -0.2004  1.2358 -0.9375
 5312SOL    HW227570   2.106   0.134   5.335 -0.1500 -0.2214  0.4133
 5313SOL     OW27571   0.033   3.041   6.396 -0.0754 -0.6949  0.1354
 5313SOL    HW127572   4.735   3.110   6.340  0.5240  0.4473  1.1388
 5313SOL    HW227573   4.708   2.973   6.379  0.4838 -1.0058 -0.7781
 5314SOL     OW27574   4.166   3.249  12.330 -0.3348  0.2073  0.3356
 5314SOL    HW127575   4.150   3.201  12.249 -0.0911  1.4531 -0.4438
 5314SOL    HW227576   4.152   3.181  12.396  0.8063 -0.2436  0.1050
 5315SOL     OW27577   4.568   3.671   5.564 -0.3886 -0.2663 -0.1025
 5315SOL    HW127578   4.511   3.605   5.524 -3.9666  3.4280 -1.0238
 5315SOL    HW227579   4.539   3.673   5.655 -0.9655  2.3667 -0.3468
 5316SOL     OW27580   2.792   1.675   7.767 -0.0343 -1.0054  0.1582
 5316SOL    HW127581   2.881   1.650   7.792  0.0295  0.8379  1.7142
 5316SOL    HW227582   2.741   1.607   7.810 -3.1773  1.3391  0.0872
 5317SOL     OW27583   4.611   4.348   8.807 -0.0430 -0.8046  0.0721
 5317SOL    HW127584   4.543   4.351   8.739  0.7373  1.5912 -0.5819
 5317SOL    HW227585   4.686   4.331   8.751  1.0366 -0.0518  1.3147
 5318SOL     OW27586   0.668   4.398   2.890 -0.2439  0.3570  0.1100
 5318SOL    HW127587   0.578   4.399   2.858 -0.8260  1.5718  1.7593
 5318SOL    HW227588   0.713   4.402   2.806  1.6501 -2.3015  1.0160
 5319SOL     OW27589   1.906   1.900   8.222  0.4522 -0.0838 -0.0076
 5319SOL    HW127590   1.878   1.858   8.303 -0.9761  1.5806  0.3634
 5319SOL    HW227591   1.999   1.893   8.246  0.8128  1.4362 -0.9506
 5320SOL     OW27592   3.183   4.451   7.806  0.0661  0.1036 -0.2796
 5320SOL    HW127593   3.267   4.456   7.852 -0.6127  3.4496  0.5910
 5320SOL    HW227594   3.132   4.520   7.849 -1.6516 -0.7086 -1.0043
 5321SOL     OW27595   2.780   0.098   8.359 -0.3258  0.0386  0.1720
 5321SOL    HW127596   2.707   0.037   8.374  0.2360 -0.5218  0.6255
 5321SOL    HW227597   2.780   0.102   8.264 -1.2131 -1.9510  0.0895
 5322SOL     OW27598   2.646   3.409   5.672 -0.1449 -0.2263 -0.2342
 5322SOL    HW127599   2.603   3.436   5.753 -1.0664 -1.6377 -0.2413
 5322SOL    HW227600   2.589   3.340   5.637 -0.3929  0.5638 -1.4250
 5323SOL     OW27601   1.905   4.397   2.468 -0.4381  0.0200  0.2479
 5323SOL    HW127602   1.840   4.331   2.446 -3.3706  2.4257  1.7376
 5323SOL    HW227603   1.886   4.455   2.395  0.6376 -0.7249 -0.6239
 5324SOL     OW27604   4.428   3.426   5.525 -0.3121  0.5800  0.4993
 5324SOL    HW127605   4.427   3.390   5.436  2.1190 -0.3996  0.8791
 5324SOL    HW227606   4.370   3.360   5.565 -1.7790  1.6270  0.1148
 5325SOL     OW27607   4.037   0.300   3.718  0.5980  0.0948  0.2646
 5325SOL    HW127608   4.046   0.281   3.625  0.5845 -1.3822  0.5666
 5325SOL    HW227609   4.130   0.290   3.736  1.1376  1.5834 -1.6375
 5326SOL     OW27610   0.690   4.336  16.968  0.0440  0.0299 -0.1192
 5326SOL    HW127611   0.677   4.431  16.969 -2.7322 -0.3238 -1.6441
 5326SOL    HW227612   0.653   4.311  16.884 -0.7075 -1.9331  0.8118
 5327SOL     OW27613   0.624   1.223   8.510 -0.0520  0.4997  0.0031
 5327SOL    HW127614   0.717   1.200   8.509  0.0492  0.9019  0.4481
 5327SOL    HW227615   0.584   1.171   8.440 -1.8773  0.5752  0.9991
 5328SOL     OW27616   4.512   1.816   6.176  0.3078 -0.3379  0.1492
 5328SOL    HW127617   4.540   1.758   6.247  0.7254 -0.2757  0.0358
 5328SOL    HW227618   4.436   1.766   6.147  2.7351 -3.2379 -1.2764
 5329SOL     OW27619   0.182   1.856   6.346  1.4355 -0.0921  0.0063
 5329SOL    HW127620   0.152   1.856   6.255 -1.4947 -0.6438  0.9552
 5329SOL    HW227621   0.149   1.773   6.379  0.2042  0.0455 -0.8810
 5330SOL     OW27622   1.543   0.024  16.984  0.1295  0.4957  0.2421
 5330SOL    HW127623   1.508   0.082  16.917 -1.7541  0.7647  1.4497
 5330SOL    HW227624   1.528   4.676  16.947 -2.1095  0.6638  0.7557
 5331SOL     OW27625   3.823   2.535   6.344  0.1315  0.2119  0.0749
 5331SOL    HW127626   3.868   2.489   6.414 -1.3080 -1.6573 -0.2271
 5331SOL    HW227627   3.779   2.609   6.387  1.3723  1.7447 -1.2675
 5332SOL     OW27628   2.719   3.063   1.047 -0.1161 -0.1331  0.0955
 5332SOL    HW127629   2.678   3.148   1.064  3.2157  1.0869  2.1420
 5332SOL    HW227630   2.688   3.011   1.121 -1.1194 -0.2483 -0.4143
 5333SOL     OW27631   3.625   3.849   7.801 -0.1141 -0.1301  0.1482
 5333SOL    HW127632   3.637   3.911   7.873 -0.1175 -0.5617  0.5174
 5333SOL    HW227633   3.621   3.767   7.849 -1.0637  0.2734  0.7548
 5334SOL     OW27634   2.905   2.953   4.243 -0.5032 -0.2312 -0.5466
 5334SOL    HW127635   2.969   2.908   4.298 -0.9130 -2.2841 -1.7122
 5334SOL    HW227636   2.889   2.889   4.173 -1.4480  0.2210 -0.7395
 5335SOL     OW27637   0.409   1.207   7.297  0.5678  0.1744  0.6121
 5335SOL    HW127638   0.363   1.123   7.299  1.6654 -0.4566 -0.0847
 5335SOL    HW227639   0.470   1.189   7.368 -1.0108 -1.5185  1.5406
 5336SOL     OW27640   2.026   3.353   9.309 -0.2567  0.1316 -0.4014
 5336SOL    HW127641   1.968   3.407   9.256 -2.1100  0.3465  1.8757
 5336SOL    HW227642   2.116   3.382   9.292  0.2220 -0.7177  0.6596
 5337SOL     OW27643   1.482   2.779   5.854 -0.2011  0.1046  0.1759
 5337SOL    HW127644   1.548   2.709   5.861 -0.4509  0.0204  1.8452
 5337SOL    HW227645   1.491   2.797   5.761 -2.2687 -1.0390 -0.2399
 5338SOL     OW27646   0.142   2.885  14.559 -0.6717 -0.1040 -0.4347
 5338SOL    HW127647   0.217   2.827  14.544  0.0455 -0.4924  4.7726
 5338SOL    HW227648   0.116   2.856  14.646 -0.8110  0.4250 -0.3020
 5339SOL     OW27649   2.732   1.722   2.081  0.1860 -1.0438 -0.0673
 5339SOL    HW127650   2.718   1.809   2.043 -0.8203 -2.2945 -2.5415
 5339SOL    HW227651   2.733   1.739   2.175 -0.5717 -1.9618  0.1027
 5340SOL     OW27652   1.734   0.779   4.468  0.5065 -0.0523  0.1314
 5340SOL    HW127653   1.790   0.801   4.393 -2.2779  0.2523 -1.8743
 5340SOL    HW227654   1.653   0.792   4.419  0.2882 -0.0018  0.5031
 5341SOL     OW27655   3.897   2.760   1.862  0.2182  0.3658  0.3712
 5341SOL    HW127656   3.915   2.700   1.789  0.5808  0.2667  0.5408
 5341SOL    HW227657   3.872   2.838   1.813  0.6330  0.4525  0.2979
 5342SOL     OW27658   4.581   0.258   7.894  0.3237  0.0005 -0.8084
 5342SOL    HW127659   4.592   0.324   7.963  0.9913  0.3497 -1.2441
 5342SOL    HW227660   4.616   0.177   7.929 -1.6709  0.8127  3.0139
 5343SOL     OW27661   3.474   2.204   9.159  0.4739  0.2349 -0.0815
 5343SOL    HW127662   3.470   2.125   9.104  1.3574  1.1818 -1.5115
 5343SOL    HW227663   3.556   2.175   9.200  0.0999  0.9273  1.1420
 5344SOL     OW27664   4.197   2.232   7.703 -0.0292  0.2846 -0.6044
 5344SOL    HW127665   4.202   2.308   7.761 -0.7568  2.5067 -3.4376
 5344SOL    HW227666   4.272   2.193   7.748 -1.6834 -1.1787  0.8745
 5345SOL     OW27667   0.414   1.858   6.835  0.6055 -0.6167  0.2790
 5345SOL    HW127668   0.343   1.813   6.790  0.1762 -0.6799  1.0220
 5345SOL    HW227669   0.432   1.926   6.769 -1.7959  1.3456  1.6604
 5346SOL     OW27670   0.417   4.349   1.676  0.1678 -0.0722 -0.6284
 5346SOL    HW127671   0.331   4.315   1.651 -0.9052  2.0047  0.2273
 5346SOL    HW227672   0.471   4.332   1.599  0.2576  1.8871 -1.0123
 5347SOL     OW27673   2.918   4.050   7.203 -0.1707 -0.4792 -0.3201
 5347SOL    HW127674   2.974   4.093   7.267 -1.1824 -2.1874  1.7113
 5347SOL    HW227675   2.878   3.981   7.255 -0.1076 -0.9797 -0.9437
 5348SOL     OW27676   2.542   3.684   3.855  0.2027 -0.2591 -0.1411
 5348SOL    HW127677   2.544   3.772   3.892 -2.5947  0.0312 -0.6322
 5348SOL    HW227678   2.483   3.700   3.781 -0.1971 -2.1072 -0.2022
 5349SOL     OW27679   1.098   4.172  16.550 -0.4898  0.4229 -0.1786
 5349SOL    HW127680   1.128   4.118  16.476 -1.5919 -0.7183  0.2214
 5349SOL    HW227681   1.172   4.232  16.561  0.2314 -0.2140 -1.5812
 5350SOL     OW27682   0.223   0.437   6.553  0.0089 -0.3756 -0.4648
 5350SOL    HW127683   0.254   0.514   6.602 -3.9085  0.4904  0.6211
 5350SOL    HW227684   0.135   0.454   6.520 -0.3284  0.4187  0.8651
 5351SOL     OW27685   3.050   2.637   5.256 -0.2984  0.3626  0.2354
 5351SOL    HW127686   3.068   2.553   5.298  0.1776  0.1123 -0.4668
 5351SOL    HW227687   3.136   2.667   5.228  0.9386 -2.1087  1.3648
 5352SOL     OW27688   1.133   0.500   8.760  0.0966  0.0256  0.3532
 5352SOL    HW127689   1.055   0.518   8.707 -0.2124 -3.4447 -0.3754
 5352SOL    HW227690   1.098   0.489   8.849  0.6111  0.9600  0.6803
 5353SOL     OW27691   1.616   4.579   3.726 -0.4075 -0.0463  0.4609
 5353SOL    HW127692   1.561   4.617   3.658  1.3780  1.3614 -0.1644
 5353SOL    HW227693   1.704   4.576   3.689 -1.0759  0.1394 -1.1180
 5354SOL     OW27694   2.539   1.361   9.467 -0.3285 -0.0978 -0.3925
 5354SOL    HW127695   2.547   1.274   9.429  1.0489  0.2869 -0.9874
 5354SOL    HW227696   2.459   1.353   9.518 -0.0789 -1.4422 -0.2106
 5355SOL     OW27697   3.934   2.706  10.936  0.2002  0.2103  0.1488
 5355SOL    HW127698   3.974   2.781  10.893 -1.0623  0.6023 -0.3510
 5355SOL    HW227699   3.874   2.687  10.864 -2.1865 -0.8847  2.4132
 5356SOL     OW27700   0.355   3.437  17.439 -0.1773  0.6349  0.0365
 5356SOL    HW127701   0.449   3.420  17.451  0.1027  1.5273 -0.9145
 5356SOL    HW227702   0.362   3.529  17.413 -4.3513  0.3304 -2.0489
 5357SOL     OW27703   4.479   0.880   5.669  0.1441 -0.1937 -0.1568
 5357SOL    HW127704   4.463   0.937   5.744  0.1894 -2.2715  1.4412
 5357SOL    HW227705   4.515   0.946   5.610  0.7270  1.3999  1.9840
 5358SOL     OW27706   4.264   3.175   3.959 -0.0608 -0.1310  0.3556
 5358SOL    HW127707   4.320   3.249   3.935 -1.1559  0.8704  0.8991
 5358SOL    HW227708   4.178   3.216   3.959 -0.0030 -0.0007 -0.2468
 5359SOL     OW27709   1.797   1.711   7.806  0.1136  0.0999 -0.1271
 5359SOL    HW127710   1.763   1.713   7.716 -1.0784  0.9864  0.3484
 5359SOL    HW227711   1.885   1.673   7.799 -0.4258 -1.1119 -0.4077
 5360SOL     OW27712   4.519   3.249   3.312 -0.1872 -0.0248 -0.2476
 5360SOL    HW127713   4.551   3.318   3.370  0.8047 -2.3599  1.9518
 5360SOL    HW227714   4.582   3.270   3.243 -0.9271  0.9641 -0.6241
 5361SOL     OW27715   4.043   1.524  13.198  0.2722  0.3852  0.1706
 5361SOL    HW127716   4.119   1.482  13.160  0.3942  0.1817  0.6374
 5361SOL    HW227717   4.079   1.537  13.286 -0.0275 -0.5368  0.4218
 5362SOL     OW27718   0.149   2.687  15.806 -0.0858 -0.5217  0.4431
 5362SOL    HW127719   0.097   2.645  15.737  0.3514  1.2152 -0.9402
 5362SOL    HW227720   0.150   2.774  15.766 -0.4876 -0.9118 -0.4084
 5363SOL     OW27721   4.102   1.567  17.135  0.3265  0.1968 -0.4190
 5363SOL    HW127722   4.087   1.491  17.191 -2.2519  1.2792  0.3548
 5363SOL    HW227723   4.072   1.644  17.183  1.1183  0.0831  0.2573
 5364SOL     OW27724   2.236   3.476   7.553  0.2842  0.1754 -0.3461
 5364SOL    HW127725   2.182   3.473   7.474 -0.7657  1.4837  0.3230
 5364SOL    HW227726   2.208   3.389   7.582  3.9557 -1.3464 -1.3612
 5365SOL     OW27727   4.722   2.853   2.289  1.0346 -0.3694 -0.5592
 5365SOL    HW127728   4.691   2.897   2.210 -1.3476 -1.1924 -0.0717
 5365SOL    HW227729   0.075   2.875   2.277  1.0070  0.6789  1.2141
 5366SOL     OW27730   3.966   1.876   6.635  0.3794  0.4056 -0.2049
 5366SOL    HW127731   3.873   1.859   6.651  0.3300  0.7597 -0.1044
 5366SOL    HW227732   3.988   1.925   6.714 -2.3652  2.4565 -0.7008
 5367SOL     OW27733   4.521   2.258  15.449 -0.5397 -0.2988  0.1716
 5367SOL    HW127734   4.437   2.213  15.461 -1.2084  0.5734 -1.2435
 5367SOL    HW227735   4.514   2.332  15.510 -0.7240 -1.2280  1.2729
 5368SOL     OW27736   2.359   2.019   6.022  0.9898 -0.4301 -0.4637
 5368SOL    HW127737   2.291   2.084   6.004  0.4650 -1.1897 -1.2060
 5368SOL    HW227738   2.426   2.073   6.065  1.5288 -1.0235 -0.5537
 5369SOL     OW27739   0.614   3.692   3.550 -0.3068 -0.5084  0.3289
 5369SOL    HW127740   0.553   3.725   3.616  1.0257 -0.2031  1.3963
 5369SOL    HW227741   0.628   3.766   3.490 -2.5546 -0.0792  0.2946
 5370SOL     OW27742   4.079   3.988   5.925 -0.1157  0.2107  0.0978
 5370SOL    HW127743   4.084   3.899   5.888  0.9735 -0.2759  1.4304
 5370SOL    HW227744   4.099   4.050   5.855 -0.3693  1.9232  1.5411
 5371SOL     OW27745   0.238   3.853   2.903  0.0958  0.5519  0.4120
 5371SOL    HW127746   0.173   3.789   2.873  0.5149 -0.8103  2.4264
 5371SOL    HW227747   0.273   3.897   2.826 -2.2275 -0.8601 -1.4276
 5372SOL     OW27748   4.369   0.330   1.275  0.1636  0.6303 -0.4992
 5372SOL    HW127749   4.433   0.282   1.223 -1.9882 -1.8561 -0.8735
 5372SOL    HW227750   4.396   0.421   1.267 -2.0891  1.3689  0.1467
 5373SOL     OW27751   4.697   1.378   4.754  0.1906 -0.1473 -0.2294
 5373SOL    HW127752   4.602   1.375   4.749  0.1675 -0.0146  0.1264
 5373SOL    HW227753   4.731   1.298   4.713 -1.6113 -1.6868  1.2706
 5374SOL     OW27754   2.353   4.347  11.659 -0.2021  0.4958  0.2715
 5374SOL    HW127755   2.386   4.297  11.584 -0.3303  0.4558  0.2416
 5374SOL    HW227756   2.421   4.343  11.726  1.3295 -2.7054 -1.4473
 5375SOL     OW27757   3.367   2.643  12.704 -0.3149  0.6848 -0.4088
 5375SOL    HW127758   3.360   2.718  12.644 -1.0027  1.2048  0.3175
 5375SOL    HW227759   3.450   2.664  12.746  0.4206 -1.2836 -0.9302
 5376SOL     OW27760   1.386   0.638   2.528 -0.1879  0.0045 -0.0681
 5376SOL    HW127761   1.389   0.677   2.440  0.9664 -0.4676 -0.2288
 5376SOL    HW227762   1.301   0.672   2.558 -0.0213  0.2432  0.1308
 5377SOL     OW27763   0.176   4.069  12.314 -0.3542 -0.1090  0.2013
 5377SOL    HW127764   0.098   4.086  12.366  0.8450  0.1937  1.8675
 5377SOL    HW227765   0.182   3.973  12.317 -0.8201 -0.1160  0.7890
 5378SOL     OW27766   2.743   0.630   2.195 -0.2235 -0.5106  0.2528
 5378SOL    HW127767   2.732   0.535   2.203 -0.2011 -0.6122 -0.8867
 5378SOL    HW227768   2.772   0.652   2.283 -0.4578  0.0931  0.1834
 5379SOL     OW27769   1.974   2.571   1.855 -0.3526  0.1162  0.6143
 5379SOL    HW127770   1.991   2.603   1.766 -1.3532  0.3469  0.5012
 5379SOL    HW227771   1.934   2.486   1.839 -1.2209  0.6625 -0.1173
 5380SOL     OW27772   2.055   4.392   6.722 -0.1129 -0.5061  0.3556
 5380SOL    HW127773   2.137   4.379   6.770  0.7419  0.1446 -0.9191
 5380SOL    HW227774   2.083   4.384   6.631 -0.0688  1.3432  0.2148
 5381SOL     OW27775   4.379   3.761   7.164 -0.1424  0.8083  0.0765
 5381SOL    HW127776   4.450   3.701   7.184 -0.1479  0.2124 -1.7005
 5381SOL    HW227777   4.420   3.819   7.100  1.6397  1.0255  1.4265
 5382SOL     OW27778   1.298   2.528   4.010  0.3247 -0.5148 -0.1059
 5382SOL    HW127779   1.214   2.568   3.988 -1.0655 -3.2951  0.2494
 5382SOL    HW227780   1.285   2.434   4.015 -0.2524 -0.3411  1.5686
 5383SOL     OW27781   2.532   2.129   8.540  0.5328  0.4419  0.3418
 5383SOL    HW127782   2.547   2.220   8.566  0.5890  0.5699 -0.1403
 5383SOL    HW227783   2.620   2.099   8.518 -0.0344 -0.9796  0.0162
 5384SOL     OW27784   1.791   2.228   8.181 -0.1494 -0.1685 -0.0777
 5384SOL    HW127785   1.858   2.161   8.175  0.2937  0.0517  2.3192
 5384SOL    HW227786   1.796   2.252   8.273 -3.1761 -0.2266  0.1197
 5385SOL     OW27787   1.582   2.587   2.363 -0.8694  0.3816  0.1445
 5385SOL    HW127788   1.629   2.504   2.365 -0.4696  0.6165  0.3864
 5385SOL    HW227789   1.585   2.606   2.270  4.8784 -0.1329  0.2626
 5386SOL     OW27790   0.844   4.655  17.641  0.3416  0.0969 -0.6790
 5386SOL    HW127791   0.761   4.703  17.649  2.2340  3.3770 -0.5638
 5386SOL    HW227792   0.838   4.573  17.690 -2.5015 -0.9137 -2.7257
 5387SOL     OW27793   2.639   1.364   3.055  0.5554  0.0546 -0.5731
 5387SOL    HW127794   2.594   1.326   2.980 -1.5703 -1.2798  1.4053
 5387SOL    HW227795   2.671   1.444   3.012  0.6505 -0.0155 -0.6350
 5388SOL     OW27796   1.054   1.859  16.268 -0.1159 -0.0837  0.1298
 5388SOL    HW127797   0.986   1.799  16.237  0.2517 -0.8115  0.7181
 5388SOL    HW227798   1.131   1.804  16.254  0.4014  0.0542  2.3648
 5389SOL     OW27799   3.502   0.090   7.320 -0.0018 -0.1952 -0.3172
 5389SOL    HW127800   3.412   0.121   7.309 -0.2187 -0.4559  0.7206
 5389SOL    HW227801   3.542   0.112   7.235 -1.8400 -1.4424 -1.4965
 5390SOL     OW27802   0.022   1.985  14.751  0.1424 -0.0150  0.6886
 5390SOL    HW127803   0.079   1.910  14.740 -0.0106  0.2758 -1.9621
 5390SOL    HW227804   4.683   1.943  14.716  0.0807 -0.1526  0.9865
 5391SOL     OW27805   2.084   3.801   1.794  0.2091  0.0770 -0.0621
 5391SOL    HW127806   1.990   3.807   1.806  0.2096 -0.2178  0.0922
 5391SOL    HW227807   2.104   3.722   1.844 -0.2421 -0.1592 -0.2562
 5392SOL     OW27808   1.963   1.277   4.807  0.0404 -0.5230 -0.1795
 5392SOL    HW127809   1.957   1.254   4.900  0.2759  0.2519  0.0237
 5392SOL    HW227810   1.963   1.188   4.771 -0.4624 -0.1055 -1.1940
 5393SOL     OW27811   0.394   2.770  12.546 -0.2296  0.6372  0.1074
 5393SOL    HW127812   0.387   2.677  12.564 -0.3121  1.1043  2.5070
 5393SOL    HW227813   0.308   2.790  12.509 -0.3144 -0.1175 -0.0958
 5394SOL     OW27814   4.593   2.923   8.181 -0.2786 -0.1123  0.0397
 5394SOL    HW127815   4.663   2.910   8.246  0.1665 -0.9742 -0.6107
 5394SOL    HW227816   4.622   2.989   8.118 -3.6845 -0.4318 -1.8459
 5395SOL     OW27817   4.221   0.498  15.629 -0.1512 -0.0875 -0.0815
 5395SOL    HW127818   4.167   0.550  15.570 -2.0121 -0.8758  0.9467
 5395SOL    HW227819   4.235   0.563  15.698 -1.5860 -1.6828  1.7147
 5396SOL     OW27820   2.352   1.710  14.895  0.0737  0.2213  0.0352
 5396SOL    HW127821   2.304   1.735  14.974  0.7465  5.4738 -1.2007
 5396SOL    HW227822   2.334   1.773  14.825  1.9495  1.2017  0.4384
 5397SOL     OW27823   1.999   2.139   6.572  0.1775  0.3868  0.1387
 5397SOL    HW127824   1.913   2.107   6.546 -0.5968  0.1135  3.0197
 5397SOL    HW227825   2.008   2.205   6.504  1.7834 -0.6480 -0.6654
 5398SOL     OW27826   1.123   1.706   5.451 -0.1635  0.4263  0.3009
 5398SOL    HW127827   1.212   1.726   5.423 -0.0812  0.8844  0.8969
 5398SOL    HW227828   1.079   1.779   5.408 -0.7817  0.3849  0.8564
 5399SOL     OW27829   1.192   2.226   4.690  0.5012 -0.2657 -0.0229
 5399SOL    HW127830   1.275   2.180   4.701  1.5971  2.2374  2.2189
 5399SOL    HW227831   1.225   2.315   4.677 -3.1414  0.5966 -3.3349
 5400SOL     OW27832   0.112   2.864  11.796 -0.1663  0.0178 -0.4148
 5400SOL    HW127833   0.128   2.814  11.715 -0.2701 -0.0501 -0.3928
 5400SOL    HW227834   0.156   2.948  11.783 -0.6702  0.2752 -0.4623
 5401SOL     OW27835   0.057   3.977   2.001 -0.3474 -0.0460  0.2051
 5401SOL    HW127836   0.111   4.037   2.054  0.8225 -1.9663  1.1933
 5401SOL    HW227837   4.716   4.020   2.029  0.2438  0.1039  1.7230
 5402SOL     OW27838   0.778   4.658   1.674 -0.4641 -0.0830  0.2618
 5402SOL    HW127839   0.723   4.735   1.656  0.8206 -0.3970 -4.8180
 5402SOL    HW227840   0.742   4.602   1.606  0.8021  1.4770 -1.6873
 5403SOL     OW27841   2.897   1.674  16.608  0.1979 -0.0294 -0.2960
 5403SOL    HW127842   2.973   1.654  16.662  1.5297  0.6382 -1.9262
 5403SOL    HW227843   2.938   1.743  16.556 -1.4547 -0.2151 -1.8339
 5404SOL     OW27844   3.155   3.687   6.352 -0.3816  0.1482 -0.5521
 5404SOL    HW127845   3.236   3.640   6.331  0.3534  1.6834 -1.1336
 5404SOL    HW227846   3.095   3.619   6.384  0.3027 -0.3805 -0.3863
 5405SOL     OW27847   3.606   2.054   7.795 -0.3512  0.3307  0.3973
 5405SOL    HW127848   3.689   2.069   7.841 -1.7036 -1.1236  3.3265
 5405SOL    HW227849   3.559   2.009   7.866  0.8958 -0.0216  1.0117
 5406SOL     OW27850   4.325   0.663   7.082  0.1065 -0.6054 -0.6894
 5406SOL    HW127851   4.293   0.576   7.105 -1.6545  0.6478  1.5741
 5406SOL    HW227852   4.245   0.715   7.083 -0.7601 -1.9981  1.9411
 5407SOL     OW27853   1.682   1.215   3.104  0.7378 -0.2473 -0.2332
 5407SOL    HW127854   1.653   1.126   3.126 -3.2707  1.2412  0.4832
 5407SOL    HW227855   1.742   1.225   3.178 -0.7615 -0.3429  1.0018
 5408SOL     OW27856   3.823   2.883   7.569 -0.1620 -0.2101 -0.7374
 5408SOL    HW127857   3.860   2.877   7.481 -3.1224 -0.5435 -1.9340
 5408SOL    HW227858   3.734   2.853   7.551  0.3492 -1.0934 -1.7835
 5409SOL     OW27859   3.311   0.727  15.827  0.0423  0.3636  0.1682
 5409SOL    HW127860   3.227   0.703  15.865 -0.0193 -3.8991 -2.6681
 5409SOL    HW227861   3.291   0.820  15.813  2.5558  0.1788 -4.5706
 5410SOL     OW27862   2.944   3.155   6.600  0.0359  0.4567 -0.0330
 5410SOL    HW127863   2.929   3.116   6.514 -0.4385  0.0367  0.2357
 5410SOL    HW227864   2.872   3.218   6.606  1.3708  1.7872  1.9488
 5411SOL     OW27865   1.994   4.409   8.351 -0.3960 -0.3987 -0.2720
 5411SOL    HW127866   1.997   4.416   8.447  1.1893 -2.0010 -0.2142
 5411SOL    HW227867   1.982   4.503   8.336  1.1385  0.1284  1.7345
 5412SOL     OW27868   4.416   3.784  16.640  0.0235  0.8147 -0.1006
 5412SOL    HW127869   4.457   3.823  16.563 -0.9144 -0.0081 -1.0391
 5412SOL    HW227870   4.327   3.817  16.628  0.7457  2.5767 -0.5449
 5413SOL     OW27871   4.056   1.077  13.685  0.3164 -0.2489  0.3501
 5413SOL    HW127872   4.010   1.082  13.602 -1.5854 -0.4897  1.3970
 5413SOL    HW227873   4.101   0.993  13.677 -0.7574 -0.4909 -3.2534
 5414SOL     OW27874   0.954   3.550   2.078 -0.0109 -0.9125  0.5446
 5414SOL    HW127875   0.904   3.522   2.001 -0.9779 -1.3076  1.3066
 5414SOL    HW227876   0.919   3.638   2.093  0.3724 -1.0305  2.1288
 5415SOL     OW27877   3.332   2.135   2.274  0.5620  0.0832  0.0060
 5415SOL    HW127878   3.400   2.076   2.243 -0.1217 -1.1697  0.9245
 5415SOL    HW227879   3.366   2.160   2.360  1.2630 -1.7334  0.2439
 5416SOL     OW27880   2.989   3.873   4.112 -0.4200 -0.6350 -0.4669
 5416SOL    HW127881   3.039   3.924   4.176 -2.0122  1.0690 -0.5767
 5416SOL    HW227882   2.958   3.945   4.057 -1.0436 -0.9754 -0.5591
 5417SOL     OW27883   1.944   3.805   7.088 -0.1103  0.0406  0.2875
 5417SOL    HW127884   1.889   3.809   7.166  1.6296  0.1498  1.5300
 5417SOL    HW227885   1.891   3.785   7.011 -1.3101  0.0312  1.1174
 5418SOL     OW27886   1.919   1.137  11.396  0.1266 -0.2874 -0.0593
 5418SOL    HW127887   1.942   1.073  11.329 -0.6542  0.2019 -0.8105
 5418SOL    HW227888   1.844   1.097  11.440  0.6074 -0.2383  0.8059
 5419SOL     OW27889   4.342   0.676   6.338 -0.0921  0.1605 -0.0194
 5419SOL    HW127890   4.360   0.590   6.376 -0.1166  0.0457 -0.2673
 5419SOL    HW227891   4.383   0.671   6.251 -0.4465  1.0305 -0.2390
 5420SOL     OW27892   1.490   3.961   3.715 -0.2202 -0.1843  0.7024
 5420SOL    HW127893   1.510   4.051   3.740  0.8978 -0.3540  0.4212
 5420SOL    HW227894   1.410   3.971   3.665 -0.0890  0.3458  0.5985
 5421SOL     OW27895   4.108   1.896   1.379  0.0842  0.5862  0.1664
 5421SOL    HW127896   4.189   1.869   1.424  0.5669  1.7320 -0.0115
 5421SOL    HW227897   4.114   1.825   1.316  1.3896  0.9525 -0.1195
 5422SOL     OW27898   1.310   0.118   5.771 -0.1273  0.8272 -0.0836
 5422SOL    HW127899   1.364   0.177   5.719  3.3273 -1.7958  0.5205
 5422SOL    HW227900   1.374   0.054   5.804 -0.0122  0.4628 -1.0256
 5423SOL     OW27901   0.316   4.287  16.611  0.0276  0.0780  0.4161
 5423SOL    HW127902   0.311   4.381  16.627  3.2003  0.1546  0.7887
 5423SOL    HW227903   0.395   4.278  16.559 -0.2010  2.2851 -0.3017
 5424SOL     OW27904   1.943   1.684   6.890 -0.1513 -0.4960  0.3543
 5424SOL    HW127905   1.852   1.686   6.862  0.3128  0.3063 -1.1253
 5424SOL    HW227906   1.941   1.616   6.957 -2.3924 -0.4164  0.3611
 5425SOL     OW27907   2.375   2.815   4.207  0.2363  0.1862  0.1554
 5425SOL    HW127908   2.427   2.819   4.126  0.2645 -2.3023  0.0459
 5425SOL    HW227909   2.440   2.835   4.274 -2.0042 -0.0979  2.3838
 5426SOL     OW27910   3.978   2.596   5.324 -0.5886  0.3471  0.4043
 5426SOL    HW127911   4.061   2.582   5.370 -0.2961  1.1475  0.1154
 5426SOL    HW227912   3.923   2.626   5.397  1.2092  1.3201  1.3669
 5427SOL     OW27913   0.919   2.127   6.930  0.1386  0.2631  0.3375
 5427SOL    HW127914   0.963   2.047   6.902 -1.9687 -0.5399 -0.6310
 5427SOL    HW227915   0.828   2.102   6.915 -0.6434  2.2724  1.7227
 5428SOL     OW27916   3.069   0.404   3.769 -0.6093 -0.4780  0.3185
 5428SOL    HW127917   3.110   0.386   3.854  0.3647  0.8050  0.1111
 5428SOL    HW227918   2.989   0.451   3.792  0.1525  0.6471  0.6473
 5429SOL     OW27919   0.753   0.013  15.135 -0.5216  0.5514  0.6487
 5429SOL    HW127920   0.839   0.048  15.113 -0.3533 -0.7004 -0.6644
 5429SOL    HW227921   0.743   4.684  15.069 -2.9537 -0.6067  2.2253
 5430SOL     OW27922   1.170   3.704   8.846 -0.3260 -0.1155 -0.0716
 5430SOL    HW127923   1.198   3.738   8.931 -1.5253  0.3891  0.1205
 5430SOL    HW227924   1.081   3.735   8.830  1.2526  4.2747 -0.4630
 5431SOL     OW27925   2.193   0.668   4.148 -0.3949 -0.2125  0.2509
 5431SOL    HW127926   2.284   0.697   4.142 -0.4146 -0.0502  0.7937
 5431SOL    HW227927   2.154   0.730   4.209 -0.2324 -1.9676  2.1366
 5432SOL     OW27928   3.760   1.849   2.227 -0.0067 -0.2559  0.2711
 5432SOL    HW127929   3.803   1.799   2.296 -0.1504  0.6116  0.9753
 5432SOL    HW227930   3.826   1.915   2.204  0.6217 -1.9316 -2.8121
 5433SOL     OW27931   0.315   2.178  13.578 -0.0858 -0.5106  0.3521
 5433SOL    HW127932   0.226   2.208  13.595  0.4118  0.8612  0.4941
 5433SOL    HW227933   0.359   2.249  13.624  1.0189 -0.4814 -0.7434
 5434SOL     OW27934   1.432   4.468   2.070 -1.1187 -0.3107 -0.0520
 5434SOL    HW127935   1.481   4.412   2.011  0.3197 -0.3677  1.1906
 5434SOL    HW227936   1.364   4.497   2.009 -1.5121 -0.6223  0.2386
 5435SOL     OW27937   0.057   3.056   4.264 -0.0340 -0.9240 -0.2449
 5435SOL    HW127938   0.080   3.142   4.229 -0.0729 -0.8093  0.0132
 5435SOL    HW227939   4.711   3.069   4.302 -0.4058  0.6259 -1.6500
 5436SOL     OW27940   0.366   3.523  13.618 -0.0944 -0.3812 -0.0945
 5436SOL    HW127941   0.393   3.441  13.660  0.6230  0.2798  0.7601
 5436SOL    HW227942   0.358   3.493  13.528 -0.3504  0.3055 -0.2959
 5437SOL     OW27943   4.412   2.863  14.459 -0.2818 -0.7694 -0.2582
 5437SOL    HW127944   4.405   2.768  14.455  0.4058 -0.7352 -2.3191
 5437SOL    HW227945   4.322   2.897  14.457  0.5720  1.4930  0.2674
 5438SOL     OW27946   4.618   3.302  11.724  0.4502 -0.3205  0.4373
 5438SOL    HW127947   4.698   3.327  11.771  0.8929 -1.2654  0.1863
 5438SOL    HW227948   4.630   3.207  11.717  0.4186 -0.2704 -0.2232
 5439SOL     OW27949   4.095   4.069   2.584  0.3029 -0.1181  0.4064
 5439SOL    HW127950   4.060   4.100   2.668 -0.8563 -0.8707  0.2045
 5439SOL    HW227951   4.014   4.026   2.556 -0.4973 -0.9219  3.9258
 5440SOL     OW27952   2.234   3.131   8.779 -0.3103  0.0435 -0.2572
 5440SOL    HW127953   2.237   3.220   8.743 -0.0555  0.3670  0.5588
 5440SOL    HW227954   2.160   3.090   8.736 -0.5216 -1.0747  1.1890
 5441SOL     OW27955   1.866   4.451   7.711  0.8007 -0.1535  0.2489
 5441SOL    HW127956   1.855   4.545   7.700 -0.0239 -0.1182  1.3326
 5441SOL    HW227957   1.841   4.445   7.803  0.8097  0.0467  0.2649
 5442SOL     OW27958   3.616   1.821   9.268  0.7480  0.4068  0.2107
 5442SOL    HW127959   3.596   1.869   9.348 -0.7485 -0.4872  0.3651
 5442SOL    HW227960   3.588   1.878   9.197 -0.1868  1.2369  1.2550
 5443SOL     OW27961   4.110   2.185   4.234 -0.2068  0.6063 -0.2542
 5443SOL    HW127962   4.048   2.251   4.203  1.3498  1.5498 -1.4014
 5443SOL    HW227963   4.132   2.140   4.153 -0.6362 -0.0172 -0.0175
 5444SOL     OW27964   3.275   1.350   2.529  0.0253  0.0558 -0.1007
 5444SOL    HW127965   3.304   1.333   2.619  1.1095  3.0538  0.1032
 5444SOL    HW227966   3.318   1.435   2.517  0.1634  0.1712  1.1396
 5445SOL     OW27967   0.800   1.189   6.664  0.0911 -0.1836  0.2885
 5445SOL    HW127968   0.719   1.237   6.647  0.9237  0.6016 -1.4770
 5445SOL    HW227969   0.761   1.102   6.655  0.1346  0.0818 -2.4492
 5446SOL     OW27970   2.443   3.736   0.868  0.4084 -0.1567  0.0573
 5446SOL    HW127971   2.506   3.805   0.847  2.1340 -2.0039 -0.7969
 5446SOL    HW227972   2.448   3.720   0.962 -0.4033 -1.8489 -0.1785
 5447SOL     OW27973   2.081   2.778   8.335 -0.3622  0.3476 -0.0247
 5447SOL    HW127974   2.078   2.837   8.410  1.9793  0.7268 -0.2315
 5447SOL    HW227975   1.997   2.736   8.353 -0.5929  0.1885 -1.5258
 5448SOL     OW27976   4.620   2.747   4.851 -0.4169  0.0908  0.4918
 5448SOL    HW127977   4.566   2.826   4.849 -0.9160 -0.2782 -1.5544
 5448SOL    HW227978   4.708   2.785   4.852 -0.3691  0.0552 -1.1773
 5449SOL     OW27979   4.483   4.159   3.178 -0.1782 -0.2720 -0.0381
 5449SOL    HW127980   4.533   4.237   3.157 -1.1458  0.0166 -1.2587
 5449SOL    HW227981   4.551   4.095   3.156 -1.8126 -1.6971 -0.9251
 5450SOL     OW27982   3.172   2.542   6.118  0.0411  0.0967  0.3899
 5450SOL    HW127983   3.242   2.489   6.156  0.1858  0.7355  1.0042
 5450SOL    HW227984   3.096   2.495   6.152  0.4017  0.4824  1.6934
 5451SOL     OW27985   2.847   3.495   4.433  0.1257 -1.0114 -0.0714
 5451SOL    HW127986   2.857   3.567   4.371 -2.9246 -0.0654  0.5541
 5451SOL    HW227987   2.880   3.540   4.511 -0.5689 -0.1772 -0.2570
 5452SOL     OW27988   2.759   2.303   2.250 -0.2091  0.7771  0.8953
 5452SOL    HW127989   2.745   2.386   2.205  1.4769  0.0241 -1.0298
 5452SOL    HW227990   2.680   2.285   2.300 -1.4694  1.8843 -0.6939
 5453SOL     OW27991   1.641   4.034   6.042  0.4070  0.2167 -0.2997
 5453SOL    HW127992   1.661   4.021   5.949  0.2994 -1.8870 -0.0354
 5453SOL    HW227993   1.546   4.022   6.044  0.3263  0.2296 -2.8898
 5454SOL     OW27994   1.433   4.232   2.745 -0.1071  0.5950  0.5195
 5454SOL    HW127995   1.467   4.316   2.717  1.6880 -0.3833 -0.2648
 5454SOL    HW227996   1.378   4.246   2.821 -0.7118 -0.2625  0.2520
 5455SOL     OW27997   2.465   4.411   3.239 -0.3802 -0.3850  0.0619
 5455SOL    HW127998   2.555   4.425   3.210 -1.1764  1.9010 -1.2849
 5455SOL    HW227999   2.456   4.317   3.226 -1.4888 -0.4897  1.5386
 5456SOL     OW28000   4.621   4.462   7.650  0.0174 -0.3808  0.2891
 5456SOL    HW128001   4.635   4.442   7.557  1.2492  0.2085  0.3381
 5456SOL    HW228002   4.528   4.442   7.661 -0.6509  2.0054 -0.9131
 5457SOL     OW28003   1.145   3.761  13.735 -0.9478 -0.2962  0.1519
 5457SOL    HW128004   1.144   3.857  13.731  0.6673 -0.2757  0.1814
 5457SOL    HW228005   1.094   3.734  13.658 -0.8518  2.0204 -0.7265
 5458SOL     OW28006   0.639   4.317  16.707  0.2720  0.1211 -0.4624
 5458SOL    HW128007   0.725   4.358  16.701 -0.2147  1.5603  2.3617
 5458SOL    HW228008   0.629   4.322  16.612 -0.3880 -1.2886 -0.4568
 5459SOL     OW28009   2.732   4.167   2.155  0.1598  0.4179  0.0499
 5459SOL    HW128010   2.806   4.217   2.190  0.3554  1.0228 -1.2443
 5459SOL    HW228011   2.666   4.179   2.223 -1.4210 -0.2666 -1.3873
 5460SOL     OW28012   2.765   0.472   1.875  0.3989 -0.0495 -0.1511
 5460SOL    HW128013   2.760   0.428   1.791  2.9980  0.8217 -0.7656
 5460SOL    HW228014   2.836   0.535   1.863 -1.4547  1.7479 -1.6359
 5461SOL     OW28015   0.367   4.332  17.082 -0.1533 -0.3335  0.1010
 5461SOL    HW128016   0.414   4.288  17.012  2.4530  1.7973  0.4866
 5461SOL    HW228017   0.311   4.396  17.039 -1.6580 -2.7296 -1.4608
 5462SOL     OW28018   1.148   4.097   2.839 -0.2339  0.2938  0.6212
 5462SOL    HW128019   1.212   4.079   2.908  1.5080  2.0599 -0.5552
 5462SOL    HW228020   1.099   4.152   2.899 -0.3540 -2.4680  3.0561
 5463SOL     OW28021   0.914   4.045   6.195  0.1001  0.1702  0.1522
 5463SOL    HW128022   1.009   4.054   6.205  0.2186 -0.1937 -0.6563
 5463SOL    HW228023   0.894   3.981   6.264  1.3433  0.2807  0.6210
 5464SOL     OW28024   4.263   2.653   5.081  0.1331  0.1489 -0.3559
 5464SOL    HW128025   4.278   2.558   5.075 -1.1485 -0.0375 -0.6527
 5464SOL    HW228026   4.241   2.648   5.174  0.4642 -2.4889 -0.4147
 5465SOL     OW28027   0.566   2.587  14.929  0.5284  0.5726 -0.6814
 5465SOL    HW128028   0.637   2.592  14.993 -0.2033  0.5619  0.1302
 5465SOL    HW228029   0.610   2.609  14.847  0.1283  1.4563 -0.6638
 5466SOL     OW28030   4.623   0.129   2.692 -0.0062 -0.4983  0.1609
 5466SOL    HW128031   4.692   0.069   2.722 -0.3553 -0.9487  0.0511
 5466SOL    HW228032   4.654   0.153   2.605  0.0518 -2.1458 -0.2715
 5467SOL     OW28033   0.447   3.287   8.707 -0.0073 -0.1028 -1.0284
 5467SOL    HW128034   0.470   3.345   8.780 -0.6445  0.9920 -1.6948
 5467SOL    HW228035   0.442   3.206   8.758  0.0023  1.0494  0.8072
 5468SOL     OW28036   2.117   1.264   2.578 -0.3008  0.5870  0.0866
 5468SOL    HW128037   2.130   1.250   2.672  4.8921  1.9563 -0.3757
 5468SOL    HW228038   2.080   1.352   2.578  1.7514  1.4611 -0.8415
 5469SOL     OW28039   4.012   3.722   9.954  0.1729  0.6019 -0.1767
 5469SOL    HW128040   4.040   3.654  10.015  1.6871  0.5849 -0.8712
 5469SOL    HW228041   4.016   3.663   9.879  0.0745  0.9606 -0.4636
 5470SOL     OW28042   1.728   2.615  16.466  0.1216  0.3266  0.5902
 5470SOL    HW128043   1.660   2.679  16.489  1.3185  1.6069  0.5588
 5470SOL    HW228044   1.764   2.597  16.553 -0.9231 -0.0023  0.9582
 5471SOL     OW28045   0.288   2.109  15.469  0.1020  0.1355  0.4973
 5471SOL    HW128046   0.260   2.036  15.413  1.2398 -1.1494  1.6035
 5471SOL    HW228047   0.279   2.181  15.406  1.6138 -1.1452 -1.1896
 5472SOL     OW28048   2.373   1.103   5.112 -0.8342  0.2172  0.0397
 5472SOL    HW128049   2.365   1.029   5.172 -1.1451 -0.5009 -0.8979
 5472SOL    HW228050   2.425   1.066   5.041  1.9927  3.0990  0.5881
 5473SOL     OW28051   1.808   2.098  13.260  0.5161  0.3169 -0.0738
 5473SOL    HW128052   1.839   2.012  13.288 -1.0599  0.8344  3.3484
 5473SOL    HW228053   1.883   2.148  13.293  0.5963  1.6772 -2.3121
 5474SOL     OW28054   2.144   3.086   2.552  0.2007 -0.5248 -0.3860
 5474SOL    HW128055   2.136   3.151   2.622  0.4505 -0.0877 -0.7628
 5474SOL    HW228056   2.204   3.017   2.578  0.2120 -1.2104 -2.2821
 5475SOL     OW28057   0.699   0.788  13.499  0.1626  0.0795 -0.2573
 5475SOL    HW128058   0.751   0.838  13.562 -1.3082  3.9634 -2.1315
 5475SOL    HW228059   0.667   0.852  13.436  3.3081  0.8025 -1.1257
 5476SOL     OW28060   0.210   3.118  11.776 -0.5119 -0.5396  0.4927
 5476SOL    HW128061   0.168   3.204  11.788 -0.6829 -0.6720  0.8570
 5476SOL    HW228062   0.273   3.136  11.845 -0.2217  0.1910  0.0413
 5477SOL     OW28063   4.663   0.319   1.499 -0.7120  0.6674  0.3852
 5477SOL    HW128064   4.674   0.414   1.504 -0.9173  0.7154 -0.1028
 5477SOL    HW228065   4.575   0.304   1.533 -1.8595  2.7190 -1.7051
 5478SOL     OW28066   0.580   2.738  15.709 -0.0966 -0.0666  0.0995
 5478SOL    HW128067   0.527   2.701  15.779  1.3534 -2.6339 -0.1387
 5478SOL    HW228068   0.601   2.827  15.736  0.0372 -0.1703  0.3335
 5479SOL     OW28069   1.666   1.479   3.184  0.1832  0.0141 -0.2678
 5479SOL    HW128070   1.671   1.392   3.144  2.2593  0.5256 -1.1121
 5479SOL    HW228071   1.602   1.459   3.253  0.2578 -1.1387 -0.5297
 5480SOL     OW28072   3.044   0.175   5.763 -0.4060  0.3189 -0.3708
 5480SOL    HW128073   3.078   0.121   5.692 -0.5584  1.1829 -1.0920
 5480SOL    HW228074   3.006   0.249   5.715  2.3571  1.0054 -1.4506
 5481SOL     OW28075   0.266   0.487   4.810  0.2574 -0.1485  0.0493
 5481SOL    HW128076   0.198   0.482   4.876 -1.4678  0.0155 -1.7078
 5481SOL    HW228077   0.312   0.570   4.826  1.9233 -1.1283  0.4131
 5482SOL     OW28078   3.335   1.886   3.652  0.2520  0.4049  0.0726
 5482SOL    HW128079   3.302   1.873   3.741 -1.7468 -1.9113 -0.9714
 5482SOL    HW228080   3.273   1.840   3.595  0.1042  2.1443 -1.1465
 5483SOL     OW28081   0.882   2.882   2.364  0.1437  0.0732 -0.2433
 5483SOL    HW128082   0.932   2.959   2.340 -0.4695  0.1618 -1.2069
 5483SOL    HW228083   0.904   2.827   2.289  0.4488  1.5049 -1.1893
 5484SOL     OW28084   3.541   3.151   6.131 -0.0193 -0.3892 -0.0358
 5484SOL    HW128085   3.457   3.132   6.091 -0.7399 -0.6077  1.5939
 5484SOL    HW228086   3.516   3.189   6.215  0.4751  1.5634 -0.7734
 5485SOL     OW28087   3.206   4.278   6.171 -0.0025  0.8073  0.1046
 5485SOL    HW128088   3.125   4.300   6.125 -1.0791 -0.8979  1.1574
 5485SOL    HW228089   3.248   4.215   6.113  2.4997  1.4061  1.2605
 5486SOL     OW28090   3.551   2.015   2.155 -0.2492  0.0435  0.3521
 5486SOL    HW128091   3.618   1.959   2.194 -0.4616  1.1816  2.3258
 5486SOL    HW228092   3.610   2.081   2.118 -1.0566 -0.2880 -1.5554
 5487SOL     OW28093   0.768   0.239   0.546 -0.1485  0.3523 -0.0179
 5487SOL    HW128094   0.713   0.310   0.579  1.0404  1.4859 -0.4465
 5487SOL    HW228095   0.718   0.220   0.467  0.5436 -0.9065 -0.1488
 5488SOL     OW28096   1.704   3.064   5.614 -0.2279 -0.2727  0.4147
 5488SOL    HW128097   1.743   3.048   5.701 -2.3092 -1.0037  1.2107
 5488SOL    HW228098   1.736   2.989   5.564  0.0965  0.5651 -0.6299
 5489SOL     OW28099   1.790   3.243   2.126 -0.7260 -0.1985  0.0907
 5489SOL    HW128100   1.884   3.227   2.118 -1.0123 -1.2021 -1.2498
 5489SOL    HW228101   1.755   3.166   2.081  2.1538 -0.5353 -1.6023
 5490SOL     OW28102   1.778   4.383  10.232  0.1732  0.1276 -0.1192
 5490SOL    HW128103   1.834   4.320  10.278  0.3275 -2.0017 -3.2286
 5490SOL    HW228104   1.784   4.348  10.143 -1.0230 -0.2145 -0.0572
 5491SOL     OW28105   1.480   2.379   3.457  0.2762  0.1512  0.5209
 5491SOL    HW128106   1.466   2.343   3.545 -0.1669  1.5233  1.0079
 5491SOL    HW228107   1.552   2.317   3.441 -2.6451 -3.3102  0.9559
 5492SOL     OW28108   2.822   3.057  12.436  0.3134  0.0728  0.0760
 5492SOL    HW128109   2.794   3.103  12.357 -0.2824 -2.4133 -1.1594
 5492SOL    HW228110   2.742   3.010  12.458 -1.0051  2.4420  0.2724
 5493SOL     OW28111   3.641   0.016  10.514  0.0503  0.0069 -0.5716
 5493SOL    HW128112   3.570   0.040  10.573 -0.5616 -1.9895 -0.4743
 5493SOL    HW228113   3.682   4.676  10.547  0.1508 -0.6607 -2.2715
 5494SOL     OW28114   2.302   3.155   8.247 -0.1265 -0.0469 -0.4978
 5494SOL    HW128115   2.283   3.248   8.235 -1.8729  0.1190  3.5684
 5494SOL    HW228116   2.230   3.107   8.205 -0.9513  0.2676  0.5558
 5495SOL     OW28117   3.822   1.248   1.790  0.9671  0.1608  0.1024
 5495SOL    HW128118   3.759   1.212   1.727  1.3240  0.9883 -0.7116
 5495SOL    HW228119   3.792   1.339   1.794  0.6105  0.1066 -1.3525
 5496SOL     OW28120   2.342   0.812   5.168  0.2574  0.0606 -0.4565
 5496SOL    HW128121   2.315   0.797   5.259  2.4813 -1.4725 -0.0353
 5496SOL    HW228122   2.360   0.721   5.146 -1.6525  0.0747 -1.9803
 5497SOL     OW28123   1.836   3.986   8.448  0.4216 -0.3409 -0.2523
 5497SOL    HW128124   1.800   4.009   8.362 -1.0361  0.8257  0.6742
 5497SOL    HW228125   1.824   3.892   8.457 -0.5748 -0.1772  0.1286
 5498SOL     OW28126   4.514   3.236  17.170  0.6353  1.0169  0.3197
 5498SOL    HW128127   4.543   3.265  17.083 -0.8378 -0.3367 -0.5995
 5498SOL    HW228128   4.590   3.261  17.224  0.3929  1.0190  0.6559
 5499SOL     OW28129   0.779   3.092   4.869 -0.4986  0.2681 -0.3177
 5499SOL    HW128130   0.843   3.163   4.861  0.7972 -0.6810  1.7374
 5499SOL    HW228131   0.814   3.034   4.936 -0.2432 -0.3014 -0.9424
 5500SOL     OW28132   0.680   0.286   8.166  0.4657 -0.3516 -0.0526
 5500SOL    HW128133   0.665   0.343   8.092  0.8515  1.1066  0.9935
 5500SOL    HW228134   0.590   0.278   8.198  0.7070 -1.3556  0.3867
 5501SOL     OW28135   1.890   2.655   0.285  0.2868  0.1587 -0.4724
 5501SOL    HW128136   1.809   2.662   0.234  0.4134  0.0591 -0.6895
 5501SOL    HW228137   1.941   2.646   0.204 -0.2720 -2.2992 -0.5653
 5502SOL     OW28138   1.681   2.935   7.314  0.2398  0.3454 -0.4506
 5502SOL    HW128139   1.677   2.839   7.315  0.6587  0.3420  0.6851
 5502SOL    HW228140   1.636   2.952   7.396  0.2583  0.5726 -0.4885
 5503SOL     OW28141   4.451   4.232   7.194  0.2794  0.9373 -0.5243
 5503SOL    HW128142   4.491   4.155   7.154  0.0196  1.1938 -1.2760
 5503SOL    HW228143   4.517   4.302   7.200 -0.6794  1.3380  5.7109
 5504SOL     OW28144   4.266   4.238  15.355 -0.1194  0.7587  0.1397
 5504SOL    HW128145   4.361   4.245  15.347 -0.1189 -2.8420 -2.8179
 5504SOL    HW228146   4.253   4.147  15.382 -3.1478 -0.1810 -4.4268
 5505SOL     OW28147   3.726   1.747   6.694  0.4760 -0.1584  0.0183
 5505SOL    HW128148   3.691   1.716   6.778  0.2831 -0.9446 -0.3557
 5505SOL    HW228149   3.640   1.761   6.654 -0.6682 -0.3120  2.4351
 5506SOL     OW28150   3.612   4.501   9.067 -0.2213  0.4648 -0.0644
 5506SOL    HW128151   3.621   4.492   9.162 -0.7777  4.8042  0.4028
 5506SOL    HW228152   3.519   4.516   9.055 -0.1249  2.9439  2.3966
 5507SOL     OW28153   0.941   0.944  11.420  0.2905  0.5182 -0.3147
 5507SOL    HW128154   0.961   1.032  11.387 -1.0465 -0.4422 -3.5826
 5507SOL    HW228155   0.852   0.965  11.447  1.0289  3.6889 -0.2937
 5508SOL     OW28156   0.307   2.638   0.163 -0.1438  0.4404 -0.5404
 5508SOL    HW128157   0.360   2.558   0.166 -2.3222 -0.8884  2.9039
 5508SOL    HW228158   0.304   2.644   0.259 -2.2020 -1.8953 -0.4454
 5509SOL     OW28159   1.866   3.145   3.979  0.3516  0.2864 -0.0734
 5509SOL    HW128160   1.936   3.104   3.928  0.6057 -0.0399  0.5448
 5509SOL    HW228161   1.910   3.201   4.042  2.1209 -2.4908  1.1458
 5510SOL     OW28162   2.269   1.684   2.900 -0.5972  0.5727 -0.4434
 5510SOL    HW128163   2.286   1.752   2.835 -0.7584 -0.3369 -1.4443
 5510SOL    HW228164   2.213   1.727   2.964 -2.4222  0.6159 -2.0808
 5511SOL     OW28165   4.536   4.283  15.337  0.4640  0.2424  0.6972
 5511SOL    HW128166   4.632   4.284  15.331  0.3575  1.0382 -0.8073
 5511SOL    HW228167   4.502   4.369  15.316  2.1381  0.6039 -0.5427
 5512SOL     OW28168   0.975   0.299   2.530  0.0326 -0.4081 -0.3845
 5512SOL    HW128169   0.913   0.284   2.602  1.0534  1.1585  0.8213
 5512SOL    HW228170   0.926   0.352   2.467 -0.7814 -0.9689 -0.2298
 5513SOL     OW28171   2.136   0.417   4.072  0.0025  0.0953  0.4409
 5513SOL    HW128172   2.184   0.417   3.989 -0.6891  0.2144  0.0415
 5513SOL    HW228173   2.153   0.508   4.094  0.1182  0.5542 -1.4979
 5514SOL     OW28174   0.458   1.121   2.925 -0.3300  0.6583  0.0679
 5514SOL    HW128175   0.478   1.159   2.839  0.7769  0.9622  0.4543
 5514SOL    HW228176   0.369   1.096   2.900  0.1946 -1.1260 -0.0612
 5515SOL     OW28177   4.012   0.143  16.977  0.1245 -0.0564  0.3180
 5515SOL    HW128178   4.072   0.068  16.975 -0.9028 -0.8271 -1.3540
 5515SOL    HW228179   4.070   0.214  16.951  0.5977 -0.7704 -0.5873
 5516SOL     OW28180   1.337   3.289  10.813  0.4306  0.0511  0.3338
 5516SOL    HW128181   1.359   3.272  10.905 -1.6223  0.0506  0.8241
 5516SOL    HW228182   1.372   3.376  10.795 -1.6900  0.6915 -0.6642
 5517SOL     OW28183   0.577   0.537   3.998  0.3781  0.4856  0.4038
 5517SOL    HW128184   0.587   0.480   3.921  2.0089  1.2170  0.0829
 5517SOL    HW228185   0.552   0.619   3.956  1.5969 -0.2510 -1.7523
 5518SOL     OW28186   2.049   0.949   7.384 -0.0966  0.2908 -0.1616
 5518SOL    HW128187   2.060   1.044   7.379 -0.8979  0.3582 -0.6203
 5518SOL    HW228188   1.990   0.937   7.309 -1.3905 -0.4340  0.9765
 5519SOL     OW28189   4.086   4.737   6.119 -0.4714 -0.0421  0.6299
 5519SOL    HW128190   4.008   0.036   6.157 -0.2218  0.5539  0.5299
 5519SOL    HW228191   4.046   4.672   6.061  1.7160 -1.2416  0.4478
 5520SOL     OW28192   2.492   1.179   1.970  0.2587  0.7729  0.0167
 5520SOL    HW128193   2.520   1.101   2.018  0.0611 -0.4625 -1.8634
 5520SOL    HW228194   2.417   1.203   2.025  0.9781 -5.1627  3.5424
 5521SOL     OW28195   2.259   3.133   6.490  0.3007 -0.0649  0.0939
 5521SOL    HW128196   2.178   3.121   6.541 -0.5033  0.5012 -1.0667
 5521SOL    HW228197   2.318   3.076   6.540 -0.3537  0.8568  1.9247
 5522SOL     OW28198   3.277   1.525  13.430 -0.6900 -0.5466 -0.1528
 5522SOL    HW128199   3.245   1.507  13.518 -0.3285  0.8005  0.2498
 5522SOL    HW228200   3.279   1.620  13.433 -1.5339 -0.4988 -0.7765
 5523SOL     OW28201   0.142   3.143  16.150  0.2712  0.3491 -0.4831
 5523SOL    HW128202   0.236   3.141  16.133  0.1788 -0.7082 -0.8197
 5523SOL    HW228203   0.142   3.141  16.245  0.4735 -0.1781 -0.4985
 5524SOL     OW28204   2.069   0.197  13.218  0.2897  0.4738  0.1640
 5524SOL    HW128205   2.094   0.119  13.268 -2.1096  1.0322  2.2455
 5524SOL    HW228206   2.071   0.171  13.126 -1.7494  1.1241 -0.0798
 5525SOL     OW28207   4.271   2.356   4.645  0.0467 -0.1380  0.6227
 5525SOL    HW128208   4.317   2.318   4.571 -1.1197  2.5130 -1.4887
 5525SOL    HW228209   4.328   2.352   4.721 -0.1959  0.7330  0.8515
 5526SOL     OW28210   0.372   3.945  14.795  0.5254 -0.1641  0.0163
 5526SOL    HW128211   0.363   3.856  14.829 -4.9971 -0.6204 -2.7512
 5526SOL    HW228212   0.295   3.952  14.739  0.5304 -0.8726 -0.0792
 5527SOL     OW28213   0.391   0.693  12.816 -0.2565 -0.3628  0.0157
 5527SOL    HW128214   0.429   0.613  12.852 -0.8051  0.6543  2.8752
 5527SOL    HW228215   0.310   0.695  12.867 -0.0600 -1.0324  0.3531
 5528SOL     OW28216   0.583   2.615   7.239 -0.6012 -0.3704 -0.4784
 5528SOL    HW128217   0.533   2.667   7.177  0.8684  2.1320  0.4315
 5528SOL    HW228218   0.591   2.535   7.187 -4.1800 -1.1183  0.1351
 5529SOL     OW28219   0.863   4.582   9.123 -0.1469 -0.3570  0.1097
 5529SOL    HW128220   0.915   4.643   9.175 -0.5715 -0.4848  0.6832
 5529SOL    HW228221   0.809   4.637   9.066  0.4131  1.3809  1.2331
 5530SOL     OW28222   2.323   3.283  11.776 -0.1307 -0.2074  0.1152
 5530SOL    HW128223   2.323   3.203  11.722 -1.3565 -1.0592  1.3791
 5530SOL    HW228224   2.396   3.323  11.729 -1.5597  2.3342  0.0924
 5531SOL     OW28225   3.664   4.293   1.535  0.0864  0.1312 -0.1975
 5531SOL    HW128226   3.577   4.332   1.536 -1.1108 -2.5154 -0.2035
 5531SOL    HW228227   3.659   4.230   1.463 -0.9687  1.4276 -1.2625
 5532SOL     OW28228   2.455   0.131   6.497 -0.2563 -0.3268  0.4897
 5532SOL    HW128229   2.495   0.211   6.530 -1.8413  1.1551 -1.1776
 5532SOL    HW228230   2.509   0.105   6.422 -0.3178 -0.8392  0.6229
 5533SOL     OW28231   1.593   0.705   2.719  0.4569  0.4494 -0.5159
 5533SOL    HW128232   1.556   0.676   2.636 -0.3678  1.6318 -0.5558
 5533SOL    HW228233   1.545   0.786   2.732  0.7128  0.1285  2.4032
 5534SOL     OW28234   3.690   2.263  15.282  0.3483  0.1133 -0.6136
 5534SOL    HW128235   3.773   2.310  15.295 -0.7076  0.9575  3.1004
 5534SOL    HW228236   3.659   2.263  15.373 -3.0221  0.2437 -1.7743
 5535SOL     OW28237   1.312   0.923  15.518  0.4029 -0.3496  0.2252
 5535SOL    HW128238   1.358   0.950  15.439  0.2666 -1.9623 -0.3875
 5535SOL    HW228239   1.245   0.864  15.485  0.6483 -0.9413  0.7757
 5536SOL     OW28240   1.383   4.311   6.013  0.2704 -0.0373  0.8695
 5536SOL    HW128241   1.475   4.312   6.039  0.2455 -1.5784  1.0225
 5536SOL    HW228242   1.348   4.222   6.024  0.1032 -0.1723 -0.7625
 5537SOL     OW28243   1.034   3.343   4.020 -0.8810  0.0085  0.9577
 5537SOL    HW128244   1.027   3.265   3.964 -1.1919  0.7474 -0.0222
 5537SOL    HW228245   1.127   3.350   4.041 -0.9767  0.6761  1.1481
 5538SOL     OW28246   0.881   3.538   3.663  0.1988 -0.1476  0.4518
 5538SOL    HW128247   0.919   3.556   3.577  0.8282  2.5510  1.2811
 5538SOL    HW228248   0.829   3.616   3.683  1.0842  0.5883 -0.1513
 5539SOL     OW28249   0.773   0.069   7.650 -0.5800  0.0326  0.2115
 5539SOL    HW128250   0.786   0.047   7.558  1.5959  2.5739 -0.0883
 5539SOL    HW228251   0.710   0.001   7.675  0.1719 -1.3138 -1.5726
 5540SOL     OW28252   4.169   3.113   7.885  0.0411 -0.2445 -0.3058
 5540SOL    HW128253   4.099   3.169   7.855  1.0773  1.2889  0.1343
 5540SOL    HW228254   4.136   3.026   7.860 -0.1680 -1.4082  3.9711
 5541SOL     OW28255   3.633   1.723  13.871 -0.0147  0.2307  0.1262
 5541SOL    HW128256   3.711   1.721  13.816  0.1433 -1.5114  0.4138
 5541SOL    HW228257   3.677   1.761  13.947  0.3805 -0.6056  0.3168
 5542SOL     OW28258   2.997   3.368   5.401 -0.2016  0.7611 -0.2431
 5542SOL    HW128259   2.973   3.405   5.487 -0.0931 -0.3554  0.2633
 5542SOL    HW228260   2.938   3.293   5.394  0.6308 -0.1264  2.2667
 5543SOL     OW28261   3.034   3.894  10.564 -0.0510  0.1495  0.4214
 5543SOL    HW128262   2.940   3.888  10.548 -0.1498 -0.0918  1.0821
 5543SOL    HW228263   3.048   3.986  10.585 -2.1265  0.0421  2.2745
 5544SOL     OW28264   2.275   0.916   6.535  0.0390 -0.4282  0.4594
 5544SOL    HW128265   2.359   0.888   6.498 -1.2798  0.9215 -3.5244
 5544SOL    HW228266   2.211   0.853   6.502  0.0457 -0.8826  1.2930
 5545SOL     OW28267   2.751   2.350  16.566 -1.1386 -0.0798  0.2713
 5545SOL    HW128268   2.751   2.346  16.471  0.4125 -2.1939  0.3666
 5545SOL    HW228269   2.751   2.446  16.570 -1.8051 -0.0670  0.0215
 5546SOL     OW28270   0.827   1.792   5.548 -0.1023  0.6320  0.5122
 5546SOL    HW128271   0.760   1.860   5.545  0.4631  1.1789  0.1480
 5546SOL    HW228272   0.830   1.760   5.458  1.0492 -0.3801  0.8987
 5547SOL     OW28273   1.795   0.298   1.957 -0.1878  0.0437  0.3175
 5547SOL    HW128274   1.764   0.210   1.935 -0.8671  1.1893 -3.1468
 5547SOL    HW228275   1.890   0.288   1.964 -0.0824 -0.3781 -1.7061
 5548SOL     OW28276   1.996   3.330  17.226 -0.1166 -0.3418 -0.2016
 5548SOL    HW128277   1.946   3.316  17.307  0.5689 -0.3049  0.2253
 5548SOL    HW228278   2.009   3.239  17.200 -0.9819 -0.4223 -0.3680
 5549SOL     OW28279   4.651   4.365   4.922  0.1766  0.0529 -0.1201
 5549SOL    HW128280   4.656   4.458   4.944  1.8812  0.1939 -1.1235
 5549SOL    HW228281   4.558   4.352   4.937  0.2279 -0.0884  0.0730
 5550SOL     OW28282   0.455   0.828   2.639  0.1669 -0.0585  0.0101
 5550SOL    HW128283   0.540   0.814   2.680  0.5427  0.1303 -0.7017
 5550SOL    HW228284   0.428   0.737   2.630 -0.8860 -0.1513  3.8935
 5551SOL     OW28285   2.783   3.891  10.494  0.5044 -0.4646 -0.1138
 5551SOL    HW128286   2.719   3.962  10.503  1.9503  0.8509 -0.3799
 5551SOL    HW228287   2.727   3.814  10.509 -0.4726  0.2181 -0.2579
 5552SOL     OW28288   0.968   2.421  10.453  0.1712 -0.1727  0.4101
 5552SOL    HW128289   0.991   2.480  10.525  1.4782 -3.4393  2.6949
 5552SOL    HW228290   0.954   2.486  10.385 -0.7463  0.4956  1.2396
 5553SOL     OW28291   1.142   3.447   0.203 -0.2860  0.1161 -0.1925
 5553SOL    HW128292   1.231   3.416   0.224 -1.1028 -1.3639  1.0972
 5553SOL    HW228293   1.124   3.482   0.291  0.1736 -1.6055  0.5976
 5554SOL     OW28294   1.943   2.614   2.299  0.0042  0.9035 -0.3213
 5554SOL    HW128295   1.913   2.601   2.389 -3.0744  3.0354 -1.0441
 5554SOL    HW228296   2.022   2.664   2.324 -0.2222  1.7795 -1.3354
 5555SOL     OW28297   0.211   2.481  12.769  0.5807 -0.0948 -0.2790
 5555SOL    HW128298   0.272   2.491  12.842 -0.3309 -2.0313  0.7533
 5555SOL    HW228299   0.276   2.502  12.702 -0.3481 -0.4128 -1.2828
 5556SOL     OW28300   0.315   2.567  15.045  0.2305  0.5499 -0.4659
 5556SOL    HW128301   0.273   2.534  14.965 -0.6940 -1.3750  0.8091
 5556SOL    HW228302   0.404   2.589  15.020  0.5850 -0.5149 -0.1337
 5557SOL     OW28303   3.258   3.735   1.918 -0.0203 -0.2700 -0.2071
 5557SOL    HW128304   3.328   3.794   1.945  1.1137 -2.1947  1.0836
 5557SOL    HW228305   3.229   3.691   1.998 -0.3944  1.3663  0.5508
 5558SOL     OW28306   3.390   0.428   3.999 -0.2962  0.3150 -0.4473
 5558SOL    HW128307   3.377   0.395   4.088  2.3281 -0.7607 -0.4757
 5558SOL    HW228308   3.325   0.496   3.982 -1.7275 -0.7067  0.9339
 5559SOL     OW28309   3.317   2.586   5.732  0.1578 -0.3510 -0.4216
 5559SOL    HW128310   3.237   2.632   5.759  0.9984  1.6744 -1.4400
 5559SOL    HW228311   3.304   2.507   5.785  0.2986  0.4834  0.8421
 5560SOL     OW28312   2.497   0.307  15.263  0.2277  0.2233  0.1433
 5560SOL    HW128313   2.455   0.255  15.195  1.6096 -1.3774  0.5238
 5560SOL    HW228314   2.571   0.258  15.299 -0.3764 -1.0296 -0.3450
 5561SOL     OW28315   2.004   0.852   2.690  0.0881 -0.1208 -0.4521
 5561SOL    HW128316   1.963   0.938   2.688  1.8475  0.6907 -1.4275
 5561SOL    HW228317   1.973   0.812   2.772  0.4045  0.1291 -0.2119
 5562SOL     OW28318   3.179   2.691   4.207 -0.0830 -0.0291 -0.4116
 5562SOL    HW128319   3.196   2.762   4.270 -1.8612  0.2219 -0.2161
 5562SOL    HW228320   3.145   2.625   4.267 -2.9578  0.9476 -0.9782
 5563SOL     OW28321   2.924   4.126   5.681  0.8841  0.2273  0.3134
 5563SOL    HW128322   2.902   4.040   5.716  0.3218  0.4020  0.3881
 5563SOL    HW228323   2.842   4.175   5.679  1.7126  1.6811  1.8296
 5564SOL     OW28324   1.801   4.248  10.012  0.2691 -0.6330  0.4600
 5564SOL    HW128325   1.830   4.204  10.092 -1.2827 -1.3238  0.6612
 5564SOL    HW228326   1.738   4.178   9.990  0.4771 -0.5530 -0.3784
 5565SOL     OW28327   2.183   2.241   4.257 -0.0882 -0.0609 -0.1408
 5565SOL    HW128328   2.138   2.323   4.235  2.8836  1.2094 -1.4607
 5565SOL    HW228329   2.144   2.207   4.337 -1.1217  0.2619 -0.5115
 5566SOL     OW28330   0.810   2.011   5.278  0.5424  0.5380  0.2346
 5566SOL    HW128331   0.740   1.954   5.246  0.7497 -0.0476  0.8412
 5566SOL    HW228332   0.818   2.069   5.202 -0.6233 -0.4420 -0.6223
 5567SOL     OW28333   4.363   3.008  14.209  0.5383 -0.4819 -0.3258
 5567SOL    HW128334   4.389   2.921  14.178 -1.9573 -1.8261  1.3631
 5567SOL    HW228335   4.329   2.987  14.295  1.8105 -0.7092  0.1151
 5568SOL     OW28336   3.926   4.405   4.984 -0.1992  0.1160 -0.4207
 5568SOL    HW128337   3.889   4.324   5.020  0.0470 -0.3363 -1.1913
 5568SOL    HW228338   4.009   4.415   5.031 -0.8877 -0.1384  0.8417
 5569SOL     OW28339   2.884   2.708   7.565  0.0216 -0.3520  0.3010
 5569SOL    HW128340   2.923   2.660   7.638  0.5511  0.4280  0.5298
 5569SOL    HW228341   2.900   2.649   7.492  1.4062  1.1669 -0.6240
 5570SOL     OW28342   1.395   2.545  17.627  0.4061 -0.0098  0.8077
 5570SOL    HW128343   1.331   2.507  17.568  1.1631  0.6190 -0.4139
 5570SOL    HW228344   1.369   2.517  17.715  0.4677 -0.9716  0.5152
 5571SOL     OW28345   1.848   3.774  15.699  0.3601 -0.1652 -0.0919
 5571SOL    HW128346   1.768   3.813  15.663  1.7211  3.2728  0.6392
 5571SOL    HW228347   1.856   3.693  15.649 -1.2841  0.6774 -1.7034
 5572SOL     OW28348   2.266   4.005   8.517 -0.1917  0.2207 -0.1772
 5572SOL    HW128349   2.324   3.951   8.462 -1.4167 -1.0141 -0.2455
 5572SOL    HW228350   2.242   4.066   8.448 -0.9880 -1.0852 -1.0504
 5573SOL     OW28351   1.084   0.575   4.263 -0.6241  0.5305  0.0357
 5573SOL    HW128352   1.014   0.514   4.242 -0.7643  0.2791  1.2117
 5573SOL    HW228353   1.069   0.594   4.356  0.6636  0.4283  0.2624
 5574SOL     OW28354   4.161   1.888   6.345 -0.4606  0.3670  0.3045
 5574SOL    HW128355   4.182   1.948   6.273  1.7603  1.0312  1.5220
 5574SOL    HW228356   4.117   1.819   6.295  1.6629 -0.7780 -0.0281
 5575SOL     OW28357   3.944   4.597  10.871  0.3443  0.2423  0.2479
 5575SOL    HW128358   3.943   4.671  10.811 -1.8394 -1.0106 -1.2731
 5575SOL    HW228359   3.942   4.638  10.957 -2.6050  0.2088  0.2250
 5576SOL     OW28360   3.539   2.414   7.649 -0.2221  0.6260 -0.1881
 5576SOL    HW128361   3.510   2.326   7.623 -1.9118  0.5090  2.0607
 5576SOL    HW228362   3.566   2.397   7.739 -4.1381 -0.5347  0.7852
 5577SOL     OW28363   4.163   1.847   8.852  0.0172  0.3541 -0.1555
 5577SOL    HW128364   4.191   1.824   8.764 -0.3247 -1.7433  0.2824
 5577SOL    HW228365   4.175   1.942   8.850 -2.1585  0.6231 -0.2980
 5578SOL     OW28366   2.947   1.534  14.333  0.0856  0.5025  0.0038
 5578SOL    HW128367   3.020   1.475  14.351 -2.0059 -2.8490 -2.5932
 5578SOL    HW228368   2.973   1.605  14.392  2.7013  0.4907 -1.1149
 5579SOL     OW28369   4.521   0.478   7.740 -0.5022  0.3278 -0.0390
 5579SOL    HW128370   4.586   0.530   7.693 -1.1549  0.9853 -0.1953
 5579SOL    HW228371   4.569   0.404   7.778 -1.1250 -0.3232 -0.5304
 5580SOL     OW28372   3.303   1.727   2.617  0.1335 -0.4135 -0.0544
 5580SOL    HW128373   3.249   1.778   2.556  1.7344  1.6991  0.3132
 5580SOL    HW228374   3.336   1.658   2.560  0.8568 -1.2158  1.3382
 5581SOL     OW28375   2.325   3.849   4.091  0.0939 -0.2967  0.3825
 5581SOL    HW128376   2.418   3.865   4.075 -0.2074 -0.5221 -1.5625
 5581SOL    HW228377   2.283   3.926   4.052  3.0693  0.5140 -1.1858
 5582SOL     OW28378   4.291   1.409   8.555 -0.5070 -0.5007  0.3188
 5582SOL    HW128379   4.354   1.398   8.626  0.9132  2.8614 -0.4317
 5582SOL    HW228380   4.321   1.343   8.492  0.6685  0.2062  0.1509
 5583SOL     OW28381   2.519   2.375   9.841  0.1886 -0.2545  0.3123
 5583SOL    HW128382   2.543   2.371   9.749  1.8204 -1.7488  0.7893
 5583SOL    HW228383   2.592   2.424   9.880 -0.2769  1.8625 -1.4702
 5584SOL     OW28384   0.580   4.452   8.411  0.8034 -0.6415  0.2739
 5584SOL    HW128385   0.565   4.409   8.327 -2.3234 -0.5152  0.7809
 5584SOL    HW228386   0.661   4.502   8.401  0.4487 -0.1940 -0.3886
 5585SOL     OW28387   0.455   0.017   8.078 -0.3947 -0.2767 -0.3467
 5585SOL    HW128388   0.528   4.695   8.072 -1.9823 -2.0278 -1.5949
 5585SOL    HW228389   0.469   0.079   8.007 -2.9203  1.9690  1.1002
 5586SOL     OW28390   4.543   0.352  13.173 -0.6689 -0.1992  0.3300
 5586SOL    HW128391   4.459   0.389  13.145 -0.0976  0.1489 -0.8770
 5586SOL    HW228392   4.580   0.318  13.092 -0.0155 -0.0860  0.5796
 5587SOL     OW28393   1.682   1.100   6.367 -0.4488  0.0430  0.1724
 5587SOL    HW128394   1.747   1.038   6.400 -0.2911 -0.6460 -1.4315
 5587SOL    HW228395   1.604   1.056   6.402 -0.6056 -0.8684 -1.3054
 5588SOL     OW28396   1.874   1.952   8.633 -0.5692 -0.6582  0.0756
 5588SOL    HW128397   1.811   1.914   8.695  0.7231 -1.5183  0.8785
 5588SOL    HW228398   1.947   1.978   8.689 -1.9441 -1.0506  2.0276
 5589SOL     OW28399   4.358   3.826   1.806 -0.0423  0.2363 -0.3165
 5589SOL    HW128400   4.342   3.740   1.767 -2.4286  0.0067  1.1163
 5589SOL    HW228401   4.453   3.829   1.817  0.0874 -1.4864 -0.9168
 5590SOL     OW28402   3.678   0.163   6.305 -0.5573 -0.1384 -0.6589
 5590SOL    HW128403   3.626   0.173   6.384 -0.1454  0.8868 -0.5182
 5590SOL    HW228404   3.669   0.069   6.290  0.1024 -0.1548 -0.9685
 5591SOL     OW28405   3.128   1.521   0.568 -0.6278  0.5408 -0.8578
 5591SOL    HW128406   3.110   1.430   0.543  3.0934 -0.1726 -0.9215
 5591SOL    HW228407   3.184   1.555   0.499  4.7676 -1.6210  2.4552
 5592SOL     OW28408   4.386   1.809   2.476 -0.1166 -0.0708  0.5195
 5592SOL    HW128409   4.469   1.850   2.452  0.0563 -1.7330 -1.7539
 5592SOL    HW228410   4.321   1.841   2.415  1.2261 -1.3487 -1.5988
 5593SOL     OW28411   2.607   3.342   2.848 -0.0229  0.0433  0.5506
 5593SOL    HW128412   2.693   3.377   2.872  0.8817 -2.0966  0.3834
 5593SOL    HW228413   2.551   3.418   2.832  0.1875  0.1183  0.1757
 5594SOL     OW28414   3.527   3.328   7.140  0.1233 -0.0002  0.1448
 5594SOL    HW128415   3.622   3.318   7.137  0.2004  0.5441  0.6563
 5594SOL    HW228416   3.499   3.237   7.127  0.0213  0.1577 -0.7419
 5595SOL     OW28417   2.814   1.682  17.619  0.1525 -0.2512 -0.7459
 5595SOL    HW128418   2.905   1.661  17.640  0.4978 -0.2663 -2.2415
 5595SOL    HW228419   2.833   1.727  17.536  2.6229  0.4688  0.1922
 5596SOL     OW28420   4.439   0.862   2.367 -0.5466  0.0558  0.4089
 5596SOL    HW128421   4.458   0.808   2.444 -3.5596 -2.5847 -0.6994
 5596SOL    HW228422   4.394   0.940   2.398 -0.1569  0.6004 -0.3840
 5597SOL     OW28423   1.240   2.950   6.105  0.2728 -0.2393 -0.4313
 5597SOL    HW128424   1.177   2.945   6.033 -0.2404 -2.7007  0.1868
 5597SOL    HW228425   1.203   2.883   6.163 -3.0755  1.9201 -0.0807
 5598SOL     OW28426   3.738   0.849   4.430 -0.1638  0.1096 -0.0127
 5598SOL    HW128427   3.655   0.865   4.475 -0.2061 -0.2098  0.0251
 5598SOL    HW228428   3.691   0.826   4.350 -1.2183  0.2041  0.5820
 5599SOL     OW28429   0.809   0.226  13.294  0.0926 -0.0164  0.2940
 5599SOL    HW128430   0.765   0.160  13.348 -0.1079 -1.7444 -1.9489
 5599SOL    HW228431   0.797   0.304  13.347 -1.4243 -1.0664  1.5222
 5600SOL     OW28432   3.828   0.833  11.579 -0.9984  0.0524 -0.2489
 5600SOL    HW128433   3.747   0.874  11.610 -0.8358  0.2501 -0.0822
 5600SOL    HW228434   3.859   0.786  11.656 -2.3919 -1.0109 -0.3341
 5601SOL     OW28435   2.359   0.155   5.641  0.2739  0.1269  0.2808
 5601SOL    HW128436   2.377   0.140   5.548  2.4011 -1.0116  0.8820
 5601SOL    HW228437   2.322   0.072   5.671 -1.8286  0.3125 -1.7655
 5602SOL     OW28438   3.831   3.494  13.773  0.7031  0.9027  0.5209
 5602SOL    HW128439   3.772   3.428  13.809 -1.1308  2.5499  0.5220
 5602SOL    HW228440   3.767   3.561  13.749  0.0865  0.8763  2.0728
 5603SOL     OW28441   2.614   2.125  10.849 -0.5830  0.3733  0.5871
 5603SOL    HW128442   2.638   2.076  10.770 -1.7004 -1.0642  1.1328
 5603SOL    HW228443   2.521   2.140  10.831 -0.9135 -4.8724 -1.9483
 5604SOL     OW28444   0.617   3.023  16.137  0.0464  0.0379  0.0398
 5604SOL    HW128445   0.702   3.064  16.126  0.2378 -0.2795  0.3322
 5604SOL    HW228446   0.629   2.929  16.124  0.7018  0.0568  0.4844
 5605SOL     OW28447   1.412   2.781   2.425  0.0514 -0.1545 -0.0754
 5605SOL    HW128448   1.506   2.762   2.426  0.3865  1.5057 -0.0266
 5605SOL    HW228449   1.396   2.726   2.348 -0.7648  1.3179 -0.9657
 5606SOL     OW28450   3.764   0.219   5.803  0.3097 -0.2583  0.1405
 5606SOL    HW128451   3.818   0.180   5.735 -0.6027 -0.3058 -0.5590
 5606SOL    HW228452   3.735   0.138   5.845 -2.1151  1.6289  2.0688
 5607SOL     OW28453   4.701   2.884  14.341 -0.1075 -0.3465  0.3464
 5607SOL    HW128454   0.019   2.857  14.413  1.2606 -0.8520 -0.9377
 5607SOL    HW228455   4.614   2.852  14.364  0.2393 -0.1365  1.9621
 5608SOL     OW28456   3.707   1.612   5.066 -0.0999  0.6105 -0.0828
 5608SOL    HW128457   3.642   1.683   5.068 -3.0072 -2.0620  0.8241
 5608SOL    HW228458   3.681   1.561   5.143  0.5444 -0.1021 -0.3465
 5609SOL     OW28459   3.388   4.075   7.087 -0.4528  0.8252  0.4932
 5609SOL    HW128460   3.474   4.113   7.068  0.2667 -0.4293  1.2229
 5609SOL    HW228461   3.343   4.157   7.108  0.0226  1.2517 -0.1467
 5610SOL     OW28462   3.401   3.289   8.147 -0.5068  0.2725 -0.9757
 5610SOL    HW128463   3.414   3.247   8.232 -0.7759 -1.1887 -1.6532
 5610SOL    HW228464   3.433   3.219   8.090 -0.6971  0.3036 -1.1251
 5611SOL     OW28465   1.363   2.569   5.540  0.4271  0.8268 -0.4457
 5611SOL    HW128466   1.381   2.632   5.610  4.4106 -1.1684  0.3483
 5611SOL    HW228467   1.393   2.608   5.458  0.6013  0.7105 -0.4373
 5612SOL     OW28468   4.290   1.374  17.452 -0.4842 -0.0818 -0.6109
 5612SOL    HW128469   4.367   1.430  17.450 -1.4621  1.2596 -1.0784
 5612SOL    HW228470   4.253   1.388  17.539 -1.4211  2.0345 -1.3402
 5613SOL     OW28471   3.022   4.377   1.455  0.0855  0.2118  0.8773
 5613SOL    HW128472   3.050   4.403   1.543  2.4536 -2.1066  0.8083
 5613SOL    HW228473   3.110   4.374   1.417 -0.5915  0.6094 -0.6993
 5614SOL     OW28474   4.151   3.382   5.349 -0.0796  0.4109 -0.1464
 5614SOL    HW128475   4.098   3.458   5.371 -0.0384 -0.2977  2.4223
 5614SOL    HW228476   4.109   3.308   5.392  1.5015 -0.5710 -0.2925
 5615SOL     OW28477   3.957   3.624   7.960  0.4006  0.2326 -0.7244
 5615SOL    HW128478   3.971   3.717   7.973  1.6931 -0.5341  3.4450
 5615SOL    HW228479   3.897   3.595   8.029 -2.1559  3.1641 -1.7313
 5616SOL     OW28480   0.426   2.735   3.318  0.6883 -0.2352  0.1198
 5616SOL    HW128481   0.436   2.754   3.224  0.1563  0.1549  0.1418
 5616SOL    HW228482   0.354   2.793   3.341  0.4463  0.2877 -1.9018
 5617SOL     OW28483   1.304   0.664   2.895  0.0960  0.2667  0.0898
 5617SOL    HW128484   1.358   0.741   2.914  0.3016  0.3077 -0.6718
 5617SOL    HW228485   1.229   0.678   2.952 -1.2137  1.0426 -1.8226
 5618SOL     OW28486   4.315   2.068   1.654  0.7715  0.0527  0.0977
 5618SOL    HW128487   4.330   2.136   1.719 -3.4163  0.4863  0.6283
 5618SOL    HW228488   4.406   2.046   1.635  0.7926  0.7630 -0.6462
 5619SOL     OW28489   0.455   0.208   4.197  0.1087 -0.3123 -0.3356
 5619SOL    HW128490   0.401   0.197   4.119  0.4254  0.1040 -0.6141
 5619SOL    HW228491   0.506   0.127   4.193 -0.4679 -0.7785  1.7086
 5620SOL     OW28492   0.158   2.295   3.777  0.5972 -0.1283 -0.2268
 5620SOL    HW128493   0.120   2.304   3.865  4.1637  1.1426  1.1720
 5620SOL    HW228494   0.097   2.345   3.724 -0.9112 -1.0091  0.6836
 5621SOL     OW28495   2.435   2.758  11.641  0.4162 -0.3417  0.1286
 5621SOL    HW128496   2.379   2.728  11.712 -3.1854  3.6051 -1.0066
 5621SOL    HW228497   2.467   2.680  11.596  0.5262 -0.2869  0.1104
 5622SOL     OW28498   1.588   0.592   7.547  0.7267 -0.1531 -0.1508
 5622SOL    HW128499   1.627   0.677   7.566  1.7887 -0.8587  0.8085
 5622SOL    HW228500   1.663   0.534   7.563  1.8554  1.0672 -1.0344
 5623SOL     OW28501   3.296   3.984  14.692  0.3478 -0.4607  0.0817
 5623SOL    HW128502   3.329   3.922  14.627 -0.1241 -1.0436  0.3955
 5623SOL    HW228503   3.351   3.960  14.767 -1.7126 -2.4434  0.9702
 5624SOL     OW28504   2.990   1.009   4.337 -0.3423  0.3245  0.1144
 5624SOL    HW128505   3.014   1.094   4.374 -0.1589  0.3534 -0.0708
 5624SOL    HW228506   2.915   1.035   4.285  0.2553 -0.4549 -1.1394
 5625SOL     OW28507   2.200   2.145   8.196  0.1782 -0.3198 -0.4459
 5625SOL    HW128508   2.290   2.155   8.164  0.0114 -2.3128 -1.5175
 5625SOL    HW228509   2.186   2.211   8.264  1.5201 -0.9468  0.4582
 5626SOL     OW28510   0.921   0.458   5.738 -0.0708 -0.2589  0.2873
 5626SOL    HW128511   0.970   0.385   5.775 -0.7447 -1.2272 -0.7138
 5626SOL    HW228512   0.834   0.449   5.777 -0.3791  2.2662  0.1982
 5627SOL     OW28513   2.471   2.288   7.923 -0.2526  0.0215 -0.2408
 5627SOL    HW128514   2.386   2.328   7.941 -0.0920  1.0798 -1.8396
 5627SOL    HW228515   2.484   2.326   7.837  2.7394  0.7282  0.5057
 5628SOL     OW28516   2.500   3.028   2.382 -0.4651 -0.2722  0.6779
 5628SOL    HW128517   2.513   2.973   2.304  0.0481 -1.2065  1.4293
 5628SOL    HW228518   2.533   3.115   2.357 -1.3114 -0.6540 -1.7822
 5629SOL     OW28519   0.796   4.435   1.217  0.5844 -0.2504  0.6084
 5629SOL    HW128520   0.749   4.352   1.217 -2.5786  1.5513  0.6515
 5629SOL    HW228521   0.817   4.439   1.124 -0.5117  0.6541  0.3956
 5630SOL     OW28522   2.047   0.778   6.404 -0.2447 -0.0255 -0.4711
 5630SOL    HW128523   2.048   0.744   6.314  2.6661 -2.3953  0.4320
 5630SOL    HW228524   2.011   0.705   6.454 -0.6050  1.0630  0.8510
 5631SOL     OW28525   4.376   4.328   8.616  0.2541 -0.5382  0.1317
 5631SOL    HW128526   4.297   4.306   8.666 -0.2657  2.7426  0.7643
 5631SOL    HW228527   4.411   4.241   8.597 -0.1600 -0.5230 -0.7020
 5632SOL     OW28528   1.805   3.991  12.253  0.1894 -0.3222  0.1453
 5632SOL    HW128529   1.833   4.071  12.209  1.4843  0.1624  1.8270
 5632SOL    HW228530   1.838   3.996  12.343 -0.2799 -2.1989  0.4303
 5633SOL     OW28531   4.516   1.165   5.639  0.2142  0.3127 -0.1924
 5633SOL    HW128532   4.558   1.250   5.626  1.6452 -0.4830 -0.8279
 5633SOL    HW228533   4.439   1.176   5.584 -1.2087 -1.0459  1.5233
 5634SOL     OW28534   4.336   0.006   0.565  0.2632  0.3685  0.6394
 5634SOL    HW128535   4.420   4.717   0.601  0.1398  1.8192  2.0976
 5634SOL    HW228536   4.361   0.006   0.473 -0.3637  1.2913  0.4706
 5635SOL     OW28537   2.045   0.912   9.746 -0.0141 -0.1343 -0.2970
 5635SOL    HW128538   1.989   0.978   9.705  0.1353 -0.6180 -1.2916
 5635SOL    HW228539   1.978   0.856   9.786 -1.9990  0.4767 -2.7009
 5636SOL     OW28540   2.388   0.631  17.129  0.0157 -0.3263  0.1060
 5636SOL    HW128541   2.412   0.712  17.174 -1.8957  0.5906 -0.4901
 5636SOL    HW228542   2.386   0.574  17.206  0.6498 -0.1225  0.2694
 5637SOL     OW28543   1.916   0.929   5.665 -0.1632  0.4044 -0.6087
 5637SOL    HW128544   1.839   0.888   5.705  0.7850 -0.1749  0.6164
 5637SOL    HW228545   1.955   0.980   5.736 -0.9205  0.0706  0.0485
 5638SOL     OW28546   0.317   2.744   5.499 -0.6688  0.0748  0.5315
 5638SOL    HW128547   0.286   2.715   5.413  0.1915  1.8586 -0.3807
 5638SOL    HW228548   0.281   2.831   5.515 -1.5133  0.0383 -1.1465
 5639SOL     OW28549   2.063   2.426  14.817 -0.3619  0.0722  0.2882
 5639SOL    HW128550   2.065   2.342  14.864 -2.5725  0.2732  0.7463
 5639SOL    HW228551   1.982   2.426  14.767 -2.7578 -0.2066  4.1985
 5640SOL     OW28552   1.409   1.767   5.487 -0.1097  0.3525 -0.5619
 5640SOL    HW128553   1.380   1.847   5.530 -1.8419 -0.7014  0.2162
 5640SOL    HW228554   1.490   1.746   5.533  0.4049  0.1371 -1.5571
 5641SOL     OW28555   0.260   4.555   5.651  0.1505 -0.0712  0.1148
 5641SOL    HW128556   0.242   4.524   5.740 -3.3019 -1.7986 -1.1985
 5641SOL    HW228557   0.218   4.499   5.587  1.2562  0.7493 -1.3295
 5642SOL     OW28558   1.631   2.856   4.896  0.1471 -0.1039  0.3278
 5642SOL    HW128559   1.716   2.897   4.910  0.7976 -1.1480 -0.5835
 5642SOL    HW228560   1.593   2.907   4.824  2.4160  0.2532 -0.6054
 5643SOL     OW28561   3.555   4.371  11.175 -0.1037 -0.0907 -0.4120
 5643SOL    HW128562   3.647   4.389  11.156 -0.3486  0.0698 -1.4046
 5643SOL    HW228563   3.564   4.278  11.196  0.0723  0.0750  0.2418
 5644SOL     OW28564   1.762   2.719   2.614  0.4174 -0.0393  0.0019
 5644SOL    HW128565   1.757   2.800   2.564  1.8772  0.8005  1.2222
 5644SOL    HW228566   1.705   2.749   2.684  0.6864  1.4794 -0.4274
 5645SOL     OW28567   4.491   4.580  12.954  0.0094 -0.7197 -0.1595
 5645SOL    HW128568   4.536   4.605  13.034  1.2729 -0.2003 -1.0164
 5645SOL    HW228569   4.455   4.667  12.939 -0.0796 -0.7867 -0.3368
 5646SOL     OW28570   2.735   4.175   5.218  0.3817  0.5697  0.2382
 5646SOL    HW128571   2.814   4.193   5.167  0.6414  0.5209  0.6210
 5646SOL    HW228572   2.780   4.104   5.265 -2.2034 -3.4591 -3.3133
 5647SOL     OW28573   3.579   2.921   7.355  0.1348 -0.1049  0.8309
 5647SOL    HW128574   3.631   3.001   7.356  1.1328 -0.6963 -2.7903
 5647SOL    HW228575   3.515   2.925   7.426 -0.3227  0.1463  0.4003
 5648SOL     OW28576   4.164   2.837   1.848 -0.1995  0.2171  0.2268
 5648SOL    HW128577   4.184   2.752   1.887  0.7555  0.4324  0.2249
 5648SOL    HW228578   4.069   2.828   1.843 -0.0900  0.1593 -1.8245
 5649SOL     OW28579   3.205   1.718   9.093 -0.2001 -0.0953 -0.1621
 5649SOL    HW128580   3.214   1.812   9.076 -2.3622  0.3116  1.0652
 5649SOL    HW228581   3.112   1.715   9.112 -0.3471  0.2186 -0.8258
 5650SOL     OW28582   4.590   1.124  10.813  0.1572  0.1947 -0.8463
 5650SOL    HW128583   4.684   1.119  10.797  0.4576  4.3563 -0.4253
 5650SOL    HW228584   4.568   1.179  10.738  0.4436 -1.6440 -2.2814
 5651SOL     OW28585   0.625   4.243   3.673 -0.0318 -0.8567 -0.4704
 5651SOL    HW128586   0.538   4.207   3.689  0.5614 -1.2088  1.9394
 5651SOL    HW228587   0.604   4.336   3.660  1.9286 -0.3587 -0.1351
 5652SOL     OW28588   4.160   2.911   2.195  0.3848  0.1597  0.1874
 5652SOL    HW128589   4.130   2.946   2.280  1.4730 -1.7556  1.3461
 5652SOL    HW228590   4.100   2.948   2.130 -0.1542  0.6866  0.9658
 5653SOL     OW28591   4.656   0.393   5.676  0.5187  0.2522  0.3656
 5653SOL    HW128592   4.620   0.306   5.693 -1.4845  0.7575 -1.3332
 5653SOL    HW228593   0.010   0.389   5.697  0.2507 -0.5209  1.4313
 5654SOL     OW28594   4.362   3.867   8.985  0.1915 -0.0102 -0.0507
 5654SOL    HW128595   4.394   3.813   8.912 -0.8178 -1.1686  0.3562
 5654SOL    HW228596   4.440   3.917   9.007  1.4037 -1.9219 -0.0287
 5655SOL     OW28597   4.712   0.633   7.057  0.1253 -0.0684 -0.1907
 5655SOL    HW128598   4.717   0.688   7.135  0.7846  0.5281 -0.6473
 5655SOL    HW228599   0.013   0.550   7.079 -0.0073  0.2271  1.1705
 5656SOL     OW28600   3.872   4.450   3.639 -0.3266 -0.3446  0.1288
 5656SOL    HW128601   3.962   4.419   3.628  0.0678  0.7654  0.1761
 5656SOL    HW228602   3.898   4.542   3.647  1.3170 -0.8357  0.5899
 5657SOL     OW28603   4.215   2.215  14.438  0.1278 -0.6488  0.1985
 5657SOL    HW128604   4.161   2.258  14.505 -0.2992 -0.7537 -0.0813
 5657SOL    HW228605   4.145   2.189  14.379  1.5158 -1.3310 -1.1601
 5658SOL     OW28606   2.449   0.625   7.871  0.2602  0.3043 -0.0082
 5658SOL    HW128607   2.366   0.594   7.836  0.7920 -0.1546 -0.8701
 5658SOL    HW228608   2.495   0.543   7.887 -1.1955 -0.2618  1.2161
 5659SOL     OW28609   0.361   4.027   2.709  0.4096 -0.0966 -1.4736
 5659SOL    HW128610   0.355   3.946   2.657 -1.7863  0.4117 -2.0441
 5659SOL    HW228611   0.437   4.072   2.674  1.7637  0.1550  1.7856
 5660SOL     OW28612   0.348   3.222   4.100  0.2309  0.2532 -0.2873
 5660SOL    HW128613   0.422   3.282   4.101 -0.4807  1.1276  0.0507
 5660SOL    HW228614   0.389   3.153   4.049  1.2515  0.7125 -0.0846
 5661SOL     OW28615   1.001   2.733   6.933 -0.0069  0.4710 -0.4230
 5661SOL    HW128616   1.033   2.745   6.844  3.0189  1.7921  0.8693
 5661SOL    HW228617   0.947   2.654   6.922  2.0324 -0.9774  0.0676
 5662SOL     OW28618   2.349   3.799   4.351 -0.0081  0.9132  0.1887
 5662SOL    HW128619   2.319   3.835   4.267  0.6253 -1.4760 -1.0654
 5662SOL    HW228620   2.424   3.745   4.324 -0.3352  0.0498  0.9957
 5663SOL     OW28621   3.503   3.725   2.433  0.8243 -0.6093 -0.1463
 5663SOL    HW128622   3.478   3.744   2.343  0.4774 -0.4469 -0.0158
 5663SOL    HW228623   3.536   3.806   2.473 -0.3221  0.1010 -0.6383
 5664SOL     OW28624   1.105   3.410   9.356  0.5021 -0.0897  0.2973
 5664SOL    HW128625   1.149   3.335   9.397 -0.6605 -1.0770 -0.2373
 5664SOL    HW228626   1.016   3.410   9.392  0.9910 -0.0659  1.5109
 5665SOL     OW28627   2.639   2.717   5.991 -0.1111 -0.7127  0.8292
 5665SOL    HW128628   2.685   2.741   6.072 -0.5297  0.2015  0.7972
 5665SOL    HW228629   2.714   2.710   5.933 -0.5877 -0.0635  0.1301
 5666SOL     OW28630   4.483   4.101  17.741  0.2927  0.0522 -0.0098
 5666SOL    HW128631   4.492   4.052  17.659  0.3993 -2.4607  1.4980
 5666SOL    HW228632   4.571   4.130   0.009 -0.2210  0.6489  1.0761
 5667SOL     OW28633   1.084   4.134   4.745  0.4968 -0.0025  0.0466
 5667SOL    HW128634   1.134   4.090   4.676  1.0462  0.8086 -0.0680
 5667SOL    HW228635   1.155   4.159   4.804 -0.0486  0.0652  0.6674
 5668SOL     OW28636   2.991   3.966   6.687  0.2282 -0.3202 -0.2301
 5668SOL    HW128637   3.035   3.983   6.771 -0.5823 -1.2625  0.3866
 5668SOL    HW228638   3.067   3.951   6.631  0.9206  1.4410  0.2545
 5669SOL     OW28639   1.389   4.326   4.479  0.7079  0.5427 -0.1024
 5669SOL    HW128640   1.308   4.365   4.446 -0.5641 -1.0568  1.1482
 5669SOL    HW228641   1.377   4.331   4.574  2.3318  1.5149  0.0694
 5670SOL     OW28642   1.585   1.000  17.178  0.1762  0.0037 -0.5425
 5670SOL    HW128643   1.533   1.079  17.166 -1.1384 -0.9453 -1.1486
 5670SOL    HW228644   1.588   0.991  17.273  0.8702 -0.7093 -0.6303
 5671SOL     OW28645   1.141   1.793   0.586  0.4472  0.7051 -0.9036
 5671SOL    HW128646   1.183   1.712   0.556  0.9813  0.5718  0.2330
 5671SOL    HW228647   1.205   1.819   0.652  0.8571 -0.2826 -0.9062
 5672SOL     OW28648   3.867   1.366   9.899 -0.0283  0.2856 -0.1963
 5672SOL    HW128649   3.940   1.357   9.838  0.3529  0.5692  0.2200
 5672SOL    HW228650   3.794   1.324   9.854  0.2760 -0.6880  0.1948
 5673SOL     OW28651   1.703   4.123   5.044  0.6884  0.2875  0.3449
 5673SOL    HW128652   1.746   4.208   5.032  0.6560  0.1558 -0.6460
 5673SOL    HW228653   1.759   4.057   5.003  1.0420  0.3354  0.7449
 5674SOL     OW28654   1.393   0.083   6.141 -0.2755  0.3497 -0.0458
 5674SOL    HW128655   1.376   4.729   6.137  2.0777 -0.0283 -1.3797
 5674SOL    HW228656   1.328   0.122   6.199 -0.3382  0.1220  0.0384
 5675SOL     OW28657   0.659   0.012   4.439 -0.2834 -0.2764  0.0785
 5675SOL    HW128658   0.651   0.107   4.448 -0.3857 -0.2261 -0.5904
 5675SOL    HW228659   0.580   4.720   4.484 -2.3319  3.0848 -1.1387
 5676SOL     OW28660   0.808   0.926   8.456  0.2710 -0.1217  0.0299
 5676SOL    HW128661   0.831   0.853   8.514 -0.0873 -0.9631 -0.8933
 5676SOL    HW228662   0.717   0.900   8.437  0.0899 -0.2347  1.0244
 5677SOL     OW28663   3.018   4.635  14.083  0.0608  0.0183  0.0703
 5677SOL    HW128664   3.062   4.718  14.105  0.4183  0.3780 -2.0060
 5677SOL    HW228665   3.084   4.574  14.117  0.1352  0.9283  1.5474
 5678SOL     OW28666   1.182   3.419  12.334 -0.2918 -0.2863 -0.0063
 5678SOL    HW128667   1.146   3.489  12.279 -1.4734 -0.6110  0.3738
 5678SOL    HW228668   1.122   3.348  12.313 -1.2846  0.4651  0.3302
 5679SOL     OW28669   1.813   2.489   8.141 -0.0363 -0.4857  0.8451
 5679SOL    HW128670   1.794   2.396   8.150  0.9909 -1.0962 -3.1190
 5679SOL    HW228671   1.874   2.484   8.215  0.8900 -1.5438  0.0006
 5680SOL     OW28672   0.886   1.503   4.260 -0.0921  0.0361 -0.3280
 5680SOL    HW128673   0.882   1.575   4.323 -0.5830 -0.7087  0.5031
 5680SOL    HW228674   0.849   1.534   4.178  0.0320  0.8833 -0.0701
 5681SOL     OW28675   2.050   3.041   8.432 -0.1514  0.2516 -0.4850
 5681SOL    HW128676   2.013   3.126   8.408 -3.5515 -1.5043 -1.4688
 5681SOL    HW228677   1.971   3.021   8.481  0.2942 -1.7996 -0.6090
 5682SOL     OW28678   4.690   0.302   0.761  1.0085  0.4449 -0.3864
 5682SOL    HW128679   4.693   0.388   0.805 -2.1244  1.2020 -1.6786
 5682SOL    HW228680   4.723   0.242   0.828  0.3836  1.4320  0.8231
 5683SOL     OW28681   2.665   3.872   0.770  0.3714  1.0981  0.0454
 5683SOL    HW128682   2.712   3.827   0.840 -2.4345 -0.1634  1.1297
 5683SOL    HW228683   2.742   3.895   0.718  1.1532 -0.3117  0.5988
 5684SOL     OW28684   0.389   1.804   8.907  0.2253 -0.1223  0.0412
 5684SOL    HW128685   0.309   1.838   8.949  0.7621  1.7349 -0.4196
 5684SOL    HW228686   0.422   1.891   8.883 -2.4050  0.3590 -1.8954
 5685SOL     OW28687   3.408   4.318   5.067  0.0958 -0.3315  0.0681
 5685SOL    HW128688   3.466   4.247   5.037 -0.7823  0.4644 -3.4912
 5685SOL    HW228689   3.466   4.390   5.091 -0.7467  0.4219 -0.2003
 5686SOL     OW28690   1.486   3.841   9.063  0.1194  0.1282  0.0729
 5686SOL    HW128691   1.518   3.931   9.052 -3.4107  1.3005 -0.3742
 5686SOL    HW228692   1.548   3.784   9.018  1.5717  1.0465  0.8868
 5687SOL     OW28693   1.588   1.495   6.228  0.5574 -0.3644 -0.8272
 5687SOL    HW128694   1.529   1.438   6.178 -1.9453 -0.0202  1.6981
 5687SOL    HW228695   1.658   1.435   6.253  1.0628  1.2946  1.7701
 5688SOL     OW28696   3.273   0.389   4.927 -0.1094  0.2932 -0.1614
 5688SOL    HW128697   3.264   0.483   4.913  0.9028  0.8035  2.6438
 5688SOL    HW228698   3.342   0.377   4.861  0.3691 -0.2050  0.4373
 5689SOL     OW28699   1.689   4.097  16.319 -0.3045 -0.2054 -0.4035
 5689SOL    HW128700   1.769   4.125  16.363 -1.4263  0.1426  1.4043
 5689SOL    HW228701   1.726   4.049  16.245  1.6466 -0.4046  0.7217
 5690SOL     OW28702   3.856   4.559  17.155 -0.5064 -0.3780  0.6025
 5690SOL    HW128703   3.841   4.647  17.192  2.7865 -0.9362  3.2523
 5690SOL    HW228704   3.770   4.558  17.112  0.6606  1.9362 -1.7628
 5691SOL     OW28705   3.368   2.917   3.434 -0.1740  0.0078 -0.2426
 5691SOL    HW128706   3.333   2.900   3.522 -0.8766 -1.2024 -0.7505
 5691SOL    HW228707   3.419   2.998   3.439  0.4140 -0.4460  1.3528
 5692SOL     OW28708   3.698   3.849   2.094  0.5013  0.0940  0.3078
 5692SOL    HW128709   3.714   3.873   2.002  0.7199  0.4031  0.4228
 5692SOL    HW228710   3.784   3.814   2.118  0.1726  0.0594  1.4301
 5693SOL     OW28711   2.475   2.485  12.668 -0.1570 -0.3945  0.1769
 5693SOL    HW128712   2.444   2.566  12.709  0.7255  0.7004 -1.3607
 5693SOL    HW228713   2.473   2.427  12.745  0.4959  2.0158  2.0118
 5694SOL     OW28714   2.978   4.563   2.509 -0.2494  0.1252  0.8018
 5694SOL    HW128715   2.937   4.650   2.506  0.4524  0.4273 -0.2087
 5694SOL    HW228716   3.010   4.546   2.421  0.0810  1.6231  0.6269
 5695SOL     OW28717   3.339   2.772   4.481 -0.1068  0.3580  0.1679
 5695SOL    HW128718   3.358   2.681   4.504  1.5499  0.4800 -0.7061
 5695SOL    HW228719   3.411   2.782   4.419 -0.9063  1.0655 -0.6466
 5696SOL     OW28720   0.656   2.994   5.417  0.3351  0.0059 -0.1010
 5696SOL    HW128721   0.633   3.065   5.357  0.2150 -1.9743 -2.4040
 5696SOL    HW228722   0.723   3.036   5.472 -1.0113 -1.0610  2.3554
 5697SOL     OW28723   4.159   3.083  12.115 -0.1465 -0.1360  0.3497
 5697SOL    HW128724   4.166   2.999  12.161 -2.1022 -1.0882 -1.0721
 5697SOL    HW228725   4.222   3.061  12.046  0.3471  1.0706  0.4280
 5698SOL     OW28726   3.260   2.521  13.377  0.4431  0.1437 -0.3603
 5698SOL    HW128727   3.320   2.591  13.351  0.7840  0.1841  0.5453
 5698SOL    HW228728   3.257   2.482  13.290  0.8767  1.7941 -1.1272
 5699SOL     OW28729   4.520   3.994   6.602  0.6603 -0.4064  0.0837
 5699SOL    HW128730   4.451   3.949   6.651 -0.7788  1.2928 -0.3902
 5699SOL    HW228731   4.466   4.027   6.531 -0.2243 -0.5475  0.6943
 5700SOL     OW28732   0.059   4.697   2.902 -0.3311 -0.3964 -0.0612
 5700SOL    HW128733   0.094   4.714   2.814  1.4045 -1.9182  0.3368
 5700SOL    HW228734   0.040   4.604   2.900  1.4230 -0.7347 -1.1851
 5701SOL     OW28735   4.380   4.462   3.716 -1.4167  0.0854  0.0410
 5701SOL    HW128736   4.304   4.509   3.748 -0.5265  0.9857  0.8391
 5701SOL    HW228737   4.428   4.524   3.660 -0.7230 -2.0044 -1.6871
 5702SOL     OW28738   0.176   3.784   2.308  0.3180 -0.5337  0.2428
 5702SOL    HW128739   0.088   3.746   2.305 -0.8732  2.3520 -0.9044
 5702SOL    HW228740   0.153   3.872   2.278 -2.3915 -0.7404  1.6848
 5703SOL     OW28741   1.017   1.849   3.141  0.1202 -0.3497 -0.3516
 5703SOL    HW128742   1.100   1.894   3.157  0.3127 -1.0393  0.5808
 5703SOL    HW228743   0.951   1.909   3.107 -0.0250 -1.2224 -1.5961
 5704SOL     OW28744   1.994   2.779   7.882 -0.3779 -0.4085 -0.2632
 5704SOL    HW128745   1.939   2.849   7.917  0.2137 -0.5537  0.9603
 5704SOL    HW228746   2.016   2.823   7.800 -1.5484  0.3104 -0.1893
 5705SOL     OW28747   1.109   3.093   3.938  0.8361 -0.3867  0.1618
 5705SOL    HW128748   1.088   3.010   3.980  2.5537 -0.4093  0.9937
 5705SOL    HW228749   1.183   3.125   3.989  0.8489 -2.6882  1.5893
 5706SOL     OW28750   1.178   3.998  11.979 -0.0910 -0.0520 -0.0303
 5706SOL    HW128751   1.091   3.970  11.949 -1.1070  2.4623  0.5860
 5706SOL    HW228752   1.239   3.947  11.926  0.0236 -2.3459  2.3204
 5707SOL     OW28753   2.688   0.116   6.318 -0.6103  0.0146 -0.2060
 5707SOL    HW128754   2.700   0.144   6.227 -2.3770  2.8143  0.4202
 5707SOL    HW228755   2.777   0.096   6.348 -0.9541 -1.4500 -0.1675
 5708SOL     OW28756   4.626   0.970  16.036  0.1655 -0.2283  0.1411
 5708SOL    HW128757   4.663   0.882  16.032 -0.5820 -0.4986 -0.6649
 5708SOL    HW228758   4.596   0.985  15.947  0.2478 -0.3653  0.0912
 5709SOL     OW28759   0.448   3.175  10.624  0.0042  0.1661  0.1402
 5709SOL    HW128760   0.411   3.139  10.705  0.1607 -1.7574 -0.6409
 5709SOL    HW228761   0.530   3.127  10.614 -0.3599 -0.6939  1.2547
 5710SOL     OW28762   1.721   4.237   5.609  0.1880 -0.2582 -0.1749
 5710SOL    HW128763   1.655   4.282   5.557 -0.1755 -0.4830  0.0941
 5710SOL    HW228764   1.790   4.302   5.622 -1.9286  1.7444  0.9655
 5711SOL     OW28765   0.392   3.387   9.402 -0.0527  0.7989 -0.3659
 5711SOL    HW128766   0.441   3.351   9.328 -0.0364 -1.1725  0.6071
 5711SOL    HW228767   0.354   3.312   9.448 -0.1587  2.0979  1.6268
 5712SOL     OW28768   2.021   3.153   9.020  0.6854  0.3332 -0.4708
 5712SOL    HW128769   1.949   3.092   9.037  0.7539  0.2092 -0.6201
 5712SOL    HW228770   2.019   3.165   8.925 -0.3552 -0.7750 -0.5931
 5713SOL     OW28771   4.560   4.217  13.070 -0.8067  0.0047 -0.1579
 5713SOL    HW128772   4.562   4.239  13.163 -0.5414 -1.5481  0.2043
 5713SOL    HW228773   4.648   4.179  13.076 -0.5320  0.8442  0.9235
 5714SOL     OW28774   3.547   0.896   7.499 -0.5534 -0.0782 -0.0230
 5714SOL    HW128775   3.541   0.801   7.495  0.8924 -0.1065 -1.3289
 5714SOL    HW228776   3.604   0.905   7.576  3.7482  0.4215 -3.2997
 5715SOL     OW28777   4.238   1.238   3.102  0.1738  0.2721 -0.3551
 5715SOL    HW128778   4.259   1.169   3.165  0.1199 -0.6857 -1.3899
 5715SOL    HW228779   4.152   1.267   3.134 -1.0409 -0.8921 -2.5667
 5716SOL     OW28780   3.756   4.030  13.900  0.6904  0.6065 -0.2296
 5716SOL    HW128781   3.736   3.937  13.913 -1.6632  1.1820  0.2760
 5716SOL    HW228782   3.851   4.036  13.896  0.6682 -0.6038 -2.7178
 5717SOL     OW28783   0.131   0.713   8.085 -0.7913 -0.4802  1.2160
 5717SOL    HW128784   0.162   0.761   8.162 -1.2933  0.0674  1.0705
 5717SOL    HW228785   0.211   0.670   8.054 -0.9140 -0.2531  0.5934
 5718SOL     OW28786   4.229   3.816   7.868  0.1184  0.0588  0.1203
 5718SOL    HW128787   4.230   3.822   7.772  0.2416  1.9160  0.2322
 5718SOL    HW228788   4.289   3.886   7.893 -1.1581  1.3779 -0.4735
 5719SOL     OW28789   1.960   3.963   4.832  0.3076 -0.4536  0.2818
 5719SOL    HW128790   1.906   3.938   4.907  1.9933 -2.0717  0.9556
 5719SOL    HW228791   2.035   4.006   4.871 -0.8908  0.3567  1.6625
 5720SOL     OW28792   0.401   2.212  15.982 -0.3567 -0.3172 -0.0453
 5720SOL    HW128793   0.425   2.279  15.918 -2.1909 -1.1094 -1.5359
 5720SOL    HW228794   0.328   2.264  16.015  0.3725  0.8096 -0.2340
 5721SOL     OW28795   3.974   1.701   5.055 -0.5041 -0.8592  0.3331
 5721SOL    HW128796   3.941   1.617   5.023 -1.2976 -0.4404  0.0486
 5721SOL    HW228797   3.954   1.691   5.148  2.0557 -0.2015  0.9554
 5722SOL     OW28798   1.812   0.136   1.626  0.4038 -0.1423 -0.2809
 5722SOL    HW128799   1.767   0.217   1.605 -0.4215 -0.7292 -0.7840
 5722SOL    HW228800   1.883   0.175   1.678 -1.5804 -0.6727  2.8053
 5723SOL     OW28801   4.581   4.402   0.765 -0.3655 -0.4462  0.2777
 5723SOL    HW128802   4.521   4.387   0.692 -1.6364 -0.4295  1.3189
 5723SOL    HW228803   4.641   4.329   0.753 -0.3291 -0.4252  0.3309
 5724SOL     OW28804   3.140   4.453  12.877  0.1863  0.4520 -0.3770
 5724SOL    HW128805   3.172   4.453  12.967  1.0337  1.3491 -0.6731
 5724SOL    HW228806   3.205   4.398  12.833  0.4852 -0.0203  0.6664
 5725SOL     OW28807   4.509   0.179  17.444  0.5440 -0.2583 -0.3363
 5725SOL    HW128808   4.427   0.209  17.481  0.1625 -0.2083 -1.2243
 5725SOL    HW228809   4.502   0.230  17.363  1.7562 -2.1657 -1.6617
 5726SOL     OW28810   4.725   4.369   6.275  0.1129  0.3513  0.3156
 5726SOL    HW128811   4.739   4.431   6.203  0.3989 -2.5880 -2.1669
 5726SOL    HW228812   4.731   4.285   6.229  4.6114  1.0298 -0.3843
 5727SOL     OW28813   0.198   4.530  16.934 -0.6435  0.5361 -0.5658
 5727SOL    HW128814   0.163   4.442  16.917 -0.6913  0.1532  1.5212
 5727SOL    HW228815   0.212   4.571  16.849  2.4968  1.5613  0.4793
 5728SOL     OW28816   4.594   3.612   3.912 -0.3074 -0.3038 -0.1846
 5728SOL    HW128817   4.689   3.610   3.916 -0.3755 -0.7551  0.9551
 5728SOL    HW228818   4.567   3.522   3.932  0.7223 -0.8504 -1.2253
 5729SOL     OW28819   3.924   0.393   7.001 -0.2244  0.3626  0.1488
 5729SOL    HW128820   3.935   0.462   6.936 -0.3570 -0.1637 -0.4317
 5729SOL    HW228821   4.011   0.394   7.040  0.3057 -1.6194 -1.0092
 5730SOL     OW28822   2.710   2.553  12.548  0.1078 -0.1211  0.1094
 5730SOL    HW128823   2.769   2.484  12.580  3.2251  3.0151  1.1358
 5730SOL    HW228824   2.634   2.540  12.605  0.8333  1.9283  1.5326
 5731SOL     OW28825   0.193   1.680   5.305 -0.8928 -0.2858  0.0752
 5731SOL    HW128826   0.160   1.647   5.389  2.0482 -0.6870  1.0681
 5731SOL    HW228827   0.140   1.760   5.307  0.8166  0.8601 -0.4095
 5732SOL     OW28828   2.362   0.540   5.144 -0.4606 -1.0671 -0.0349
 5732SOL    HW128829   2.312   0.528   5.063  0.3385  0.1505 -0.7165
 5732SOL    HW228830   2.315   0.475   5.197  0.8838 -2.5455 -0.6592
 5733SOL     OW28831   0.258   4.686   4.979 -0.2141 -0.1765 -0.4360
 5733SOL    HW128832   0.262   4.626   4.905 -0.7562 -0.1508 -0.4874
 5733SOL    HW228833   0.214   0.022   4.941 -0.9646 -1.3664 -1.9337
 5734SOL     OW28834   2.900   0.265   3.043 -0.4301  0.2340 -0.0410
 5734SOL    HW128835   2.949   0.287   3.122 -1.2796  0.9962  0.2805
 5734SOL    HW228836   2.868   0.354   3.028  2.9058  1.4437 -0.0859
 5735SOL     OW28837   2.702   3.898   1.258  0.7319 -0.3490  0.2259
 5735SOL    HW128838   2.793   3.909   1.287  0.9286  0.4854 -0.7031
 5735SOL    HW228839   2.657   3.964   1.311 -1.9027 -2.2748  0.3474
 5736SOL     OW28840   0.782   1.005   7.352  0.1631 -0.1595  0.0761
 5736SOL    HW128841   0.845   1.055   7.404 -1.5867  0.4825  1.5895
 5736SOL    HW228842   0.789   1.050   7.268  0.1684 -1.4618 -0.6310
 5737SOL     OW28843   4.255   4.315   8.079 -0.1036  0.4869 -0.4286
 5737SOL    HW128844   4.205   4.395   8.062  0.4270  0.5412 -1.7943
 5737SOL    HW228845   4.250   4.263   7.999  1.8407 -0.6668  0.1963
 5738SOL     OW28846   1.117   1.974  15.368  0.0538  0.8756  0.5538
 5738SOL    HW128847   1.095   1.896  15.318  2.1388 -1.4390  3.2568
 5738SOL    HW228848   1.033   2.019  15.371  0.7229  2.0630  1.4312
 5739SOL     OW28849   4.661   3.693   4.495  0.0590 -0.7071  0.2336
 5739SOL    HW128850   4.671   3.621   4.558 -3.7952 -0.9036  0.6640
 5739SOL    HW228851   4.715   3.764   4.529  0.1857 -0.5745 -0.2550
 5740SOL     OW28852   1.944   2.882   6.816  0.1292 -0.6284 -0.7474
 5740SOL    HW128853   1.900   2.948   6.870 -1.1635 -1.1055 -1.2207
 5740SOL    HW228854   2.021   2.852   6.864  0.2924  0.5717 -0.2389
 5741SOL     OW28855   1.524   1.053  16.446 -0.0411 -0.3186 -0.4577
 5741SOL    HW128856   1.558   1.079  16.360  0.7011  0.8981  0.2182
 5741SOL    HW228857   1.527   1.134  16.496  0.3925 -0.0955 -0.8366
 5742SOL     OW28858   3.296   4.585   8.487 -0.0439  0.4504 -0.2651
 5742SOL    HW128859   3.292   4.566   8.581  0.7673  1.2703 -0.0625
 5742SOL    HW228860   3.230   4.653   8.475 -0.3112  0.5370  1.7027
 5743SOL     OW28861   2.806   0.485   2.920  0.0223 -0.2514  0.4929
 5743SOL    HW128862   2.803   0.441   2.835 -2.0139  2.5640 -0.8901
 5743SOL    HW228863   2.816   0.576   2.892 -3.0838 -0.3280 -0.9901
 5744SOL     OW28864   0.684   1.298   4.553  0.1878 -0.4076 -0.6186
 5744SOL    HW128865   0.771   1.276   4.584  0.0712 -0.9553 -0.6787
 5744SOL    HW228866   0.653   1.360   4.619  0.8067 -0.3863 -0.3547
 5745SOL     OW28867   1.109   3.850  14.602 -0.7074 -0.6933  0.0180
 5745SOL    HW128868   1.115   3.938  14.565  1.8830 -0.7459  0.3136
 5745SOL    HW228869   1.070   3.869  14.686  0.6382  1.6008  0.1183
 5746SOL     OW28870   3.313   3.395   9.037 -0.3559  0.4794  0.6895
 5746SOL    HW128871   3.224   3.362   9.041 -0.1154 -0.3597 -1.0413
 5746SOL    HW228872   3.324   3.440   8.953 -0.0107  1.0815  1.0474
 5747SOL     OW28873   1.671   2.266  13.121  0.2679  0.9162  0.0373
 5747SOL    HW128874   1.711   2.344  13.160 -0.1085 -0.0540  2.3692
 5747SOL    HW228875   1.711   2.202  13.180 -0.3870  0.2492 -0.2421
 5748SOL     OW28876   0.240   0.036   2.367 -0.0617 -0.6211  0.0456
 5748SOL    HW128877   0.295   4.700   2.345  0.8934 -0.6016  2.3669
 5748SOL    HW228878   0.155   4.734   2.353 -0.0167 -0.7063  0.0295
 5749SOL     OW28879   0.518   0.516   1.771 -0.0013 -0.0572  0.1318
 5749SOL    HW128880   0.591   0.518   1.709  0.0378  0.8732  0.2059
 5749SOL    HW228881   0.537   0.598   1.817  1.4775 -0.5279  0.3465
 5750SOL     OW28882   0.320   4.591   0.046 -0.0145  0.2916 -0.1274
 5750SOL    HW128883   0.286   4.638  17.727  0.3043  1.8425  0.6782
 5750SOL    HW228884   0.358   4.523  17.748 -1.3070  0.2854 -1.0051
 5751SOL     OW28885   4.010   1.848  16.340 -0.1110 -0.3537  0.3186
 5751SOL    HW128886   4.050   1.889  16.417 -0.3903 -0.4369  0.5099
 5751SOL    HW228887   3.921   1.867  16.369 -0.5742  0.9191 -2.0003
 5752SOL     OW28888   1.518   2.483   4.345  0.5413 -0.0111 -0.1571
 5752SOL    HW128889   1.423   2.492   4.343  0.4519 -0.5543  1.7539
 5752SOL    HW228890   1.539   2.451   4.258 -0.2006  1.3974 -0.8616
 5753SOL     OW28891   1.987   2.155   7.198 -0.0515  0.0624 -0.7502
 5753SOL    HW128892   2.071   2.112   7.218 -0.3261  0.3009  0.9398
 5753SOL    HW228893   1.938   2.087   7.152 -0.8559  1.7785 -2.3949
 5754SOL     OW28894   0.788   2.811   0.569  0.4699  0.1433 -0.0948
 5754SOL    HW128895   0.807   2.724   0.603  0.9735  0.4823  0.4885
 5754SOL    HW228896   0.736   2.839   0.644  1.7101  0.9786  0.4560
 5755SOL     OW28897   4.658   1.733   2.169 -0.7537  0.4119 -0.3747
 5755SOL    HW128898   4.623   1.645   2.150 -1.8625  0.2323  2.4812
 5755SOL    HW228899   4.730   1.696   2.220 -0.0786  0.2747 -1.4291
 5756SOL     OW28900   1.375   4.297   3.389 -0.0190 -0.6696  0.5137
 5756SOL    HW128901   1.385   4.303   3.484 -1.8636 -2.1045  0.8051
 5756SOL    HW228902   1.327   4.376   3.365  0.1960 -0.8409 -0.4752
 5757SOL     OW28903   2.280   3.592   2.443 -0.5132 -0.0590 -0.2247
 5757SOL    HW128904   2.260   3.500   2.427 -0.0762  0.0568 -1.4078
 5757SOL    HW228905   2.358   3.606   2.389 -0.5588 -1.0199 -0.5499
 5758SOL     OW28906   0.720   2.103  11.903 -0.5039  0.3353 -0.7143
 5758SOL    HW128907   0.661   2.168  11.942 -1.2731 -0.9637  0.2825
 5758SOL    HW228908   0.721   2.143  11.816  0.7469  0.2342 -0.7457
 5759SOL     OW28909   2.694   0.495   7.620  0.3257 -0.4389  0.1673
 5759SOL    HW128910   2.711   0.588   7.634 -1.7080  0.1436 -1.1754
 5759SOL    HW228911   2.624   0.481   7.684  0.1545  0.5539  0.1963
 5760SOL     OW28912   1.059   0.469   8.353 -0.0516  0.1271 -0.4686
 5760SOL    HW128913   1.097   0.556   8.338  1.9163 -0.6638 -0.0862
 5760SOL    HW228914   1.024   0.474   8.442  0.5229 -0.4439 -0.2115
 5761SOL     OW28915   3.377   0.108  12.617  0.7241  0.1270  0.4495
 5761SOL    HW128916   3.362   0.022  12.657  2.2901 -1.1766 -1.7987
 5761SOL    HW228917   3.450   0.139  12.671  0.9369 -1.3302  1.0176
 5762SOL     OW28918   1.427   3.297   6.450 -0.1327 -0.4045 -0.5727
 5762SOL    HW128919   1.371   3.303   6.373 -2.8514  1.1647  1.5353
 5762SOL    HW228920   1.460   3.208   6.437  2.4226  0.4001  0.3618
 5763SOL     OW28921   2.154   2.176  14.984  0.2537  0.6651  0.6646
 5763SOL    HW128922   2.122   2.114  14.918  0.0807  1.8312 -0.3536
 5763SOL    HW228923   2.071   2.203  15.023  0.8806  0.9065  1.8228
 5764SOL     OW28924   3.960   1.625   4.501  0.1783  0.0428  0.4427
 5764SOL    HW128925   3.979   1.565   4.429 -1.7243  0.4178 -0.3677
 5764SOL    HW228926   3.914   1.689   4.448 -0.4532  0.1570  1.1364
 5765SOL     OW28927   0.038   2.282  11.181 -0.1624 -0.2740  0.1589
 5765SOL    HW128928   4.688   2.308  11.160  0.8818 -0.1289 -4.0096
 5765SOL    HW228929   0.062   2.252  11.094  0.9493 -0.5791  0.5762
 5766SOL     OW28930   2.482   2.673   6.750 -0.1379  0.6360 -0.1748
 5766SOL    HW128931   2.513   2.592   6.709  1.7051  1.2844 -0.0475
 5766SOL    HW228932   2.425   2.621   6.806  2.4602  0.0275  1.9098
 5767SOL     OW28933   1.668   1.037   2.217 -0.0117  0.2535 -0.0332
 5767SOL    HW128934   1.603   1.090   2.264 -0.0878 -1.6068  1.9555
 5767SOL    HW228935   1.740   1.027   2.279  1.2791  0.8528 -1.4495
 5768SOL     OW28936   0.074   4.263   2.404 -0.7382  0.4508  0.8251
 5768SOL    HW128937   0.142   4.329   2.405  0.3514 -0.6795  1.3439
 5768SOL    HW228938   0.020   4.304   2.337  0.9417  1.0063 -0.1871
 5769SOL     OW28939   0.122   1.549   6.413  0.9145 -0.3181  0.0128
 5769SOL    HW128940   0.085   1.472   6.456  0.4817  1.4675  2.8734
 5769SOL    HW228941   0.180   1.503   6.353 -0.6777 -2.2881 -0.0294
 5770SOL     OW28942   0.495   0.114   5.475  0.1854 -0.2716 -0.1723
 5770SOL    HW128943   0.567   0.163   5.513 -0.0046 -0.4935  0.4754
 5770SOL    HW228944   0.530   0.093   5.388  0.6449  1.2409 -0.3443
 5771SOL     OW28945   2.799   1.720   8.358  0.3136 -0.1793 -0.1546
 5771SOL    HW128946   2.784   1.626   8.358 -0.5280 -0.0469 -0.7898
 5771SOL    HW228947   2.856   1.737   8.433 -0.1679 -1.3550  0.4704
 5772SOL     OW28948   0.823   0.070   2.888  0.1927  0.6022 -0.2035
 5772SOL    HW128949   0.793   0.061   2.797 -1.1664 -0.3090  0.3344
 5772SOL    HW228950   0.782   0.154   2.910 -1.0346  0.0948 -0.4993
 5773SOL     OW28951   3.195   0.373   4.293  0.0694  0.2850 -0.8189
 5773SOL    HW128952   3.237   0.341   4.373 -2.4104  2.4509  1.3304
 5773SOL    HW228953   3.203   0.466   4.316 -0.2036 -0.3014  1.6535
 5774SOL     OW28954   0.727   3.927   8.258  0.0284 -0.0854  0.0653
 5774SOL    HW128955   0.652   3.891   8.304 -2.0262  0.9625 -2.4743
 5774SOL    HW228956   0.730   4.015   8.295 -0.5286 -0.4081  0.8631
 5775SOL     OW28957   2.336   0.224   5.173 -0.0868  0.2068  0.1670
 5775SOL    HW128958   2.374   0.220   5.260  0.6093 -0.6983 -0.1877
 5775SOL    HW228959   2.252   0.261   5.200  0.0097  0.3959  0.2061
 5776SOL     OW28960   0.726   4.530  15.287  0.3613  0.2456 -0.6858
 5776SOL    HW128961   0.724   4.619  15.322 -0.5032  0.0661 -0.2873
 5776SOL    HW228962   0.635   4.516  15.263 -0.1732  1.1021  0.9019
 5777SOL     OW28963   4.230   3.684   9.668  0.2637 -0.2235 -0.1951
 5777SOL    HW128964   4.294   3.649   9.606 -1.5025 -1.7620 -1.1279
 5777SOL    HW228965   4.168   3.612   9.674  0.9879 -0.9524 -1.3788
 5778SOL     OW28966   3.405   2.183  12.942 -0.2171  0.0011  1.0435
 5778SOL    HW128967   3.449   2.235  12.875 -2.4885 -0.3271 -0.6963
 5778SOL    HW228968   3.340   2.131  12.896  0.7358  0.1739 -0.5027
 5779SOL     OW28969   2.821   2.929  13.342 -0.0025  0.8598  0.0407
 5779SOL    HW128970   2.846   2.941  13.433  0.3110  0.8959 -0.0482
 5779SOL    HW228971   2.858   3.009  13.303  0.8785  0.6288  0.4007
 5780SOL     OW28972   3.846   3.153   6.298 -0.4111  0.0765 -0.7052
 5780SOL    HW128973   3.913   3.123   6.359  0.1034 -1.4370 -2.0128
 5780SOL    HW228974   3.858   3.094   6.224  0.7511 -0.4195 -0.1112
 5781SOL     OW28975   3.090   3.195  17.396 -0.4319  0.1439  0.2044
 5781SOL    HW128976   3.088   3.271  17.454  0.2981 -0.5176  1.1031
 5781SOL    HW228977   3.024   3.226  17.334 -3.7623 -0.4592  3.4509
 5782SOL     OW28978   3.756   2.182  10.665 -0.0514  0.0733 -0.0999
 5782SOL    HW128979   3.695   2.157  10.596 -0.1901 -1.4311  0.5814
 5782SOL    HW228980   3.835   2.174  10.611 -0.5181  1.8387 -1.0693
 5783SOL     OW28981   1.166   1.726   3.923 -0.0810  0.1264  0.1446
 5783SOL    HW128982   1.080   1.764   3.938 -0.5953 -0.2176 -1.9388
 5783SOL    HW228983   1.181   1.674   4.002  2.2526 -0.0664 -0.4325
 5784SOL     OW28984   4.585   2.062  16.156  0.0348  0.1216  0.2618
 5784SOL    HW128985   4.531   2.000  16.106  1.6835 -0.9905 -0.1615
 5784SOL    HW228986   4.530   2.095  16.226 -1.7330 -0.5542 -0.8019
 5785SOL     OW28987   3.630   2.204   3.655  0.4367  0.0074 -0.0388
 5785SOL    HW128988   3.553   2.172   3.608 -0.1647 -1.5054  1.9613
 5785SOL    HW228989   3.584   2.261   3.717  0.1436  2.2877 -2.3297
 5786SOL     OW28990   2.128   2.673  13.033  0.2104  0.2870 -0.4906
 5786SOL    HW128991   2.156   2.761  13.056 -0.3263  0.9303 -2.2893
 5786SOL    HW228992   2.057   2.680  12.970 -0.9618  0.6805  0.8814
 5787SOL     OW28993   2.181   3.776   2.176 -0.5107  0.1155 -0.4923
 5787SOL    HW128994   2.100   3.828   2.178 -1.3919 -1.2901  0.1318
 5787SOL    HW228995   2.236   3.826   2.236 -0.5316 -0.9231  0.3939
 5788SOL     OW28996   0.478   3.153  17.309  0.2242 -0.0154 -0.1851
 5788SOL    HW128997   0.471   3.212  17.384 -0.0794 -0.6293  0.2659
 5788SOL    HW228998   0.565   3.115  17.325 -0.1240  0.0839  1.9783
 5789SOL     OW28999   4.496   4.682   6.566  0.9735 -0.0234  0.1129
 5789SOL    HW129000   4.439   4.697   6.642  0.8468 -0.8586  0.1800
 5789SOL    HW229001   4.549   4.612   6.604  0.8964  0.8193  1.7454
 5790SOL     OW29002   4.440   2.460   6.865  0.0514 -0.0039  0.2824
 5790SOL    HW129003   4.442   2.508   6.948  1.0663  1.5738 -0.6532
 5790SOL    HW229004   4.434   2.535   6.806 -3.2250  0.3239  1.0370
 5791SOL     OW29005   1.994   4.007   2.132 -0.3163 -0.2564 -0.0737
 5791SOL    HW129006   2.008   4.098   2.105  0.5184 -0.4979 -0.4557
 5791SOL    HW229007   1.977   4.017   2.226  0.1710  1.1546 -0.1336
 5792SOL     OW29008   0.628   2.068   3.706  0.0631  0.8465 -0.3314
 5792SOL    HW129009   0.602   1.983   3.671  0.5984 -0.1579  1.6892
 5792SOL    HW229010   0.716   2.080   3.670  0.3049 -0.2510 -0.1134
 5793SOL     OW29011   4.115   0.361   1.694 -0.0090 -0.0501  0.4159
 5793SOL    HW129012   4.093   0.424   1.762 -1.0482  0.9262 -0.8146
 5793SOL    HW229013   4.151   0.418   1.626 -0.4508 -2.0597 -1.5260
 5794SOL     OW29014   0.666   3.043  15.338 -0.1424 -0.5026  0.0361
 5794SOL    HW129015   0.714   2.963  15.357  0.6005  0.3577  1.7113
 5794SOL    HW229016   0.626   3.014  15.256  0.1553 -0.1586 -0.2320
 5795SOL     OW29017   3.667   3.459   6.011 -0.2228 -0.2501  0.3125
 5795SOL    HW129018   3.725   3.445   6.086 -1.1039 -0.6303  0.9215
 5795SOL    HW229019   3.696   3.382   5.962  2.0817  0.2791  0.8442
 5796SOL     OW29020   4.709   2.572   1.599  0.0222 -0.0678 -0.0075
 5796SOL    HW129021   4.738   2.580   1.508 -1.5420 -2.2138 -0.7018
 5796SOL    HW229022   4.668   2.486   1.608  2.1018 -1.1813 -0.9299
 5797SOL     OW29023   4.498   3.347   6.954 -0.0193 -0.6921 -0.6842
 5797SOL    HW129024   4.573   3.299   6.918 -0.6010 -0.8633 -1.6634
 5797SOL    HW229025   4.432   3.315   6.893 -0.8408  1.5522 -0.9940
 5798SOL     OW29026   3.818   3.850   0.625 -0.1648 -0.0681 -0.9655
 5798SOL    HW129027   3.888   3.830   0.563 -0.5442 -1.1557 -1.0492
 5798SOL    HW229028   3.840   3.936   0.660 -0.9395 -0.9661  1.7624
 5799SOL     OW29029   1.963   1.429   4.380 -0.1019  0.4234  0.3484
 5799SOL    HW129030   2.017   1.350   4.386 -2.0554 -1.0400 -1.4961
 5799SOL    HW229031   1.943   1.441   4.473  0.4968 -1.8124  0.7622
 5800SOL     OW29032   4.669   3.319  15.709  0.6761 -0.8415 -0.1507
 5800SOL    HW129033   4.658   3.413  15.725  0.1219 -0.8915 -0.2470
 5800SOL    HW229034   4.681   3.282  15.796  0.3885 -0.7292 -0.0648
 5801SOL     OW29035   2.064   1.667  14.030  0.3320  0.4101 -0.3350
 5801SOL    HW129036   1.987   1.635  14.078  0.6298  0.7614  0.3692
 5801SOL    HW229037   2.130   1.618  14.078  0.5851  0.4162 -0.6761
 5802SOL     OW29038   4.647   3.594   7.037  0.5651  0.0900 -0.0810
 5802SOL    HW129039   4.694   3.518   7.002 -1.4659 -0.2891 -1.9066
 5802SOL    HW229040   4.578   3.614   6.975  1.7408 -0.5155 -1.5835
 5803SOL     OW29041   3.684   2.389  16.154 -0.3496  0.2523  0.9163
 5803SOL    HW129042   3.631   2.461  16.121 -0.5209 -0.3850 -0.1951
 5803SOL    HW229043   3.743   2.363  16.083 -1.9408  0.9569 -0.6527
 5804SOL     OW29044   0.452   3.459   7.359 -0.0647 -0.9805  0.9065
 5804SOL    HW129045   0.506   3.528   7.319  1.2945 -2.7031 -0.2349
 5804SOL    HW229046   0.457   3.482   7.451 -1.5669  1.8683  0.2743
 5805SOL     OW29047   3.221   1.154   5.196 -0.1285 -0.6887  0.5222
 5805SOL    HW129048   3.284   1.162   5.267  0.5094 -1.8925  0.0961
 5805SOL    HW229049   3.143   1.204   5.221  1.0196  0.9104  0.8832
 5806SOL     OW29050   1.466   1.945   5.263  0.1645 -0.3971  0.3214
 5806SOL    HW129051   1.425   1.913   5.184  0.5282  1.7945 -0.7657
 5806SOL    HW229052   1.469   1.867   5.318 -1.6498  0.0474  1.0439
 5807SOL     OW29053   3.919   1.023   2.547 -0.5043 -0.1080  0.8763
 5807SOL    HW129054   3.867   1.101   2.527 -0.6677 -0.3149  0.4951
 5807SOL    HW229055   3.957   1.010   2.460  1.8977 -1.5732  2.1650
 5808SOL     OW29056   2.341   1.176   6.581  0.6364 -0.3245  0.2435
 5808SOL    HW129057   2.325   1.085   6.555 -1.1186 -0.3273  1.3086
 5808SOL    HW229058   2.258   1.216   6.554  0.4573 -1.2996 -0.6618
 5809SOL     OW29059   1.558   4.298   1.894 -0.0266 -0.0743 -0.5454
 5809SOL    HW129060   1.574   4.205   1.908  3.1423  0.6418  0.5445
 5809SOL    HW229061   1.624   4.320   1.827 -0.2531  0.7396 -0.4918
 5810SOL     OW29062   0.235   0.103   7.168  0.5747 -0.3853 -0.1349
 5810SOL    HW129063   0.162   0.091   7.229  0.3189 -0.6553 -0.4963
 5810SOL    HW229064   0.180   0.129   7.094  0.7820  2.2091  0.6017
 5811SOL     OW29065   1.150   4.531   2.761  0.3638 -0.3238 -0.3398
 5811SOL    HW129066   1.119   4.440   2.766  0.0974 -0.2294 -0.2644
 5811SOL    HW229067   1.124   4.550   2.671 -2.2422  0.1155  0.5231
 5812SOL     OW29068   2.081   2.285   8.668 -0.3993 -0.4200 -0.7838
 5812SOL    HW129069   1.992   2.319   8.679 -0.8158 -1.8011  0.1672
 5812SOL    HW229070   2.081   2.241   8.753 -0.8245 -0.3654 -0.7577
 5813SOL     OW29071   2.414   2.457  16.560  0.2604  0.0114 -0.5756
 5813SOL    HW129072   2.506   2.469  16.536  0.0089  0.8633 -1.0949
 5813SOL    HW229073   2.390   2.380  16.507  0.9124 -0.5442 -0.0620
 5814SOL     OW29074   0.283   2.221  10.581  0.2207 -0.1364 -0.5510
 5814SOL    HW129075   0.190   2.219  10.558  0.6288 -0.3300 -2.1962
 5814SOL    HW229076   0.296   2.139  10.628 -3.2094  0.7646  2.0058
 5815SOL     OW29077   1.773   0.462   5.870 -0.0322 -0.6937  0.0304
 5815SOL    HW129078   1.852   0.453   5.922 -1.2949 -2.0312  1.7062
 5815SOL    HW229079   1.744   0.548   5.901  1.3196 -0.1607 -0.1940
 5816SOL     OW29080   4.693   4.132  12.487 -0.5593 -0.2819 -0.2984
 5816SOL    HW129081   4.648   4.092  12.561 -2.2031  1.8446 -0.1540
 5816SOL    HW229082   4.623   4.144  12.423 -0.1804 -0.3838 -0.7402
 5817SOL     OW29083   3.365   0.718   3.167  0.4179  0.6491 -0.0911
 5817SOL    HW129084   3.398   0.702   3.255 -0.4434 -0.7223 -0.0282
 5817SOL    HW229085   3.290   0.659   3.159  1.4970 -0.8599  0.9991
 5818SOL     OW29086   3.127   0.491   1.466  0.2485  0.3753  0.2592
 5818SOL    HW129087   3.066   0.426   1.503 -0.2735  0.6066 -0.2085
 5818SOL    HW229088   3.155   0.435   1.394 -1.8858  1.5936 -1.4977
 5819SOL     OW29089   3.830   4.277   8.657  0.0740  0.0749  0.0092
 5819SOL    HW129090   3.760   4.321   8.608  0.9285  0.6305 -0.7201
 5819SOL    HW229091   3.901   4.285   8.593  0.4735 -0.0569  0.4371
 5820SOL     OW29092   4.243   2.054   7.193 -0.5903 -0.2274 -0.1995
 5820SOL    HW129093   4.247   2.098   7.108 -0.3078 -0.8456 -0.5077
 5820SOL    HW229094   4.148   2.049   7.203 -0.6449  0.5516 -0.2969
 5821SOL     OW29095   0.217   2.607  16.456  0.7378 -0.3254  0.2362
 5821SOL    HW129096   0.233   2.513  16.459  0.1394 -0.4570 -0.6747
 5821SOL    HW229097   0.159   2.615  16.532  0.9672 -0.7137  0.4497
 5822SOL     OW29098   2.189   3.824   6.401 -0.3774  0.3169 -0.2527
 5822SOL    HW129099   2.113   3.826   6.460  0.4693 -1.8546  0.9237
 5822SOL    HW229100   2.188   3.900   6.344  0.2914  0.5135 -0.0000
 5823SOL     OW29101   2.519   1.486   5.300 -0.4725  0.3267  0.1555
 5823SOL    HW129102   2.465   1.416   5.337  1.8880 -0.8655  1.3300
 5823SOL    HW229103   2.456   1.518   5.235 -0.6086 -3.3259 -1.4978
 5824SOL     OW29104   4.084   0.328  12.429  0.4281 -0.1617 -0.1263
 5824SOL    HW129105   3.998   0.289  12.412  0.6999 -1.5267  1.5794
 5824SOL    HW229106   4.099   0.285  12.514  1.6159 -2.6159 -1.5648
 5825SOL     OW29107   3.634   0.931   7.177 -0.0025  0.4193 -0.2144
 5825SOL    HW129108   3.717   0.908   7.136 -0.7167  1.8994 -2.4490
 5825SOL    HW229109   3.663   0.933   7.268 -1.9000  1.4577  0.3666
 5826SOL     OW29110   1.652   3.017  12.495  0.3871  0.0911 -0.0575
 5826SOL    HW129111   1.707   3.050  12.424 -2.3590  0.3393 -2.0673
 5826SOL    HW229112   1.653   3.102  12.538 -3.0463  0.8437 -1.4936
 5827SOL     OW29113   2.953   1.458   0.941  0.0466  0.1505 -0.1757
 5827SOL    HW129114   2.861   1.454   0.969 -0.4435 -0.3346 -1.8705
 5827SOL    HW229115   2.971   1.364   0.936 -1.1295 -0.0583 -0.5184
 5828SOL     OW29116   1.592   0.515   6.401  0.5264 -0.1118  0.2835
 5828SOL    HW129117   1.533   0.491   6.473 -1.8743  0.8446 -1.3811
 5828SOL    HW229118   1.622   0.601   6.430 -1.3047  0.0834  1.6733
 5829SOL     OW29119   2.438   2.207   4.397 -0.2940 -0.1152 -0.4644
 5829SOL    HW129120   2.424   2.115   4.422 -2.2922 -0.0968 -1.5496
 5829SOL    HW229121   2.362   2.222   4.341 -1.3072 -2.9526  0.1370
 5830SOL     OW29122   3.314   0.742   0.768 -0.2850  0.3154 -0.9398
 5830SOL    HW129123   3.337   0.653   0.739  0.3780  0.2311 -0.1326
 5830SOL    HW229124   3.253   0.769   0.698 -2.6762 -1.5384  0.4460
 5831SOL     OW29125   2.201   0.912   9.200  0.5565  0.2627  0.1543
 5831SOL    HW129126   2.201   0.869   9.114 -1.3290  2.3951 -0.8902
 5831SOL    HW229127   2.149   0.846   9.247  2.1926  0.2446  1.9352
 5832SOL     OW29128   0.386   1.212   3.541  0.0644  0.4610  0.4866
 5832SOL    HW129129   0.436   1.131   3.528 -0.5547 -0.0581  1.3040
 5832SOL    HW229130   0.297   1.195   3.512  0.2240  2.0089 -0.9054
 5833SOL     OW29131   2.401   4.610  14.633 -0.0609  0.6657 -0.0098
 5833SOL    HW129132   2.452   4.681  14.673  0.5246  0.3484 -0.1963
 5833SOL    HW229133   2.473   4.551  14.612  1.1065  2.2981 -0.5428
 5834SOL     OW29134   1.240   1.317   2.699 -0.1031  0.0045  0.3630
 5834SOL    HW129135   1.281   1.368   2.769 -0.6265  0.5551  0.2757
 5834SOL    HW229136   1.294   1.242   2.675  0.0393 -0.5534  2.4311
 5835SOL     OW29137   4.091   4.117   3.655 -0.2404  0.9000  0.3065
 5835SOL    HW129138   4.098   4.210   3.634 -0.2242  1.0252  0.8594
 5835SOL    HW229139   4.015   4.097   3.601 -0.2962  2.3173 -0.1271
 5836SOL     OW29140   0.817   3.665   7.780 -0.0904 -0.3008  0.5119
 5836SOL    HW129141   0.912   3.672   7.787 -0.2381  1.7436  0.4646
 5836SOL    HW229142   0.805   3.581   7.825 -0.6042 -0.4796  0.0538
 5837SOL     OW29143   0.437   3.589  12.353 -0.6375 -0.5382  0.0081
 5837SOL    HW129144   0.493   3.552  12.421 -0.3423 -2.1790 -1.1244
 5837SOL    HW229145   0.397   3.661  12.401 -1.8116 -2.2046  1.5386
 5838SOL     OW29146   0.409   3.959  11.606  0.1081  0.4563 -0.9465
 5838SOL    HW129147   0.425   4.041  11.652  0.3765 -0.8583  1.2799
 5838SOL    HW229148   0.489   3.935  11.560 -0.3654 -1.2081 -0.9040
 5839SOL     OW29149   0.004   0.216  17.067 -0.4038  0.3505  0.1145
 5839SOL    HW129150   0.011   0.257  16.981 -3.3966 -0.5466 -0.5491
 5839SOL    HW229151   4.649   0.221  17.081 -0.3430  1.3575  0.1854
 5840SOL     OW29152   0.738   4.502   2.320  0.4379  0.4646  0.1101
 5840SOL    HW129153   0.678   4.521   2.248 -0.9030  2.0677  1.6549
 5840SOL    HW229154   0.718   4.572   2.383 -0.2308  1.7569 -1.5428
 5841SOL     OW29155   3.297   1.265   6.246 -0.1320  0.2085  0.3452
 5841SOL    HW129156   3.259   1.268   6.159 -0.7607 -1.8563  0.5409
 5841SOL    HW229157   3.378   1.218   6.229 -1.7437 -2.4775  0.0565
 5842SOL     OW29158   0.159   4.225  14.477 -0.1780 -0.2653  0.1350
 5842SOL    HW129159   0.093   4.232  14.409 -0.5117  1.4762  0.6203
 5842SOL    HW229160   0.102   4.260  14.546 -0.7325  2.5318 -1.7466
 5843SOL     OW29161   4.627   3.182   8.080 -0.0237  1.0436  0.1321
 5843SOL    HW129162   4.600   3.176   8.172  0.6704  0.2892  0.2908
 5843SOL    HW229163   4.557   3.236   8.043  3.0042  1.4170 -5.0221
 5844SOL     OW29164   2.523   3.842   6.163  0.7230  0.1266  0.0955
 5844SOL    HW129165   2.432   3.860   6.140  0.7821  1.2190  0.7130
 5844SOL    HW229166   2.519   3.813   6.254  0.9044 -0.6135 -0.1281
 5845SOL     OW29167   4.093   2.133   3.390 -0.1142  0.7406  0.1755
 5845SOL    HW129168   4.066   2.045   3.417  1.9666  0.2518  0.7123
 5845SOL    HW229169   4.120   2.174   3.472  0.0877  1.4650 -0.2480
 5846SOL     OW29170   3.927   1.697   2.611  0.8758  0.1921 -0.0063
 5846SOL    HW129171   3.937   1.660   2.523  0.8536 -0.0224  0.0813
 5846SOL    HW229172   3.985   1.640   2.662  1.3731  0.5648 -0.1561
 5847SOL     OW29173   2.828   3.160  14.759  0.1898  0.4771  0.0340
 5847SOL    HW129174   2.919   3.175  14.787 -0.3751 -0.3719  2.3721
 5847SOL    HW229175   2.825   3.189  14.668  1.1833 -0.3751 -0.2700
 5848SOL     OW29176   4.294   1.270   4.049  0.2278  0.4401 -0.3505
 5848SOL    HW129177   4.334   1.353   4.022  0.6151  0.2828 -0.2716
 5848SOL    HW229178   4.286   1.291   4.142 -0.8455 -2.3680  0.1946
 5849SOL     OW29179   3.808   2.905  17.071  0.3372 -0.1034 -0.0411
 5849SOL    HW129180   3.848   2.835  17.019  1.3021 -0.6928  1.4977
 5849SOL    HW229181   3.791   2.857  17.152 -1.8477 -0.7868 -0.9077
 5850SOL     OW29182   3.962   1.075   3.693  0.1253 -0.2806  0.4063
 5850SOL    HW129183   4.046   1.029   3.689  0.9745  1.2898 -0.2073
 5850SOL    HW229184   3.959   1.127   3.773  0.5476 -1.2428  1.0454
 5851SOL     OW29185   3.115   3.646   1.218  0.5985 -0.2813  0.5428
 5851SOL    HW129186   3.201   3.635   1.259  0.6327  0.9866  0.8056
 5851SOL    HW229187   3.126   3.733   1.180  0.7583 -0.2900  0.5726
 5852SOL     OW29188   0.196   2.152   2.330  0.5295 -0.2945 -0.3030
 5852SOL    HW129189   0.264   2.210   2.363  1.3334 -0.9606 -0.7730
 5852SOL    HW229190   0.145   2.142   2.410  1.3172  2.4009  0.5431
 5853SOL     OW29191   1.000   2.738   4.097  0.5404  0.7115  0.2617
 5853SOL    HW129192   1.022   2.719   4.006  2.8022 -1.0504  1.1751
 5853SOL    HW229193   1.001   2.647   4.129  0.5826  0.4157 -0.5876
 5854SOL     OW29194   1.675   3.659   8.890  0.7910 -0.0597 -0.1748
 5854SOL    HW129195   1.581   3.646   8.873  1.1811 -1.2375 -1.4060
 5854SOL    HW229196   1.716   3.645   8.805  1.3032  4.2636 -0.6408
 5855SOL     OW29197   0.812   3.191   8.305 -0.5564 -0.0291  0.2218
 5855SOL    HW129198   0.896   3.180   8.349  0.1306 -0.9679 -1.3155
 5855SOL    HW229199   0.758   3.234   8.371 -1.6269 -0.9178 -0.0771
 5856SOL     OW29200   2.443   0.687   3.687 -0.3466 -0.0020 -0.2623
 5856SOL    HW129201   2.368   0.746   3.693 -0.3702 -0.0544 -0.0269
 5856SOL    HW229202   2.417   0.618   3.627  2.0858  1.0720 -2.5486
 5857SOL     OW29203   2.844   3.969  12.016  0.2862  0.5323 -0.7875
 5857SOL    HW129204   2.897   4.048  12.003  2.8730 -1.0946 -0.1327
 5857SOL    HW229205   2.829   3.953  11.923 -2.4033 -0.6112 -0.1378
 5858SOL     OW29206   3.444   2.207  11.772  0.0968 -0.1123 -0.4411
 5858SOL    HW129207   3.534   2.230  11.795  0.2644 -1.2964  0.0984
 5858SOL    HW229208   3.420   2.273  11.707 -1.0520  0.3565  0.4450
 5859SOL     OW29209   0.694   4.527   1.457 -0.4674 -0.1222 -0.2294
 5859SOL    HW129210   0.754   4.513   1.384 -1.9233 -0.8687 -1.2707
 5859SOL    HW229211   0.619   4.476   1.425 -2.1274  2.0373  0.1989
 5860SOL     OW29212   3.619   0.809   5.628 -0.2740 -0.3975  0.1521
 5860SOL    HW129213   3.548   0.801   5.692 -1.5176 -0.2074 -1.2085
 5860SOL    HW229214   3.603   0.728   5.580 -0.1870  0.0462 -0.6143
 5861SOL     OW29215   0.141   2.947   4.510  0.2919  0.1587  0.1639
 5861SOL    HW129216   0.054   2.988   4.511  0.7001  1.0455 -0.3588
 5861SOL    HW229217   0.180   2.985   4.432 -1.1538 -1.6039 -1.4313
 5862SOL     OW29218   0.164   1.781   1.522  0.3322  0.0184 -0.2465
 5862SOL    HW129219   0.151   1.759   1.430 -2.8523 -0.8239  0.3981
 5862SOL    HW229220   0.256   1.764   1.545  0.5671  1.4178 -0.1401
 5863SOL     OW29221   0.868   2.442  13.464  0.2060 -0.3772 -0.7389
 5863SOL    HW129222   0.790   2.394  13.438 -0.3095 -1.1583  2.3400
 5863SOL    HW229223   0.867   2.515  13.402 -1.5415 -1.5650 -2.1036
 5864SOL     OW29224   2.531   1.348  10.854 -0.2756  0.0126  0.2875
 5864SOL    HW129225   2.486   1.295  10.919 -0.6352  0.7428  0.6324
 5864SOL    HW229226   2.622   1.346  10.884 -0.9760 -0.2121  2.3808
 5865SOL     OW29227   2.074   4.683  14.166  0.1820 -0.1462  0.2737
 5865SOL    HW129228   2.085   4.589  14.148  2.7168  0.0753  0.6552
 5865SOL    HW229229   2.065   4.686  14.262  0.7246 -0.3342  0.3307
 5866SOL     OW29230   2.353   3.200   2.847  0.1073 -0.0318  0.2620
 5866SOL    HW129231   2.428   3.248   2.882  0.8334  0.2783 -1.7594
 5866SOL    HW229232   2.313   3.267   2.792 -1.1456 -0.8097  0.2345
 5867SOL     OW29233   0.350   2.288   2.733 -0.3670 -0.3079 -0.2409
 5867SOL    HW129234   0.294   2.328   2.799 -0.6546 -0.8763 -0.1342
 5867SOL    HW229235   0.419   2.283   2.799  1.1092 -1.4337 -1.8709
 5868SOL     OW29236   2.857   1.132   2.332 -0.3158 -0.2905  0.2393
 5868SOL    HW129237   2.887   1.145   2.422 -1.3515  0.9003  0.4226
 5868SOL    HW229238   2.773   1.100   2.364 -1.1595  1.6858  0.0423
 5869SOL     OW29239   3.610   3.188   8.995  0.2409  0.1085 -0.7233
 5869SOL    HW129240   3.605   3.266   8.940  0.2581  0.0601 -0.7947
 5869SOL    HW229241   3.706   3.191   8.996  0.1664  2.0406  0.7365
 5870SOL     OW29242   2.646   1.698   4.775 -0.6510 -0.2344 -0.3959
 5870SOL    HW129243   2.712   1.762   4.801  0.5128 -0.2376 -3.3484
 5870SOL    HW229244   2.626   1.734   4.690 -0.2839  0.2350 -0.2830
 5871SOL     OW29245   4.739   2.163  13.345  0.0272  0.1446  0.7353
 5871SOL    HW129246   4.707   2.073  13.348  0.4448  0.0370  1.8871
 5871SOL    HW229247   4.690   2.209  13.412 -2.6264 -1.0715 -0.3588
 5872SOL     OW29248   3.256   3.209   1.909 -0.3881  0.7142  0.0451
 5872SOL    HW129249   3.292   3.202   1.997 -1.8798  1.4914  0.7162
 5872SOL    HW229250   3.200   3.132   1.897 -1.0764  1.3126 -0.5216
 5873SOL     OW29251   3.625   1.306   9.754  0.2621 -0.2773 -0.1989
 5873SOL    HW129252   3.564   1.239   9.784 -0.3530  1.3553  2.1859
 5873SOL    HW229253   3.611   1.306   9.660 -0.5438  1.2162 -0.0666
 5874SOL     OW29254   2.874   2.768   0.020  0.3925  0.0965  0.1490
 5874SOL    HW129255   2.932   2.752   0.094  1.5288 -1.4158 -1.0867
 5874SOL    HW229256   2.807   2.827   0.054  0.0051 -1.1390  1.5134
 5875SOL     OW29257   1.762   4.087   4.611  0.0473 -0.4991 -0.3934
 5875SOL    HW129258   1.769   4.175   4.574 -0.2167 -0.5132 -0.4745
 5875SOL    HW229259   1.814   4.105   4.690 -0.5795  2.5658 -0.6923
 5876SOL     OW29260   2.205   0.513   8.835  0.1882  0.4693 -0.1981
 5876SOL    HW129261   2.295   0.483   8.823  0.3343  0.9418 -0.2892
 5876SOL    HW229262   2.167   0.517   8.747 -0.3537  1.0301  0.0649
 5877SOL     OW29263   2.276   1.690   1.650 -0.2775  0.2770 -0.0040
 5877SOL    HW129264   2.311   1.693   1.738 -2.0043  1.9853  0.6285
 5877SOL    HW229265   2.272   1.597   1.628  0.6846  0.1270  0.4696
 5878SOL     OW29266   0.030   3.823   0.595  0.2980  0.1253  0.3308
 5878SOL    HW129267   4.735   3.826   0.506  0.2770 -1.4325  0.2897
 5878SOL    HW229268   0.110   3.877   0.597 -0.0589  0.6600  0.0115
 5879SOL     OW29269   0.961   3.223   5.247  0.7553  0.0562 -0.3939
 5879SOL    HW129270   1.031   3.198   5.187  0.0227  1.1705 -1.7104
 5879SOL    HW229271   0.895   3.259   5.187  0.7312  1.0578  0.2288
 5880SOL     OW29272   3.019   4.232   7.796 -0.4246 -0.0397 -0.1744
 5880SOL    HW129273   3.069   4.314   7.796  0.6711 -0.7062 -0.9041
 5880SOL    HW229274   3.092   4.172   7.784 -0.9404 -0.6923 -0.0381
 5881SOL     OW29275   0.546   4.362   7.167 -0.1806  0.1748 -0.1090
 5881SOL    HW129276   0.525   4.362   7.260  1.6297  3.1497  0.3281
 5881SOL    HW229277   0.609   4.432   7.183 -2.0718  2.3436 -2.0492
 5882SOL     OW29278   1.933   3.339   2.577 -0.2711 -0.2935 -0.3502
 5882SOL    HW129279   1.873   3.341   2.503  0.3156 -0.8802 -0.8508
 5882SOL    HW229280   1.872   3.326   2.648 -1.4648 -0.9161 -1.4941
 5883SOL     OW29281   4.103   4.012   1.857 -0.1496  0.6258 -0.0060
 5883SOL    HW129282   4.148   3.941   1.901 -1.5367 -1.8840 -2.5963
 5883SOL    HW229283   4.180   4.063   1.831  1.7195 -1.3383  1.7364
 5884SOL     OW29284   3.602   0.431   3.199  0.2153 -0.5203  0.2822
 5884SOL    HW129285   3.554   0.514   3.199  0.3911 -0.4130 -0.4833
 5884SOL    HW229286   3.542   0.357   3.190 -1.1717  0.8659 -2.0093
 5885SOL     OW29287   3.577   3.474  16.239  0.1246  0.4339 -0.2605
 5885SOL    HW129288   3.659   3.425  16.240 -2.1834 -3.4388  0.8571
 5885SOL    HW229289   3.516   3.402  16.254  2.1367 -0.9363  1.3346
 5886SOL     OW29290   0.579   3.834   9.141  0.2479  0.7145  0.4112
 5886SOL    HW129291   0.517   3.896   9.180 -2.4134 -1.2542 -0.6444
 5886SOL    HW229292   0.651   3.893   9.118  0.5507  0.1806 -0.0030
 5887SOL     OW29293   4.621   2.969  17.732 -0.1335 -0.0718 -0.2077
 5887SOL    HW129294   4.567   2.898  17.697 -0.5722  0.0804  0.1669
 5887SOL    HW229295   4.652   2.929   0.056 -1.4505  1.7130  1.1680
 5888SOL     OW29296   4.587   2.069   1.564  0.6330  0.0683 -0.0834
 5888SOL    HW129297   4.682   2.070   1.577  0.3917  1.9894  1.5435
 5888SOL    HW229298   4.565   2.157   1.536  2.4612  0.7183  0.5388
 5889SOL     OW29299   2.890   2.759   2.637  0.3505 -0.3078 -0.5506
 5889SOL    HW129300   2.949   2.695   2.676 -0.8652 -2.0470 -1.5696
 5889SOL    HW229301   2.889   2.726   2.547  0.9157 -1.2480 -0.2038
 5890SOL     OW29302   1.952   0.702   2.919  0.5244 -0.2047  0.5155
 5890SOL    HW129303   1.974   0.609   2.930 -0.5830 -0.5143  0.1268
 5890SOL    HW229304   1.858   0.698   2.936  0.2042  4.1039 -0.3762
 5891SOL     OW29305   1.087   0.679   2.239 -0.3669  0.3174 -0.4167
 5891SOL    HW129306   1.108   0.755   2.186  1.5670  1.2411  1.6689
 5891SOL    HW229307   1.089   0.609   2.174 -2.2855  1.0239 -1.2265
 5892SOL     OW29308   3.675   4.141  11.684  0.3992 -0.2832 -0.0157
 5892SOL    HW129309   3.692   4.180  11.770  2.2542 -1.1003 -0.0093
 5892SOL    HW229310   3.621   4.069  11.715  0.8278  0.0796  1.5852
 5893SOL     OW29311   1.368   3.738   7.867  0.4685  0.6003  0.1252
 5893SOL    HW129312   1.453   3.708   7.900  0.7295  1.6394  0.4025
 5893SOL    HW229313   1.316   3.726   7.947 -1.4647  1.2717 -1.0284
 5894SOL     OW29314   3.846   1.412   2.756 -0.4413  0.5608 -0.2247
 5894SOL    HW129315   3.859   1.331   2.804 -0.7882  0.5115 -0.2159
 5894SOL    HW229316   3.933   1.405   2.716  0.0730  2.9321  0.4864
 5895SOL     OW29317   3.508   4.215   6.673  0.0867 -0.0523 -0.8306
 5895SOL    HW129318   3.456   4.172   6.605 -0.3672  0.2914 -0.6982
 5895SOL    HW229319   3.577   4.148   6.681 -0.7400 -1.1035 -2.5884
 5896SOL     OW29320   3.382   1.092   1.512  0.4391 -0.5087 -0.0677
 5896SOL    HW129321   3.320   1.030   1.550 -1.0114  0.9956  0.0407
 5896SOL    HW229322   3.408   1.036   1.440  1.3876 -1.0775  0.7197
 5897SOL     OW29323   1.311   3.490   2.847 -0.1287 -0.0442 -0.3205
 5897SOL    HW129324   1.398   3.517   2.818  0.1237  2.0353  2.3533
 5897SOL    HW229325   1.273   3.578   2.846  0.7317  0.2948 -2.8976
 5898SOL     OW29326   1.347   1.895  14.230 -0.1706  0.0451 -0.0545
 5898SOL    HW129327   1.346   1.991  14.238 -1.1278  0.0499 -0.2211
 5898SOL    HW229328   1.420   1.894  14.168  0.0259 -0.9935  0.1978
 5899SOL     OW29329   1.716   0.542   7.855  0.1002 -0.5264 -0.3309
 5899SOL    HW129330   1.780   0.550   7.925  0.5027 -0.3774 -0.7114
 5899SOL    HW229331   1.747   0.467   7.805 -2.2197 -0.7319 -1.4976
 5900SOL     OW29332   4.043   0.312  16.677  0.1487 -0.4798 -0.2867
 5900SOL    HW129333   4.082   0.355  16.753  1.7243 -1.9988 -0.2340
 5900SOL    HW229334   4.057   0.382  16.613 -1.7054 -0.7959 -1.0441
 5901SOL     OW29335   0.376   3.827  12.499  0.1615 -0.2976 -0.3035
 5901SOL    HW129336   0.318   3.871  12.561  2.0598  3.3336 -1.0926
 5901SOL    HW229337   0.460   3.871  12.515  1.6065 -2.7611 -1.1666
 5902SOL     OW29338   0.584   2.555   7.713 -0.4673  0.1326  0.1891
 5902SOL    HW129339   0.596   2.547   7.619  0.4296  3.4126  0.0388
 5902SOL    HW229340   0.574   2.650   7.713  1.8865  0.3488 -3.1371
 5903SOL     OW29341   0.023   3.318   2.322  0.3162 -0.2183  0.2502
 5903SOL    HW129342   0.103   3.363   2.296  0.5731  0.6977  2.6317
 5903SOL    HW229343   0.054   3.259   2.390 -0.5874 -0.9021  0.0708
 5904SOL     OW29344   1.822   0.993  10.672  0.3135 -0.8758  0.4930
 5904SOL    HW129345   1.883   0.966  10.603 -0.1880 -1.6963  0.3743
 5904SOL    HW229346   1.865   0.972  10.755  2.7290  0.9441 -0.3004
 5905SOL     OW29347   3.014   1.047   9.151  0.8063 -0.5094  0.0903
 5905SOL    HW129348   2.986   0.956   9.162 -0.7874  0.1400  1.3699
 5905SOL    HW229349   3.058   1.036   9.067  2.6657  2.8680  0.6164
 5906SOL     OW29350   2.611   0.390   8.243  0.2115 -0.6922 -0.0477
 5906SOL    HW129351   2.563   0.308   8.243  0.5226 -0.8672  2.4305
 5906SOL    HW229352   2.608   0.416   8.151 -0.7961  1.1337  0.5022
 5907SOL     OW29353   3.489   1.932   3.239  0.5651 -0.4017 -0.1841
 5907SOL    HW129354   3.403   1.956   3.206  1.1651 -1.2028 -2.3333
 5907SOL    HW229355   3.549   1.916   3.166  2.3031  0.3805  1.0721
 5908SOL     OW29356   1.352   4.546  17.464  0.2427  0.2523 -0.1179
 5908SOL    HW129357   1.268   4.574  17.501  0.0034 -1.8214  0.9182
 5908SOL    HW229358   1.333   4.453  17.454  0.1637  0.1182  1.2701
 5909SOL     OW29359   0.807   3.672  16.375 -0.5971 -0.5183 -0.1462
 5909SOL    HW129360   0.846   3.636  16.455 -1.3682 -0.7377  0.1274
 5909SOL    HW229361   0.721   3.633  16.360  0.3964 -2.6679 -0.2915
 5910SOL     OW29362   0.706   4.391  15.661 -0.1884  0.3784 -0.0043
 5910SOL    HW129363   0.694   4.482  15.633 -2.0787  0.1869  0.1506
 5910SOL    HW229364   0.801   4.391  15.670 -0.1835  1.4925 -0.0242
 5911SOL     OW29365   3.891   1.742   6.386 -0.4137 -0.2849  0.2898
 5911SOL    HW129366   3.821   1.799   6.354  0.3306  0.9750  0.9020
 5911SOL    HW229367   3.915   1.790   6.465 -0.8942 -0.1050  0.3236
 5912SOL     OW29368   2.781   4.545   8.512 -0.1666  0.1392  0.3075
 5912SOL    HW129369   2.740   4.552   8.425  0.5255  1.9481  0.1372
 5912SOL    HW229370   2.715   4.580   8.572 -1.4701 -0.8418 -0.5356
 5913SOL     OW29371   4.584   2.112   3.434  0.3351 -0.0909 -0.5386
 5913SOL    HW129372   4.556   2.076   3.350 -1.2253 -0.6148  0.2127
 5913SOL    HW229373   4.679   2.115   3.422  0.1613 -2.1902 -2.5687
 5914SOL     OW29374   1.066   0.464   6.655 -0.1656  0.3828 -0.2555
 5914SOL    HW129375   1.044   0.373   6.636  1.9166  0.0438 -1.0970
 5914SOL    HW229376   1.157   0.455   6.683 -0.1525  1.5669  0.0799
 5915SOL     OW29377   2.188   1.796   6.092 -0.0694  0.7207 -0.4738
 5915SOL    HW129378   2.256   1.862   6.083  0.6890  0.1584  1.0948
 5915SOL    HW229379   2.152   1.801   6.003  2.0239  2.4255 -1.2032
 5916SOL     OW29380   2.877   0.380   5.285 -0.1481  0.0106  0.4801
 5916SOL    HW129381   2.818   0.425   5.224  1.5401 -0.1751 -1.2649
 5916SOL    HW229382   2.955   0.434   5.270  0.2168 -1.3623 -2.3440
 5917SOL     OW29383   4.015   2.850   6.748  0.0788 -0.2143 -0.4789
 5917SOL    HW129384   3.923   2.853   6.772 -0.0622  0.6183 -1.1213
 5917SOL    HW229385   4.045   2.923   6.802  1.4117 -0.8119 -0.4113
 5918SOL     OW29386   1.249   1.963  13.804 -0.2045  0.2080 -0.4969
 5918SOL    HW129387   1.235   2.025  13.732 -1.3985 -0.4744 -0.8457
 5918SOL    HW229388   1.332   2.000  13.835 -0.1694 -0.4005  0.1419
 5919SOL     OW29389   3.327   2.049   4.562 -0.0332 -0.0739 -0.6120
 5919SOL    HW129390   3.346   1.976   4.503  0.5406  1.0306 -1.8016
 5919SOL    HW229391   3.397   2.048   4.628  1.0576  2.0234 -1.7106
 5920SOL     OW29392   3.734   4.338   2.559  0.1640 -0.1185  0.2302
 5920SOL    HW129393   3.729   4.266   2.622  1.6860 -0.4665 -0.0340
 5920SOL    HW229394   3.827   4.360   2.569  0.8639 -1.3556 -3.4549
 5921SOL     OW29395   4.371   2.222   3.957  0.3774  0.2470  0.5160
 5921SOL    HW129396   4.453   2.174   3.967 -0.1614 -0.5472  1.1278
 5921SOL    HW229397   4.317   2.144   3.971  3.1636 -1.5302  1.1818
 5922SOL     OW29398   1.977   3.485   3.924 -0.0529  0.3835 -0.0572
 5922SOL    HW129399   2.023   3.565   3.951  0.3807 -0.0668  0.5398
 5922SOL    HW229400   1.916   3.527   3.864 -0.8065 -1.1466 -0.3494
 5923SOL     OW29401   2.035   2.813   3.794  0.3031  0.3989  0.4517
 5923SOL    HW129402   2.050   2.870   3.869  1.4112  0.8565 -0.1118
 5923SOL    HW229403   2.031   2.722   3.823 -2.7650  0.2822 -0.3951
 5924SOL     OW29404   1.819   2.289  12.373 -0.3776 -0.5503  0.1697
 5924SOL    HW129405   1.774   2.337  12.443 -1.6020  0.6154 -1.4320
 5924SOL    HW229406   1.783   2.324  12.292  0.2655 -0.9979 -0.3090
 5925SOL     OW29407   2.883   0.381  11.587  0.3887  0.1118  0.6611
 5925SOL    HW129408   2.890   0.329  11.508 -0.9713 -0.3468  0.8367
 5925SOL    HW229409   2.901   0.469  11.552 -1.1207  0.0682 -0.2287
 5926SOL     OW29410   0.708   4.292   6.493 -0.6874 -0.1077 -0.1364
 5926SOL    HW129411   0.659   4.352   6.549 -0.5207 -0.4274  0.3508
 5926SOL    HW229412   0.640   4.225   6.481 -0.2449 -0.6035  0.1120
 5927SOL     OW29413   0.093   2.417  15.749  0.2329 -0.1676  0.6094
 5927SOL    HW129414   0.164   2.366  15.710  0.5528  0.4177  0.4195
 5927SOL    HW229415   0.076   2.469  15.670  0.4853 -0.8441  0.1141
 5928SOL     OW29416   3.668   2.119   8.659 -0.3661  0.1114  0.0843
 5928SOL    HW129417   3.747   2.068   8.676 -1.1800 -1.1117  0.1646
 5928SOL    HW229418   3.693   2.202   8.698  2.0924 -0.6554  0.1546
 5929SOL     OW29419   0.907   2.708  16.982 -0.0642 -0.4060 -0.7716
 5929SOL    HW129420   0.911   2.726  17.076 -2.5065  2.2761 -1.1820
 5929SOL    HW229421   0.940   2.794  16.955  0.8286 -0.5526 -0.1534
 5930SOL     OW29422   1.109   1.437   2.462  0.2200 -0.2501 -0.0920
 5930SOL    HW129423   1.097   1.518   2.512  1.2794  1.0182 -1.8997
 5930SOL    HW229424   1.125   1.378   2.536 -4.1617 -2.1713 -0.6659
 5931SOL     OW29425   1.780   2.872   3.263  0.4588 -0.1955 -0.1866
 5931SOL    HW129426   1.715   2.869   3.334 -0.7510  0.6879 -1.2535
 5931SOL    HW229427   1.823   2.786   3.269  0.7618 -0.1679 -1.9599
 5932SOL     OW29428   2.422   3.354   4.742 -0.6110  0.0774  0.4003
 5932SOL    HW129429   2.516   3.372   4.745 -0.8170  1.0171  1.3396
 5932SOL    HW229430   2.387   3.436   4.777  0.6774  0.8774 -0.2172
 5933SOL     OW29431   4.481   2.459  13.979  0.1771 -0.4252  0.5155
 5933SOL    HW129432   4.417   2.502  14.036  0.2194  1.4312 -0.8664
 5933SOL    HW229433   4.429   2.399  13.926  0.6142  0.7537 -1.2526
 5934SOL     OW29434   3.829   3.634   7.717  0.7179  0.6265  0.2754
 5934SOL    HW129435   3.847   3.618   7.810  1.0427  2.2161  0.4866
 5934SOL    HW229436   3.840   3.728   7.706 -0.3637  0.8042  0.7733
 5935SOL     OW29437   3.430   3.243   2.406  0.0413  0.1227 -0.0343
 5935SOL    HW129438   3.478   3.169   2.442 -0.4696  0.0714  0.5482
 5935SOL    HW229439   3.496   3.312   2.411 -0.6623  0.9053 -1.3631
 5936SOL     OW29440   3.433   0.195   5.743  0.3738  0.3439 -0.2817
 5936SOL    HW129441   3.427   0.109   5.784 -3.2558  1.7068  2.1033
 5936SOL    HW229442   3.373   0.193   5.669  0.0070 -1.4581  0.0691
 5937SOL     OW29443   0.294   1.931   4.418 -0.3770 -0.5891 -0.3986
 5937SOL    HW129444   0.221   1.922   4.478  0.3792 -1.2108  0.4394
 5937SOL    HW229445   0.325   1.840   4.412 -1.7230 -0.8904 -2.8111
 5938SOL     OW29446   2.337   3.285   1.856  0.5284 -0.0840 -0.5467
 5938SOL    HW129447   2.323   3.194   1.884 -1.6446  1.2300  2.6622
 5938SOL    HW229448   2.253   3.298   1.811  0.3729 -0.5089 -0.3840
 5939SOL     OW29449   3.197   3.000  17.242 -0.0489  0.5149 -0.0175
 5939SOL    HW129450   3.162   3.068  17.300  1.9844  2.1850 -0.7500
 5939SOL    HW229451   3.187   2.921  17.296 -3.1291  0.4806 -0.6083
 5940SOL     OW29452   4.600   0.655  14.273  0.0105  0.2072  0.7073
 5940SOL    HW129453   4.586   0.569  14.233 -0.4043  0.0892  1.1090
 5940SOL    HW229454   4.531   0.714  14.242 -1.7794 -3.4125 -2.1745
 5941SOL     OW29455   1.384   1.336   4.685 -0.2574  0.1781 -0.1935
 5941SOL    HW129456   1.346   1.249   4.698  1.5964 -0.4031  1.4081
 5941SOL    HW229457   1.347   1.368   4.768 -0.1965 -3.1112  1.1264
 5942SOL     OW29458   4.368   2.348  16.054  0.1364 -0.0967 -0.4200
 5942SOL    HW129459   4.322   2.431  16.071 -0.6987 -0.3166 -1.5396
 5942SOL    HW229460   4.438   2.389  16.002  1.1517  1.6403  2.3410
 5943SOL     OW29461   0.619   3.957   4.330  0.3125 -0.1700  0.0286
 5943SOL    HW129462   0.658   3.991   4.411  0.4701  0.3668 -0.2766
 5943SOL    HW229463   0.548   3.907   4.370  0.5966 -0.0203  0.7191
 5944SOL     OW29464   1.623   1.105   1.648 -1.2732 -0.4053  0.1679
 5944SOL    HW129465   1.637   1.195   1.677 -0.0615 -0.8422  0.9353
 5944SOL    HW229466   1.527   1.104   1.656 -1.2210  0.0235  0.9022
 5945SOL     OW29467   2.699   0.794  10.679 -0.4704 -0.2246 -0.0770
 5945SOL    HW129468   2.792   0.811  10.693 -0.3484 -0.5545 -0.4886
 5945SOL    HW229469   2.701   0.727  10.610  0.7840 -0.9658  0.6771
 5946SOL     OW29470   1.045   2.216   9.437  0.3149  0.0261 -0.2185
 5946SOL    HW129471   1.054   2.139   9.493  2.4011 -0.4218 -1.1840
 5946SOL    HW229472   0.957   2.251   9.451  0.3134 -0.2213  0.3565
 5947SOL     OW29473   2.351   1.250   9.711 -0.2719 -0.2379  0.4387
 5947SOL    HW129474   2.315   1.179   9.657 -1.9845  1.1184 -0.2271
 5947SOL    HW229475   2.443   1.225   9.724  0.0169 -0.5837 -2.2649
 5948SOL     OW29476   1.133   3.068   3.125  0.6030  0.7009  0.7716
 5948SOL    HW129477   1.089   2.999   3.077 -1.8721  1.0172  2.5425
 5948SOL    HW229478   1.155   3.129   3.055  0.6658  0.7475  0.8320
 5949SOL     OW29479   0.866   1.229   4.855  0.8198 -0.4543 -0.0152
 5949SOL    HW129480   0.771   1.229   4.869  1.1733  0.4815  2.3826
 5949SOL    HW229481   0.892   1.293   4.921 -0.6044  0.1596 -0.0395
 5950SOL     OW29482   3.152   4.704   5.912 -0.3493 -0.0262  0.0726
 5950SOL    HW129483   3.243   4.703   5.884 -0.2406 -3.8537  0.5469
 5950SOL    HW229484   3.120   0.037   5.860 -1.6091  2.3953  4.2313
 5951SOL     OW29485   3.115   1.845   7.744  0.5824  0.2734 -0.0950
 5951SOL    HW129486   3.062   1.775   7.783  2.2978 -0.1549  1.4934
 5951SOL    HW229487   3.185   1.804   7.693  0.7231  1.2544 -0.6780
 5952SOL     OW29488   1.089   2.119   3.850 -0.0235 -0.1676 -0.7830
 5952SOL    HW129489   1.046   2.153   3.928  0.9642  0.9309 -0.7250
 5952SOL    HW229490   1.108   2.191   3.790 -0.3201  0.2015 -0.4362
 5953SOL     OW29491   1.164   3.798  17.152  0.5190  0.3404  0.3484
 5953SOL    HW129492   1.135   3.879  17.109  0.5132 -0.0723 -0.4255
 5953SOL    HW229493   1.216   3.824  17.228  0.8425 -0.3575  0.3690
 5954SOL     OW29494   4.606   3.790   9.644 -0.0026 -0.0841  0.3584
 5954SOL    HW129495   4.547   3.826   9.710 -0.1245 -0.9575  0.7227
 5954SOL    HW229496   4.676   3.755   9.700 -0.3036  1.4594  1.6860
 5955SOL     OW29497   1.145   3.465   4.774  0.1010  0.2172 -0.3932
 5955SOL    HW129498   1.142   3.516   4.855 -0.5073 -1.6722  0.7859
 5955SOL    HW229499   1.135   3.534   4.709 -0.4480  1.2419  0.7712
 5956SOL     OW29500   3.187   4.312   1.673 -0.0110 -0.0716  0.6130
 5956SOL    HW129501   3.188   4.216   1.684 -0.3048 -0.1061  0.3365
 5956SOL    HW229502   3.111   4.341   1.722  1.0042  1.3179  1.3602
 5957SOL     OW29503   2.544   3.535   8.602  0.3897  0.1408  0.2762
 5957SOL    HW129504   2.559   3.622   8.639 -0.4294  1.2452 -1.9779
 5957SOL    HW229505   2.552   3.560   8.510  0.2623 -2.7194 -0.5039
 5958SOL     OW29506   0.981   2.695   5.436  0.4923 -0.1649 -0.7418
 5958SOL    HW129507   0.912   2.662   5.378 -1.9157  4.4892 -0.5603
 5958SOL    HW229508   1.011   2.618   5.484  0.9339  1.4417  1.5667
 5959SOL     OW29509   3.702   1.194   2.186 -0.0653 -0.1006  0.0995
 5959SOL    HW129510   3.673   1.107   2.158  1.5784 -0.8385  0.6943
 5959SOL    HW229511   3.702   1.242   2.103 -4.6460 -0.0153  0.1119
 5960SOL     OW29512   3.595   1.618  13.274 -0.1600 -0.3385  0.7169
 5960SOL    HW129513   3.600   1.713  13.287 -0.1839 -0.3926  1.1342
 5960SOL    HW229514   3.627   1.597  13.362  3.3541  1.2975 -0.1385
 5961SOL     OW29515   1.336   1.706   4.668 -0.3187 -0.4321 -0.0662
 5961SOL    HW129516   1.258   1.677   4.716 -0.8368 -0.3569 -0.8624
 5961SOL    HW229517   1.308   1.739   4.583  2.6760 -0.0879 -0.9145
 5962SOL     OW29518   0.540   0.531  13.182 -0.5839  0.4936  0.1551
 5962SOL    HW129519   0.580   0.566  13.102  0.0268 -0.3914  0.0698
 5962SOL    HW229520   0.563   0.438  13.175 -1.8463  0.3895 -2.7919
 5963SOL     OW29521   0.839   1.011   1.763  0.0116  0.3952 -0.0414
 5963SOL    HW129522   0.817   1.102   1.747  0.3364  0.6872  1.2079
 5963SOL    HW229523   0.855   1.016   1.857  0.0985 -1.0482  0.0259
 5964SOL     OW29524   3.931   3.171   8.208 -0.1209  0.1130 -0.4509
 5964SOL    HW129525   3.911   3.213   8.292 -0.0857 -0.0225 -0.3755
 5964SOL    HW229526   4.022   3.194   8.191  0.9973 -2.7046  1.8716
 5965SOL     OW29527   3.687   2.963   4.604  0.1173  0.1630 -0.0953
 5965SOL    HW129528   3.712   2.899   4.671 -0.6979  1.0522  1.0469
 5965SOL    HW229529   3.596   2.938   4.592 -0.1628  0.5245  1.3445
 5966SOL     OW29530   0.354   3.373   1.964 -0.8621  0.0911 -0.1061
 5966SOL    HW129531   0.411   3.393   2.039 -1.5051 -3.6359  1.3995
 5966SOL    HW229532   0.271   3.379   2.011  0.4254 -0.9828  2.3681
 5967SOL     OW29533   0.655   0.887   8.825 -0.1919 -0.2491  0.3049
 5967SOL    HW129534   0.624   0.847   8.906  0.7926 -1.7618 -0.0705
 5967SOL    HW229535   0.601   0.966   8.828 -0.4688 -0.3694 -1.5938
 5968SOL     OW29536   0.261   3.904   4.610  0.4912  0.3478  0.0147
 5968SOL    HW129537   0.334   3.852   4.642  0.0378 -1.4461 -1.8672
 5968SOL    HW229538   0.289   3.992   4.634 -2.0914  1.1824 -0.0838
 5969SOL     OW29539   0.071   4.565  17.449 -0.1309  0.3575  0.1043
 5969SOL    HW129540   0.072   4.603  17.361 -1.0436 -1.9635 -0.9108
 5969SOL    HW229541   4.734   4.509  17.441 -0.5224  0.9414 -0.2311
 5970SOL     OW29542   1.119   1.110   5.875  0.2224 -0.3176  0.6728
 5970SOL    HW129543   1.185   1.111   5.806  2.1198 -0.7651  2.4548
 5970SOL    HW229544   1.107   1.201   5.903 -0.3467 -0.9696  2.5977
 5971SOL     OW29545   0.088   2.938   8.954  0.0794 -0.0011  0.0156
 5971SOL    HW129546   0.118   2.907   8.869  0.4222 -0.4498  0.3024
 5971SOL    HW229547   0.069   3.032   8.945  2.1258  0.4396  0.2578
 5972SOL     OW29548   0.343   2.045   3.303 -0.9206 -0.4050  0.0448
 5972SOL    HW129549   0.396   2.118   3.335  0.2173 -0.3530 -1.9460
 5972SOL    HW229550   0.347   2.057   3.208  1.0609 -2.0535 -0.0911
 5973SOL     OW29551   3.761   3.046   4.347  0.2945  0.0553  0.2324
 5973SOL    HW129552   3.706   3.125   4.345  1.8779  1.0744 -2.9558
 5973SOL    HW229553   3.750   3.018   4.438  2.8180  0.6703  0.7488
 5974SOL     OW29554   4.203   0.411   7.156 -0.7842 -0.3487  0.1054
 5974SOL    HW129555   4.138   0.482   7.156  0.0279  0.3986  0.6728
 5974SOL    HW229556   4.221   0.415   7.250  1.0825 -2.4644 -0.1766
 5975SOL     OW29557   2.052   2.215   4.487 -0.6108  0.3052 -0.3625
 5975SOL    HW129558   1.965   2.255   4.495 -1.7209 -2.0295 -0.7197
 5975SOL    HW229559   2.023   2.125   4.474 -0.9169  0.3661 -0.1228
 5976SOL     OW29560   2.392   4.095   4.717 -0.0646 -0.2542 -0.1595
 5976SOL    HW129561   2.469   4.105   4.661  0.7250  1.1108  1.1610
 5976SOL    HW229562   2.375   4.002   4.704  3.1851 -0.8672 -0.0162
 5977SOL     OW29563   4.562   2.828   9.481  0.0303  0.5190 -0.5990
 5977SOL    HW129564   4.488   2.889   9.481 -0.2993  0.1184 -0.6964
 5977SOL    HW229565   4.619   2.859   9.411  0.9895 -3.3191 -1.5350
 5978SOL     OW29566   4.233   1.185   8.115  0.0730  0.7478 -0.0939
 5978SOL    HW129567   4.273   1.185   8.027  0.6565 -1.2519  0.1827
 5978SOL    HW229568   4.184   1.266   8.126 -0.7828 -0.0001  1.4891
 5979SOL     OW29569   4.536   3.594   7.301 -0.3609 -0.2724 -0.0898
 5979SOL    HW129570   4.588   3.560   7.228 -1.3634  0.1797 -1.0119
 5979SOL    HW229571   4.592   3.581   7.378  0.2345 -1.6946 -0.7569
 5980SOL     OW29572   3.592   0.413   5.718  0.1000 -0.1444  0.6528
 5980SOL    HW129573   3.519   0.351   5.719  0.1439 -0.1970  0.6395
 5980SOL    HW229574   3.656   0.352   5.756  1.1748 -1.2914 -2.9595
 5981SOL     OW29575   4.716   1.657   5.980 -0.1051  0.2788 -0.4499
 5981SOL    HW129576   4.683   1.577   6.022  1.4634 -0.2866 -0.2885
 5981SOL    HW229577   4.733   1.623   5.892  2.7764 -1.7041  0.8719
 5982SOL     OW29578   2.123   2.768   6.526  0.3341 -0.0879  0.2278
 5982SOL    HW129579   2.069   2.755   6.604 -0.3548 -1.9889 -0.5860
 5982SOL    HW229580   2.069   2.733   6.456 -0.5434 -2.5588  2.1454
 5983SOL     OW29581   4.479   0.980   6.851 -0.0500  0.1579 -0.1083
 5983SOL    HW129582   4.463   1.057   6.796 -0.7243 -0.7851 -1.2479
 5983SOL    HW229583   4.393   0.938   6.846 -0.1950  0.4118  0.2732
 5984SOL     OW29584   0.549   4.737   9.770 -0.0473 -0.2324  0.5086
 5984SOL    HW129585   0.519   4.738   9.861 -1.1094  2.1523  0.1436
 5984SOL    HW229586   0.468   4.700   9.734 -1.1030  0.6768  1.9533
 5985SOL     OW29587   1.118   0.169   4.934  0.1206  0.4559 -0.2342
 5985SOL    HW129588   1.047   0.115   4.898  0.0758 -0.9063  1.9009
 5985SOL    HW229589   1.118   0.141   5.026 -2.2254  0.4616 -0.2304
 5986SOL     OW29590   3.035   3.991   3.560  0.1743 -0.3772  0.4270
 5986SOL    HW129591   3.102   4.020   3.622  0.6038 -0.5230  0.0280
 5986SOL    HW229592   3.084   3.952   3.488  0.5738 -0.6055  0.8217
 5987SOL     OW29593   1.861   0.953   6.508  0.1037 -0.2866  0.3987
 5987SOL    HW129594   1.913   1.008   6.567 -2.7477  1.5770  1.1994
 5987SOL    HW229595   1.921   0.895   6.461  0.8331 -1.4794  2.8363
 5988SOL     OW29596   2.209   1.938   9.736 -0.1855  0.0863 -0.7695
 5988SOL    HW129597   2.139   1.999   9.756 -1.1263 -0.9362 -0.9171
 5988SOL    HW229598   2.189   1.868   9.798  1.0300  1.0617  0.7260
 5989SOL     OW29599   2.462   1.475   0.017 -0.1131  0.5834 -0.5143
 5989SOL    HW129600   2.387   1.490  17.717  0.5713  0.8412 -1.3407
 5989SOL    HW229601   2.426   1.407   0.074 -2.0199 -0.2869 -2.7464
 5990SOL     OW29602   1.773   1.141   7.425 -0.5425  0.2372 -0.0085
 5990SOL    HW129603   1.694   1.135   7.478  0.2335  1.6978  1.3304
 5990SOL    HW229604   1.832   1.175   7.492 -0.0378 -0.8149  0.0802
 5991SOL     OW29605   4.253   4.166   0.116  0.7325  0.2766 -0.2023
 5991SOL    HW129606   4.330   4.136   0.067  1.7341  3.0413 -0.3006
 5991SOL    HW229607   4.190   4.093   0.118  0.4237  0.4608 -3.0719
 5992SOL     OW29608   1.691   1.780   3.873  0.5902 -0.5325  0.1179
 5992SOL    HW129609   1.618   1.725   3.903 -1.6699  2.9673  1.1644
 5992SOL    HW229610   1.753   1.753   3.941  0.8355  0.0112  0.1159
 5993SOL     OW29611   2.226   4.248  13.815 -0.0062  0.0504 -0.0883
 5993SOL    HW129612   2.306   4.225  13.769  1.2911  0.4390  1.9409
 5993SOL    HW229613   2.263   4.306  13.882  0.4549  0.0167 -0.3176
 5994SOL     OW29614   0.798   4.411   2.673 -0.8395  0.1734 -0.4692
 5994SOL    HW129615   0.879   4.386   2.717  0.4907  2.8339 -1.3653
 5994SOL    HW229616   0.823   4.497   2.637 -2.2684  0.4051 -0.8864
 5995SOL     OW29617   2.355   2.556   8.451  0.7611  0.3938 -0.1602
 5995SOL    HW129618   2.369   2.643   8.414 -0.6423  0.1033 -1.3613
 5995SOL    HW229619   2.444   2.526   8.431  0.2785 -1.1846  0.1240
 5996SOL     OW29620   1.577   0.872   4.838  0.5633 -0.4941  0.5146
 5996SOL    HW129621   1.590   0.966   4.826  0.0937 -0.5174 -0.1829
 5996SOL    HW229622   1.643   0.840   4.777  0.8079  0.9123  0.0473
 5997SOL     OW29623   0.503   0.231   8.863  0.1260 -0.0627 -0.4022
 5997SOL    HW129624   0.456   0.309   8.832 -0.6132  0.3242  1.6749
 5997SOL    HW229625   0.594   0.241   8.835  0.8464 -1.7167  1.3903
 5998SOL     OW29626   0.405   3.321  10.018  0.8306 -0.5139 -0.6507
 5998SOL    HW129627   0.458   3.396   9.993 -2.1150  2.4538  2.0871
 5998SOL    HW229628   0.401   3.319  10.114 -1.6168 -1.3981 -0.7864
 5999SOL     OW29629   0.483   2.438   6.257  0.3002  0.7820 -0.2226
 5999SOL    HW129630   0.489   2.521   6.210  0.9776  0.6561 -0.3668
 5999SOL    HW229631   0.552   2.446   6.323  0.8035  0.2426 -0.6814
 6000SOL     OW29632   1.603   0.494  13.570 -0.1461  0.0502  0.0100
 6000SOL    HW129633   1.546   0.454  13.636  3.1324 -1.1065  2.1315
 6000SOL    HW229634   1.675   0.532  13.621  1.4085 -3.2532  0.2737
 6001SOL     OW29635   4.308   1.193   2.224  0.1465 -0.0745 -0.1161
 6001SOL    HW129636   4.402   1.202   2.212  0.4507 -2.4158  0.4196
 6001SOL    HW229637   4.288   1.237   2.142 -0.9039  0.7292  0.5778
 6002SOL     OW29638   1.469   3.311   7.181  0.2108 -0.0245  0.4278
 6002SOL    HW129639   1.447   3.218   7.175 -0.3949  0.1232  0.3263
 6002SOL    HW229640   1.562   3.292   7.195 -0.1701 -2.8628 -0.8256
 6003SOL     OW29641   3.016   2.115   5.501  0.2861  0.2588  0.1758
 6003SOL    HW129642   3.092   2.074   5.542 -0.1022 -1.3746 -0.7319
 6003SOL    HW229643   3.011   2.062   5.422  1.4137  0.0327  0.2644
 6004SOL     OW29644   2.375   1.208  13.748 -0.2450  0.1247 -0.3334
 6004SOL    HW129645   2.380   1.300  13.773  1.1732 -0.2561  0.7320
 6004SOL    HW229646   2.287   1.188  13.781  0.8621 -1.6135  1.5437
 6005SOL     OW29647   0.898   1.204   7.931  0.3415  0.1839 -0.5685
 6005SOL    HW129648   0.962   1.224   7.863  1.5340 -2.1987 -0.1573
 6005SOL    HW229649   0.933   1.253   8.005  0.4586  0.1555 -0.6060
 6006SOL     OW29650   1.163   0.797  15.329 -0.1355 -0.2585 -0.2504
 6006SOL    HW129651   1.180   0.733  15.259 -2.4982  0.4870 -1.4859
 6006SOL    HW229652   1.118   0.861  15.275  2.6631  1.7561 -0.1717
 6007SOL     OW29653   2.435   2.214  10.256  0.0101  0.3361 -0.0352
 6007SOL    HW129654   2.457   2.163  10.334 -1.9615  1.8858  1.5095
 6007SOL    HW229655   2.484   2.292  10.281  0.1803  0.0498  0.5214
 6008SOL     OW29656   0.645   0.932  11.397 -0.3492 -0.2288 -0.1287
 6008SOL    HW129657   0.593   1.010  11.413 -0.3986 -0.2613 -0.1298
 6008SOL    HW229658   0.665   0.903  11.486  1.1908 -0.1966 -0.4679
 6009SOL     OW29659   3.529   4.124   8.514  0.4778  0.0499 -0.7165
 6009SOL    HW129660   3.545   4.216   8.535 -0.8445  0.3461 -1.0035
 6009SOL    HW229661   3.516   4.083   8.599  0.3595  0.7405 -0.4040
 6010SOL     OW29662   3.729   4.736   3.098 -0.3109 -0.3134  0.0570
 6010SOL    HW129663   3.789   0.059   3.140  1.6084 -1.5516 -0.8218
 6010SOL    HW229664   3.792   4.666   3.082  1.2053  1.5173 -2.0123
 6011SOL     OW29665   2.917   1.791   9.067 -0.6495 -0.3460  0.2858
 6011SOL    HW129666   2.864   1.712   9.070 -1.9367  0.5691  1.8673
 6011SOL    HW229667   2.894   1.829   8.983 -1.0809 -2.1628 -0.3987
 6012SOL     OW29668   1.937   2.660   4.575 -0.0809 -0.0669  0.0872
 6012SOL    HW129669   1.973   2.721   4.638 -0.5488  1.1405 -0.8080
 6012SOL    HW229670   1.842   2.674   4.573  0.0123  0.4074 -1.8135
 6013SOL     OW29671   3.962   1.476   2.004  0.0552  0.5172 -0.4303
 6013SOL    HW129672   3.898   1.471   2.075  2.2280 -0.1572  1.4475
 6013SOL    HW229673   3.909   1.485   1.924 -0.7819 -0.8221 -0.0295
 6014SOL     OW29674   4.089   1.441   9.497  0.7153  0.0296 -0.2617
 6014SOL    HW129675   4.067   1.383   9.570 -2.0720 -1.1545 -2.0436
 6014SOL    HW229676   4.107   1.381   9.425 -0.3863 -0.8369  0.1825
 6015SOL     OW29677   3.000   1.083   2.095  0.2648  0.0123 -0.1693
 6015SOL    HW129678   2.960   1.117   2.174 -0.3609 -0.4715 -0.2766
 6015SOL    HW229679   2.923   1.090   2.038 -0.9833  0.7807  1.6095
 6016SOL     OW29680   3.433   3.202   4.891  0.7306  0.0451 -0.9481
 6016SOL    HW129681   3.473   3.235   4.971 -1.1658  0.1789 -0.0578
 6016SOL    HW229682   3.341   3.218   4.911  1.2210  2.4350 -0.6343
 6017SOL     OW29683   4.213   1.714  13.922  0.1748  0.3763 -0.3996
 6017SOL    HW129684   4.203   1.809  13.930  0.0137  0.3261 -0.0134
 6017SOL    HW229685   4.230   1.682  14.010  1.1756  1.5140 -0.1784
 6018SOL     OW29686   3.696   2.450   7.926 -0.3590  0.1924 -0.3103
 6018SOL    HW129687   3.720   2.388   7.995  1.2676 -0.4215 -1.4123
 6018SOL    HW229688   3.694   2.530   7.978  0.4867 -0.0506  0.0862
 6019SOL     OW29689   2.026   2.404   7.102 -0.1004 -0.0261 -0.1726
 6019SOL    HW129690   2.006   2.314   7.127  1.2088  0.1227  1.3971
 6019SOL    HW229691   2.063   2.439   7.183 -0.3593 -2.2668  0.8977
 6020SOL     OW29692   0.517   1.056   6.948  0.2501  0.2917 -0.1265
 6020SOL    HW129693   0.608   1.045   6.921  0.9138  1.5827  1.5759
 6020SOL    HW229694   0.507   0.976   6.999  2.0448 -0.9214 -1.6903
 6021SOL     OW29695   1.445   2.812   3.779 -0.0136 -0.2358 -0.2478
 6021SOL    HW129696   1.510   2.881   3.762 -1.8552  2.1328  2.4714
 6021SOL    HW229697   1.462   2.762   3.699 -1.6414  0.4379 -1.0222
 6022SOL     OW29698   3.494   3.535   5.817 -0.0124  0.4744  0.4761
 6022SOL    HW129699   3.544   3.516   5.896  0.8612 -1.2515 -0.5005
 6022SOL    HW229700   3.404   3.546   5.847 -0.8431 -2.8637 -0.8727
 6023SOL     OW29701   3.951   1.095   4.353  0.5200  0.1500 -0.4445
 6023SOL    HW129702   3.919   1.063   4.437 -2.1372 -0.1858 -1.5699
 6023SOL    HW229703   3.874   1.149   4.332 -1.0037 -1.3041  1.4309
 6024SOL     OW29704   0.833   2.929   8.622 -0.0281  0.5181  0.0271
 6024SOL    HW129705   0.881   2.893   8.548  1.5082  1.0438  0.7604
 6024SOL    HW229706   0.884   2.905   8.699  1.9521  0.9535 -1.1573
 6025SOL     OW29707   0.271   2.332   4.631  0.0623 -0.0300  0.1355
 6025SOL    HW129708   0.352   2.292   4.599  1.5447  1.5384  1.9048
 6025SOL    HW229709   0.200   2.311   4.570  0.6663 -0.7203 -0.3205
 6026SOL     OW29710   2.521   0.978   4.897 -0.5477 -0.2421  0.0959
 6026SOL    HW129711   2.596   0.932   4.860 -1.1054  1.1476 -2.7237
 6026SOL    HW229712   2.453   0.923   4.859  0.6765 -0.8104 -1.2551
 6027SOL     OW29713   0.574   0.748  17.610  0.0339 -0.0993 -0.2341
 6027SOL    HW129714   0.582   0.784  17.522 -0.0070 -0.7398 -0.4985
 6027SOL    HW229715   0.488   0.706  17.603  0.1075 -0.1865 -0.5632
 6028SOL     OW29716   2.196   1.973   7.195 -0.0971  0.0047  0.0082
 6028SOL    HW129717   2.230   1.972   7.106 -2.0615 -0.5328 -0.7411
 6028SOL    HW229718   2.134   1.900   7.193  1.9229 -1.7073 -0.2152
 6029SOL     OW29719   1.998   0.844   0.483  0.5622 -0.5515  0.1977
 6029SOL    HW129720   1.932   0.782   0.514  1.3344 -1.6647 -0.3661
 6029SOL    HW229721   1.965   0.864   0.396 -0.7325 -2.4391  0.2558
 6030SOL     OW29722   1.498   0.783   9.813 -0.0344  0.4355  0.1338
 6030SOL    HW129723   1.475   0.841   9.740  0.3239 -0.6588 -0.8641
 6030SOL    HW229724   1.467   0.706   9.765  0.8817  0.4901 -0.5452
 6031SOL     OW29725   2.960   2.373   6.196  0.4294  0.4289 -0.4078
 6031SOL    HW129726   2.947   2.278   6.195  0.8105  0.3797 -0.3882
 6031SOL    HW229727   2.891   2.399   6.135 -1.4740 -2.7018  0.3884
 6032SOL     OW29728   2.131   1.960   3.343 -0.2951 -0.0848 -0.0677
 6032SOL    HW129729   2.148   2.044   3.300  1.7398 -0.5342 -0.1488
 6032SOL    HW229730   2.051   1.973   3.394 -1.4487  0.5042 -2.0096
 6033SOL     OW29731   0.635   1.232  16.369  0.0910  0.0756  0.0213
 6033SOL    HW129732   0.666   1.314  16.332  0.0223 -0.4575 -1.2018
 6033SOL    HW229733   0.571   1.200  16.305 -0.0883 -0.9717  0.7169
 6034SOL     OW29734   0.221   2.946   2.229  0.6496 -0.2376 -0.5096
 6034SOL    HW129735   0.269   2.908   2.155 -0.0235 -0.7887 -0.6724
 6034SOL    HW229736   0.285   2.961   2.298  1.5904  2.2350 -1.9512
 6035SOL     OW29737   3.428   4.287   7.905 -0.7259  0.1797 -0.1960
 6035SOL    HW129738   3.394   4.354   7.964 -2.0605 -1.0769  0.4641
 6035SOL    HW229739   3.359   4.221   7.902  0.9954 -1.7284  2.6238
 6036SOL     OW29740   3.539   2.595   6.820 -0.2240 -0.1283  0.6906
 6036SOL    HW129741   3.444   2.599   6.830 -0.3885 -0.5552 -0.7898
 6036SOL    HW229742   3.564   2.565   6.907 -0.1975  3.2272  1.8469
 6037SOL     OW29743   4.236   3.478   2.005  0.2440  0.3218 -0.0470
 6037SOL    HW129744   4.222   3.452   2.096  2.3870  0.7397  0.4134
 6037SOL    HW229745   4.318   3.431   1.989 -0.9276 -0.1297 -4.7452
 6038SOL     OW29746   4.637   0.817  11.037 -0.1301 -0.2716 -0.4651
 6038SOL    HW129747   4.621   0.898  11.086  0.2152  0.7118 -2.0066
 6038SOL    HW229748   4.731   0.828  11.026 -0.2509  1.0329 -0.1288
 6039SOL     OW29749   0.127   3.581   4.026  0.7032 -0.0232  0.1024
 6039SOL    HW129750   0.075   3.606   4.103 -1.3409 -0.3100 -1.1747
 6039SOL    HW229751   0.209   3.626   4.048  0.8216 -0.7374  1.1180
 6040SOL     OW29752   2.200   2.650   8.677 -0.3598  0.0112  0.4499
 6040SOL    HW129753   2.261   2.641   8.749  0.0049  2.9643  0.5020
 6040SOL    HW229754   2.227   2.586   8.611  0.5927  0.9469 -0.0704
 6041SOL     OW29755   0.863   0.976  14.808 -0.0473  0.8374 -0.0724
 6041SOL    HW129756   0.854   0.951  14.716  0.1299 -2.1097  0.7107
 6041SOL    HW229757   0.842   1.069  14.810  0.9618  1.0360  0.7582
 6042SOL     OW29758   1.331   3.353   1.591  0.5607  0.3355  0.4404
 6042SOL    HW129759   1.247   3.389   1.619 -0.1260  0.6524 -2.0202
 6042SOL    HW229760   1.341   3.274   1.644 -2.2801 -0.5575 -0.3557
 6043SOL     OW29761   1.373   3.402   9.504 -0.0344  0.3295 -0.3041
 6043SOL    HW129762   1.357   3.490   9.469 -1.1601  1.1377  2.2821
 6043SOL    HW229763   1.389   3.413   9.597  1.3784 -0.2217 -0.4859
 6044SOL     OW29764   4.676   2.098  15.850 -0.0240  0.8866  0.5519
 6044SOL    HW129765   0.016   2.078  15.802 -0.0879  0.8595  0.4569
 6044SOL    HW229766   4.678   2.029  15.915  3.0836  0.0079 -0.4894
 6045SOL     OW29767   0.573   4.600  13.775  0.1249 -0.0976  0.0915
 6045SOL    HW129768   0.582   4.693  13.792 -0.0538 -0.2646  1.0906
 6045SOL    HW229769   0.654   4.560  13.806 -0.8152 -0.9043  1.4801
 6046SOL     OW29770   2.313   3.769   8.185  0.3170  0.3280 -0.0677
 6046SOL    HW129771   2.253   3.696   8.194 -0.5677  0.9472 -0.9422
 6046SOL    HW229772   2.258   3.847   8.179 -1.1309 -0.5812  1.4810
 6047SOL     OW29773   3.265   3.594   8.364 -0.2418  0.2942 -0.7155
 6047SOL    HW129774   3.293   3.522   8.421  0.4511  1.1197 -0.0112
 6047SOL    HW229775   3.186   3.629   8.406  0.0231  0.0582 -0.0164
 6048SOL     OW29776   1.145   0.052   5.545 -0.0954  0.0043 -0.0772
 6048SOL    HW129777   1.171   0.083   5.631  0.9763 -1.4057  0.0960
 6048SOL    HW229778   1.175   4.702   5.561 -0.2600  0.0664  0.5825
 6049SOL     OW29779   2.003   0.876   5.184  0.3375  0.0314  0.2820
 6049SOL    HW129780   2.015   0.915   5.271  1.6712  0.7570 -0.2274
 6049SOL    HW229781   2.084   0.907   5.145  0.1700 -1.3436 -1.1203
 6050SOL     OW29782   0.410   2.494  12.590  0.1173 -0.3564  0.5509
 6050SOL    HW129783   0.400   2.406  12.555 -2.2495 -0.1829  0.8465
 6050SOL    HW229784   0.499   2.498  12.627  0.4138  0.6994 -0.2777
 6051SOL     OW29785   0.900   0.242   6.629 -0.3651 -0.0026 -0.0005
 6051SOL    HW129786   0.816   0.206   6.659 -0.4327 -1.0368 -1.4250
 6051SOL    HW229787   0.877   0.241   6.536 -2.3786 -0.2206  0.4870
 6052SOL     OW29788   1.987   3.437   1.914 -0.4898  0.1566  0.1568
 6052SOL    HW129789   2.013   3.378   1.843 -0.6635  1.0845 -0.6807
 6052SOL    HW229790   2.073   3.477   1.923 -1.4711  1.5361  3.5101
 6053SOL     OW29791   3.067   4.097  14.781 -0.3218  0.7628  0.1613
 6053SOL    HW129792   3.140   4.036  14.792  1.0492  2.8916  2.8201
 6053SOL    HW229793   3.095   4.179  14.821  1.1027  1.3160 -1.9506
 6054SOL     OW29794   0.138   3.652   1.827  0.2006  0.8745  0.1116
 6054SOL    HW129795   0.054   3.625   1.864  0.1863  1.4664  0.5124
 6054SOL    HW229796   0.172   3.697   1.904  0.6771  0.2811  0.2453
 6055SOL     OW29797   1.648   4.173  11.145  0.1306 -0.2745  0.1004
 6055SOL    HW129798   1.719   4.160  11.082  1.7687  1.6133  1.5670
 6055SOL    HW229799   1.590   4.224  11.088  0.4516  1.5316  1.3944
 6056SOL     OW29800   3.059   0.322   6.628  0.0415  0.6294 -0.5207
 6056SOL    HW129801   3.098   0.361   6.707  0.6921 -3.5138  1.1965
 6056SOL    HW229802   3.057   0.392   6.563 -3.0160  1.1003  0.0760
 6057SOL     OW29803   4.565   0.285   0.027 -0.1450  0.6611 -0.1284
 6057SOL    HW129804   4.512   0.206   0.016 -0.2143  0.8222 -0.9527
 6057SOL    HW229805   4.511   0.353  17.746 -3.1090 -0.6930  1.6021
 6058SOL     OW29806   3.326   4.306   4.235  0.0073 -0.1802  0.0557
 6058SOL    HW129807   3.420   4.313   4.247  0.4028  0.4611 -3.2472
 6058SOL    HW229808   3.299   4.264   4.316 -1.9514  1.5805  0.3295
 6059SOL     OW29809   3.942   2.141   7.286  0.1305 -0.2956 -0.4258
 6059SOL    HW129810   3.892   2.128   7.367 -2.4344  0.4288 -1.9240
 6059SOL    HW229811   4.014   2.191   7.326 -1.0236 -0.7271  2.2419
 6060SOL     OW29812   4.013   2.579  11.178 -0.2853 -0.5489  0.9061
 6060SOL    HW129813   4.032   2.641  11.107 -2.6771  0.6270  1.2919
 6060SOL    HW229814   3.960   2.517  11.128  1.6149 -1.3313 -0.0965
 6061SOL     OW29815   4.653   4.722   7.613 -0.2463  0.1214  0.2587
 6061SOL    HW129816   4.649   4.631   7.641 -0.7107 -0.5253 -1.8992
 6061SOL    HW229817   4.561   0.009   7.604 -0.3026 -0.4091 -0.7907
 6062SOL     OW29818   1.723   0.480  10.692  0.1280 -0.3407  0.0287
 6062SOL    HW129819   1.785   0.461  10.763  1.1232  1.4670 -0.3511
 6062SOL    HW229820   1.655   0.414  10.695  0.1752 -0.3604  0.6718
 6063SOL     OW29821   3.527   4.618   3.709 -0.3555 -0.2243  0.2371
 6063SOL    HW129822   3.566   4.667   3.637 -1.3612  1.4050  0.8124
 6063SOL    HW229823   3.441   4.660   3.714  0.0111  0.5502 -0.0763
 6064SOL     OW29824   1.326   1.512  16.179  0.5003  0.2518 -0.2847
 6064SOL    HW129825   1.270   1.539  16.106 -0.3542  0.7954  0.5793
 6064SOL    HW229826   1.332   1.591  16.233  0.1453  0.7023 -0.8997
 6065SOL     OW29827   0.319   2.016   2.758 -0.8304  0.0433 -0.7728
 6065SOL    HW129828   0.240   2.040   2.710 -1.1502 -0.7145 -0.6316
 6065SOL    HW229829   0.355   2.104   2.744  2.0485 -1.3456 -1.9731
 6066SOL     OW29830   2.572   3.686  10.398 -0.4347  0.7959  0.1847
 6066SOL    HW129831   2.493   3.633  10.391 -0.8300  1.1588  1.9679
 6066SOL    HW229832   2.547   3.778  10.393 -1.0702  0.5854 -0.5836
 6067SOL     OW29833   0.865   3.490  15.978  0.5159  0.1781 -0.4126
 6067SOL    HW129834   0.836   3.579  15.959  0.9423  0.4967  0.4590
 6067SOL    HW229835   0.921   3.493  16.055  0.1588 -0.7526 -0.1115
 6068SOL     OW29836   1.115   2.456   5.589 -0.6306 -0.1741  0.7311
 6068SOL    HW129837   1.095   2.435   5.498 -0.5745 -0.9725  0.8999
 6068SOL    HW229838   1.204   2.489   5.574 -0.2353 -0.8928  1.4472
 6069SOL     OW29839   2.991   1.843   6.319 -0.7821 -0.6122 -0.1960
 6069SOL    HW129840   3.032   1.896   6.387 -0.4673 -0.2948 -0.6341
 6069SOL    HW229841   2.936   1.784   6.370 -1.3515 -0.3945 -0.5593
 6070SOL     OW29842   4.251   2.455   5.904 -0.1075 -0.3655  0.7516
 6070SOL    HW129843   4.324   2.473   5.963 -0.1800 -0.0935  0.7584
 6070SOL    HW229844   4.184   2.498   5.957  0.1572 -0.2518  0.9936
 6071SOL     OW29845   0.673   3.248   5.869 -0.3319  0.4174 -0.0773
 6071SOL    HW129846   0.593   3.198   5.883  0.2632 -0.2763  0.8628
 6071SOL    HW229847   0.691   3.252   5.963 -0.9230 -2.2006  0.1311
 6072SOL     OW29848   0.463   1.582   3.852 -0.1232 -0.1470  0.2650
 6072SOL    HW129849   0.433   1.650   3.792  1.4850  1.6788  1.5241
 6072SOL    HW229850   0.554   1.587   3.824  0.4751 -1.1482  2.0329
 6073SOL     OW29851   0.843   0.232   1.719  0.1276 -0.1336  0.5591
 6073SOL    HW129852   0.936   0.250   1.710  0.1773  0.2580  1.8069
 6073SOL    HW229853   0.817   0.208   1.630 -0.1889  1.0629  0.3340
 6074SOL     OW29854   2.296   1.550  10.257 -0.6601  0.0387  0.1402
 6074SOL    HW129855   2.342   1.533  10.339 -0.6764 -0.1577  0.1084
 6074SOL    HW229856   2.326   1.637  10.231 -1.0440  0.3371  0.7191
 6075SOL     OW29857   1.393   3.014   8.560 -0.4224 -0.1497  0.2911
 6075SOL    HW129858   1.409   3.067   8.482 -0.9137  1.1084  1.0348
 6075SOL    HW229859   1.302   3.033   8.584 -0.7419 -1.2110 -0.0859
 6076SOL     OW29860   2.968   4.643   2.018  0.3040  0.6088  0.4350
 6076SOL    HW129861   2.905   4.608   1.954  0.9637  2.3611 -1.1777
 6076SOL    HW229862   2.936   4.732   2.011  1.1839  0.7947 -1.2902
 6077SOL     OW29863   2.732   4.488   3.207  0.2411  0.0462 -0.7877
 6077SOL    HW129864   2.806   4.475   3.148  0.8181  2.4322 -0.5801
 6077SOL    HW229865   2.742   4.582   3.224  2.0371  0.0670 -1.9220
 6078SOL     OW29866   4.518   4.168   2.595  0.2552 -0.3796  0.0517
 6078SOL    HW129867   4.605   4.132   2.581  0.6137  0.2473  0.6872
 6078SOL    HW229868   4.497   4.133   2.681  0.6810  0.0043  0.3125
 6079SOL     OW29869   3.904   3.022   2.051 -0.8087 -0.1439  0.5383
 6079SOL    HW129870   3.875   2.975   2.129  0.4800 -1.3804  0.2807
 6079SOL    HW229871   3.869   2.980   1.973 -2.6171 -1.6676  2.1706
 6080SOL     OW29872   1.209   3.364   3.054 -0.1849 -0.4342  0.3138
 6080SOL    HW129873   1.256   3.415   3.120 -1.1549  1.3029 -0.3331
 6080SOL    HW229874   1.259   3.396   2.979 -0.0228 -1.7918 -0.1543
 6081SOL     OW29875   1.832   3.540   8.691  0.1117  0.2287 -0.2193
 6081SOL    HW129876   1.892   3.574   8.757  2.5925 -3.8487 -0.3163
 6081SOL    HW229877   1.869   3.451   8.689 -0.0777  0.1660 -1.0580
 6082SOL     OW29878   3.905   1.638  12.024  0.3819 -0.5634  0.1855
 6082SOL    HW129879   3.897   1.711  12.086  2.5865  0.3266 -0.5513
 6082SOL    HW229880   3.815   1.617  11.999  0.5782 -3.7921  2.1715
 6083SOL     OW29881   3.921   0.168   3.185  0.4578  0.4276 -0.3212
 6083SOL    HW129882   4.002   0.117   3.186  1.1795  1.5176 -1.9993
 6083SOL    HW229883   3.938   0.222   3.108  0.2151  0.4542 -0.3563
 6084SOL     OW29884   4.068   4.586   4.658 -0.2726  0.3210 -0.3355
 6084SOL    HW129885   4.022   4.601   4.741 -1.7229  1.9710 -1.4506
 6084SOL    HW229886   4.161   4.596   4.675 -0.3526  1.4454 -0.5747
 6085SOL     OW29887   2.118   0.446   9.609  0.0982  0.1403  0.0825
 6085SOL    HW129888   2.188   0.396   9.651 -0.4964 -1.4610 -0.8274
 6085SOL    HW229889   2.062   0.383   9.563  2.6421 -0.5908 -2.0120
 6086SOL     OW29890   2.294   3.363   6.334  0.2385  0.1223  0.0867
 6086SOL    HW129891   2.276   3.300   6.403  1.3712 -1.2075 -0.8230
 6086SOL    HW229892   2.291   3.443   6.386 -0.4853 -0.9973  1.7354
 6087SOL     OW29893   1.749   0.510   3.791 -0.1975 -0.4719 -0.3269
 6087SOL    HW129894   1.817   0.471   3.736 -0.3435 -2.4233  0.8605
 6087SOL    HW229895   1.735   0.593   3.746  1.6701  0.2964  0.4634
 6088SOL     OW29896   1.868   1.668   8.966 -0.0823  0.3910  0.3578
 6088SOL    HW129897   1.946   1.670   8.910 -0.1473  1.4218  0.3116
 6088SOL    HW229898   1.815   1.736   8.925 -0.4980  0.2977  0.7384
 6089SOL     OW29899   1.187   1.762  10.263 -0.1263  0.0071 -0.2082
 6089SOL    HW129900   1.270   1.767  10.215  1.1920  0.9924  2.1764
 6089SOL    HW229901   1.144   1.694  10.211 -0.7698 -1.5168  2.3454
 6090SOL     OW29902   4.445   0.268   8.443 -0.1143 -0.0148  0.2929
 6090SOL    HW129903   4.393   0.188   8.444 -0.2335  0.0641  0.4716
 6090SOL    HW229904   4.374   0.323   8.477  0.7550 -0.5662  3.0381
 6091SOL     OW29905   3.384   4.319  12.797 -0.1189  0.0041  0.4224
 6091SOL    HW129906   3.430   4.237  12.783  1.3759  0.8398  0.4281
 6091SOL    HW229907   3.447   4.392  12.794  0.1328 -0.1916  1.0001
 6092SOL     OW29908   0.137   3.399   9.113 -0.2619  0.9726 -0.2212
 6092SOL    HW129909   0.175   3.312   9.120  0.7640  1.3925 -0.5818
 6092SOL    HW229910   0.075   3.413   9.185  0.6106  0.6595  0.5935
 6093SOL     OW29911   3.695   1.696   5.378 -0.5990 -0.2393 -0.5174
 6093SOL    HW129912   3.681   1.635   5.451 -0.1873  1.5685  1.0639
 6093SOL    HW229913   3.787   1.682   5.357 -0.5859 -0.9122 -0.0162
 6094SOL     OW29914   2.556   2.746  14.244 -0.0286 -0.5206  0.4936
 6094SOL    HW129915   2.511   2.759  14.327 -1.2104  0.0931 -0.2447
 6094SOL    HW229916   2.506   2.801  14.184  0.5110  0.1359  0.6382
 6095SOL     OW29917   3.727   0.543   6.417 -0.0072 -0.3539 -0.2130
 6095SOL    HW129918   3.821   0.527   6.402 -0.5649  0.1416 -4.2530
 6095SOL    HW229919   3.698   0.452   6.427 -0.5199 -0.3217 -1.3998
 6096SOL     OW29920   2.366   2.914   6.635  0.1815  0.0921  0.1995
 6096SOL    HW129921   2.429   2.853   6.672 -1.3360 -0.8651  1.2120
 6096SOL    HW229922   2.304   2.855   6.593  2.0856 -0.6567 -1.5313
 6097SOL     OW29923   0.163   4.602   6.398 -0.5615  0.2568  0.3186
 6097SOL    HW129924   0.101   4.662   6.440  2.1171  1.6698  2.3020
 6097SOL    HW229925   0.140   4.514   6.428 -0.1962 -0.3362 -1.1718
 6098SOL     OW29926   1.941   3.598   6.047  0.2774  0.5301  0.4118
 6098SOL    HW129927   1.906   3.679   6.083 -1.0820 -0.4028  1.1637
 6098SOL    HW229928   1.970   3.556   6.128  2.1601  2.2556  0.6353
 6099SOL     OW29929   3.041   3.014   1.876 -0.8594  0.0948 -0.3275
 6099SOL    HW129930   2.948   3.034   1.864 -0.5680  0.6650 -1.7401
 6099SOL    HW229931   3.044   2.972   1.962 -1.8627  0.9514  0.1182
 6100SOL     OW29932   0.276   2.109   9.373  0.4619  0.0910 -0.1344
 6100SOL    HW129933   0.334   2.185   9.366  2.6689 -1.3825  2.1161
 6100SOL    HW229934   0.197   2.149   9.337 -1.5179 -1.9213  2.0053
 6101SOL     OW29935   4.261   4.338   5.362 -0.3995 -0.3939 -0.0083
 6101SOL    HW129936   4.337   4.395   5.351 -1.4646  1.1677  0.7444
 6101SOL    HW229937   4.298   4.278   5.427 -0.9603 -0.5684  0.1506
 6102SOL     OW29938   0.399   0.993   9.464 -0.5235  0.0625 -0.6725
 6102SOL    HW129939   0.395   0.971   9.371  2.0754 -1.7105 -0.3822
 6102SOL    HW229940   0.352   1.076   9.472 -2.4773 -0.9326 -1.9143
 6103SOL     OW29941   2.416   1.722   3.181  0.6331 -0.6049  0.3813
 6103SOL    HW129942   2.490   1.730   3.121  0.3152  0.1696  0.0987
 6103SOL    HW229943   2.371   1.644   3.148  2.7783 -2.7084  2.3968
 6104SOL     OW29944   1.884   0.151   2.441  0.8346 -0.4024  0.0244
 6104SOL    HW129945   1.790   0.167   2.440  0.7782 -0.6454  1.7690
 6104SOL    HW229946   1.925   0.226   2.399  2.6400 -1.4777 -0.1356
 6105SOL     OW29947   2.110   1.298  14.372 -0.2808 -0.0177  0.2246
 6105SOL    HW129948   2.156   1.229  14.418 -3.3761 -1.3386  1.2698
 6105SOL    HW229949   2.053   1.234  14.329  0.3235  0.0111 -0.6292
 6106SOL     OW29950   3.397   2.884   2.349  0.4796 -0.2241  0.1489
 6106SOL    HW129951   3.346   2.834   2.413  0.6924  0.9688  1.2621
 6106SOL    HW229952   3.466   2.928   2.399  1.2199 -0.0548 -1.0210
 6107SOL     OW29953   1.318   3.781   5.857 -0.1561 -0.0976  0.2167
 6107SOL    HW129954   1.402   3.743   5.882 -0.3626 -0.5588  0.2054
 6107SOL    HW229955   1.267   3.710   5.895 -0.4287 -0.2305 -0.4016
 6108SOL     OW29956   2.692   1.234  14.059  0.0994 -0.2706  0.0151
 6108SOL    HW129957   2.752   1.227  14.133 -0.0217 -1.0441  0.0451
 6108SOL    HW229958   2.694   1.141  14.034 -0.2332 -0.5665  1.1021
 6109SOL     OW29959   2.647   0.208   1.964  0.4038  0.4668  0.3640
 6109SOL    HW129960   2.648   0.218   1.869  1.1545 -1.6499  0.1398
 6109SOL    HW229961   2.684   0.290   1.998 -0.3933  1.4902 -1.2646
 6110SOL     OW29962   0.052   2.049   2.654  0.1595 -0.0768 -0.0796
 6110SOL    HW129963   4.726   2.097   2.605 -1.8670 -0.2642  2.4734
 6110SOL    HW229964   4.732   2.016   2.721 -1.3779  0.8486 -1.0000
 6111SOL     OW29965   4.186   0.824   9.950  0.2350 -0.2835  0.2924
 6111SOL    HW129966   4.175   0.767  10.026  2.6995 -0.1333  0.7340
 6111SOL    HW229967   4.243   0.886   9.995  1.5726 -1.4512  0.1726
 6112SOL     OW29968   3.117   4.306   6.467 -0.0646 -0.1839  0.9372
 6112SOL    HW129969   3.094   4.359   6.543 -0.4844 -0.7526  1.2085
 6112SOL    HW229970   3.027   4.288   6.439  0.7078 -0.3846 -1.4380
 6113SOL     OW29971   0.701   2.039   9.556 -0.1217  0.7315  0.2259
 6113SOL    HW129972   0.633   2.077   9.612 -1.4710 -0.8546 -0.3188
 6113SOL    HW229973   0.781   2.065   9.601 -1.6004  1.3738  2.5265
 6114SOL     OW29974   3.249   4.502   4.054  0.3139  0.5118 -0.1990
 6114SOL    HW129975   3.283   4.430   4.108 -3.5871 -0.0071  1.5733
 6114SOL    HW229976   3.303   4.573   4.088  2.0068 -1.2069  0.6860
 6115SOL     OW29977   0.454   4.570  13.538  0.2157 -0.0140  0.2540
 6115SOL    HW129978   0.485   4.588  13.626  1.0673  0.1327 -0.0730
 6115SOL    HW229979   0.510   4.495  13.519  0.4135  0.4986 -1.2175
 6116SOL     OW29980   4.740   1.550   3.130 -0.2734 -0.3118  0.5882
 6116SOL    HW129981   0.081   1.560   3.080  0.0055  0.7382  1.2338
 6116SOL    HW229982   4.725   1.456   3.133 -0.5132 -0.3105 -0.6911
 6117SOL     OW29983   4.496   3.672  12.424 -0.1980  0.1560  0.5676
 6117SOL    HW129984   4.448   3.755  12.430 -0.2880  0.1434 -0.0259
 6117SOL    HW229985   4.421   3.612  12.422 -0.7804  0.9331 -1.0515
 6118SOL     OW29986   1.900   0.394   6.772  0.4363  0.2687  0.1893
 6118SOL    HW129987   1.835   0.429   6.833  0.0003 -0.2123 -0.0102
 6118SOL    HW229988   1.860   0.311   6.746 -0.4549  0.6614  0.2946
 6119SOL     OW29989   1.815   3.446  13.925  0.1686 -0.3009 -0.6458
 6119SOL    HW129990   1.730   3.415  13.957 -1.0333  3.2674 -0.3747
 6119SOL    HW229991   1.859   3.446  14.010  0.8236 -1.7439 -0.9838
 6120SOL     OW29992   0.091   1.386   9.468 -0.1638 -0.0939 -0.6685
 6120SOL    HW129993   0.133   1.464   9.431 -1.1627  0.5974 -0.3515
 6120SOL    HW229994   0.111   1.328   9.395 -0.2973  1.7775 -2.1746
 6121SOL     OW29995   2.751   3.144   6.911  0.3621  0.4674 -0.1085
 6121SOL    HW129996   2.663   3.108   6.918  1.0785 -1.6737 -2.3239
 6121SOL    HW229997   2.789   3.075   6.857  0.1247 -1.7208  2.4947
 6122SOL     OW29998   0.427   0.282   8.269  0.1337  0.3589 -0.1430
 6122SOL    HW129999   0.418   0.316   8.359  1.4527 -1.3652  0.6389
 6122SOL    HW230000   0.401   0.192   8.285  0.6306  0.7381  2.8382
 6123SOL     OW30001   0.140   4.015  10.332  0.2692 -0.1353  0.2622
 6123SOL    HW130002   0.100   4.018  10.419  0.3927 -0.7048  0.3363
 6123SOL    HW230003   0.139   3.920  10.325  1.2283 -0.0267 -1.4753
 6124SOL     OW30004   4.430   4.711   3.501  0.3969  0.4661 -0.1987
 6124SOL    HW130005   4.426   4.660   3.420 -2.8602 -1.7493  1.3842
 6124SOL    HW230006   4.524   4.732   3.498  0.4833  0.6268  3.3339
 6125SOL     OW30007   4.196   0.124   1.802 -0.5503  0.0149 -0.4529
 6125SOL    HW130008   4.111   0.083   1.785 -0.2617 -1.7775  2.4746
 6125SOL    HW230009   4.165   0.202   1.756  1.2210  1.2925  0.5006
 6126SOL     OW30010   1.267   4.730   3.557  0.6351  0.6132  0.3915
 6126SOL    HW130011   1.224   0.070   3.525 -1.4596 -1.4818 -1.9671
 6126SOL    HW230012   1.264   4.738   3.652  1.1315 -3.0339  0.7085
 6127SOL     OW30013   2.567   3.738   2.663  0.9938  0.1087  0.0407
 6127SOL    HW130014   2.485   3.780   2.638  0.0627 -1.1620  1.0124
 6127SOL    HW230015   2.592   3.694   2.581 -0.4585 -0.1140 -0.2710
 6128SOL     OW30016   1.782   1.108   0.200  0.1922  0.0577  0.3734
 6128SOL    HW130017   1.727   1.033   0.178  0.8917 -0.1279 -0.7448
 6128SOL    HW230018   1.765   1.125   0.293  0.1393 -2.7610  0.8974
 6129SOL     OW30019   3.064   4.168   4.816 -0.5415 -0.3657  0.3278
 6129SOL    HW130020   2.989   4.122   4.779 -1.7283  1.4917  0.4134
 6129SOL    HW230021   3.123   4.094   4.827  0.5903  0.4282 -0.3289
 6130SOL     OW30022   3.203   0.742  15.555 -0.1257  0.1351 -0.1904
 6130SOL    HW130023   3.227   0.784  15.473 -1.4231 -1.5326 -1.4537
 6130SOL    HW230024   3.238   0.798  15.623  1.1413  1.1349 -1.6623
 6131SOL     OW30025   0.452   3.511   3.425  0.4569 -0.0791 -0.3929
 6131SOL    HW130026   0.444   3.422   3.459  0.4441 -0.4044 -1.2420
 6131SOL    HW230027   0.526   3.546   3.474  0.5059 -0.3877 -0.2465
 6132SOL     OW30028   4.561   1.554   5.352  0.8644 -0.8617  0.4788
 6132SOL    HW130029   4.487   1.519   5.302 -0.0125 -1.0229  1.8975
 6132SOL    HW230030   4.585   1.632   5.302 -0.9515 -0.2259  0.6177
 6133SOL     OW30031   1.307   3.576  17.212  0.4901 -0.2339 -0.1959
 6133SOL    HW130032   1.255   3.629  17.151 -0.4820  0.9194  1.6549
 6133SOL    HW230033   1.298   3.626  17.292  0.2055  0.4189 -0.6366
 6134SOL     OW30034   0.731   3.901  13.385  0.0716  0.1844  0.1671
 6134SOL    HW130035   0.795   3.972  13.387 -1.5010  1.5804  0.6199
 6134SOL    HW230036   0.782   3.845  13.327 -0.4934 -1.2368  1.0367
 6135SOL     OW30037   4.031   3.801   0.895  0.3896 -0.3086  0.3484
 6135SOL    HW130038   4.120   3.772   0.917  1.4134  1.9112 -0.8768
 6135SOL    HW230039   4.011   3.724   0.841 -1.3700  0.8522 -0.6462
 6136SOL     OW30040   1.793   3.527   5.575 -0.1169 -0.1634  0.1038
 6136SOL    HW130041   1.812   3.433   5.570  0.0746 -0.2328  2.0116
 6136SOL    HW230042   1.729   3.534   5.645 -0.6456 -0.5319 -0.3446
 6137SOL     OW30043   2.423   0.861  16.525 -0.1706 -0.1117 -0.4104
 6137SOL    HW130044   2.421   0.816  16.440 -0.6128 -1.1201  0.1386
 6137SOL    HW230045   2.333   0.844  16.552  0.4154 -3.2082 -0.3889
 6138SOL     OW30046   2.491   3.521   5.086 -0.0520 -0.2106 -0.0976
 6138SOL    HW130047   2.511   3.610   5.057  1.2128  0.1938  1.9670
 6138SOL    HW230048   2.578   3.484   5.073  0.5895  1.0919  0.4446
 6139SOL     OW30049   2.797   3.350   7.234  0.5874  0.1752 -0.0047
 6139SOL    HW130050   2.834   3.263   7.223  0.4224  0.0387  0.4766
 6139SOL    HW230051   2.825   3.377   7.322 -0.3907  3.4007 -0.6753
 6140SOL     OW30052   1.297   1.044   5.407 -0.0461 -0.5880  0.5198
 6140SOL    HW130053   1.256   1.021   5.324 -0.0807  0.9430  0.1114
 6140SOL    HW230054   1.247   0.990   5.469  1.2914 -0.8984  1.3359
 6141SOL     OW30055   0.587   2.441   0.715  0.6525 -0.3616 -0.0627
 6141SOL    HW130056   0.546   2.367   0.760  0.5197  0.6341  1.4572
 6141SOL    HW230057   0.583   2.409   0.625 -1.2164 -1.2707  0.3394
 6142SOL     OW30058   0.600   2.864  17.143 -0.1915  0.5742  0.0324
 6142SOL    HW130059   0.656   2.786  17.141 -1.7143 -0.4894 -1.1266
 6142SOL    HW230060   0.656   2.938  17.167  0.0187  0.1748  0.7883
 6143SOL     OW30061   0.790   3.450   6.506 -0.1339 -0.4034 -0.0551
 6143SOL    HW130062   0.847   3.507   6.558  2.5417 -2.4418 -0.7457
 6143SOL    HW230063   0.805   3.484   6.418  1.9213 -0.0799  0.4298
 6144SOL     OW30064   0.230   3.163   2.754 -0.0914 -0.6042  0.2042
 6144SOL    HW130065   0.153   3.217   2.771  0.8049  1.4952 -2.3158
 6144SOL    HW230066   0.278   3.167   2.837  1.0971  0.7523 -0.5555
 6145SOL     OW30067   4.167   0.288   6.360 -0.1963  0.4163  0.0689
 6145SOL    HW130068   4.078   0.278   6.326  0.7661 -0.9730 -2.0533
 6145SOL    HW230069   4.201   0.199   6.346  0.0582  0.4017  0.7593
 6146SOL     OW30070   2.627   4.085   8.706  0.2190 -0.3946 -0.2540
 6146SOL    HW130071   2.590   4.158   8.757  1.4235 -0.3811  0.5821
 6146SOL    HW230072   2.693   4.134   8.656 -0.4538 -0.1395 -0.8958
 6147SOL     OW30073   2.652   1.123   8.335  0.2861 -0.2861  0.6559
 6147SOL    HW130074   2.664   1.029   8.347  0.4271 -0.6409 -2.4821
 6147SOL    HW230075   2.715   1.153   8.401  0.6016  0.3014  0.0848
 6148SOL     OW30076   1.920   2.760   5.000 -0.1918  0.2584  0.5798
 6148SOL    HW130077   1.904   2.834   4.942  0.0641  1.8163  2.4980
 6148SOL    HW230078   2.010   2.780   5.025  1.3773 -2.5116 -2.8672
 6149SOL     OW30079   1.887   3.967  12.597  0.1225 -0.3687 -0.1653
 6149SOL    HW130080   1.959   3.972  12.534  1.3369 -0.5910  1.1957
 6149SOL    HW230081   1.899   3.877  12.628  2.1588  0.4269  1.4188
 6150SOL     OW30082   4.477   2.933  10.016 -0.0326  0.4984 -0.0637
 6150SOL    HW130083   4.456   2.987  10.092 -1.0742 -0.0703  0.0539
 6150SOL    HW230084   4.432   2.988   9.953 -0.9633  1.9353  1.8590
 6151SOL     OW30085   0.423   1.617  17.575 -0.1205 -0.2398  0.3381
 6151SOL    HW130086   0.495   1.573  17.531 -0.6089  0.7463 -1.4548
 6151SOL    HW230087   0.346   1.568  17.546  0.3348 -0.7041 -0.0876
 6152SOL     OW30088   2.988   0.425  11.243 -0.1198  0.4505  0.5655
 6152SOL    HW130089   3.071   0.378  11.234 -1.1540 -2.1418  4.7360
 6152SOL    HW230090   3.010   0.517  11.227  3.8608 -0.2624  1.8983
 6153SOL     OW30091   3.514   2.559   3.553  0.6959 -0.4273  0.2935
 6153SOL    HW130092   3.585   2.611   3.592 -0.7996  1.7169  0.1343
 6153SOL    HW230093   3.451   2.629   3.568  1.3807  0.2012  0.2189
 6154SOL     OW30094   1.417   0.429   8.162 -0.0980  0.2498  0.0575
 6154SOL    HW130095   1.449   0.515   8.188 -1.1709  0.5629  0.3303
 6154SOL    HW230096   1.418   0.442   8.067  1.1137 -2.0137 -0.2448
 6155SOL     OW30097   4.370   0.183   4.552 -0.6261 -0.0207  0.1915
 6155SOL    HW130098   4.385   0.175   4.646  1.3400 -0.6635 -0.1776
 6155SOL    HW230099   4.444   0.233   4.518  0.7636 -1.1785  1.5421
 6156SOL     OW30100   2.199   1.374   5.062  0.0667 -0.2943  0.1636
 6156SOL    HW130101   2.240   1.288   5.066 -0.6396 -0.6301  0.2376
 6156SOL    HW230102   2.266   1.433   5.028 -0.5891 -2.0750 -4.2531
 6157SOL     OW30103   4.296   0.346   0.055  0.1039  0.1753  0.0405
 6157SOL    HW130104   4.252   0.409   0.112 -0.2726 -0.7498  0.7823
 6157SOL    HW230105   4.297   0.263   0.103 -2.9986  0.1141 -0.0347
 6158SOL     OW30106   3.681   2.761   1.490 -0.4730 -0.2645  0.4820
 6158SOL    HW130107   3.665   2.758   1.395  0.5445  2.2111  0.2359
 6158SOL    HW230108   3.687   2.855   1.505  0.4023 -0.5464  1.9054
 6159SOL     OW30109   0.481   0.100   6.282 -0.1390 -0.5562 -0.2905
 6159SOL    HW130110   0.512   0.150   6.206 -1.0866 -0.1777 -0.4252
 6159SOL    HW230111   0.472   0.175   6.341 -0.7851  1.0938 -2.5106
 6160SOL     OW30112   2.396   4.672   3.268  0.0305  0.5717 -0.2341
 6160SOL    HW130113   2.427   4.581   3.265 -2.7082 -0.4302  2.0156
 6160SOL    HW230114   2.318   4.661   3.322  0.6792  0.6528  0.7300
 6161SOL     OW30115   2.678   1.887   7.640 -0.1627  0.4311  0.2808
 6161SOL    HW130116   2.748   1.947   7.668  0.8412 -0.8636  0.5753
 6161SOL    HW230117   2.717   1.801   7.657 -0.4621 -0.0637 -1.6091
 6162SOL     OW30118   1.404   2.557   9.426 -0.0354  0.4323 -0.1455
 6162SOL    HW130119   1.469   2.491   9.400  0.7185  1.1955 -0.1822
 6162SOL    HW230120   1.378   2.521   9.511  0.7379  1.5554  0.5726
 6163SOL     OW30121   3.160   1.043   2.479  0.2849  0.2256  0.5335
 6163SOL    HW130122   3.241   1.060   2.431  0.2772 -0.1670  0.3856
 6163SOL    HW230123   3.096   1.114   2.468 -1.5089 -1.3699  0.6770
 6164SOL     OW30124   3.493   0.797   6.952  0.1322 -0.2121  0.0976
 6164SOL    HW130125   3.536   0.810   7.036 -1.3367  1.1866  0.6406
 6164SOL    HW230126   3.526   0.870   6.900  0.3030  2.4084  3.8997
 6165SOL     OW30127   4.540   1.916   8.236  0.2553 -0.2099 -0.2857
 6165SOL    HW130128   4.448   1.902   8.259 -0.4541  4.1638 -0.3888
 6165SOL    HW230129   4.537   1.859   8.160  1.1007 -1.2072  0.4363
 6166SOL     OW30130   2.101   2.661   2.061  0.2486  0.2333 -0.4374
 6166SOL    HW130131   2.088   2.578   2.108  0.9471 -1.1309 -2.6390
 6166SOL    HW230132   2.052   2.638   1.982  1.3236 -0.8875 -0.7719
 6167SOL     OW30133   4.447   0.021   0.897 -0.7483 -0.3893 -0.6456
 6167SOL    HW130134   4.498   4.724   0.824 -0.7994  1.6920 -1.7075
 6167SOL    HW230135   4.398   4.682   0.922 -0.6157 -1.1624 -2.8433
 6168SOL     OW30136   4.304   1.132  16.286  0.3356  0.4473 -0.2512
 6168SOL    HW130137   4.211   1.149  16.274 -0.4800 -4.5960 -1.3014
 6168SOL    HW230138   4.347   1.184  16.218 -0.7615  0.6848 -0.7643
 6169SOL     OW30139   3.106   4.350   8.495  0.1512 -0.4946  0.2706
 6169SOL    HW130140   3.144   4.433   8.464 -0.1593  0.1159  1.5061
 6169SOL    HW230141   3.075   4.314   8.412  0.2128  3.9404 -1.6985
 6170SOL     OW30142   4.248   3.227   3.375 -0.8459 -1.0204  0.2801
 6170SOL    HW130143   4.194   3.291   3.327  0.0060  0.4932  1.3343
 6170SOL    HW230144   4.333   3.254   3.340 -0.4384  2.5131  4.0231
 6171SOL     OW30145   0.597   2.237   3.231 -0.1931 -0.6108 -0.1287
 6171SOL    HW130146   0.672   2.297   3.234  0.9479 -1.9727 -1.1224
 6171SOL    HW230147   0.523   2.293   3.207 -0.6451 -0.2633  2.1385
 6172SOL     OW30148   0.321   1.037  17.670  0.4158 -0.1117 -0.2129
 6172SOL    HW130149   0.325   0.979  17.594 -2.5244  1.2738 -1.4497
 6172SOL    HW230150   0.263   1.109  17.644 -1.3099 -0.4739  2.5850
 6173SOL     OW30151   0.142   0.290   1.664 -0.5735  0.2291 -0.5281
 6173SOL    HW130152   0.151   0.383   1.685  1.8917  0.2641 -1.8248
 6173SOL    HW230153   0.051   0.284   1.633 -1.0727  0.9914  0.7783
 6174SOL     OW30154   0.107   4.393   8.680  0.0266  0.0536  0.1869
 6174SOL    HW130155   0.195   4.424   8.655  0.2890 -1.4566 -0.7749
 6174SOL    HW230156   0.067   4.419   8.597  1.1531 -0.4646 -0.5345
 6175SOL     OW30157   3.938   2.764   3.890  1.2733  0.0628  0.4398
 6175SOL    HW130158   3.934   2.854   3.856 -1.4790 -0.7802 -1.4329
 6175SOL    HW230159   3.863   2.768   3.949  0.8755 -2.6710  0.0893
 6176SOL     OW30160   1.948   2.402   7.908  0.5767 -0.2436 -0.1610
 6176SOL    HW130161   1.918   2.426   7.820  0.4478  0.8787  0.1916
 6176SOL    HW230162   1.884   2.439   7.969 -0.0229  0.6104 -1.3035
 6177SOL     OW30163   2.912   0.922  10.985  0.0821 -0.0185  0.0288
 6177SOL    HW130164   2.918   0.829  11.009  2.0640 -0.0844 -0.6956
 6177SOL    HW230165   2.996   0.959  11.011  0.5321 -1.1058  0.1387
 6178SOL     OW30166   2.728   3.537   3.672 -0.0118  0.7605  0.2587
 6178SOL    HW130167   2.716   3.613   3.616  1.0616  1.4016  0.9111
 6178SOL    HW230168   2.709   3.568   3.760  0.0091  1.5531 -0.0159
 6179SOL     OW30169   0.946   4.680   6.739 -0.5335 -0.2390  0.5973
 6179SOL    HW130170   0.878   4.615   6.758 -2.8678  2.0134 -0.0843
 6179SOL    HW230171   0.930   4.703   6.648 -0.4473  2.2849  1.2248
 6180SOL     OW30172   3.329   2.806   3.704 -0.3794  0.2375 -0.6892
 6180SOL    HW130173   3.303   2.831   3.793 -0.5013 -1.3969 -0.2598
 6180SOL    HW230174   3.269   2.735   3.680 -1.2261  0.6174  0.3058
 6181SOL     OW30175   2.287   2.535   2.775  0.0185  0.5640 -0.1695
 6181SOL    HW130176   2.248   2.449   2.760  2.1958 -0.5989  0.8096
 6181SOL    HW230177   2.211   2.589   2.753  0.0070  1.1037  1.2017
 6182SOL     OW30178   0.013   1.276  15.296  0.6422 -0.0480  0.0746
 6182SOL    HW130179   0.045   1.189  15.277 -0.6823 -1.1237  2.6638
 6182SOL    HW230180   4.659   1.262  15.283  0.6493  1.4022 -1.5443
 6183SOL     OW30181   4.369   4.408   4.959 -0.4778 -0.0706  0.0962
 6183SOL    HW130182   4.334   4.461   5.031 -1.0028 -1.2743  0.7252
 6183SOL    HW230183   4.331   4.323   4.980 -2.0409  0.5233 -0.3327
 6184SOL     OW30184   2.817   4.682  10.627  0.2096  0.4679  0.3182
 6184SOL    HW130185   2.832   0.005  10.557  1.7124 -1.1276 -0.7770
 6184SOL    HW230186   2.897   4.630  10.617 -0.1541 -0.0775  0.2795
 6185SOL     OW30187   1.307   1.071  10.425 -0.8034  0.1445  0.4980
 6185SOL    HW130188   1.216   1.043  10.435  0.3327 -3.2902  1.1229
 6185SOL    HW230189   1.358   1.022  10.489 -1.0437 -0.5038  0.1843
 6186SOL     OW30190   0.971   2.496  12.069  0.7631 -0.0550 -0.2398
 6186SOL    HW130191   0.890   2.539  12.096  0.3958 -0.1471 -1.2111
 6186SOL    HW230192   0.955   2.433  11.999  2.1068  0.8567 -1.3815
 6187SOL     OW30193   4.144   0.681   5.998 -0.7292 -0.6914 -0.4177
 6187SOL    HW130194   4.228   0.676   6.044 -1.8772 -1.8732  1.5024
 6187SOL    HW230195   4.104   0.595   6.010 -0.4263 -0.6328  1.0323
 6188SOL     OW30196   0.076   1.450  11.968  0.1665 -0.7556  0.2337
 6188SOL    HW130197   0.091   1.544  11.974 -0.9993 -0.6317  1.1439
 6188SOL    HW230198   0.092   1.422  12.058 -1.1195 -1.0829  0.3594
 6189SOL     OW30199   1.454   2.184   7.633 -0.2421  0.0051  0.0431
 6189SOL    HW130200   1.522   2.119   7.652  1.0249  1.4181  0.4192
 6189SOL    HW230201   1.416   2.210   7.717  0.1657  3.6425 -0.8797
 6190SOL     OW30202   0.265   0.352   8.059  0.6058  0.3914 -0.0437
 6190SOL    HW130203   0.277   0.442   8.088  2.6349  1.1082 -3.1616
 6190SOL    HW230204   0.327   0.315   8.122 -0.3546  2.0210  1.8485
 6191SOL     OW30205   0.423   0.477   4.575 -0.2221  0.2586  0.1100
 6191SOL    HW130206   0.473   0.550   4.612 -0.2005  0.5804 -0.5590
 6191SOL    HW230207   0.372   0.447   4.650 -1.2360 -0.1073 -0.7387
 6192SOL     OW30208   1.965   3.071   1.518 -0.3042  0.1855 -0.2245
 6192SOL    HW130209   1.932   3.109   1.600  0.2242  0.8931 -0.3450
 6192SOL    HW230210   1.942   3.141   1.457 -1.5761 -0.4481 -0.4626
 6193SOL     OW30211   4.716   3.519   4.703 -0.8827 -0.6725 -0.8810
 6193SOL    HW130212   0.030   3.566   4.766 -1.0150 -0.7806 -0.6851
 6193SOL    HW230213   4.705   3.436   4.750  0.4578 -1.1147 -1.3602
 6194SOL     OW30214   2.191   2.692  12.577  0.0440 -0.3424  0.4007
 6194SOL    HW130215   2.167   2.764  12.518 -0.7758 -0.1241  1.0019
 6194SOL    HW230216   2.116   2.633  12.567 -1.0438  0.9536  1.0287
 6195SOL     OW30217   1.202   3.638   8.098 -0.4502  0.4774 -0.0438
 6195SOL    HW130218   1.195   3.543   8.092 -4.9845  0.7182  0.8390
 6195SOL    HW230219   1.192   3.657   8.191  0.9712 -4.0441  0.9991
 6196SOL     OW30220   2.166   0.868   3.889  0.1003 -0.0330  0.0584
 6196SOL    HW130221   2.096   0.853   3.825  0.3693  0.8330 -0.4358
 6196SOL    HW230222   2.151   0.799   3.954  0.6194  1.2433  1.5282
 6197SOL     OW30223   2.858   2.072   6.736 -0.1609 -0.4301  0.3938
 6197SOL    HW130224   2.837   1.990   6.781  0.3320 -0.2349  0.9845
 6197SOL    HW230225   2.924   2.108   6.796 -1.5387  1.0516  1.0107
 6198SOL     OW30226   0.858   3.255  16.227 -0.0348 -0.4191  0.1657
 6198SOL    HW130227   0.904   3.173  16.244  1.9720  0.6525 -0.1224
 6198SOL    HW230228   0.937   3.303  16.201 -0.0771 -0.4855 -0.0792
 6199SOL     OW30229   2.721   0.852   2.606 -0.0763 -0.1902 -0.0106
 6199SOL    HW130230   2.662   0.891   2.541  2.1262  0.7745 -1.4234
 6199SOL    HW230231   2.705   0.921   2.670 -2.9879  0.1832 -1.1129
 6200SOL     OW30232   3.556   0.028   0.734  0.7394 -0.3139 -0.5256
 6200SOL    HW130233   3.531   4.677   0.748  0.8625 -0.4538 -1.2270
 6200SOL    HW230234   3.636   0.021   0.787 -0.2621  3.4005  1.5048
 6201SOL     OW30235   4.019   4.729  12.565 -0.7618  0.0518  0.4860
 6201SOL    HW130236   4.114   4.719  12.567 -0.8953 -0.7301  2.5892
 6201SOL    HW230237   4.004   0.072  12.610  1.8375  1.0651 -0.5098
 6202SOL     OW30238   3.070   3.732   2.883 -0.5929 -0.7440  0.4993
 6202SOL    HW130239   3.034   3.777   2.960 -0.1081 -1.8699  1.3880
 6202SOL    HW230240   3.148   3.683   2.911  0.0956 -1.4414 -2.6346
 6203SOL     OW30241   4.233   4.309   5.785 -0.3163  0.2820  0.0750
 6203SOL    HW130242   4.148   4.283   5.750 -1.2613  0.4079  2.2473
 6203SOL    HW230243   4.299   4.301   5.716  0.9465  0.6340  1.2327
 6204SOL     OW30244   4.418   3.164   7.480  0.0324  0.0688 -0.1697
 6204SOL    HW130245   4.409   3.236   7.418 -0.7366  0.8983  0.9065
 6204SOL    HW230246   4.393   3.208   7.561  0.7381  0.4376 -0.1490
 6205SOL     OW30247   0.243   2.037   7.363 -0.5620  0.2139 -0.2217
 6205SOL    HW130248   0.193   1.957   7.377 -0.4409  0.0986 -0.4489
 6205SOL    HW230249   0.195   2.093   7.302 -1.3332 -2.4907 -2.1151
 6206SOL     OW30250   0.936   4.715   3.947  0.4378  0.2086  0.0900
 6206SOL    HW130251   0.874   4.650   3.913 -1.3420  1.0535  1.6978
 6206SOL    HW230252   1.013   4.659   3.956  0.4960  0.5875  1.9238
 6207SOL     OW30253   0.422   1.328   0.839  0.0763 -0.2470 -0.2875
 6207SOL    HW130254   0.481   1.339   0.914  0.8080 -0.6741 -0.7965
 6207SOL    HW230255   0.343   1.294   0.881  0.6929 -0.6326  0.5484
 6208SOL     OW30256   2.684   3.875   6.625  0.8951  0.0984  0.9362
 6208SOL    HW130257   2.693   3.782   6.603 -1.8278 -0.3185  1.6319
 6208SOL    HW230258   2.770   3.895   6.661  1.6598  0.4645 -1.0959
 6209SOL     OW30259   3.461   0.927   6.264 -0.4313  0.1232 -0.0272
 6209SOL    HW130260   3.543   0.933   6.313 -0.2714 -3.3285  0.1644
 6209SOL    HW230261   3.477   0.984   6.189  2.5841 -1.4087 -0.5418
 6210SOL     OW30262   0.724   2.686   8.911  0.4018 -0.2503  0.0763
 6210SOL    HW130263   0.704   2.597   8.881  1.1138 -0.5314  0.4499
 6210SOL    HW230264   0.708   2.677   9.005 -1.8511  0.2716 -0.2503
 6211SOL     OW30265   2.226   4.382  11.370  0.2859 -0.2242  0.1463
 6211SOL    HW130266   2.305   4.329  11.385  1.4318  1.8591  1.5036
 6211SOL    HW230267   2.248   4.457  11.425 -0.4946  0.4399 -0.4448
 6212SOL     OW30268   3.477   3.245   9.252  0.7573  0.1814 -0.1318
 6212SOL    HW130269   3.506   3.186   9.183 -0.1003 -0.1634 -0.1909
 6212SOL    HW230270   3.403   3.288   9.210  0.3809 -0.1162  0.2332
 6213SOL     OW30271   0.088   1.852  13.523 -0.5396  0.0889  0.3893
 6213SOL    HW130272   4.734   1.847  13.509 -0.4495  1.1101 -0.5512
 6213SOL    HW230273   0.089   1.929  13.580 -0.2664 -1.4528  2.4911
 6214SOL     OW30274   1.953   0.833   8.551 -0.0885  0.3028  0.1265
 6214SOL    HW130275   1.974   0.890   8.625 -0.3421 -0.0433  0.4664
 6214SOL    HW230276   1.861   0.813   8.567  0.2740 -1.3620  0.1197
 6215SOL     OW30277   4.058   3.229   2.114  1.0480 -0.8574 -0.1549
 6215SOL    HW130278   4.091   3.265   2.032 -1.7697 -3.0884 -2.2662
 6215SOL    HW230279   4.004   3.157   2.082  0.9521  0.1646 -2.2834
 6216SOL     OW30280   1.312   1.210   6.749 -0.1237  0.3439  0.3441
 6216SOL    HW130281   1.282   1.119   6.740  0.4228  0.1092  0.9256
 6216SOL    HW230282   1.317   1.227   6.843  1.5419 -1.7639  0.6449
 6217SOL     OW30283   2.788   4.096   3.524  0.0875 -0.2857 -0.2541
 6217SOL    HW130284   2.793   4.141   3.439 -1.2292 -0.5925 -0.4983
 6217SOL    HW230285   2.874   4.054   3.529 -0.2373 -0.9400 -0.2349
 6218SOL     OW30286   2.698   1.512   1.038  0.3884 -0.3270 -0.7773
 6218SOL    HW130287   2.727   1.603   1.043  1.5198 -0.8528  2.2896
 6218SOL    HW230288   2.604   1.530   1.038  0.4134 -0.1623  1.2722
 6219SOL     OW30289   3.220   2.295  17.028 -0.2229  0.0050  0.1973
 6219SOL    HW130290   3.229   2.339  17.113  0.4217 -0.0305  0.1521
 6219SOL    HW230291   3.184   2.212  17.059 -0.2579 -0.8199 -2.1078
 6220SOL     OW30292   1.944   3.005  11.684 -0.1923 -0.3237  0.2559
 6220SOL    HW130293   1.990   3.082  11.651 -0.7043 -0.8195 -1.6200
 6220SOL    HW230294   1.858   3.042  11.706  0.8882  1.8151  0.8776
 6221SOL     OW30295   4.326   1.850  14.992 -0.3795 -0.0533 -0.0134
 6221SOL    HW130296   4.243   1.802  14.986 -0.5189  0.2755 -0.6469
 6221SOL    HW230297   4.391   1.789  14.957 -0.0498 -0.3926  1.1737
 6222SOL     OW30298   0.512   0.565   7.654 -0.6911 -0.2845 -0.3503
 6222SOL    HW130299   0.506   0.476   7.620 -0.9785 -0.7056  0.7862
 6222SOL    HW230300   0.604   0.587   7.640 -0.6763  1.3012  2.2371
 6223SOL     OW30301   2.331   2.090  12.437 -0.7416  0.5684 -0.4137
 6223SOL    HW130302   2.355   2.146  12.363  0.1736  2.1157  1.0626
 6223SOL    HW230303   2.347   2.001  12.405 -1.5182  0.8590 -1.5735
 6224SOL     OW30304   1.554   1.949  14.040 -0.0318 -0.1087 -0.3338
 6224SOL    HW130305   1.509   2.019  13.993 -0.1309  0.9686  1.3714
 6224SOL    HW230306   1.625   1.997  14.082 -0.7329 -1.6934  2.6751
 6225SOL     OW30307   3.991   4.333   8.452 -0.1330  0.2466  0.2741
 6225SOL    HW130308   3.914   4.382   8.424 -0.1919  0.1306  0.2363
 6225SOL    HW230309   4.009   4.281   8.374 -0.4574  1.7887 -0.8356
 6226SOL     OW30310   2.026   4.106   6.694  0.1953 -0.2544 -0.4484
 6226SOL    HW130311   2.064   4.100   6.782  0.3340 -0.9820 -0.5543
 6226SOL    HW230312   2.030   4.201   6.683  0.0686 -0.1070  0.7235
 6227SOL     OW30313   0.831   4.392   4.695 -0.1208  0.7416 -0.0510
 6227SOL    HW130314   0.829   4.426   4.784 -1.5712 -0.7067  0.4548
 6227SOL    HW230315   0.907   4.333   4.699  0.5289  1.5809  0.1054
 6228SOL     OW30316   4.509   1.433  12.540 -0.1970  0.4978 -0.1935
 6228SOL    HW130317   4.457   1.387  12.607 -1.7899  0.2471 -1.5851
 6228SOL    HW230318   4.533   1.502  12.602 -0.8826  1.0596 -0.5530
 6229SOL     OW30319   1.317   1.738   2.796 -0.4367  0.3742 -0.1947
 6229SOL    HW130320   1.393   1.785   2.762 -0.7134 -0.1612 -1.5478
 6229SOL    HW230321   1.316   1.772   2.885 -0.3471 -0.8054  0.2405
 6230SOL     OW30322   2.537   0.691  10.885  0.3165  0.8776  0.2989
 6230SOL    HW130323   2.604   0.631  10.917 -0.7469 -0.7336 -0.4357
 6230SOL    HW230324   2.584   0.729  10.811  3.8726 -2.4377  0.8469
 6231SOL     OW30325   2.040   1.769   7.213  0.0868  0.0611 -0.1404
 6231SOL    HW130326   2.001   1.740   7.296  0.6686 -2.3213 -0.7028
 6231SOL    HW230327   2.005   1.712   7.145  3.0593 -2.2024  0.2554
 6232SOL     OW30328   1.426   3.546   6.575 -0.2306  0.1427 -0.2828
 6232SOL    HW130329   1.410   3.459   6.539  1.0907 -0.6415  0.9904
 6232SOL    HW230330   1.503   3.523   6.628 -0.3702 -2.4070 -1.2043
 6233SOL     OW30331   4.306   3.669   7.590  0.0042  0.2939  0.2990
 6233SOL    HW130332   4.228   3.616   7.601  0.8883 -1.2610 -0.9697
 6233SOL    HW230333   4.276   3.723   7.517  0.1784  1.3223  0.9859
 6234SOL     OW30334   1.753   1.676  13.055  0.1645 -0.5788 -0.1290
 6234SOL    HW130335   1.716   1.711  13.137  0.5137 -2.4135  0.8063
 6234SOL    HW230336   1.735   1.755  13.004  1.6226  0.2921  0.7167
 6235SOL     OW30337   0.260   3.326  15.649  0.0824  0.0698 -0.0068
 6235SOL    HW130338   0.347   3.365  15.655 -0.0276  0.3156 -0.0106
 6235SOL    HW230339   0.200   3.392  15.683 -0.1521  0.6806 -1.6127
 6236SOL     OW30340   1.790   2.512   4.936  0.3863  0.2892 -0.8006
 6236SOL    HW130341   1.848   2.583   4.963 -1.4859  0.1823  3.5127
 6236SOL    HW230342   1.825   2.430   4.972  1.3632  0.6448 -0.9347
 6237SOL     OW30343   1.106   3.289   5.522  0.2280  0.0469  0.1529
 6237SOL    HW130344   1.183   3.329   5.563  0.0320  0.5980 -0.0136
 6237SOL    HW230345   1.144   3.202   5.517  0.9771  0.4259 -0.9655
 6238SOL     OW30346   2.311   4.684   3.886 -0.5820 -0.3407  0.4545
 6238SOL    HW130347   2.333   4.626   3.814 -0.1016 -0.7508  0.9317
 6238SOL    HW230348   2.395   4.717   3.917 -1.1875 -0.3249  2.0870
 6239SOL     OW30349   1.135   3.246   7.601 -0.2352  0.3650  0.1674
 6239SOL    HW130350   1.145   3.261   7.507 -1.4277  1.8884  0.2833
 6239SOL    HW230351   1.156   3.333   7.636 -1.1657  0.7639 -0.2893
 6240SOL     OW30352   4.030   4.343  10.861  0.5061 -0.3598 -0.1546
 6240SOL    HW130353   4.120   4.316  10.878 -0.3702 -1.6674  2.3942
 6240SOL    HW230354   4.031   4.438  10.873 -0.5942 -0.5102  1.1790
 6241SOL     OW30355   2.771   4.712  13.901  0.1711 -0.0495  0.5022
 6241SOL    HW130356   2.755   0.066  13.909  0.7789  0.0616  0.4706
 6241SOL    HW230357   2.797   4.688  13.991  1.3904  1.5823  0.5779
 6242SOL     OW30358   0.267   0.834   5.117  0.2417 -0.0820 -0.3387
 6242SOL    HW130359   0.275   0.833   5.213 -3.4680 -2.0950 -0.0354
 6242SOL    HW230360   0.174   0.813   5.109  0.5110 -2.2248  2.1339
 6243SOL     OW30361   3.130   3.204  11.170  0.3873 -0.2804 -0.5988
 6243SOL    HW130362   3.222   3.199  11.196  0.6237  2.1763 -0.9870
 6243SOL    HW230363   3.132   3.214  11.075  0.1462  0.7031 -0.5007
 6244SOL     OW30364   4.602   0.667   1.853 -0.2467  0.6111  0.5678
 6244SOL    HW130365   4.609   0.723   1.931  0.3917  1.2147  0.0809
 6244SOL    HW230366   4.635   0.585   1.888 -0.8306 -0.0047 -0.3315
 6245SOL     OW30367   1.440   0.814   7.083  0.1367  0.1067 -0.3392
 6245SOL    HW130368   1.529   0.832   7.053 -0.7996  2.2848 -1.7942
 6245SOL    HW230369   1.450   0.767   7.166  0.3756  0.9288  0.0961
 6246SOL     OW30370   4.308   3.921   3.411 -0.2858  0.0190 -0.5707
 6246SOL    HW130371   4.400   3.941   3.427 -0.3700  0.8324 -1.1027
 6246SOL    HW230372   4.275   4.009   3.428  0.6769  0.4248 -0.7909
 6247SOL     OW30373   3.773   1.202  16.632  0.3711  0.1642  0.0683
 6247SOL    HW130374   3.761   1.286  16.588 -2.3262 -0.3593 -0.1953
 6247SOL    HW230375   3.860   1.174  16.602  0.0830  1.8540 -2.3809
 6248SOL     OW30376   1.889   0.800   4.924  0.2871  0.1007 -0.6043
 6248SOL    HW130377   1.981   0.774   4.914 -0.1580 -1.9620  0.5758
 6248SOL    HW230378   1.865   0.865   4.858 -0.7757 -0.2436 -0.5526
 6249SOL     OW30379   0.568   3.204   5.221 -0.1578 -0.2086  0.5661
 6249SOL    HW130380   0.511   3.270   5.259  0.3542  0.5382  0.0319
 6249SOL    HW230381   0.548   3.227   5.130  1.1221 -0.0711  0.3218
 6250SOL     OW30382   2.457   0.573   5.681 -0.0467 -0.4322  0.5509
 6250SOL    HW130383   2.512   0.501   5.649 -0.3327 -0.2661 -0.2882
 6250SOL    HW230384   2.371   0.542   5.654  0.9525 -3.1945  0.5317
 6251SOL     OW30385   0.927   1.121   5.540  0.8034 -0.0393 -0.4599
 6251SOL    HW130386   0.856   1.162   5.590  0.1898 -0.5445 -0.9269
 6251SOL    HW230387   0.931   1.035   5.581 -0.3551 -1.0613 -2.5469
 6252SOL     OW30388   2.676   3.724   7.916  0.2648  0.2127 -0.0238
 6252SOL    HW130389   2.600   3.756   7.867 -0.2073  0.1533  0.6579
 6252SOL    HW230390   2.700   3.798   7.972 -0.6040  1.6894 -1.5866
 6253SOL     OW30391   2.927   1.628   0.298  0.8222 -0.3530 -0.3340
 6253SOL    HW130392   2.854   1.604   0.355  1.4843 -0.8782  0.2907
 6253SOL    HW230393   2.904   1.716   0.269 -1.6463 -1.4803 -1.7433
 6254SOL     OW30394   0.925   3.497   6.915  0.1210 -0.1889 -0.1250
 6254SOL    HW130395   0.934   3.509   7.010 -0.6544  0.5453 -0.1402
 6254SOL    HW230396   0.971   3.414   6.905 -3.9737 -2.5032  0.5023
 6255SOL     OW30397   2.349   2.218   7.322 -0.2495 -0.0399 -0.5922
 6255SOL    HW130398   2.374   2.175   7.404 -1.5972 -1.4152 -0.9092
 6255SOL    HW230399   2.299   2.144   7.289  3.5670 -2.3404 -1.2416
 6256SOL     OW30400   3.953   3.094   4.682 -0.5797 -0.0945  0.4490
 6256SOL    HW130401   3.946   3.101   4.586 -1.6506 -2.0054  0.3846
 6256SOL    HW230402   3.907   3.013   4.704 -1.2126  0.2172  0.2560
 6257SOL     OW30403   4.478   0.571   1.218 -0.5916  0.1375 -0.4963
 6257SOL    HW130404   4.421   0.645   1.235 -0.2009 -0.2170  2.3781
 6257SOL    HW230405   4.563   0.614   1.229 -1.1734  0.9374  0.8794
 6258SOL     OW30406   0.302   1.643  15.267  0.3315  0.7195  0.2523
 6258SOL    HW130407   0.286   1.737  15.269  1.2430  0.8982 -1.1471
 6258SOL    HW230408   0.244   1.612  15.337 -1.2932  1.2090 -0.8992
 6259SOL     OW30409   2.504   2.202  13.660 -0.5015  0.0598  0.3852
 6259SOL    HW130410   2.553   2.138  13.712 -0.3317 -0.2758 -0.1832
 6259SOL    HW230411   2.503   2.147  13.582  0.5891 -0.4188  0.7030
 6260SOL     OW30412   4.510   2.066   4.222  0.1556 -0.3709  0.2890
 6260SOL    HW130413   4.505   2.161   4.208 -1.8487 -0.5148  0.0354
 6260SOL    HW230414   4.548   2.036   4.139  0.6429 -0.8455  0.6838
 6261SOL     OW30415   3.264   2.573   6.882  0.3220 -0.0247 -0.0307
 6261SOL    HW130416   3.192   2.620   6.840 -0.5184 -1.4793 -0.1958
 6261SOL    HW230417   3.227   2.485   6.882  0.6220 -0.1535 -1.1163
 6262SOL     OW30418   0.567   4.374  16.461 -0.8391  0.2777 -0.1942
 6262SOL    HW130419   0.534   4.439  16.400  0.4376  0.8136 -0.3218
 6262SOL    HW230420   0.603   4.315  16.395 -1.4823 -0.5391  0.1863
 6263SOL     OW30421   1.903   0.800   4.239 -0.4400 -0.1631 -0.1708
 6263SOL    HW130422   1.943   0.878   4.201  1.2801 -0.5183  0.8826
 6263SOL    HW230423   1.859   0.753   4.169  0.3716  1.4714 -1.7695
 6264SOL     OW30424   3.819   3.456   1.979 -0.3774 -0.1764  0.1537
 6264SOL    HW130425   3.823   3.470   2.074 -4.4269  0.8622  0.1917
 6264SOL    HW230426   3.869   3.534   1.955  0.3208 -0.8089 -0.4227
 6265SOL     OW30427   0.112   3.329   7.640  0.0302  0.2520  0.4164
 6265SOL    HW130428   0.165   3.283   7.575 -2.4780 -1.0294 -0.7029
 6265SOL    HW230429   0.068   3.257   7.686 -0.0879  0.0578 -0.0068
 6266SOL     OW30430   3.588   4.059   2.250  0.7075  0.1975  0.6122
 6266SOL    HW130431   3.575   4.124   2.181 -0.3615 -0.8530 -0.1711
 6266SOL    HW230432   3.645   3.997   2.204 -0.7517 -0.1996 -0.6453
 6267SOL     OW30433   2.962   4.485  15.195  0.0192 -0.1541 -0.0591
 6267SOL    HW130434   3.029   4.489  15.126  0.3827 -0.6057  0.2733
 6267SOL    HW230435   2.924   4.406  15.158  0.5759 -1.0040  1.1895
 6268SOL     OW30436   2.625   3.681   9.124  0.7462  0.0347 -0.0796
 6268SOL    HW130437   2.573   3.723   9.056  0.9196 -0.5984 -0.6103
 6268SOL    HW230438   2.556   3.683   9.191  0.7435 -1.9560 -0.0122
 6269SOL     OW30439   0.721   2.900   3.260 -0.3203 -0.5013  0.3096
 6269SOL    HW130440   0.737   2.939   3.174  1.3913  0.8862  1.2491
 6269SOL    HW230441   0.636   2.937   3.284  0.4598  0.3516  1.7934
 6270SOL     OW30442   4.284   3.548  15.029 -0.6944 -0.3157 -0.2895
 6270SOL    HW130443   4.283   3.453  15.023  1.7055 -0.3807  0.5284
 6270SOL    HW230444   4.258   3.556  15.120 -0.5553 -0.2817 -0.2533
 6271SOL     OW30445   4.668   1.981   2.910 -0.1127  0.7199 -0.4379
 6271SOL    HW130446   4.604   2.049   2.889 -1.8350 -0.4694  0.9231
 6271SOL    HW230447   4.689   2.002   3.001  0.8343 -0.8387 -0.2943
 6272SOL     OW30448   0.001   1.415   7.579 -0.1817  0.6261  0.1587
 6272SOL    HW130449   0.071   1.445   7.638 -0.7696  2.8788 -0.2682
 6272SOL    HW230450   0.026   1.462   7.499 -1.0890 -0.5604 -0.8145
 6273SOL     OW30451   0.351   1.768   4.731  0.5900  0.7458  0.1513
 6273SOL    HW130452   0.351   1.730   4.643  1.6796 -0.4375  0.6593
 6273SOL    HW230453   0.273   1.719   4.759  0.9099  0.6695  0.9080
 6274SOL     OW30454   3.262   1.308  13.014 -0.7974 -0.6630  0.0883
 6274SOL    HW130455   3.306   1.371  13.071  0.0143 -2.0245  0.9641
 6274SOL    HW230456   3.277   1.359  12.935 -0.4329  0.4653  0.8874
 6275SOL     OW30457   2.343   2.964  12.162 -0.1175 -0.1499  0.1242
 6275SOL    HW130458   2.254   2.973  12.128 -1.1442  1.5748  3.2626
 6275SOL    HW230459   2.336   2.871  12.184  0.8152 -0.2694 -0.0898
 6276SOL     OW30460   0.735   2.889   7.398 -0.2300  0.1446 -0.0456
 6276SOL    HW130461   0.698   2.959   7.346 -0.1903 -1.7121 -2.5604
 6276SOL    HW230462   0.743   2.813   7.340 -0.8684 -0.0345  0.1078
 6277SOL     OW30463   2.109   1.682   8.003  0.7733  0.0589 -0.8384
 6277SOL    HW130464   2.185   1.628   8.027  0.5019 -0.7387 -1.7478
 6277SOL    HW230465   2.147   1.767   8.024  1.1408 -0.0563 -1.0299
 6278SOL     OW30466   0.986   2.766   8.808 -0.1766  0.8854 -0.2252
 6278SOL    HW130467   0.898   2.741   8.837  0.7993 -3.9949 -1.3972
 6278SOL    HW230468   1.016   2.698   8.748  0.1304  0.5406  0.3185
 6279SOL     OW30469   1.316   3.092   3.446  0.1900 -0.1024 -0.0527
 6279SOL    HW130470   1.220   3.093   3.457  0.4156 -0.6703  2.0679
 6279SOL    HW230471   1.338   3.109   3.538  0.4904 -0.3212 -0.0861
 6280SOL     OW30472   0.782   3.480   4.053  0.5758 -0.2423  0.4803
 6280SOL    HW130473   0.866   3.434   4.050  0.0590 -1.1360 -0.2283
 6280SOL    HW230474   0.748   3.467   3.964 -1.2979 -0.6835  1.2573
 6281SOL     OW30475   1.118   2.363  12.838  0.0862  0.5140  0.5199
 6281SOL    HW130476   1.167   2.285  12.815  0.3284  1.1958 -1.3284
 6281SOL    HW230477   1.040   2.326  12.879 -0.6772  0.0715 -1.3122
 6282SOL     OW30478   2.251   1.508   9.460  0.0388 -0.3740 -0.2591
 6282SOL    HW130479   2.280   1.471   9.377 -0.6039  0.1837 -0.7362
 6282SOL    HW230480   2.303   1.587   9.479 -1.6295  1.1173 -1.8767
 6283SOL     OW30481   4.234   3.634   9.095  0.1058  0.2655 -0.0450
 6283SOL    HW130482   4.151   3.681   9.088 -0.7877 -1.0634  1.5752
 6283SOL    HW230483   4.268   3.643   9.006 -1.7035 -1.3136 -0.8933
 6284SOL     OW30484   1.412   1.871   7.586  0.4275 -0.6511 -0.8180
 6284SOL    HW130485   1.353   1.863   7.661  1.5549 -3.4195 -0.2345
 6284SOL    HW230486   1.490   1.916   7.617  2.3576 -3.1979 -1.9922
 6285SOL     OW30487   2.993   1.464   2.511 -0.2717 -0.2867  0.5118
 6285SOL    HW130488   3.001   1.538   2.450 -1.6403 -0.5128  0.0594
 6285SOL    HW230489   3.086   1.452   2.528  0.1384 -0.7571 -2.0768
 6286SOL     OW30490   0.661   2.363   8.273  0.2805  0.3555 -0.4501
 6286SOL    HW130491   0.752   2.334   8.284  0.4454  1.7574  2.0182
 6286SOL    HW230492   0.668   2.397   8.185 -3.1133  0.7539 -0.5600
 6287SOL     OW30493   4.144   3.492   3.221  0.0787 -0.6425 -0.6430
 6287SOL    HW130494   4.085   3.506   3.147 -1.6923 -1.1326  0.6677
 6287SOL    HW230495   4.174   3.581   3.238 -1.0139 -0.7034  1.5231
 6288SOL     OW30496   0.126   3.666  13.819  0.1302  0.5588  0.2176
 6288SOL    HW130497   0.120   3.681  13.724  1.5180 -0.9126 -0.1019
 6288SOL    HW230498   0.033   3.676  13.840 -0.4102 -2.5232 -0.7250
 6289SOL     OW30499   0.780   0.485   5.028  0.5507 -0.0474  0.3627
 6289SOL    HW130500   0.748   0.408   5.075  0.8411 -1.4327 -1.7188
 6289SOL    HW230501   0.807   0.441   4.947 -1.4594 -2.2066  0.8574
 6290SOL     OW30502   2.298   2.558   4.136 -0.1479 -0.0474  0.0374
 6290SOL    HW130503   2.332   2.640   4.172  1.5684 -0.6536 -0.2380
 6290SOL    HW230504   2.223   2.551   4.195 -1.1721 -1.3362 -1.4076
 6291SOL     OW30505   4.201   0.903   3.745 -0.7198  0.3011  0.0037
 6291SOL    HW130506   4.228   0.917   3.836 -0.5476 -0.3899  0.0586
 6291SOL    HW230507   4.155   0.821   3.765  1.2056 -0.9099 -0.5834
 6292SOL     OW30508   0.323   2.443  13.169 -0.0787  0.5076  0.3593
 6292SOL    HW130509   0.384   2.373  13.148 -1.0132 -0.5494  1.1824
 6292SOL    HW230510   0.359   2.514  13.116  3.1767 -3.1182 -2.3058
 6293SOL     OW30511   3.279   3.782  10.546  0.1027 -0.0135  0.1771
 6293SOL    HW130512   3.316   3.869  10.533  0.0015 -0.2533 -1.6687
 6293SOL    HW230513   3.192   3.815  10.569 -1.4021 -1.3232 -3.7191
 6294SOL     OW30514   2.248   1.845   5.263 -0.2284  0.4078 -0.2209
 6294SOL    HW130515   2.228   1.926   5.310 -2.8015 -1.1495  1.3900
 6294SOL    HW230516   2.162   1.804   5.260  0.1597 -0.3623 -0.6266
 6295SOL     OW30517   3.724   2.508  10.519 -0.7192 -0.2617  0.1392
 6295SOL    HW130518   3.796   2.446  10.514  0.4721  1.0638  1.0025
 6295SOL    HW230519   3.665   2.469  10.454 -0.5501  0.5744 -0.5170
 6296SOL     OW30520   1.609   0.083   2.991  0.3357 -0.2800  0.1358
 6296SOL    HW130521   1.558   0.157   2.957  0.5016  0.1966  0.9143
 6296SOL    HW230522   1.620   0.036   2.909  1.1710  1.3337 -0.6771
 6297SOL     OW30523   2.413   1.639   6.601 -0.4509  0.1227 -0.3700
 6297SOL    HW130524   2.341   1.577   6.600  1.3238 -1.9404  0.0617
 6297SOL    HW230525   2.409   1.675   6.689  2.0163 -1.1037  0.2480
 6298SOL     OW30526   3.055   2.133  16.100  0.7103 -0.0198  0.4016
 6298SOL    HW130527   2.992   2.197  16.068  1.1928  0.4714  0.4329
 6298SOL    HW230528   3.117   2.187  16.150 -1.1760  3.8720 -1.5082
 6299SOL     OW30529   3.581   3.413  17.196  0.8289 -0.7259 -0.4574
 6299SOL    HW130530   3.624   3.447  17.118 -0.1475  1.8591  0.1295
 6299SOL    HW230531   3.544   3.489  17.242  2.2469 -0.8037  0.8017
 6300SOL     OW30532   1.434   0.729   7.824 -0.7142  0.4402 -0.0060
 6300SOL    HW130533   1.442   0.700   7.915 -0.0082  0.5960 -0.0141
 6300SOL    HW230534   1.526   0.750   7.806 -0.6810 -1.7579 -2.2863
 6301SOL     OW30535   0.006   0.308  17.557  0.9622  0.0438  0.5228
 6301SOL    HW130536   4.677   0.264  17.507 -0.4340  1.8182  0.8889
 6301SOL    HW230537   4.697   0.322  17.638 -2.0840 -2.1994 -0.9354
 6302SOL     OW30538   1.410   1.775   8.493 -0.0288 -1.0787  0.0970
 6302SOL    HW130539   1.449   1.700   8.539 -0.1787 -0.3661  1.3778
 6302SOL    HW230540   1.432   1.743   8.405  3.0942 -0.6709  0.7159
 6303SOL     OW30541   4.076   0.749   2.903  0.1453  0.1378 -0.3099
 6303SOL    HW130542   4.070   0.832   2.950  2.0980  1.1021 -1.7698
 6303SOL    HW230543   4.111   0.775   2.818 -2.2684 -0.2939 -1.4376
 6304SOL     OW30544   1.900   3.289   8.647  0.1457  0.7909  0.1631
 6304SOL    HW130545   1.882   3.256   8.559  1.8771 -0.3719  0.2565
 6304SOL    HW230546   1.908   3.208   8.697  1.8921  0.1850 -1.1186
 6305SOL     OW30547   3.506   3.849   6.080 -0.0481  0.3246 -0.7317
 6305SOL    HW130548   3.587   3.807   6.051  0.3075 -0.0413  0.8081
 6305SOL    HW230549   3.445   3.783   6.044 -0.9847 -0.3499  2.1087
 6306SOL     OW30550   2.209   2.312   8.403  0.5487  0.3584 -0.0826
 6306SOL    HW130551   2.267   2.388   8.406  0.0153  0.7537  0.2075
 6306SOL    HW230552   2.205   2.285   8.495  1.2998  0.0848 -0.1302
 6307SOL     OW30553   2.860   2.366   2.673 -0.2351 -0.9101  0.6643
 6307SOL    HW130554   2.784   2.319   2.640 -1.1637  2.1956 -1.5989
 6307SOL    HW230555   2.899   2.401   2.592 -2.5754 -0.1747 -0.1273
 6308SOL     OW30556   1.079   3.191   7.131  0.8365  0.5386 -0.0411
 6308SOL    HW130557   1.035   3.127   7.074 -0.1590  0.7977  0.4371
 6308SOL    HW230558   1.128   3.238   7.063 -0.5149  0.2010 -1.2513
 6309SOL     OW30559   0.573   3.054  11.794  0.0190 -0.4331  0.0636
 6309SOL    HW130560   0.658   3.077  11.830 -0.3614  1.7352 -0.4199
 6309SOL    HW230561   0.516   3.104  11.852  0.7078  1.6195 -1.0024
 6310SOL     OW30562   1.762   2.125   6.429  0.5142  0.2728  0.0669
 6310SOL    HW130563   1.702   2.051   6.433 -0.0720  0.8337  1.8856
 6310SOL    HW230564   1.721   2.168   6.355 -0.6613 -2.7651 -1.0286
 6311SOL     OW30565   3.927   3.799   3.277 -0.5839  0.2730 -0.4039
 6311SOL    HW130566   3.971   3.883   3.263 -0.5325  0.5403  1.3755
 6311SOL    HW230567   3.837   3.827   3.290 -1.4974 -2.2105 -1.5180
 6312SOL     OW30568   0.069   4.163   4.870  0.0661 -0.5019  0.0564
 6312SOL    HW130569   0.011   4.238   4.882  0.9474  0.1911  0.0179
 6312SOL    HW230570   0.000   4.100   4.848 -0.1525 -0.7334  1.4646
 6313SOL     OW30571   0.667   2.470   3.545 -0.4367  0.3125  0.5329
 6313SOL    HW130572   0.691   2.514   3.627 -0.3137  3.2824 -1.1129
 6313SOL    HW230573   0.598   2.413   3.580 -0.6404 -1.1946 -2.2888
 6314SOL     OW30574   1.194   2.629  12.147 -0.0455  0.1315 -0.2888
 6314SOL    HW130575   1.114   2.576  12.143 -0.1468  0.5549 -3.9940
 6314SOL    HW230576   1.174   2.708  12.096 -0.8679 -1.1058 -1.8899
 6315SOL     OW30577   3.744   3.366  14.917  0.0470  0.3589  0.5320
 6315SOL    HW130578   3.838   3.350  14.921  0.0410 -0.5206 -2.3224
 6315SOL    HW230579   3.729   3.354  14.823 -0.8868  0.4489  0.6615
 6316SOL     OW30580   4.430   0.107  13.151  0.3475  0.3294 -0.0648
 6316SOL    HW130581   4.458   0.104  13.060  1.2322 -0.6954  0.2398
 6316SOL    HW230582   4.472   0.188  13.176 -1.6855  1.7748 -1.3099
 6317SOL     OW30583   2.292   0.711   8.216 -0.0048 -0.4455 -0.6713
 6317SOL    HW130584   2.252   0.797   8.233 -1.1995 -1.1631  0.1565
 6317SOL    HW230585   2.235   0.665   8.155  0.1905 -0.1165 -1.1010
 6318SOL     OW30586   4.303   1.177  14.681  0.5718 -0.3473  0.2045
 6318SOL    HW130587   4.230   1.173  14.620  1.1222  1.1274 -0.5673
 6318SOL    HW230588   4.334   1.267  14.671 -2.1836  0.5396 -0.3230
 6319SOL     OW30589   0.315   4.734   6.590 -0.0815 -0.0552 -0.1962
 6319SOL    HW130590   0.251   4.726   6.519 -0.0842  1.5891 -0.3847
 6319SOL    HW230591   0.399   4.723   6.546 -1.3943 -0.7295 -2.5123
 6320SOL     OW30592   0.554   4.249  15.837 -0.6939  0.3392 -0.0377
 6320SOL    HW130593   0.465   4.261  15.803 -0.7906  2.4030  0.9598
 6320SOL    HW230594   0.608   4.288  15.768  0.3395 -0.2028  0.4721
 6321SOL     OW30595   1.520   4.681   2.237 -0.3121 -0.0718 -0.3776
 6321SOL    HW130596   1.475   4.716   2.160 -0.5845  2.5502  0.9595
 6321SOL    HW230597   1.557   4.603   2.196  1.1716 -0.0508  0.9073
 6322SOL     OW30598   2.665   2.368   8.639 -0.3239 -0.3900  0.3307
 6322SOL    HW130599   2.735   2.319   8.597  0.7884  1.6441 -0.2138
 6322SOL    HW230600   2.672   2.454   8.598  2.7149 -0.3720  0.8762
 6323SOL     OW30601   1.486   3.738   7.586  0.1065  0.3072 -0.2082
 6323SOL    HW130602   1.415   3.774   7.638 -1.0339  0.3147 -1.7844
 6323SOL    HW230603   1.523   3.816   7.544 -0.7323 -0.5514 -2.5351
 6324SOL     OW30604   3.620   1.395  17.334 -0.1599  0.1828  0.4898
 6324SOL    HW130605   3.571   1.469  17.300 -0.1332 -0.6295 -1.3243
 6324SOL    HW230606   3.680   1.379  17.261  0.9218  2.2940  0.9371
 6325SOL     OW30607   1.435   4.619   5.828  0.0997  0.1195  0.5066
 6325SOL    HW130608   1.402   4.617   5.918  1.6268 -1.6106  1.0194
 6325SOL    HW230609   1.427   4.530   5.793 -1.7826 -0.4268  2.3501
 6326SOL     OW30610   4.660   2.027   7.032 -0.2620  0.0283  0.2657
 6326SOL    HW130611   4.734   1.974   7.064 -0.9069 -0.8763  0.2630
 6326SOL    HW230612   4.596   1.956   7.033  3.0204 -2.9136  0.7666
 6327SOL     OW30613   1.538   1.229   7.554 -0.0746  0.2404  1.1308
 6327SOL    HW130614   1.529   1.157   7.617 -1.8555 -0.8243 -0.3199
 6327SOL    HW230615   1.572   1.296   7.613 -0.8935  0.3889  1.4388
 6328SOL     OW30616   4.120   1.570   8.937 -0.0814  0.7801 -0.6089
 6328SOL    HW130617   4.194   1.530   8.982 -0.5359  0.0020 -0.5589
 6328SOL    HW230618   4.155   1.659   8.943  0.4496  0.6171 -1.2207
 6329SOL     OW30619   0.200   3.353   7.243  0.4239  0.2733 -0.1179
 6329SOL    HW130620   0.204   3.364   7.148  1.3366  0.2269 -0.0826
 6329SOL    HW230621   0.293   3.360   7.266  0.7576 -1.7501 -0.8816
 6330SOL     OW30622   2.629   3.302   2.419 -0.3239  0.8737  0.5000
 6330SOL    HW130623   2.665   3.391   2.418 -0.6241  0.9970  0.6332
 6330SOL    HW230624   2.536   3.326   2.412 -0.4198  0.9640  2.2256
 6331SOL     OW30625   2.765   0.368  15.019 -0.3188  0.0358  0.0742
 6331SOL    HW130626   2.740   0.429  15.089  0.3782  0.8945 -0.4169
 6331SOL    HW230627   2.733   0.426  14.949  2.5208  2.5480  0.8845
 6332SOL     OW30628   2.962   0.768   3.131  0.3540 -1.0281 -0.1034
 6332SOL    HW130629   2.927   0.766   3.042  0.5429  0.7571 -0.2125
 6332SOL    HW230630   3.004   0.682   3.136  4.2325  0.8936  0.2190
 6333SOL     OW30631   3.122   0.463  12.426  0.3687  0.0595 -0.6423
 6333SOL    HW130632   3.193   0.399  12.428 -0.6167 -1.0133  0.5457
 6333SOL    HW230633   3.072   0.432  12.351 -1.8045 -0.8047  1.1241
 6334SOL     OW30634   2.763   3.529   7.757  0.2629  0.5895  0.3416
 6334SOL    HW130635   2.673   3.525   7.724 -0.2990  0.8195  1.8488
 6334SOL    HW230636   2.750   3.589   7.831  2.0493  0.6711  0.5761
 6335SOL     OW30637   0.424   2.962   9.134  0.1301 -0.4449  0.0897
 6335SOL    HW130638   0.334   2.960   9.168 -0.7269  0.0080 -2.1397
 6335SOL    HW230639   0.447   2.885   9.186  2.8743  1.5536  1.8585
 6336SOL     OW30640   0.196   2.848   3.306 -0.4465  0.2036 -0.2631
 6336SOL    HW130641   0.122   2.860   3.365 -0.8261 -2.2120 -0.2383
 6336SOL    HW230642   0.182   2.903   3.229  1.5534  2.4123  0.9634
 6337SOL     OW30643   0.981   0.653  11.098  0.1296  0.1064  0.0551
 6337SOL    HW130644   0.966   0.725  11.036  1.1332 -0.1726 -0.5171
 6337SOL    HW230645   0.985   0.586  11.030 -1.9340  0.7856 -0.7502
 6338SOL     OW30646   3.874   0.745   7.402 -0.2085  0.1912 -0.2907
 6338SOL    HW130647   3.820   0.666   7.399  0.4389 -0.3898  2.7402
 6338SOL    HW230648   3.957   0.703   7.426 -0.6990  0.3987  1.8234
 6339SOL     OW30649   0.175   3.128   5.793 -0.2255 -0.0562 -0.8517
 6339SOL    HW130650   0.234   3.199   5.768 -1.6458  1.4314  0.0551
 6339SOL    HW230651   0.175   3.073   5.714  1.6814 -0.5061 -0.5334
 6340SOL     OW30652   1.125   2.444   0.952 -0.5358  0.1669 -0.9341
 6340SOL    HW130653   1.087   2.394   0.879  0.9473 -2.4727  0.1344
 6340SOL    HW230654   1.179   2.514   0.914  0.1103 -1.5501 -3.2048
 6341SOL     OW30655   3.854   0.603   4.441  0.0798  0.1213  0.0175
 6341SOL    HW130656   3.822   0.691   4.423 -2.0356 -0.5479  0.5019
 6341SOL    HW230657   3.941   0.612   4.480 -0.5043 -1.0923  1.5969
 6342SOL     OW30658   3.811   1.286   5.591 -0.3459  0.1508 -0.7256
 6342SOL    HW130659   3.873   1.268   5.521 -0.7830 -0.5529 -0.9362
 6342SOL    HW230660   3.747   1.214   5.595 -0.3964  0.2088 -0.4691
 6343SOL     OW30661   1.799   0.006  12.287  0.1878  0.3732 -0.4871
 6343SOL    HW130662   1.751   4.728  12.206  0.0672  0.5493 -0.4544
 6343SOL    HW230663   1.880   4.698  12.271 -0.2233 -0.6740  0.5787
 6344SOL     OW30664   1.295   2.881  15.221  0.6818 -0.1628 -0.5402
 6344SOL    HW130665   1.264   2.919  15.139 -1.4313 -0.4050  0.1254
 6344SOL    HW230666   1.225   2.892  15.285  1.3272  0.1139  0.1137
 6345SOL     OW30667   3.415   1.156   5.809 -0.5433  0.7468 -0.1157
 6345SOL    HW130668   3.345   1.218   5.828 -1.7869 -0.5530 -0.4568
 6345SOL    HW230669   3.379   1.067   5.815 -0.1937  0.5739 -0.6432
 6346SOL     OW30670   0.923   3.139   3.637 -0.5787  0.3793  0.1049
 6346SOL    HW130671   0.978   3.214   3.656  0.1762 -0.6013  1.7502
 6346SOL    HW230672   0.940   3.131   3.543  0.8146 -1.4627  0.5135
 6347SOL     OW30673   0.778   3.636  12.309  0.1029 -0.6166 -0.8257
 6347SOL    HW130674   0.827   3.717  12.321  1.4666 -1.3390 -1.4709
 6347SOL    HW230675   0.695   3.664  12.271  0.0068  0.7818  0.3957
 6348SOL     OW30676   0.208   1.716   1.229 -0.2590  0.0649 -0.0428
 6348SOL    HW130677   0.290   1.667   1.234  0.3553  1.0880  0.0106
 6348SOL    HW230678   0.220   1.743   1.138  0.3198 -0.6146 -0.1667
 6349SOL     OW30679   0.303   4.181   8.410 -0.5846  1.3517  0.1429
 6349SOL    HW130680   0.341   4.116   8.469  1.1129  1.7745 -0.4891
 6349SOL    HW230681   0.318   4.258   8.464  0.3275 -0.0400  1.8983
 6350SOL     OW30682   1.068   4.574   8.412 -0.5689 -0.4341  0.3704
 6350SOL    HW130683   1.015   4.646   8.379 -1.9779 -1.3387  0.6904
 6350SOL    HW230684   1.156   4.611   8.402 -0.5091 -0.4592  0.8264
 6351SOL     OW30685   0.705   3.671   8.775  0.3885  0.1342  0.2782
 6351SOL    HW130686   0.783   3.724   8.794 -0.6884  2.5326 -1.9855
 6351SOL    HW230687   0.657   3.732   8.719  1.5767 -0.3558 -1.3042
 6352SOL     OW30688   2.821   0.138   4.772 -0.0504 -0.2971 -0.3925
 6352SOL    HW130689   2.889   0.129   4.838  1.1971  2.5840 -1.2873
 6352SOL    HW230690   2.789   0.049   4.760 -1.1566  0.0876 -0.3080
 6353SOL     OW30691   1.522   0.175   0.691 -0.5122 -0.1508  0.0487
 6353SOL    HW130692   1.555   0.262   0.668  2.5610 -1.0395  1.0200
 6353SOL    HW230693   1.481   0.148   0.609 -0.9659 -1.0612  0.5776
 6354SOL     OW30694   0.754   0.204   9.202 -0.1339 -0.2470 -0.2696
 6354SOL    HW130695   0.783   0.201   9.111 -2.7548  0.0056 -1.1260
 6354SOL    HW230696   0.662   0.229   9.194 -0.4894 -1.3355  0.4227
 6355SOL     OW30697   0.751   4.150   5.377 -0.5542 -0.5435 -0.0116
 6355SOL    HW130698   0.796   4.187   5.453 -3.2166  0.0035  1.2794
 6355SOL    HW230699   0.761   4.055   5.388  0.6362 -0.3954  0.2770
 6356SOL     OW30700   1.562   0.578  16.465 -0.1797 -0.3084 -0.1109
 6356SOL    HW130701   1.562   0.595  16.370 -0.7726 -2.6804 -0.5405
 6356SOL    HW230702   1.623   0.645  16.495  0.0188 -0.1680 -0.8164
 6357SOL     OW30703   0.631   3.312  10.387  0.4327  0.9345  0.1380
 6357SOL    HW130704   0.556   3.253  10.381 -0.3463  1.9605 -0.3806
 6357SOL    HW230705   0.709   3.257  10.389  0.0886  0.4639  0.6210
 6358SOL     OW30706   2.076   1.017  10.105 -0.0202  0.4065 -0.1344
 6358SOL    HW130707   2.068   1.049  10.195 -2.0973 -0.0140 -0.1622
 6358SOL    HW230708   2.130   0.942  10.126 -0.3971 -0.3346 -1.7770
 6359SOL     OW30709   0.299   4.487   2.650  0.0578 -0.2178 -0.8616
 6359SOL    HW130710   0.339   4.409   2.688  1.1594  1.6246  1.7333
 6359SOL    HW230711   0.298   4.453   2.560 -1.2093  1.3777 -1.4269
 6360SOL     OW30712   3.581   2.144  15.052  0.0582  0.5985 -0.2575
 6360SOL    HW130713   3.656   2.100  15.014 -0.6374  1.7902 -3.0014
 6360SOL    HW230714   3.623   2.175  15.133 -0.9510  1.4308 -0.0397
 6361SOL     OW30715   2.358   3.046  11.627  0.3301 -0.3936  0.1571
 6361SOL    HW130716   2.337   2.959  11.595 -0.7640 -0.8303  2.0791
 6361SOL    HW230717   2.438   3.023  11.674 -0.8191 -1.0047  1.8011
 6362SOL     OW30718   0.911   1.694   7.592  0.5239 -0.8672 -0.2729
 6362SOL    HW130719   0.973   1.672   7.661  0.1113 -0.0195  0.3664
 6362SOL    HW230720   0.838   1.657   7.641  0.9278 -1.1094  0.1443
 6363SOL     OW30721   3.839   2.336   5.291 -0.5371 -0.1058  0.3539
 6363SOL    HW130722   3.792   2.334   5.208 -0.9358  1.2188  0.5580
 6363SOL    HW230723   3.893   2.414   5.287  2.5327 -2.3019 -1.1108
 6364SOL     OW30724   2.964   3.603   1.720  0.3116 -0.3615  0.7901
 6364SOL    HW130725   2.892   3.552   1.757 -0.7657 -0.7276 -1.8350
 6364SOL    HW230726   3.036   3.544   1.742 -0.4689 -2.5197 -2.4917
 6365SOL     OW30727   2.286   3.887   6.008 -0.6132 -0.5024  0.3226
 6365SOL    HW130728   2.300   3.886   5.913  1.2624 -0.5544  0.5955
 6365SOL    HW230729   2.251   3.973   6.033 -0.5354 -0.2497 -0.4489
 6366SOL     OW30730   3.393   0.001   8.892  0.1235  0.0290  0.2824
 6366SOL    HW130731   3.382   4.658   8.845  3.3947  0.2980 -0.9380
 6366SOL    HW230732   3.400   4.706   8.981 -1.1528 -0.4158  0.2120
 6367SOL     OW30733   1.642   1.624   6.834  0.0053  0.4227 -0.3417
 6367SOL    HW130734   1.565   1.617   6.778  0.1806 -3.2789 -0.0703
 6367SOL    HW230735   1.626   1.712   6.869 -1.6851 -0.3441  0.7894
 6368SOL     OW30736   0.846   1.300   3.498 -0.3715 -0.1748  0.6703
 6368SOL    HW130737   0.872   1.391   3.510 -0.8783  0.0593 -0.0351
 6368SOL    HW230738   0.812   1.298   3.409 -2.9782  1.2671  1.6036
 6369SOL     OW30739   1.477   3.740  17.600  0.7922 -0.0828 -0.3227
 6369SOL    HW130740   1.492   3.784  17.684  2.2818  0.8353 -1.0667
 6369SOL    HW230741   1.525   3.660  17.622  0.6619  0.3965  1.7088
 6370SOL     OW30742   1.891   0.188   9.225 -0.2411  0.0321  0.0746
 6370SOL    HW130743   1.921   0.231   9.145  3.0256 -3.8869 -0.7867
 6370SOL    HW230744   1.804   0.155   9.204 -0.6360  2.0058 -1.3584
 6371SOL     OW30745   2.989   1.334   5.229 -0.1265 -0.7067 -0.0006
 6371SOL    HW130746   2.945   1.296   5.305 -1.9374  1.2825 -0.0584
 6371SOL    HW230747   2.919   1.328   5.163  0.0454 -0.0112 -0.2438
 6372SOL     OW30748   2.943   3.810  16.990 -0.1101 -0.1783 -0.1625
 6372SOL    HW130749   3.021   3.852  17.028  0.8435 -0.7622 -1.4719
 6372SOL    HW230750   2.884   3.884  16.973  0.1734  0.2668  0.7979
 6373SOL     OW30751   0.360   1.333   9.726  0.2995  0.0803  0.1817
 6373SOL    HW130752   0.334   1.423   9.743 -0.1117  0.3786 -2.0286
 6373SOL    HW230753   0.455   1.340   9.737  0.0044 -1.4384  3.7602
 6374SOL     OW30754   1.168   3.896   3.721  0.1213  0.0469  0.5818
 6374SOL    HW130755   1.173   3.878   3.627  0.1830 -1.0408  0.7906
 6374SOL    HW230756   1.073   3.908   3.729  0.3072  1.4423  0.6312
 6375SOL     OW30757   3.378   1.024   8.693  0.3398  0.2523 -0.2246
 6375SOL    HW130758   3.393   1.020   8.598  1.5413  0.5021 -0.0491
 6375SOL    HW230759   3.283   1.027   8.686  0.3501 -0.5701 -0.7706
 6376SOL     OW30760   3.264   4.580   2.602  0.3288  0.4854  0.3328
 6376SOL    HW130761   3.280   4.567   2.695  0.7122  0.8460  0.3193
 6376SOL    HW230762   3.170   4.570   2.587  0.1931  0.5875  1.1373
 6377SOL     OW30763   2.170   1.568   7.479  0.3671  0.0600  0.2763
 6377SOL    HW130764   2.220   1.560   7.561  0.9817  1.0865 -0.0099
 6377SOL    HW230765   2.229   1.625   7.429  1.8185 -0.4624  1.3797
 6378SOL     OW30766   3.898   2.456  15.353 -0.3223  0.3654 -0.2266
 6378SOL    HW130767   3.939   2.401  15.421 -1.5259  0.1416  0.3220
 6378SOL    HW230768   3.968   2.520  15.346 -0.5637  0.8795  2.0971
 6379SOL     OW30769   2.441   4.379   2.090  0.4032  0.3133  0.2701
 6379SOL    HW130770   2.441   4.412   2.000 -0.7932  3.6862  1.5024
 6379SOL    HW230771   2.459   4.464   2.132 -0.6719  0.4398  0.4704
 6380SOL     OW30772   4.426   1.945   7.750  0.1652 -0.0065 -0.1117
 6380SOL    HW130773   4.351   1.933   7.693 -0.3925  0.6579  0.4904
 6380SOL    HW230774   4.490   1.964   7.681  0.1718  1.6051  0.3448
 6381SOL     OW30775   4.345   2.803   6.334 -0.1341 -0.3893 -0.5697
 6381SOL    HW130776   4.289   2.776   6.261 -2.1792 -1.8499  1.5404
 6381SOL    HW230777   4.426   2.838   6.298 -0.3640 -1.7962 -2.4515
 6382SOL     OW30778   3.562   3.315   5.085 -0.3249 -0.0864 -0.4062
 6382SOL    HW130779   3.526   3.377   5.148 -2.3131 -0.9482 -0.6956
 6382SOL    HW230780   3.653   3.342   5.081  0.1143 -1.2737  1.7085
 6383SOL     OW30781   1.768   2.097   2.895 -0.1679 -0.0065 -0.4944
 6383SOL    HW130782   1.802   2.093   2.985  0.4551 -0.6579 -0.7635
 6383SOL    HW230783   1.797   2.184   2.870 -1.2879  0.7179  0.6946
 6384SOL     OW30784   2.493   4.294   6.624 -0.1511 -0.3742  0.0433
 6384SOL    HW130785   2.545   4.328   6.697  0.1550  0.5526 -0.6001
 6384SOL    HW230786   2.515   4.356   6.554 -1.5965 -2.5975 -2.4056
 6385SOL     OW30787   4.657   2.463   7.734  0.0808 -0.3515 -0.1774
 6385SOL    HW130788   4.576   2.445   7.685 -0.4485  1.2461  0.0899
 6385SOL    HW230789   4.693   2.377   7.755 -0.2056 -0.6321 -0.8099
 6386SOL     OW30790   1.606   1.288   8.367  0.1450 -0.5937 -0.1939
 6386SOL    HW130791   1.616   1.376   8.330 -1.6905 -0.9047 -1.4496
 6386SOL    HW230792   1.530   1.293   8.425 -0.7074  0.5946 -1.4094
 6387SOL     OW30793   4.685   2.768   3.152  0.0125 -0.0513 -1.2925
 6387SOL    HW130794   4.624   2.842   3.148  0.9592  0.6769 -2.4311
 6387SOL    HW230795   4.706   2.771   3.245 -0.7806  2.3342 -1.1734
 6388SOL     OW30796   3.098   3.836   5.271  0.0132  0.3500 -0.8662
 6388SOL    HW130797   3.152   3.819   5.193 -0.2445 -1.3726 -0.6856
 6388SOL    HW230798   3.021   3.782   5.253  2.1811 -2.5841 -1.4760
 6389SOL     OW30799   0.029   3.175  17.606  0.0247 -0.8556 -0.4304
 6389SOL    HW130800   0.015   3.095  17.657  0.6301 -1.1875 -0.7753
 6389SOL    HW230801   0.103   3.211  17.655  0.4637 -0.8738 -1.0679
 6390SOL     OW30802   4.517   2.802   3.648  0.0134 -0.1960  0.2731
 6390SOL    HW130803   4.481   2.846   3.725 -3.3527  0.3566 -1.6235
 6390SOL    HW230804   4.451   2.839   3.590 -0.5312 -1.5780  0.0181
 6391SOL     OW30805   0.463   3.746   4.986 -0.0748  0.4527 -0.0869
 6391SOL    HW130806   0.462   3.786   5.073  1.0250  0.2839  0.0074
 6391SOL    HW230807   0.379   3.783   4.958 -0.7744 -0.8745  0.2947
 6392SOL     OW30808   3.095   2.281   3.705  0.0230 -0.1119  0.7837
 6392SOL    HW130809   3.092   2.204   3.648  1.4893  0.7743 -0.4675
 6392SOL    HW230810   3.072   2.245   3.791 -1.0643 -0.4508  0.3617
 6393SOL     OW30811   2.587   1.651  12.933  0.0566  0.9392 -0.3197
 6393SOL    HW130812   2.606   1.742  12.955 -5.9066  1.9945  0.3465
 6393SOL    HW230813   2.493   1.666  12.924 -0.1814 -0.9048 -1.0002
 6394SOL     OW30814   2.091   3.953  11.244 -0.1909 -0.1221 -0.1029
 6394SOL    HW130815   2.082   4.044  11.215  0.7196 -0.1285 -0.4047
 6394SOL    HW230816   2.148   3.967  11.320 -0.7988 -3.3801  0.9626
 6395SOL     OW30817   0.582   4.616   4.822  0.3322  0.2518  0.1432
 6395SOL    HW130818   0.637   4.688   4.794  2.0924 -0.6987  1.1202
 6395SOL    HW230819   0.652   4.553   4.842  0.3975  0.7402  1.4533
 6396SOL     OW30820   1.441   0.513   0.989  0.3646 -0.1273 -0.6389
 6396SOL    HW130821   1.447   0.512   0.893  3.1433  1.4257 -0.4663
 6396SOL    HW230822   1.530   0.493   1.016  0.5347  1.2172 -0.2404
 6397SOL     OW30823   3.399   0.258   3.092 -0.1111  0.5156  0.0660
 6397SOL    HW130824   3.321   0.237   3.143  0.4405 -0.9240  0.3164
 6397SOL    HW230825   3.373   0.240   3.001  0.7139 -0.7169  0.0847
 6398SOL     OW30826   3.221   4.093   5.261 -0.0315 -0.6217  0.4055
 6398SOL    HW130827   3.262   4.129   5.183 -0.0414 -2.0619 -0.2613
 6398SOL    HW230828   3.185   4.009   5.234  1.4643 -1.1937  0.1747
 6399SOL     OW30829   3.953   4.721  16.380  0.6694  0.1420  0.3703
 6399SOL    HW130830   4.020   0.046  16.402  0.5849  0.6004 -0.7195
 6399SOL    HW230831   3.950   4.672  16.462 -2.2707  0.0905  0.2258
 6400SOL     OW30832   0.568   4.077   3.056  0.2824  0.0309  0.1318
 6400SOL    HW130833   0.479   4.100   3.028  0.4919  1.9995  1.1338
 6400SOL    HW230834   0.547   3.990   3.090  0.5188 -0.2627 -0.4537
 6401SOL     OW30835   3.348   1.717   1.509  0.5157  0.5334  0.2950
 6401SOL    HW130836   3.283   1.692   1.574  2.3176  0.4274  2.0712
 6401SOL    HW230837   3.405   1.751   1.579 -1.1945  2.9470  0.5284
 6402SOL     OW30838   3.753   2.697  16.136  0.0568  0.0894 -0.0296
 6402SOL    HW130839   3.843   2.669  16.119 -0.3820  0.3078 -2.6644
 6402SOL    HW230840   3.697   2.647  16.077 -1.8923  1.0835  0.9687
 6403SOL     OW30841   4.028   2.313  16.756 -0.1692 -0.2233 -0.2162
 6403SOL    HW130842   3.979   2.259  16.694 -0.7208  0.3938 -0.3232
 6403SOL    HW230843   4.016   2.400  16.716  1.3661  1.1167  2.2819
 6404SOL     OW30844   1.645   2.618   0.168  0.0689  0.0226  0.1282
 6404SOL    HW130845   1.569   2.588   0.218  0.3325 -0.1910  0.4080
 6404SOL    HW230846   1.643   2.556   0.095  0.1811 -0.7110  0.7366
 6405SOL     OW30847   4.271   1.479   1.933  0.1117  0.0644 -0.0399
 6405SOL    HW130848   4.366   1.487   1.926  0.1982 -0.9143 -0.0032
 6405SOL    HW230849   4.255   1.391   1.901  0.1790  0.4839 -1.2315
 6406SOL     OW30850   1.909   4.540  11.495  0.3908  0.6168 -0.2914
 6406SOL    HW130851   1.996   4.539  11.537  0.1446 -0.0439  0.2049
 6406SOL    HW230852   1.868   4.457  11.519 -2.1816  1.7448 -0.7998
 6407SOL     OW30853   3.401   0.548  10.027  0.7080 -0.5408 -0.0980
 6407SOL    HW130854   3.405   0.453  10.038  1.0395 -0.5342 -0.1778
 6407SOL    HW230855   3.309   0.563  10.003  1.5266  1.8910 -1.6314
 6408SOL     OW30856   3.401   0.021   4.109 -0.1124 -0.1473 -0.1839
 6408SOL    HW130857   3.408   0.089   4.176  1.4032 -0.0419 -0.4393
 6408SOL    HW230858   3.388   0.063   4.024  6.3110 -0.5649 -1.3811
 6409SOL     OW30859   3.818   0.842   5.931 -0.1486 -0.0212 -0.6247
 6409SOL    HW130860   3.841   0.789   6.008 -1.2240 -2.4764 -1.9807
 6409SOL    HW230861   3.722   0.842   5.932 -0.1414  2.8158 -0.2064
 6410SOL     OW30862   3.000   2.809   2.046 -0.0205  0.6124 -0.4085
 6410SOL    HW130863   3.016   2.826   2.139 -1.7577  1.6538 -0.3213
 6410SOL    HW230864   2.910   2.838   2.039  0.1162  1.4926  1.4532
 6411SOL     OW30865   0.924   0.174   6.922 -0.4187 -0.7605  0.0679
 6411SOL    HW130866   0.994   0.116   6.892  1.3287  1.8291 -0.8584
 6411SOL    HW230867   0.894   0.208   6.838 -0.2384 -2.1812 -0.5678
 6412SOL     OW30868   0.660   2.087   6.834  0.0354 -0.3152  0.3095
 6412SOL    HW130869   0.579   2.100   6.785 -0.1202  0.0197  0.6558
 6412SOL    HW230870   0.703   2.030   6.770 -0.8490  1.9464 -2.3137
 6413SOL     OW30871   2.407   1.535   5.024 -0.0035 -0.1310  0.6792
 6413SOL    HW130872   2.409   1.539   4.929  0.9718  3.0966  0.8400
 6413SOL    HW230873   2.392   1.628   5.039 -1.2974  0.1354 -2.2975
 6414SOL     OW30874   3.229   3.967  12.603  0.2121  0.2273  0.5073
 6414SOL    HW130875   3.136   3.956  12.587  0.4502  0.7918 -1.1671
 6414SOL    HW230876   3.226   4.063  12.607  0.0840  0.2107  0.8439
 6415SOL     OW30877   4.654   3.556   6.694  0.5269 -0.4104  0.3967
 6415SOL    HW130878   4.661   3.632   6.637 -0.6882 -0.3176  0.3684
 6415SOL    HW230879   4.561   3.559   6.718 -0.0707 -1.5494 -1.6900
 6416SOL     OW30880   1.340   1.908   8.001  0.5663 -0.6381 -0.4798
 6416SOL    HW130881   1.270   1.970   7.980  1.0411  0.8416  2.2043
 6416SOL    HW230882   1.324   1.829   7.951  0.1114  0.2553 -1.7424
 6417SOL     OW30883   4.487   2.385  10.493 -0.1893  0.4287  0.3981
 6417SOL    HW130884   4.408   2.428  10.524 -0.0171  0.2321  1.1120
 6417SOL    HW230885   4.460   2.363  10.403  1.6720  2.9883 -0.7669
 6418SOL     OW30886   0.759   3.009   6.332  0.5400 -0.1371 -0.3094
 6418SOL    HW130887   0.731   2.921   6.356 -1.4773  0.2763 -1.1750
 6418SOL    HW230888   0.809   2.997   6.251 -0.8684 -1.6753 -0.9410
 6419SOL     OW30889   0.469   4.066  10.980 -0.1874 -0.3310 -0.2416
 6419SOL    HW130890   0.481   4.019  10.897 -1.6323  0.3430 -0.8280
 6419SOL    HW230891   0.380   4.096  10.965  0.5855  1.5633 -0.9615
 6420SOL     OW30892   2.450   2.275   5.157  0.0921  0.0262  0.5015
 6420SOL    HW130893   2.470   2.205   5.219 -0.4715 -0.9602 -0.4299
 6420SOL    HW230894   2.501   2.252   5.080 -0.2513  0.0360  0.2737
 6421SOL     OW30895   4.420   0.644   1.654  0.2298  0.8360 -0.4454
 6421SOL    HW130896   4.480   0.644   1.728  0.1944  1.0787 -0.4155
 6421SOL    HW230897   4.479   0.638   1.579  1.0907 -1.4901  0.4394
 6422SOL     OW30898   3.661   2.973  16.227 -0.4368 -0.2675 -0.0095
 6422SOL    HW130899   3.613   2.972  16.145 -0.1168  0.5836 -0.2030
 6422SOL    HW230900   3.701   2.886  16.213  2.1982  0.6600  1.5716
 6423SOL     OW30901   3.143   2.265  11.873 -0.0653  0.2726  0.5990
 6423SOL    HW130902   3.105   2.247  11.788 -0.6737  2.0314  0.5010
 6423SOL    HW230903   3.222   2.313  11.846  0.1290 -1.7394 -2.3237
 6424SOL     OW30904   4.091   0.297   2.652  0.0381  0.2507  0.1309
 6424SOL    HW130905   4.064   0.354   2.724 -0.9155  0.2990 -0.2573
 6424SOL    HW230906   4.185   0.311   2.658  0.2948 -1.0478 -0.9090
 6425SOL     OW30907   4.664   3.260   4.556  0.3443  0.0571  0.2214
 6425SOL    HW130908   4.662   3.240   4.650 -1.7030 -1.2756 -0.1108
 6425SOL    HW230909   4.587   3.316   4.553  1.9777  2.1584 -1.9520
 6426SOL     OW30910   3.568   1.160   6.385 -0.4295 -0.0913  0.2388
 6426SOL    HW130911   3.563   1.255   6.390 -1.0150 -0.1170  0.1264
 6426SOL    HW230912   3.537   1.137   6.472 -2.5319 -0.8111 -0.6999
 6427SOL     OW30913   3.611   1.886   1.385  0.7214  0.6704  0.2395
 6427SOL    HW130914   3.596   1.819   1.452  0.1354  1.2534  0.7000
 6427SOL    HW230915   3.705   1.904   1.389  0.6594  1.3350 -1.3563
 6428SOL     OW30916   0.386   4.278  12.742  0.3742 -0.6256 -0.5134
 6428SOL    HW130917   0.429   4.223  12.808 -2.5663 -3.3669 -0.8569
 6428SOL    HW230918   0.302   4.232  12.735 -1.4517  2.3514  1.5454
 6429SOL     OW30919   4.114   0.275   5.155 -0.1954 -0.4497  0.3355
 6429SOL    HW130920   4.072   0.225   5.226 -0.1762 -2.3187 -0.9657
 6429SOL    HW230921   4.082   0.361   5.183 -1.3963 -0.5219 -0.8362
 6430SOL     OW30922   1.195   3.477   7.729 -0.0871  0.2660 -0.0035
 6430SOL    HW130923   1.285   3.509   7.722 -0.1402  0.5502  0.5783
 6430SOL    HW230924   1.148   3.529   7.795  0.0641 -2.2212  2.0256
 6431SOL     OW30925   3.277   3.953   8.888  0.1252 -0.2148 -0.2379
 6431SOL    HW130926   3.244   3.879   8.837  2.6710  0.1131 -2.3612
 6431SOL    HW230927   3.199   4.007   8.892 -0.3763 -0.8356 -1.7520
 6432SOL     OW30928   1.199   3.167   8.686 -0.1720 -0.3068 -0.8547
 6432SOL    HW130929   1.182   3.125   8.771 -1.3811  0.1180 -0.8853
 6432SOL    HW230930   1.250   3.239   8.723 -2.3524 -0.6434  2.8491
 6433SOL     OW30931   3.710   3.164  10.388 -0.4952  0.0425 -0.0791
 6433SOL    HW130932   3.664   3.248  10.398  0.7975  0.4265  2.6700
 6433SOL    HW230933   3.746   3.156  10.477 -2.0731  1.1491  0.6596
 6434SOL     OW30934   0.142   2.235  10.897  0.2453 -0.0265  0.4070
 6434SOL    HW130935   0.169   2.326  10.882 -1.2250  0.3666  0.1194
 6434SOL    HW230936   0.224   2.196  10.926  0.0775 -0.8272 -0.2083
 6435SOL     OW30937   3.506   0.440  17.041 -0.1218 -0.2935 -0.5311
 6435SOL    HW130938   3.475   0.349  17.037 -1.6222  0.1528  1.1755
 6435SOL    HW230939   3.592   0.419  17.004 -0.6209  0.5539 -2.1820
 6436SOL     OW30940   1.530   0.970   9.988 -0.1290 -0.2701 -0.4725
 6436SOL    HW130941   1.576   1.023   9.923  0.4844 -0.3115 -0.0706
 6436SOL    HW230942   1.508   0.895   9.932  1.2945 -1.6783  0.8821
 6437SOL     OW30943   2.694   2.312   7.556  0.0947 -0.0888  0.1920
 6437SOL    HW130944   2.600   2.329   7.550  0.3822  1.1452 -0.7610
 6437SOL    HW230945   2.722   2.336   7.644  0.0264  0.5119  0.0494
 6438SOL     OW30946   3.552   2.666   2.278  0.3562 -0.0978  0.6439
 6438SOL    HW130947   3.619   2.734   2.277 -1.5539  1.7658  0.4506
 6438SOL    HW230948   3.473   2.720   2.271 -0.7083 -1.3834  2.6258
 6439SOL     OW30949   2.181   0.784   8.942 -0.0454  0.2405  0.6655
 6439SOL    HW130950   2.254   0.820   8.892  0.1072 -0.9560  0.0323
 6439SOL    HW230951   2.179   0.693   8.916  0.8243  0.1684  0.8694
 6440SOL     OW30952   0.127   4.396   3.255 -0.1372 -0.4732  1.1250
 6440SOL    HW130953   0.154   4.305   3.257 -0.3197 -0.5532  0.2050
 6440SOL    HW230954   0.174   4.419   3.174 -0.1127  1.5941  1.7112
 6441SOL     OW30955   3.365   1.882   2.831 -0.2016  0.2809 -0.1336
 6441SOL    HW130956   3.319   1.813   2.783 -0.6449 -0.1338  0.8887
 6441SOL    HW230957   3.397   1.941   2.763  1.8305  0.3008  0.8226
 6442SOL     OW30958   2.389   0.381  10.012 -0.0401 -0.0781  0.2615
 6442SOL    HW130959   2.473   0.427  10.008  0.3911 -0.8071  0.8420
 6442SOL    HW230960   2.410   0.289  10.026 -0.6738 -0.4843 -1.4025
 6443SOL     OW30961   2.846   3.616   7.148 -0.0740 -0.0535  0.3231
 6443SOL    HW130962   2.933   3.612   7.186  0.1320 -2.4692 -0.3807
 6443SOL    HW230963   2.825   3.523   7.137 -0.5357  0.2663 -1.6514
 6444SOL     OW30964   3.989   1.329  14.237 -0.9489 -1.0979  0.2976
 6444SOL    HW130965   3.922   1.261  14.225 -1.3215 -0.2955 -2.2118
 6444SOL    HW230966   3.934   1.400  14.271  0.2058  0.0775 -0.2979
 6445SOL     OW30967   4.541   1.434  17.195 -0.1130  0.2860 -0.3200
 6445SOL    HW130968   4.545   1.444  17.290  0.8458 -1.9867 -0.1059
 6445SOL    HW230969   4.542   1.526  17.168 -0.3329  1.2004  2.8193
 6446SOL     OW30970   3.396   2.376  12.028 -0.0547 -0.1114  0.8514
 6446SOL    HW130971   3.448   2.328  11.963  1.6415  0.6925  1.6263
 6446SOL    HW230972   3.344   2.427  11.966  2.2408  1.0751 -0.1023
 6447SOL     OW30973   3.979   0.056  10.646  0.3234  0.5597 -0.0328
 6447SOL    HW130974   3.968   0.058  10.551 -0.2966  0.2564  0.0309
 6447SOL    HW230975   4.074   0.052  10.657  0.1216 -0.4450  1.2600
 6448SOL     OW30976   4.251   2.226  15.778  0.4939 -0.0629 -0.3951
 6448SOL    HW130977   4.292   2.258  15.859 -3.1705  0.0729  1.4028
 6448SOL    HW230978   4.248   2.308  15.729  1.1643 -0.4568 -1.0875
 6449SOL     OW30979   2.676   1.771   9.437 -0.0550  0.3310  0.8309
 6449SOL    HW130980   2.769   1.783   9.416 -0.5527  0.9446 -1.0203
 6449SOL    HW230981   2.639   1.834   9.375  2.4232 -1.7736 -2.8466
 6450SOL     OW30982   2.414   2.520   3.295  0.2559  0.6036  0.2867
 6450SOL    HW130983   2.410   2.551   3.204 -1.6630  1.2038  0.5735
 6450SOL    HW230984   2.481   2.452   3.287 -3.0519 -2.9299  3.2122
 6451SOL     OW30985   2.798   1.275   1.917  0.2977  0.1739 -0.2574
 6451SOL    HW130986   2.846   1.253   1.838 -0.6758  2.9123 -1.6056
 6451SOL    HW230987   2.746   1.201   1.948 -1.8433  1.0011 -1.9109
 6452SOL     OW30988   3.037   3.163   3.112  0.1191  0.0325 -0.8151
 6452SOL    HW130989   2.992   3.080   3.126 -0.3831  0.3992 -0.2744
 6452SOL    HW230990   3.086   3.157   3.194 -2.6591 -0.8893  0.7682
 6453SOL     OW30991   1.240   3.872  13.138  0.1581  0.1865  0.2399
 6453SOL    HW130992   1.233   3.826  13.222  0.0699 -0.0535  0.0998
 6453SOL    HW230993   1.292   3.810  13.087  1.1184  0.1967  1.1821
 6454SOL     OW30994   3.233   2.143   1.840  0.1658 -0.4946 -0.0185
 6454SOL    HW130995   3.142   2.158   1.815  0.1897 -1.6797 -0.8538
 6454SOL    HW230996   3.251   2.201   1.914  1.7263 -0.9353 -0.0409
 6455SOL     OW30997   1.871   0.824   3.426  0.5410 -0.3115  0.1826
 6455SOL    HW130998   1.900   0.735   3.405 -0.8684 -0.6253 -0.4164
 6455SOL    HW230999   1.834   0.817   3.514 -0.5964  0.5875 -0.2255
 6456SOL     OW31000   0.135   0.987  13.408  0.4541 -0.0310 -0.2826
 6456SOL    HW131001   0.205   0.933  13.445 -0.4736 -0.3049  1.0679
 6456SOL    HW231002   0.129   0.940  13.325 -0.2112  1.5359 -1.1023
 6457SOL     OW31003   2.744   4.129   8.314 -0.2054  0.3926  0.1331
 6457SOL    HW131004   2.824   4.080   8.292 -0.7679 -0.6145  0.3158
 6457SOL    HW231005   2.673   4.090   8.263 -0.6773  0.8295  0.4649
 6458SOL     OW31006   0.690   4.101   3.888  0.9691 -0.2874  0.4563
 6458SOL    HW131007   0.647   4.143   3.962  0.3714 -0.3927  0.1684
 6458SOL    HW231008   0.675   4.162   3.815  2.7283 -1.3672 -0.8114
 6459SOL     OW31009   0.054   1.233   9.718  0.4310 -0.2857  0.1747
 6459SOL    HW131010   0.059   1.273   9.631  1.6134  1.6493  1.1448
 6459SOL    HW231011   0.133   1.266   9.761  0.6224  1.2749 -1.3805
 6460SOL     OW31012   2.657   1.031  10.989  0.2054 -0.5432  0.8311
 6460SOL    HW131013   2.742   0.988  10.993 -0.9020 -2.8019 -0.0208
 6460SOL    HW231014   2.632   1.025  10.897 -2.7821  0.5390  1.5811
 6461SOL     OW31015   3.727   0.019   5.997  0.2992  0.3008 -0.2753
 6461SOL    HW131016   3.813   4.719   5.984  1.0635  1.7294  0.3658
 6461SOL    HW231017   3.708   0.012   6.090 -0.7663  0.2736 -0.4927
 6462SOL     OW31018   2.748   4.129   4.102  0.1045 -0.3122 -0.1593
 6462SOL    HW131019   2.818   4.123   4.036 -0.7712  0.2661 -1.1312
 6462SOL    HW231020   2.724   4.221   4.104  0.7864 -0.1971  1.9365
 6463SOL     OW31021   4.334   0.779   2.132 -0.3593 -0.4304  0.3856
 6463SOL    HW131022   4.362   0.806   2.219 -0.8841  2.2822 -0.3031
 6463SOL    HW231023   4.389   0.839   2.082  0.8139 -1.9925 -0.1889
 6464SOL     OW31024   3.048   3.682   6.093 -0.3468 -0.1265 -0.2210
 6464SOL    HW131025   3.035   3.717   6.181 -2.9777  0.3707 -0.8247
 6464SOL    HW231026   3.144   3.682   6.094 -0.3681  0.6818  1.6241
 6465SOL     OW31027   1.851   4.574   2.697 -0.9592 -0.6783  0.0650
 6465SOL    HW131028   1.834   4.641   2.631 -2.2334 -0.0256  1.0340
 6465SOL    HW231029   1.889   4.510   2.638 -0.1633 -1.4097  1.3812
 6466SOL     OW31030   0.411   0.974   5.961 -0.2764  0.1155  0.0804
 6466SOL    HW131031   0.369   1.048   6.004  0.1598  0.3633  0.0761
 6466SOL    HW231032   0.351   0.965   5.888  1.9199  0.5573 -1.7815
 6467SOL     OW31033   1.728   0.770   2.416 -0.1974  0.1922  0.0029
 6467SOL    HW131034   1.814   0.729   2.413 -0.5325 -0.5895  0.7813
 6467SOL    HW231035   1.747   0.861   2.438 -1.5025  0.4440  0.0814
 6468SOL     OW31036   2.516   2.217   1.856  0.3407 -0.1814  0.1693
 6468SOL    HW131037   2.566   2.141   1.823  1.5566  0.0438  1.4803
 6468SOL    HW231038   2.575   2.289   1.834  0.3903 -0.5953 -1.0655
 6469SOL     OW31039   2.211   2.387   5.750  0.2111  0.2249  0.7470
 6469SOL    HW131040   2.171   2.395   5.663  2.3685  1.2468 -0.1528
 6469SOL    HW231041   2.300   2.363   5.727 -0.6610 -0.7155 -1.6343
 6470SOL     OW31042   1.623   2.680   3.601 -0.2871  0.1902  0.5840
 6470SOL    HW131043   1.647   2.772   3.586 -1.3593  0.5431  1.0056
 6470SOL    HW231044   1.711   2.644   3.601 -1.6518 -3.1112  1.4106
 6471SOL     OW31045   2.736   3.411   5.001 -0.4378  0.1812 -0.1529
 6471SOL    HW131046   2.724   3.420   4.906 -1.0883 -0.9347 -0.1831
 6471SOL    HW231047   2.825   3.444   5.016 -0.3797 -0.4408  0.8786
 6472SOL     OW31048   0.973   4.571   3.258 -0.6129  0.3576  0.0855
 6472SOL    HW131049   0.885   4.542   3.234 -0.2758 -0.5780 -0.0087
 6472SOL    HW231050   0.994   4.623   3.181  1.8138  1.5979  1.5910
 6473SOL     OW31051   1.174   1.530   2.001  0.0406 -0.2287  0.2057
 6473SOL    HW131052   1.176   1.590   2.076 -0.7804  0.6102 -0.4551
 6473SOL    HW231053   1.128   1.455   2.037  0.1048  0.3354  1.4796
 6474SOL     OW31054   3.075   3.009   4.777  0.0172  0.1227 -0.2699
 6474SOL    HW131055   3.009   3.076   4.795  1.2291  0.5637  2.4838
 6474SOL    HW231056   3.065   3.008   4.682  2.3851 -0.4013 -0.4992
 6475SOL     OW31057   4.601   3.429   8.965  0.3127 -0.1550  0.0053
 6475SOL    HW131058   4.598   3.454   9.057  1.5613  0.9264 -0.2448
 6475SOL    HW231059   4.546   3.490   8.916  2.0282  2.3865  1.2707
 6476SOL     OW31060   3.721   0.552  10.794 -0.1938 -0.3865 -0.1954
 6476SOL    HW131061   3.714   0.457  10.800 -2.1446 -0.2580 -0.5036
 6476SOL    HW231062   3.787   0.571  10.727 -2.1138  2.0949 -1.3880
 6477SOL     OW31063   0.414   4.357   5.312  0.8689  0.1817  0.1303
 6477SOL    HW131064   0.425   4.449   5.289  0.7848  0.4798  1.2850
 6477SOL    HW231065   0.320   4.342   5.302  1.0054 -0.8573  0.3693
 6478SOL     OW31066   0.474   2.802   8.828 -0.1148  0.0984 -0.3564
 6478SOL    HW131067   0.431   2.737   8.883 -1.0511 -0.3819 -1.6642
 6478SOL    HW231068   0.563   2.767   8.829  0.0529  0.5399 -0.0005
 6479SOL     OW31069   1.177   0.346   9.848  0.1385  0.0399 -0.4451
 6479SOL    HW131070   1.093   0.305   9.829  1.6260 -2.8667 -0.8513
 6479SOL    HW231071   1.179   0.364   9.942  1.6193  0.8536 -0.6251
 6480SOL     OW31072   1.560   0.272  12.886  0.3444 -0.7383 -0.4793
 6480SOL    HW131073   1.652   0.296  12.899  0.5133 -1.6733  0.0563
 6480SOL    HW231074   1.523   0.353  12.851  0.2373 -0.5953 -0.0365
 6481SOL     OW31075   3.751   3.586  11.381 -0.9471 -0.1595  0.1185
 6481SOL    HW131076   3.745   3.555  11.471  0.3580  0.8918  0.5792
 6481SOL    HW231077   3.698   3.666  11.381 -0.5753  0.0879  2.5688
 6482SOL     OW31078   1.202   3.447   8.769  0.3715 -0.4627  0.0977
 6482SOL    HW131079   1.168   3.404   8.848 -0.1674  1.0882  0.7070
 6482SOL    HW231080   1.194   3.534   8.808 -1.1606 -2.1290  3.5334
 6483SOL     OW31081   0.551   2.212   6.027  0.3029 -0.8264  0.2863
 6483SOL    HW131082   0.618   2.240   5.966  0.0922 -1.6566 -0.3282
 6483SOL    HW231083   0.558   2.253   6.114  0.0348 -1.0170  0.3990
 6484SOL     OW31084   0.293   1.156   6.147  0.2932 -0.1033 -0.2655
 6484SOL    HW131085   0.351   1.173   6.221 -0.0502 -1.2725  0.2768
 6484SOL    HW231086   0.210   1.134   6.189  1.2868 -0.7080  1.4006
 6485SOL     OW31087   1.849   3.878   5.064  0.0524  0.4366 -0.1875
 6485SOL    HW131088   1.887   3.842   5.144  1.2219  0.5137 -0.7104
 6485SOL    HW231089   1.780   3.813   5.051  0.5216 -0.1640  0.3341
 6486SOL     OW31090   0.154   2.844  12.466 -0.0770 -0.1589 -0.1284
 6486SOL    HW131091   0.124   2.893  12.542  1.4286 -2.5115  1.9458
 6486SOL    HW231092   0.089   2.866  12.399  0.5120  1.4212 -0.1802
 6487SOL     OW31093   0.855   3.799   2.143  0.4819  0.5759  0.4909
 6487SOL    HW131094   0.795   3.869   2.118 -0.4611  0.6485  2.9488
 6487SOL    HW231095   0.895   3.857   2.208  1.6818 -0.4452  0.6507
 6488SOL     OW31096   3.652   2.242  11.941 -0.5819  0.5150 -0.8118
 6488SOL    HW131097   3.723   2.290  11.985  0.4684 -0.2515 -1.6740
 6488SOL    HW231098   3.687   2.153  11.936  0.6555  0.9759 -0.2764
 6489SOL     OW31099   0.240   2.689   1.068  0.2686  0.4419 -0.4357
 6489SOL    HW131100   0.257   2.645   0.985 -0.8753 -2.1548  0.6951
 6489SOL    HW231101   0.321   2.664   1.113  0.2171  0.4964 -0.3122
 6490SOL     OW31102   1.310   3.283   5.300  0.6429  0.1624  0.1096
 6490SOL    HW131103   1.228   3.270   5.252  1.7821  2.0523 -2.3637
 6490SOL    HW231104   1.295   3.370   5.337 -0.7439 -1.3085  3.0385
 6491SOL     OW31105   4.622   4.104   8.968 -0.5509 -0.0988  0.6756
 6491SOL    HW131106   4.682   4.134   9.037 -0.0275  0.0517  0.1570
 6491SOL    HW231107   4.601   4.191   8.935 -1.7613 -0.4941  0.4237
 6492SOL     OW31108   4.325   4.343   6.622 -0.2662 -0.1966  0.3520
 6492SOL    HW131109   4.309   4.371   6.532 -0.0516  2.1943  1.0534
 6492SOL    HW231110   4.394   4.405   6.646  0.4696 -0.1531 -1.9205
 6493SOL     OW31111   1.413   4.512  12.649  0.4117  0.1932 -0.5802
 6493SOL    HW131112   1.409   4.416  12.653 -0.5641  0.3440  1.7187
 6493SOL    HW231113   1.328   4.539  12.685  0.0559  2.3874 -3.1033
 6494SOL     OW31114   3.309   2.783  11.942 -0.1733 -0.0282 -0.2769
 6494SOL    HW131115   3.279   2.860  11.894 -3.5022 -2.0291 -1.3999
 6494SOL    HW231116   3.225   2.741  11.960 -1.5445  2.8499 -0.0623
 6495SOL     OW31117   2.391   2.751   3.565 -0.8543 -0.4843 -0.4920
 6495SOL    HW131118   2.403   2.846   3.574  0.0078 -0.3831 -2.9237
 6495SOL    HW231119   2.470   2.719   3.522 -2.0444 -2.1620 -1.4137
 6496SOL     OW31120   3.744   0.804   3.471  0.3227 -0.4316 -0.1223
 6496SOL    HW131121   3.815   0.744   3.447  0.9679  1.0188 -1.8112
 6496SOL    HW231122   3.775   0.826   3.559  0.1668 -0.5658 -0.0332
 6497SOL     OW31123   3.974   4.157   7.448 -0.4676 -0.4023 -0.1610
 6497SOL    HW131124   4.057   4.155   7.497 -0.2542  0.4012 -0.4907
 6497SOL    HW231125   3.988   4.101   7.372  0.7935 -1.0576  0.5333
 6498SOL     OW31126   1.757   3.352   1.721 -0.5233 -0.7505  0.7451
 6498SOL    HW131127   1.810   3.405   1.661 -0.6166 -1.5482 -0.0411
 6498SOL    HW231128   1.669   3.367   1.687  0.1716 -0.3324 -0.8383
 6499SOL     OW31129   0.082   3.747  10.324 -0.1468 -0.0858 -0.1663
 6499SOL    HW131130   0.005   3.765  10.379 -0.9258  0.2379 -1.3818
 6499SOL    HW231131   0.138   3.694  10.381 -0.0705 -0.7272 -0.8365
 6500SOL     OW31132   0.055   2.456   9.046  0.1576  0.3741 -0.0424
 6500SOL    HW131133   0.029   2.499   8.964  0.0446  3.2760  1.5068
 6500SOL    HW231134   0.124   2.404   9.005  1.4562  1.8927  0.1997
 6501SOL     OW31135   1.783   0.855  11.741  0.2791 -0.0899  0.5541
 6501SOL    HW131136   1.849   0.917  11.770  0.2195 -0.5534  1.6586
 6501SOL    HW231137   1.820   0.767  11.751 -0.6316 -0.7142 -1.4307
 6502SOL     OW31138   1.927   1.056   9.550  0.4559 -0.1707 -0.5083
 6502SOL    HW131139   1.934   1.082   9.458  1.0348  0.5241 -0.2658
 6502SOL    HW231140   1.859   1.116   9.581  0.4933 -0.7002  0.5807
 6503SOL     OW31141   2.261   1.432   8.012 -0.7872  0.0356  0.2701
 6503SOL    HW131142   2.210   1.359   8.047  2.1518 -1.6452  1.0784
 6503SOL    HW231143   2.305   1.447   8.095  0.4963 -0.6810 -0.2685
 6504SOL     OW31144   4.694   3.198   8.619  0.6666 -0.3174  0.1028
 6504SOL    HW131145   0.003   3.270   8.577  0.4605  0.2129  0.7729
 6504SOL    HW231146   0.021   3.130   8.625  1.0391 -0.0398 -0.7721
 6505SOL     OW31147   1.390   1.932  11.897 -0.4889 -0.1310 -0.0206
 6505SOL    HW131148   1.415   1.870  11.965  1.6752  1.1836  0.3905
 6505SOL    HW231149   1.479   1.959  11.876  0.0293 -1.7598  0.1561
 6506SOL     OW31150   2.600   3.621   1.434  0.0132 -0.4391 -0.0030
 6506SOL    HW131151   2.537   3.629   1.506  0.0818  2.8691 -0.3134
 6506SOL    HW231152   2.645   3.704   1.419  0.7196 -1.2650 -2.4302
 6507SOL     OW31153   2.122   1.772   3.122 -0.4787  0.2112 -0.1721
 6507SOL    HW131154   2.046   1.716   3.136 -0.0042 -0.0514  1.4271
 6507SOL    HW231155   2.120   1.839   3.191  2.1211 -0.2621  0.3709
 6508SOL     OW31156   3.238   2.308   4.451  0.3784 -0.2187 -0.2436
 6508SOL    HW131157   3.239   2.278   4.542  0.8722 -2.1092 -0.8897
 6508SOL    HW231158   3.296   2.244   4.411  0.3466 -0.0220 -0.6122
 6509SOL     OW31159   3.319   2.798   7.096  0.3159  0.1662 -0.1788
 6509SOL    HW131160   3.336   2.727   7.035 -3.7717 -0.4925 -0.5395
 6509SOL    HW231161   3.269   2.764   7.171  1.2696 -1.2856 -0.2175
 6510SOL     OW31162   0.721   1.023   7.705 -0.2105  0.0676 -0.3864
 6510SOL    HW131163   0.774   1.102   7.701  1.1424 -0.7603  1.1486
 6510SOL    HW231164   0.641   1.044   7.657 -0.5445  0.3264  0.2847
 6511SOL     OW31165   2.390   3.153   5.321  0.4589 -0.1237  0.5697
 6511SOL    HW131166   2.454   3.086   5.297  1.2325  0.4978  0.8605
 6511SOL    HW231167   2.363   3.184   5.234  1.0908 -1.6664 -0.1828
 6512SOL     OW31168   1.297   0.146   0.510 -0.2081  0.4236  0.5790
 6512SOL    HW131169   1.324   0.220   0.456 -1.0712  0.0620 -0.3540
 6512SOL    HW231170   1.204   0.163   0.523 -0.4843  0.0642 -1.0372
 6513SOL     OW31171   2.088   4.537  11.203  0.0946 -0.0042 -0.4218
 6513SOL    HW131172   2.007   4.487  11.196 -1.0899  2.2295 -2.6291
 6513SOL    HW231173   2.142   4.483  11.261  0.5433  1.2192  0.2825
 6514SOL     OW31174   2.351   1.693   8.740 -0.6136  0.0166 -0.1533
 6514SOL    HW131175   2.382   1.782   8.753  3.8349 -2.0144  2.8797
 6514SOL    HW231176   2.380   1.680   8.649  2.0850  0.5472  0.6317
 6515SOL     OW31177   0.741   3.044  11.539  0.1607  0.7433  0.2315
 6515SOL    HW131178   0.655   3.080  11.516 -0.7592 -0.6249  1.5521
 6515SOL    HW231179   0.742   2.960  11.494 -0.7428  0.2712  1.0946
 6516SOL     OW31180   0.758   1.081  16.602 -0.3004  0.0590  0.0920
 6516SOL    HW131181   0.729   1.082  16.511 -1.2553 -0.1274  0.3985
 6516SOL    HW231182   0.676   1.070  16.649 -0.2185  0.8769  0.4115
 6517SOL     OW31183   2.634   3.148   5.979 -0.1718  0.6464  0.3102
 6517SOL    HW131184   2.683   3.223   6.012  1.2822  0.4239 -1.3630
 6517SOL    HW231185   2.547   3.174   6.012 -0.5876 -0.9877  0.4895
 6518SOL     OW31186   0.346   0.331   5.916  0.1744  0.1345  0.3031
 6518SOL    HW131187   0.385   0.352   6.000  0.2150 -1.1233  0.6076
 6518SOL    HW231188   0.425   0.291   5.880 -0.7924 -1.6721  0.1890
 6519SOL     OW31189   3.440   1.553   2.486 -0.3076  0.6623  0.0431
 6519SOL    HW131190   3.464   1.515   2.401  0.7993 -2.3179  1.6742
 6519SOL    HW231191   3.516   1.530   2.539  0.0553  0.9383 -0.3627
 6520SOL     OW31192   3.824   2.222  10.216  0.0721  0.6987  0.4628
 6520SOL    HW131193   3.799   2.302  10.169 -3.6346  0.4889  2.0526
 6520SOL    HW231194   3.804   2.154  10.152 -0.3619  1.5303 -0.2947
 6521SOL     OW31195   3.085   3.431   4.174  0.5092 -0.5164 -0.3201
 6521SOL    HW131196   3.004   3.482   4.184  2.0938  2.3641 -1.9713
 6521SOL    HW231197   3.069   3.337   4.172 -1.3859 -0.1976  0.2201
 6522SOL     OW31198   3.604   3.540   6.459 -0.2800  0.1272 -0.6113
 6522SOL    HW131199   3.656   3.482   6.514 -0.4481  1.2196  0.6891
 6522SOL    HW231200   3.675   3.590   6.420  0.7912  0.3953  1.6761
 6523SOL     OW31201   1.341   3.638   3.754  0.4597 -0.2118  0.1452
 6523SOL    HW131202   1.270   3.618   3.814 -0.2856 -0.9501 -0.9954
 6523SOL    HW231203   1.350   3.731   3.772 -0.3416 -0.1143  0.0055
 6524SOL     OW31204   0.547   3.330  15.638  0.2342  0.2910 -0.0731
 6524SOL    HW131205   0.571   3.345  15.729  0.5248  0.9567 -0.2492
 6524SOL    HW231206   0.599   3.252  15.617 -0.5903 -0.1585 -0.4287
 6525SOL     OW31207   0.013   1.728   6.805  0.0688 -0.1728  0.2929
 6525SOL    HW131208   4.676   1.719   6.748  0.1839  0.7378 -0.0113
 6525SOL    HW231209   0.013   1.822   6.824  1.7702  0.2201 -1.6263
 6526SOL     OW31210   3.719   2.785   1.190  0.0425  0.1211 -0.1468
 6526SOL    HW131211   3.706   2.692   1.171 -0.1843  0.3312 -1.0316
 6526SOL    HW231212   3.734   2.823   1.103 -0.5800  1.7025  0.4370
 6527SOL     OW31213   2.420   4.663   8.565 -0.0850  0.0718 -0.5847
 6527SOL    HW131214   2.451   4.584   8.608 -4.0100 -1.3847 -0.4392
 6527SOL    HW231215   2.351   4.686   8.627 -0.0500 -0.7366 -0.2501
 6528SOL     OW31216   3.669   0.331   5.170  0.7575 -0.2638 -0.5973
 6528SOL    HW131217   3.716   0.398   5.219 -1.8843  0.3298  1.1265
 6528SOL    HW231218   3.616   0.380   5.107 -0.3278 -0.0983  0.4375
 6529SOL     OW31219   1.337   4.193   2.505  0.6105 -0.0013  0.2215
 6529SOL    HW131220   1.366   4.217   2.593  1.8011 -0.1233 -0.1362
 6529SOL    HW231221   1.394   4.238   2.443 -1.3013 -0.5554 -1.9688
 6530SOL     OW31222   0.618   0.630   9.688  0.5210 -0.1109  0.1942
 6530SOL    HW131223   0.580   0.710   9.725 -1.4336  0.2564 -2.6238
 6530SOL    HW231224   0.670   0.668   9.616  1.2478 -0.8473  0.3331
 6531SOL     OW31225   3.074   3.257  14.832 -0.2718 -0.4688  0.3784
 6531SOL    HW131226   3.105   3.339  14.796  0.2404 -1.4749 -1.4645
 6531SOL    HW231227   3.150   3.235  14.886 -1.8246 -1.8963  2.0101
 6532SOL     OW31228   0.002   4.278   9.750 -0.2601  0.2525  0.0315
 6532SOL    HW131229   0.098   4.284   9.750 -0.2685  0.4783 -2.3949
 6532SOL    HW231230   4.723   4.196   9.706  0.9056  0.4356 -0.8254
 6533SOL     OW31231   3.996   3.051   2.702  0.3340 -0.0836  0.1092
 6533SOL    HW131232   3.968   3.004   2.624  1.3140  0.6275 -0.6850
 6533SOL    HW231233   4.054   2.988   2.746  0.9942  1.1679  1.0533
 6534SOL     OW31234   1.832   2.527  15.697  0.5829  0.0460  0.4058
 6534SOL    HW131235   1.921   2.511  15.668  0.4398  0.5611 -0.3214
 6534SOL    HW231236   1.843   2.558  15.787 -0.3410  0.2876  0.4422
 6535SOL     OW31237   4.442   4.567   1.236  0.2669  0.1994  0.2506
 6535SOL    HW131238   4.447   4.516   1.155  0.0491 -0.6628  0.7773
 6535SOL    HW231239   4.353   4.601   1.228 -0.3885 -1.4820  0.2969
 6536SOL     OW31240   4.220   2.963   5.705 -0.6686  0.2152  0.1787
 6536SOL    HW131241   4.227   2.986   5.612  1.4762  1.2756  0.5976
 6536SOL    HW231242   4.194   2.872   5.693 -4.7712  1.3263  0.5062
 6537SOL     OW31243   0.298   0.786  13.483 -0.1469  0.6119 -0.3908
 6537SOL    HW131244   0.340   0.734  13.415 -0.1564  0.3424 -0.1918
 6537SOL    HW231245   0.243   0.718  13.522 -0.6906  0.6449 -1.1130
 6538SOL     OW31246   0.572   2.173   4.613 -0.1080  0.4526 -0.2623
 6538SOL    HW131247   0.635   2.101   4.624 -0.3830  0.3207  0.4755
 6538SOL    HW231248   0.547   2.157   4.522 -0.3317  1.5010 -0.3801
 6539SOL     OW31249   4.434   2.364   2.392  0.6733 -0.0563 -0.0294
 6539SOL    HW131250   4.525   2.371   2.364  0.8439 -0.1977  0.4756
 6539SOL    HW231251   4.416   2.454   2.366  0.1533  0.4821  2.2010
 6540SOL     OW31252   1.802   1.705   4.106 -0.3654  0.2360 -0.0762
 6540SOL    HW131253   1.738   1.672   4.168 -1.8938  0.2301 -1.6744
 6540SOL    HW231254   1.842   1.781   4.149  1.4605 -0.1332 -1.0885
 6541SOL     OW31255   0.583   2.040  17.609 -0.3662 -0.1888 -0.0467
 6541SOL    HW131256   0.595   1.966  17.669  0.8151  1.8480  2.2163
 6541SOL    HW231257   0.505   2.008  17.564  0.9795 -2.8617 -0.4612
 6542SOL     OW31258   3.300   1.745  13.157  0.5215  0.0200  0.3583
 6542SOL    HW131259   3.329   1.654  13.165 -0.2533 -0.1735  0.9310
 6542SOL    HW231260   3.375   1.777  13.107 -0.3577  0.7603 -0.4870
 6543SOL     OW31261   4.023   1.857   3.430 -0.0726 -0.0733  0.0070
 6543SOL    HW131262   4.007   1.855   3.336 -1.5224 -1.0792  0.2808
 6543SOL    HW231263   4.056   1.768   3.446  1.4295  0.8036  1.7684
 6544SOL     OW31264   3.032   4.480   3.358 -0.0650  0.0712 -0.0945
 6544SOL    HW131265   2.973   4.469   3.433  0.7794 -1.0411  0.4067
 6544SOL    HW231266   2.994   4.556   3.313 -0.2832  2.5276  4.1122
 6545SOL     OW31267   1.386   1.963   4.763  0.2762 -0.3068  0.5418
 6545SOL    HW131268   1.383   1.870   4.741  0.1841 -1.0762  3.7640
 6545SOL    HW231269   1.394   1.953   4.858  1.7656 -3.2161  0.1005
 6546SOL     OW31270   2.176   2.456   7.327 -0.3615  0.2278  0.4806
 6546SOL    HW131271   2.160   2.437   7.419  2.1352 -1.1378  0.6394
 6546SOL    HW231272   2.266   2.424   7.325 -1.1248 -1.8266 -1.1653
 6547SOL     OW31273   3.442   0.738   5.330  0.2050  0.1214  0.2993
 6547SOL    HW131274   3.383   0.675   5.290  0.4372 -0.3240  0.6520
 6547SOL    HW231275   3.520   0.687   5.353  0.3795  0.1634 -0.2032
 6548SOL     OW31276   3.291   1.516  12.743 -0.3269 -0.5400 -0.0498
 6548SOL    HW131277   3.241   1.588  12.782 -0.1754 -0.2711 -0.3490
 6548SOL    HW231278   3.380   1.527  12.777 -0.8219  0.2363  1.0182
 6549SOL     OW31279   2.683   2.565   5.084  0.6283  0.5767  0.2240
 6549SOL    HW131280   2.646   2.633   5.141 -0.0158  0.3573  0.0726
 6549SOL    HW231281   2.770   2.561   5.124  1.1799 -0.4288 -1.0833
 6550SOL     OW31282   4.588   4.666   4.648 -0.6008  0.0806 -0.2485
 6550SOL    HW131283   4.602   0.016   4.618  0.1266  0.2115  0.4850
 6550SOL    HW231284   4.617   4.617   4.571  2.4057  0.6099  0.5310
 6551SOL     OW31285   2.676   0.082   8.676 -0.2782 -0.4115 -0.7943
 6551SOL    HW131286   2.600   0.135   8.650  1.8415  0.8219 -4.4598
 6551SOL    HW231287   2.751   0.119   8.630  0.4878 -0.6937  0.2448
 6552SOL     OW31288   1.998   3.942  15.892  0.2360 -1.0606  0.1362
 6552SOL    HW131289   1.959   3.883  15.828  1.8432 -1.1245 -0.7805
 6552SOL    HW231290   2.040   4.008  15.837 -1.9891 -0.5277 -0.9062
 6553SOL     OW31291   0.614   0.903   4.923  0.0246 -0.5648  0.1796
 6553SOL    HW131292   0.569   0.978   4.884 -0.2011  0.0800  1.6733
 6553SOL    HW231293   0.546   0.873   4.982  0.3141  1.0559  1.3395
 6554SOL     OW31294   0.011   2.717  15.029 -0.5078 -0.3063 -0.7280
 6554SOL    HW131295   0.035   2.748  14.942 -1.0704  0.5600 -0.5700
 6554SOL    HW231296   0.084   2.735  15.089 -0.0322 -2.1470 -0.7448
 6555SOL     OW31297   4.633   1.804   4.298  0.7344 -0.4904  0.1496
 6555SOL    HW131298   4.707   1.773   4.245  0.8178 -0.7208  0.3987
 6555SOL    HW231299   4.576   1.855   4.241 -0.7500 -0.5711  1.5506
 6556SOL     OW31300   1.060   1.792  13.921  0.6040 -0.2063  0.3127
 6556SOL    HW131301   1.135   1.843  13.889  0.9901 -2.0655 -1.7272
 6556SOL    HW231302   1.084   1.769  14.011  2.0408 -3.7520 -0.9616
 6557SOL     OW31303   2.131   1.170   8.032 -0.5217 -0.4059 -0.0507
 6557SOL    HW131304   2.207   1.123   7.996 -1.1128 -1.9148  0.6843
 6557SOL    HW231305   2.072   1.095   8.038  1.4252 -2.1363 -1.9936
 6558SOL     OW31306   3.194   1.764   8.391 -0.2264 -0.3210 -0.0510
 6558SOL    HW131307   3.113   1.716   8.406 -0.7443  0.3421 -0.7134
 6558SOL    HW231308   3.202   1.825   8.465 -0.2025 -0.4239  0.0312
 6559SOL     OW31309   0.489   3.394   6.152  0.0169  0.0573 -0.0880
 6559SOL    HW131310   0.453   3.336   6.219  1.1032 -0.9316 -0.3643
 6559SOL    HW231311   0.572   3.352   6.128  1.4494  1.6086  2.1431
 6560SOL     OW31312   4.617   4.085   6.303 -0.3531 -0.1988  0.0384
 6560SOL    HW131313   4.525   4.079   6.330 -0.3159 -1.4030 -0.1430
 6560SOL    HW231314   4.609   4.080   6.208  0.1714 -1.9652  0.1059
 6561SOL     OW31315   0.169   1.389   1.882  0.3302  0.1275  0.2117
 6561SOL    HW131316   0.231   1.353   1.819 -0.7790 -0.9191 -0.2928
 6561SOL    HW231317   0.089   1.387   1.829  0.6440  1.2831 -0.3093
 6562SOL     OW31318   4.299   0.409   7.396 -0.4222 -0.0133  0.6307
 6562SOL    HW131319   4.301   0.346   7.468 -0.1323 -2.5876 -1.6306
 6562SOL    HW231320   4.380   0.458   7.407  0.5046 -1.2944 -0.6035
 6563SOL     OW31321   0.209   3.935   3.385 -0.3126 -1.1753  0.1337
 6563SOL    HW131322   0.210   3.856   3.439 -3.6155 -1.3206 -0.0412
 6563SOL    HW231323   0.252   3.891   3.311 -0.2265 -2.0572  0.7006
 6564SOL     OW31324   0.107   3.780   8.316  0.2784  1.1134 -0.1133
 6564SOL    HW131325   0.161   3.808   8.389  0.9723 -0.1811 -0.1302
 6564SOL    HW231326   0.054   3.708   8.351  2.7974 -1.0200 -0.6786
 6565SOL     OW31327   3.668   0.801  13.916  0.1926  0.2474  0.0244
 6565SOL    HW131328   3.648   0.749  13.839 -0.3386 -0.4004  0.5983
 6565SOL    HW231329   3.605   0.775  13.984 -0.5590 -0.2007 -0.8521
 6566SOL     OW31330   1.822   0.400  12.962 -0.0833 -0.3291  0.3204
 6566SOL    HW131331   1.855   0.486  12.937  0.9696 -0.9300 -0.3392
 6566SOL    HW231332   1.825   0.346  12.883 -0.2414  0.4636 -0.2234
 6567SOL     OW31333   1.998   3.676   8.843 -0.0564  0.3343 -0.1176
 6567SOL    HW131334   1.948   3.717   8.913 -1.1071 -0.4576 -0.4060
 6567SOL    HW231335   2.012   3.755   8.790  2.2167  0.0402  0.0600
 6568SOL     OW31336   0.305   3.604   8.187  0.2547 -0.3479 -0.3258
 6568SOL    HW131337   0.243   3.651   8.242 -0.1098  0.9021 -1.8413
 6568SOL    HW231338   0.254   3.572   8.112 -1.4803  0.4349  0.5297
 6569SOL     OW31339   4.206   2.334   2.647 -0.7254  0.6421  0.2857
 6569SOL    HW131340   4.156   2.326   2.728  2.2324 -1.1741  1.9515
 6569SOL    HW231341   4.284   2.381   2.676 -0.1841  0.4223 -0.8010
 6570SOL     OW31342   2.124   4.163   7.497  0.4185  0.1777  0.2200
 6570SOL    HW131343   2.127   4.258   7.498  1.2118  0.1537  0.5190
 6570SOL    HW231344   2.183   4.148   7.422  1.6567  0.4813  1.1267
 6571SOL     OW31345   2.419   1.086  10.486  1.0129 -0.2831  0.4917
 6571SOL    HW131346   2.430   1.169  10.533  0.1313 -0.5432  1.1687
 6571SOL    HW231347   2.392   1.125  10.403 -1.9811 -1.2755  1.0154
 6572SOL     OW31348   4.222   2.045   4.944 -0.6437 -0.5228  0.1865
 6572SOL    HW131349   4.230   1.976   4.878  0.9215  0.5327 -0.7306
 6572SOL    HW231350   4.131   2.073   4.950 -0.0029  1.3815  1.2599
 6573SOL     OW31351   0.465   1.130  13.547  0.1050  0.0892  0.6760
 6573SOL    HW131352   0.434   1.073  13.618  2.1673  0.3989  1.8248
 6573SOL    HW231353   0.533   1.182  13.589  1.0549  0.3061 -1.1301
 6574SOL     OW31354   2.453   1.830  10.402 -0.4950 -0.1116  0.4934
 6574SOL    HW131355   2.400   1.812  10.324 -1.3878  0.6175  0.9428
 6574SOL    HW231356   2.393   1.885  10.452 -0.7555 -0.9276  1.0701
 6575SOL     OW31357   0.204   0.658   6.706  0.3291 -0.0817  0.5594
 6575SOL    HW131358   0.131   0.697   6.752 -0.1576 -2.5009  1.8486
 6575SOL    HW231359   0.251   0.615   6.778 -1.7416 -1.5272  1.0394
 6576SOL     OW31360   3.245   4.322   5.401  0.2164 -0.0867  0.7237
 6576SOL    HW131361   3.206   4.383   5.339  0.4036  0.9155  1.5873
 6576SOL    HW231362   3.215   4.240   5.362  0.0413  0.5197 -0.3958
 6577SOL     OW31363   4.042   3.444   8.611  0.0704  0.2316  0.6186
 6577SOL    HW131364   4.064   3.397   8.691  1.7613 -0.3948 -0.2137
 6577SOL    HW231365   3.967   3.496   8.639 -1.7549 -1.4931 -1.0791
 6578SOL     OW31366   3.191   3.278   3.349  0.2900  0.5192 -0.2329
 6578SOL    HW131367   3.281   3.252   3.370 -0.4951 -1.5987  0.4668
 6578SOL    HW231368   3.194   3.357   3.403  0.9219 -1.2411  2.3494
 6579SOL     OW31369   1.262   1.434   1.661 -0.7317  0.0266  0.0712
 6579SOL    HW131370   1.303   1.387   1.733  0.2679  0.8784  0.0553
 6579SOL    HW231371   1.172   1.407   1.683  0.1493 -2.3369  0.7997
 6580SOL     OW31372   2.191   3.191   7.585  0.8245  0.3815 -0.4810
 6580SOL    HW131373   2.255   3.202   7.514 -0.7740  0.8469 -1.8433
 6580SOL    HW231374   2.233   3.122   7.637  2.6662  0.2132 -2.1955
 6581SOL     OW31375   1.440   2.688   4.778  0.0679 -0.2510  0.6115
 6581SOL    HW131376   1.432   2.731   4.694  0.9300 -1.9332 -0.3330
 6581SOL    HW231377   1.505   2.741   4.826  0.1640 -1.3290  1.6783
 6582SOL     OW31378   0.972   4.152  14.733 -0.3808 -0.4521 -0.2919
 6582SOL    HW131379   1.064   4.139  14.759 -0.9958 -0.1262  2.0736
 6582SOL    HW231380   0.937   4.063  14.730 -0.8742 -0.2877  0.4259
 6583SOL     OW31381   4.233   0.513   9.266 -0.0128 -0.6183 -0.1630
 6583SOL    HW131382   4.244   0.567   9.344  0.5029 -1.3198  0.2558
 6583SOL    HW231383   4.175   0.442   9.296  0.3643 -0.8037  0.1253
 6584SOL     OW31384   2.199   4.053   5.241  0.6512 -0.4852 -0.3470
 6584SOL    HW131385   2.138   4.069   5.312  1.4235 -0.7193  0.3616
 6584SOL    HW231386   2.267   4.016   5.297 -0.8700 -1.5355  0.7963
 6585SOL     OW31387   0.616   1.766   4.857  0.1290 -0.3026 -0.3479
 6585SOL    HW131388   0.612   1.795   4.949  1.1457  1.6819 -0.9311
 6585SOL    HW231389   0.537   1.809   4.825  0.9615  0.5708 -1.2298
 6586SOL     OW31390   2.612   4.195  12.000  0.2463  0.0146 -0.7875
 6586SOL    HW131391   2.662   4.188  12.081 -1.0143 -1.2391 -0.1259
 6586SOL    HW231392   2.682   4.222  11.940  1.4697  0.1749  0.7162
 6587SOL     OW31393   1.148   3.741   2.032 -0.7736  0.2911 -0.4223
 6587SOL    HW131394   1.082   3.675   2.052 -1.7631  1.7589  1.0652
 6587SOL    HW231395   1.232   3.712   2.069 -1.0441  0.1652  0.0836
 6588SOL     OW31396   0.548   1.922  10.453  0.0299  0.7540  0.3090
 6588SOL    HW131397   0.591   1.852  10.501 -1.2502 -0.2159  0.0630
 6588SOL    HW231398   0.463   1.882  10.433  0.5454 -0.4109  0.4835
 6589SOL     OW31399   1.778   2.456  14.730 -0.1367 -0.1158 -0.1579
 6589SOL    HW131400   1.746   2.546  14.726 -0.6872 -0.3830 -1.5276
 6589SOL    HW231401   1.728   2.416  14.659 -1.6874  0.1989  0.7544
 6590SOL     OW31402   1.420   0.283   5.578  0.2720 -0.3039 -0.5076
 6590SOL    HW131403   1.465   0.262   5.496  2.7308  1.6087  0.3552
 6590SOL    HW231404   1.393   0.370   5.548 -0.4984 -1.1543 -2.3223
 6591SOL     OW31405   0.300   3.827  14.516  0.7417  0.0511  0.0211
 6591SOL    HW131406   0.304   3.885  14.439 -2.0306  0.1929 -0.0267
 6591SOL    HW231407   0.244   3.758  14.480 -1.4462  2.1277 -0.5790
 6592SOL     OW31408   3.599   0.049   7.616 -0.2131  0.0013 -0.4495
 6592SOL    HW131409   3.572   0.061   7.525  0.0959 -2.5903 -0.8624
 6592SOL    HW231410   3.658   4.714   7.615  2.6844  2.2611  1.9189
 6593SOL     OW31411   3.737   3.354   1.544  0.3855 -0.6080 -0.0755
 6593SOL    HW131412   3.745   3.259   1.534 -0.6133 -0.7425  0.3738
 6593SOL    HW231413   3.828   3.370   1.519  0.3084  0.5208  0.3686
 6594SOL     OW31414   2.009   3.956   5.820 -0.3484  0.0108 -0.2806
 6594SOL    HW131415   1.914   3.946   5.815 -0.1915 -1.1928 -0.8092
 6594SOL    HW231416   2.029   3.867   5.792  0.9110 -0.6645  2.7889
 6595SOL     OW31417   0.601   2.770  16.084  0.2719 -0.0409  0.4123
 6595SOL    HW131418   0.582   2.750  16.176 -2.8450 -3.3862 -0.9506
 6595SOL    HW231419   0.541   2.707  16.045 -0.0281 -0.2345  1.1813
 6596SOL     OW31420   3.637   2.280   6.415  0.8671  0.5787 -0.3304
 6596SOL    HW131421   3.718   2.254   6.457 -0.1158  0.3459  1.4228
 6596SOL    HW231422   3.591   2.195   6.412 -0.9213  1.5019  0.7306
 6597SOL     OW31423   0.417   3.915  16.937 -0.4384  0.1122 -0.0907
 6597SOL    HW131424   0.461   3.998  16.922 -1.9147  0.9526  0.2434
 6597SOL    HW231425   0.338   3.922  16.882 -0.4365  0.5662 -0.0361
 6598SOL     OW31426   1.534   3.251   6.778  0.2156 -0.8499 -0.1961
 6598SOL    HW131427   1.570   3.168   6.808  0.5282  0.1948  2.3538
 6598SOL    HW231428   1.441   3.229   6.778  0.2243 -0.8850 -0.5328
 6599SOL     OW31429   1.755   3.374   0.574 -0.6264  0.1252  0.4225
 6599SOL    HW131430   1.687   3.320   0.616  0.3511 -1.2226  0.2804
 6599SOL    HW231431   1.777   3.300   0.517  0.3046 -0.2669  1.3000
 6600SOL     OW31432   4.391   1.867   3.861 -0.3764 -0.4304 -0.8345
 6600SOL    HW131433   4.345   1.804   3.806 -3.0688  1.2573 -0.4937
 6600SOL    HW231434   4.427   1.925   3.795  0.5999 -1.3967 -1.1583
 6601SOL     OW31435   1.345   3.719   2.220  0.1034  0.1478  0.1227
 6601SOL    HW131436   1.337   3.805   2.261  0.5034  0.6706 -0.8884
 6601SOL    HW231437   1.425   3.742   2.171  0.0949 -1.1808 -0.5108
 6602SOL     OW31438   2.871   2.814   6.536  0.0205  0.4085  0.2994
 6602SOL    HW131439   2.796   2.857   6.494 -1.0996 -0.8788  0.9589
 6602SOL    HW231440   2.823   2.755   6.594 -1.9134  0.9298 -0.7527
 6603SOL     OW31441   0.310   1.663   9.598  0.3485  0.1322 -0.4293
 6603SOL    HW131442   0.318   1.676   9.692  1.1412 -0.2793 -0.4326
 6603SOL    HW231443   0.264   1.742   9.571 -0.5302 -0.3527 -0.3293
 6604SOL     OW31444   0.394   1.987  15.851 -0.4107  0.2680 -0.9202
 6604SOL    HW131445   0.399   2.057  15.917  0.4670 -2.1349  1.5634
 6604SOL    HW231446   0.482   1.999  15.815  0.3952  1.6602  1.4607
 6605SOL     OW31447   0.636   3.485   6.845  0.5980  0.1478 -0.1948
 6605SOL    HW131448   0.663   3.572   6.816 -0.6562  1.2923  2.0110
 6605SOL    HW231449   0.702   3.471   6.913 -0.1248 -0.5544  0.3719
 6606SOL     OW31450   3.670   4.027   7.018 -0.4831  0.4542  0.0876
 6606SOL    HW131451   3.654   4.062   6.930 -1.2756 -0.9900 -0.3250
 6606SOL    HW231452   3.723   4.097   7.056 -1.4632  0.4911  1.3459
 6607SOL     OW31453   2.657   1.210   5.934  0.4984  0.6410 -0.4585
 6607SOL    HW131454   2.598   1.285   5.941 -0.1749  0.2290 -1.7246
 6607SOL    HW231455   2.641   1.160   6.015  2.7065 -2.4583 -1.9560
 6608SOL     OW31456   4.435   3.981   7.936  0.0615  0.3378  0.5348
 6608SOL    HW131457   4.475   3.894   7.926  1.8439  0.8790  2.9383
 6608SOL    HW231458   4.472   3.997   8.022 -0.5183  0.4396  0.7620
 6609SOL     OW31459   0.239   3.461   6.022  0.5962  0.7160  0.6557
 6609SOL    HW131460   0.287   3.507   6.091 -1.5088  0.1518  2.4680
 6609SOL    HW231461   0.297   3.386   6.008 -0.0612  0.4413 -0.5991
 6610SOL     OW31462   0.927   0.818   3.298  0.5774  0.3322 -0.2749
 6610SOL    HW131463   0.889   0.894   3.342  3.9378  0.9407  1.5341
 6610SOL    HW231464   1.009   0.817   3.347  0.9048 -1.3821 -0.8655
 6611SOL     OW31465   0.065   0.521   6.101 -0.4029 -0.7994 -0.1173
 6611SOL    HW131466   4.727   0.497   6.051  1.0528  0.3347 -2.9845
 6611SOL    HW231467   0.080   0.609   6.066  0.3388 -0.4278  1.1264
 6612SOL     OW31468   3.860   4.157   2.322  0.0766 -0.3686 -0.5525
 6612SOL    HW131469   3.794   4.205   2.372 -0.9682 -2.7146  0.3042
 6612SOL    HW231470   3.873   4.214   2.247 -0.4889 -0.2131 -0.5311
 6613SOL     OW31471   0.770   1.889   0.400 -0.0044  0.2949  0.0471
 6613SOL    HW131472   0.728   1.832   0.465 -0.3131  1.8250  1.1667
 6613SOL    HW231473   0.718   1.862   0.324  1.8351 -1.4178 -0.6172
 6614SOL     OW31474   4.729   3.754   5.183 -0.3839  0.3931  0.4192
 6614SOL    HW131475   4.650   3.713   5.220 -1.3340  0.6027 -1.3930
 6614SOL    HW231476   0.048   3.679   5.184 -1.0748 -0.1467  0.5110
 6615SOL     OW31477   0.741   1.588  11.798  0.1361 -0.2194  0.0182
 6615SOL    HW131478   0.773   1.587  11.888  0.9758 -2.5571 -0.2835
 6615SOL    HW231479   0.755   1.677  11.767  0.9939 -0.3318  0.0663
 6616SOL     OW31480   1.349   0.290  13.124  0.3813 -0.3016 -0.4590
 6616SOL    HW131481   1.378   0.315  13.212  2.6341 -1.1679 -0.9690
 6616SOL    HW231482   1.347   0.376  13.081 -0.8440  0.0570  0.3151
 6617SOL     OW31483   2.029   4.707   3.159  0.0808  0.9433 -0.3374
 6617SOL    HW131484   1.967   0.030   3.121 -1.7034  0.3630  1.6101
 6617SOL    HW231485   2.035   4.651   3.081 -1.5228 -1.4528  1.2732
 6618SOL     OW31486   0.018   1.125   6.258 -0.5033  0.1738 -0.7208
 6618SOL    HW131487   0.035   1.114   6.351  2.7885  3.3008 -0.9418
 6618SOL    HW231488   4.671   1.165   6.255 -1.1251 -1.0778  0.6853
 6619SOL     OW31489   0.990   1.971   2.338  0.2328 -0.3201 -0.6506
 6619SOL    HW131490   0.995   2.055   2.383  0.0819 -1.5115  1.5816
 6619SOL    HW231491   0.927   1.915   2.384 -1.2428  1.9011  0.0202
 6620SOL     OW31492   4.632   2.467   5.749  0.1584  0.3484  0.2128
 6620SOL    HW131493   4.655   2.432   5.835 -0.5118  1.6945  0.9369
 6620SOL    HW231494   4.573   2.539   5.774 -0.6663  0.1897 -1.3361
 6621SOL     OW31495   4.192   4.663   1.423 -0.6067  0.1049  0.6288
 6621SOL    HW131496   4.218   4.597   1.487  0.9768  0.2953  0.1750
 6621SOL    HW231497   4.214   0.001   1.472  1.0857 -0.1037  0.2116
 6622SOL     OW31498   3.202   2.961  11.758  0.0332  0.3304  0.0918
 6622SOL    HW131499   3.138   2.934  11.692 -0.5675  0.8365  0.4696
 6622SOL    HW231500   3.224   3.050  11.729 -0.6720  0.6590  0.5745
 6623SOL     OW31501   1.768   4.406   6.724  0.3478  0.0160 -0.4125
 6623SOL    HW131502   1.860   4.384   6.741 -0.8806 -3.9355  1.1200
 6623SOL    HW231503   1.734   4.321   6.696  1.7243 -0.5818 -0.2550
 6624SOL     OW31504   0.137   2.706   4.395  0.2711  0.2596  0.0411
 6624SOL    HW131505   0.223   2.679   4.426  0.4210 -0.7595 -1.2342
 6624SOL    HW231506   0.123   2.785   4.447 -0.5836  0.3765 -0.3652
 6625SOL     OW31507   3.452   2.075  13.174  0.1501 -0.1058 -0.6594
 6625SOL    HW131508   3.444   2.110  13.085 -0.5903 -0.2626 -0.6538
 6625SOL    HW231509   3.528   2.020  13.155 -1.8469 -2.5707 -1.4184
 6626SOL     OW31510   1.817   1.529   5.435  0.0302  0.0364  0.1742
 6626SOL    HW131511   1.877   1.462   5.467 -0.6581 -0.0219  1.3688
 6626SOL    HW231512   1.859   1.611   5.461  2.0211 -1.2987  1.1553
 6627SOL     OW31513   1.907   4.413   3.441  0.1019  0.2519  0.0872
 6627SOL    HW131514   1.860   4.487   3.479 -0.4879 -0.0173 -0.1065
 6627SOL    HW231515   1.879   4.427   3.350 -0.5808  1.4571  0.4761
 6628SOL     OW31516   3.267   1.018  13.021  0.9120  0.3242 -0.0712
 6628SOL    HW131517   3.177   0.987  13.012  1.0063 -0.5655  2.1450
 6628SOL    HW231518   3.264   1.113  13.033  0.4948  0.2229  0.5907
 6629SOL     OW31519   3.379   4.048   2.672 -0.0371  0.2265  0.4156
 6629SOL    HW131520   3.353   4.123   2.618  1.7840 -0.4304 -1.4041
 6629SOL    HW231521   3.295   4.019   2.708  0.5172 -1.9376 -0.0304
 6630SOL     OW31522   4.193   3.184   8.172  0.0663 -0.1520 -0.9072
 6630SOL    HW131523   4.271   3.238   8.181  0.2182 -0.1719 -2.0861
 6630SOL    HW231524   4.192   3.172   8.077 -0.9606 -2.7180 -0.5626
 6631SOL     OW31525   2.739   3.334   6.164 -0.8353  0.2078  0.5976
 6631SOL    HW131526   2.697   3.420   6.158  0.0058  0.6734  1.4220
 6631SOL    HW231527   2.725   3.300   6.252 -1.2343 -0.2117  0.3744
 6632SOL     OW31528   4.426   3.096  10.220 -0.0048 -0.3552 -0.0457
 6632SOL    HW131529   4.414   3.191  10.218  1.6879 -0.1588 -0.5159
 6632SOL    HW231530   4.409   3.067  10.310  2.3215  2.6934  1.3715
 6633SOL     OW31531   4.066   1.336   6.945  0.6960 -0.0544 -0.4187
 6633SOL    HW131532   4.073   1.402   6.876  0.1275 -1.2256 -1.5922
 6633SOL    HW231533   3.980   1.303   6.917  0.2365  0.8959 -0.1338
 6634SOL     OW31534   1.945   0.151   5.940 -0.0922  0.4241 -0.4882
 6634SOL    HW131535   1.861   0.171   5.981  0.1252  0.5545 -0.1068
 6634SOL    HW231536   1.923   0.184   5.853 -1.8672  1.6606  0.4221
 6635SOL     OW31537   2.161   0.464   6.668 -0.5319  0.1576  0.2817
 6635SOL    HW131538   2.177   0.393   6.605 -0.4442 -0.2768  0.7939
 6635SOL    HW231539   2.070   0.446   6.693 -0.3270 -2.1828 -0.6609
 6636SOL     OW31540   1.973   3.974  10.509  0.3247  0.0974  0.1041
 6636SOL    HW131541   1.881   3.964  10.535  0.7061 -1.3881  0.8153
 6636SOL    HW231542   1.994   3.890  10.470 -0.8708 -0.6327  1.0305
 6637SOL     OW31543   3.997   4.114   8.265  0.1637 -0.5879  0.0154
 6637SOL    HW131544   3.961   4.038   8.312 -2.6716  1.4824  1.1745
 6637SOL    HW231545   4.029   4.081   8.181  1.7621  3.3323 -0.8732
 6638SOL     OW31546   4.209   3.754   5.818 -0.4462 -0.3449  0.2726
 6638SOL    HW131547   4.177   3.714   5.737 -1.3703  1.1194 -0.0794
 6638SOL    HW231548   4.299   3.724   5.826 -0.1952  0.8960  2.2154
 6639SOL     OW31549   1.257   3.696   0.949 -0.2667 -0.1020 -0.6277
 6639SOL    HW131550   1.329   3.654   0.996 -0.4344 -0.1385 -0.4044
 6639SOL    HW231551   1.178   3.655   0.984 -0.5529  0.9951 -0.0082
 6640SOL     OW31552   1.370   0.753   7.441  0.0886  0.6856  0.3698
 6640SOL    HW131553   1.426   0.694   7.492  0.1425  0.2754 -0.1673
 6640SOL    HW231554   1.307   0.774   7.511  0.1371 -0.2838  0.7090
 6641SOL     OW31555   3.135   2.509   8.997  0.5270  0.3332 -0.5580
 6641SOL    HW131556   3.059   2.506   9.055 -0.5837  0.2502 -1.9873
 6641SOL    HW231557   3.207   2.548   9.046  1.0184 -0.6477 -0.5017
 6642SOL     OW31558   1.216   3.082  15.065  0.4582  0.4089  0.7508
 6642SOL    HW131559   1.122   3.075  15.081  0.1321  0.0932 -1.2852
 6642SOL    HW231560   1.223   3.177  15.074 -2.7475  0.6183  1.0023
 6643SOL     OW31561   0.191   4.657   8.042 -0.7863  0.3915 -0.2280
 6643SOL    HW131562   0.209   4.603   7.965  1.6073  1.0396 -0.1295
 6643SOL    HW231563   0.279   4.695   8.046 -0.1513 -0.8335 -2.3473
 6644SOL     OW31564   2.958   3.923   4.704 -0.0073 -0.0859  0.2672
 6644SOL    HW131565   2.967   3.861   4.776  0.1061  2.5818  2.5068
 6644SOL    HW231566   2.918   3.863   4.641 -2.6284  0.5559  1.3252
 6645SOL     OW31567   1.163   4.059  16.323  0.2413 -0.0550  0.2241
 6645SOL    HW131568   1.255   4.043  16.306  0.1350 -0.0611 -0.3348
 6645SOL    HW231569   1.121   4.006  16.256 -0.0131 -0.7593  0.9393
 6646SOL     OW31570   4.683   2.350   5.991  0.4494 -0.9563  0.2447
 6646SOL    HW131571   4.719   2.400   6.064 -0.6138 -1.1077  0.8869
 6646SOL    HW231572   4.693   2.258   6.016  0.3051 -1.3281 -1.0475
 6647SOL     OW31573   3.497   1.705   3.493  0.3232  0.5101 -0.2366
 6647SOL    HW131574   3.456   1.778   3.540 -0.3831 -0.9756  1.4544
 6647SOL    HW231575   3.486   1.633   3.555  2.8101  0.3356  0.0065
 6648SOL     OW31576   4.311   2.162  16.242  0.4860  0.0651 -0.4294
 6648SOL    HW131577   4.319   2.217  16.164 -1.0272  1.0257  0.0959
 6648SOL    HW231578   4.288   2.229  16.306 -2.2982 -0.5216 -0.8114
 6649SOL     OW31579   0.485   1.166   6.621  0.4026  0.1321  0.2128
 6649SOL    HW131580   0.405   1.124   6.589  2.1740 -1.9090 -1.5429
 6649SOL    HW231581   0.536   1.088   6.646  1.7013  0.4851 -1.3441
 6650SOL     OW31582   3.396   1.449   0.287  0.1711 -0.3206  0.1394
 6650SOL    HW131583   3.301   1.450   0.281  0.0861  0.7856  1.6521
 6650SOL    HW231584   3.409   1.440   0.192 -0.0179  0.0845  0.0748
 6651SOL     OW31585   1.208   4.154   5.302  0.4962 -0.2962 -0.7239
 6651SOL    HW131586   1.264   4.083   5.270  0.9358  0.2692 -1.2185
 6651SOL    HW231587   1.121   4.116   5.290  0.5953 -0.7975  0.1976
 6652SOL     OW31588   0.984   3.860   7.262 -0.1337  1.1081 -0.0604
 6652SOL    HW131589   1.068   3.899   7.239 -0.9238  1.2758 -2.6423
 6652SOL    HW231590   1.014   3.772   7.282 -1.2124  0.3816 -1.5880
 6653SOL     OW31591   2.137   1.554  10.590 -0.3756 -0.6548 -0.5282
 6653SOL    HW131592   2.124   1.561  10.496 -0.4281 -1.2965 -0.5686
 6653SOL    HW231593   2.082   1.478  10.612  0.6350 -0.9312  1.0264
 6654SOL     OW31594   0.591   1.263   7.897 -0.5874  0.1974 -0.0726
 6654SOL    HW131595   0.578   1.349   7.858 -3.0619  0.2347  0.7936
 6654SOL    HW231596   0.685   1.250   7.897 -0.5801  0.2790 -1.7587
 6655SOL     OW31597   0.164   2.912  17.003 -0.4185 -0.3244  0.2214
 6655SOL    HW131598   0.194   2.871  17.084  0.2347 -1.5037 -0.5943
 6655SOL    HW231599   0.246   2.949  16.969 -0.4794 -0.0773  0.3443
 6656SOL     OW31600   0.950   1.223  11.356 -0.0351  1.0337 -0.7888
 6656SOL    HW131601   0.951   1.286  11.428  1.0170  1.2585 -0.9917
 6656SOL    HW231602   0.898   1.262  11.286 -2.1169  1.2393  0.8743
 6657SOL     OW31603   1.698   1.828   8.807  0.0659 -0.4415  0.1993
 6657SOL    HW131604   1.620   1.874   8.839  1.3900  2.2958 -0.5021
 6657SOL    HW231605   1.657   1.771   8.742  0.3509 -0.4187 -0.0008
 6658SOL     OW31606   0.155   2.829   4.129  0.3508  0.3664  1.0561
 6658SOL    HW131607   0.121   2.908   4.170 -1.1191  0.4011 -0.2210
 6658SOL    HW231608   0.192   2.780   4.202  0.4569  0.4824  1.0800
 6659SOL     OW31609   3.402   2.252  17.386 -0.0158 -0.4793 -0.0985
 6659SOL    HW131610   3.375   2.193  17.456  0.7245 -1.2026 -0.4248
 6659SOL    HW231611   3.316   2.291  17.371  0.5749  1.0029  0.3694
 6660SOL     OW31612   0.745   1.604  15.554  0.2152 -0.0263  0.4144
 6660SOL    HW131613   0.816   1.566  15.503 -2.5200 -1.5063 -2.2323
 6660SOL    HW231614   0.684   1.639  15.489  0.1416  0.1829  0.5956
 6661SOL     OW31615   2.917   0.841   1.218  0.0097  0.3830 -0.0704
 6661SOL    HW131616   2.846   0.779   1.237  0.4742 -0.3899 -0.8677
 6661SOL    HW231617   2.981   0.814   1.284  0.9337 -0.9091 -1.5103
 6662SOL     OW31618   2.807   1.726   5.470  0.6518  0.3767 -0.2597
 6662SOL    HW131619   2.889   1.689   5.503  0.1702 -0.9513 -0.5512
 6662SOL    HW231620   2.738   1.678   5.516  2.3438 -1.0667  0.7826
 6663SOL     OW31621   0.339   1.330   2.115 -0.4846 -0.3452  0.5722
 6663SOL    HW131622   0.272   1.345   2.049 -0.8116  0.7591  1.1548
 6663SOL    HW231623   0.283   1.299   2.185  0.2340 -1.1430  0.7992
 6664SOL     OW31624   0.727   4.549   6.839 -0.3896  0.6597  0.0962
 6664SOL    HW131625   0.662   4.530   6.771 -0.7712  1.4159  0.2507
 6664SOL    HW231626   0.744   4.458   6.863 -0.1727  0.4054 -1.0388
 6665SOL     OW31627   2.821   2.034  11.558 -0.4587  0.0062  0.8434
 6665SOL    HW131628   2.796   2.075  11.641 -1.0757  1.0295  0.1592
 6665SOL    HW231629   2.780   1.951  11.580  0.4007 -0.3402  1.1244
 6666SOL     OW31630   1.181   3.021   5.493  0.2003  0.0568  0.6034
 6666SOL    HW131631   1.220   3.013   5.580 -0.0701 -3.0814  0.4536
 6666SOL    HW231632   1.252   2.967   5.459  0.2362 -0.4830  1.5367
 6667SOL     OW31633   2.257   0.611   0.454 -0.0119 -0.0158  0.6307
 6667SOL    HW131634   2.251   0.521   0.423 -0.0582  0.5760 -1.1163
 6667SOL    HW231635   2.167   0.645   0.454  0.1997  0.5393  0.4765
 6668SOL     OW31636   3.073   0.488   3.498  0.1876 -0.0964  0.0012
 6668SOL    HW131637   2.983   0.462   3.477 -0.6744  1.5790  1.6982
 6668SOL    HW231638   3.074   0.452   3.586 -3.5816  1.0220  0.5031
 6669SOL     OW31639   3.734   3.412   6.841 -0.0411  0.0442 -1.0035
 6669SOL    HW131640   3.821   3.380   6.865 -0.6127 -0.6192  0.2070
 6669SOL    HW231641   3.741   3.502   6.809 -0.6733  0.2959 -0.4257
 6670SOL     OW31642   4.564   3.563  16.749  0.0281  0.0103 -0.1682
 6670SOL    HW131643   4.642   3.575  16.694 -0.5123  0.3540 -0.8650
 6670SOL    HW231644   4.499   3.620  16.708  0.3226  0.8721  0.5643
 6671SOL     OW31645   1.210   3.132  16.590  0.2890 -0.3213 -0.1309
 6671SOL    HW131646   1.239   3.059  16.645  0.2949 -0.7458 -0.7010
 6671SOL    HW231647   1.257   3.106  16.511  3.6879  1.8512  1.2107
 6672SOL     OW31648   2.480   2.257   4.814 -0.6078 -0.6352 -0.3530
 6672SOL    HW131649   2.523   2.183   4.858  0.8160  1.0050  1.0329
 6672SOL    HW231650   2.553   2.273   4.755  2.3226  0.1854  3.4585
 6673SOL     OW31651   1.573   3.703   3.037  0.1372 -0.1477  0.2687
 6673SOL    HW131652   1.551   3.669   2.950 -0.0579  0.3996  0.1020
 6673SOL    HW231653   1.639   3.770   3.019 -0.0343  0.2869  1.2768
 6674SOL     OW31654   2.048   2.949  14.628 -0.4144  0.1423  0.6194
 6674SOL    HW131655   2.129   2.991  14.597 -1.1429  2.7441  2.2550
 6674SOL    HW231656   2.079   2.918  14.713 -1.1558 -1.6997  0.2108
 6675SOL     OW31657   1.060   2.886   5.263  0.2486 -0.5675  0.0196
 6675SOL    HW131658   1.059   2.961   5.323 -0.2755  0.9620 -1.9104
 6675SOL    HW231659   1.025   2.820   5.324  0.7041 -0.3301  0.5378
 6676SOL     OW31660   1.847   0.437   8.929 -0.3020  0.2054  0.0914
 6676SOL    HW131661   1.801   0.353   8.926 -0.9499  0.4915  1.9254
 6676SOL    HW231662   1.920   0.415   8.987 -0.8272 -2.3213 -0.2122
 6677SOL     OW31663   3.910   0.830   9.986  0.5900  0.1706  0.0537
 6677SOL    HW131664   4.001   0.860   9.975  0.2695  1.0816 -0.0537
 6677SOL    HW231665   3.923   0.736  10.003  2.1947  0.3440 -0.1697
 6678SOL     OW31666   4.420   2.311   9.124 -0.2343 -0.2630  0.0446
 6678SOL    HW131667   4.370   2.389   9.100 -0.0101 -0.2084 -0.2511
 6678SOL    HW231668   4.369   2.289   9.202  0.2019  0.7089  0.5940
 6679SOL     OW31669   2.324   0.484  17.571  0.0106  0.6547  0.2624
 6679SOL    HW131670   2.300   0.518  17.485 -3.2681  0.7540  1.2387
 6679SOL    HW231671   2.345   0.394  17.545 -1.7345  1.1494 -2.8477
 6680SOL     OW31672   3.001   1.569   2.054 -0.0139 -0.0588 -1.1617
 6680SOL    HW131673   2.987   1.606   1.967  1.6857  1.5093 -0.7643
 6680SOL    HW231674   2.917   1.524   2.068  0.0198  0.4048  0.6043
 6681SOL     OW31675   3.517   0.016   8.011 -0.0686  0.2289  0.5920
 6681SOL    HW131676   3.604   4.723   7.986  0.0743  0.2727  1.0387
 6681SOL    HW231677   3.533   0.093   8.066  0.6831  0.1126  0.5420
 6682SOL     OW31678   2.201   3.368   3.966  0.1792 -0.0928 -0.1661
 6682SOL    HW131679   2.113   3.403   3.953 -0.8871 -2.8258 -0.1788
 6682SOL    HW231680   2.207   3.378   4.061  1.9861 -1.4492 -0.1214
 6683SOL     OW31681   4.290   3.777   6.553  0.7515  0.7540 -0.6071
 6683SOL    HW131682   4.279   3.734   6.638 -0.9388 -1.8950 -2.1803
 6683SOL    HW231683   4.236   3.726   6.493  0.2826 -0.4830  0.8712
 6684SOL     OW31684   1.308   1.714   6.044 -0.0047 -0.2332  0.1896
 6684SOL    HW131685   1.403   1.708   6.052  0.2293  0.8458 -1.7086
 6684SOL    HW231686   1.286   1.680   6.130 -1.9681 -0.8395 -0.5529
 6685SOL     OW31687   3.783   2.842  11.163 -0.6766 -0.3559 -0.2078
 6685SOL    HW131688   3.698   2.802  11.177 -0.5758 -0.6069 -0.3133
 6685SOL    HW231689   3.817   2.805  11.081 -0.8555 -0.9382 -0.0145
 6686SOL     OW31690   0.888   1.347  11.105 -0.0188 -0.7950 -0.2462
 6686SOL    HW131691   0.913   1.439  11.116  2.0821 -1.1500 -2.0955
 6686SOL    HW231692   0.792   1.348  11.099 -0.1713 -0.4629  2.2400
 6687SOL     OW31693   4.254   2.626  11.320  0.0672  0.0446  0.4067
 6687SOL    HW131694   4.183   2.589  11.268 -0.7950  0.8402  1.0123
 6687SOL    HW231695   4.319   2.556  11.322  1.0773  0.9292 -1.7995
 6688SOL     OW31696   1.506   2.392   2.815  0.6674  0.2247 -0.1329
 6688SOL    HW131697   1.452   2.315   2.835 -0.2359  1.0625  0.6797
 6688SOL    HW231698   1.489   2.416   2.724  1.1344  2.2347  0.3105
 6689SOL     OW31699   3.739   2.782   6.762  0.6803  0.7410  0.4591
 6689SOL    HW131700   3.683   2.711   6.792 -0.2307  0.9628 -0.7317
 6689SOL    HW231701   3.715   2.857   6.817  0.0965 -0.1597  1.4308
 6690SOL     OW31702   1.101   0.887   6.869  0.1844  0.3394 -0.6410
 6690SOL    HW131703   1.080   0.957   6.930  2.7052  1.2214 -0.7891
 6690SOL    HW231704   1.131   0.819   6.929 -1.4812  0.3136  0.1673
 6691SOL     OW31705   2.447   1.643  12.174  0.3306  0.0924 -0.1646
 6691SOL    HW131706   2.404   1.574  12.123 -2.2044  0.0232  2.0913
 6691SOL    HW231707   2.510   1.585  12.218 -0.8222 -1.4798 -0.5805
 6692SOL     OW31708   1.204   2.638   6.505 -0.3368 -0.4160 -0.1311
 6692SOL    HW131709   1.222   2.672   6.592  0.5675 -0.0491 -0.4677
 6692SOL    HW231710   1.171   2.552   6.534 -0.2025 -0.9397 -1.5355
 6693SOL     OW31711   0.598   2.493   9.215  0.1094  0.3577  0.6208
 6693SOL    HW131712   0.684   2.504   9.257  0.1847 -1.6824  0.9983
 6693SOL    HW231713   0.609   2.426   9.148  1.6102  2.7699 -1.5517
 6694SOL     OW31714   2.312   1.952   2.734 -0.0330  0.0188 -0.4430
 6694SOL    HW131715   2.222   1.930   2.707 -0.4607 -0.6973  1.5517
 6694SOL    HW231716   2.307   2.047   2.746 -0.9548  0.0569 -1.0939
 6695SOL     OW31717   3.824   2.989   1.763 -0.1071 -0.0350  0.2608
 6695SOL    HW131718   3.871   3.013   1.683  1.2711 -0.2586  1.0089
 6695SOL    HW231719   3.733   3.004   1.737 -0.5042  0.2025  1.7985
 6696SOL     OW31720   0.152   0.352   5.209  0.3395  0.5332  0.0588
 6696SOL    HW131721   0.240   0.337   5.246 -0.1361 -1.6760  0.3016
 6696SOL    HW231722   0.097   0.373   5.285 -0.0518  1.8550 -0.5965
 6697SOL     OW31723   3.667   0.292  10.428  0.1089  0.0019  0.2301
 6697SOL    HW131724   3.734   0.311  10.362  0.6649 -2.5117  0.0655
 6697SOL    HW231725   3.672   0.196  10.431 -0.5481 -0.0165  0.8371
 6698SOL     OW31726   2.644   1.182   5.647  0.7036  0.4754  0.2716
 6698SOL    HW131727   2.683   1.184   5.734 -0.9858 -1.5449  1.0832
 6698SOL    HW231728   2.568   1.240   5.650  0.3301  0.1001 -1.7011
 6699SOL     OW31729   0.109   1.764  16.979  0.0113 -0.6362 -0.0506
 6699SOL    HW131730   0.172   1.829  16.947 -1.7829  1.5063  0.7667
 6699SOL    HW231731   0.085   1.722  16.897  0.6031 -0.5279 -0.2758
 6700SOL     OW31732   2.283   3.256   3.619 -0.0593  0.5463  0.0988
 6700SOL    HW131733   2.346   3.311   3.666  0.5932 -0.5814  0.5582
 6700SOL    HW231734   2.214   3.318   3.596 -1.4172 -0.6334  0.9987
 6701SOL     OW31735   0.409   2.860   8.563 -0.2442 -0.2599 -0.1659
 6701SOL    HW131736   0.437   2.834   8.651  0.4822 -0.7588 -0.5414
 6701SOL    HW231737   0.489   2.895   8.524  0.4628  1.4308  2.8289
 6702SOL     OW31738   4.252   3.457  12.005 -0.3430  0.0053  0.3413
 6702SOL    HW131739   4.290   3.404  11.935  0.8103  0.9932  0.2254
 6702SOL    HW231740   4.171   3.407  12.011 -1.7488  2.0324 -1.7427
 6703SOL     OW31741   4.096   2.345  14.619  0.1577 -0.5974  0.2439
 6703SOL    HW131742   4.102   2.436  14.648 -1.6107  0.0480 -1.3700
 6703SOL    HW231743   4.004   2.319  14.627  0.2226 -0.8017  0.3412
 6704SOL     OW31744   4.503   3.726  17.628  0.5553 -0.3866  0.2811
 6704SOL    HW131745   4.532   3.674  17.703 -0.9229 -0.2262  0.9584
 6704SOL    HW231746   4.469   3.663  17.565 -0.1060  2.0832 -1.8152
 6705SOL     OW31747   0.334   0.884  16.602 -0.1829 -0.3549 -0.1039
 6705SOL    HW131748   0.350   0.923  16.516  0.2720  1.1321  0.6658
 6705SOL    HW231749   0.413   0.912  16.647  0.8468 -0.8458 -1.5995
 6706SOL     OW31750   1.840   3.555   7.639 -0.1649  0.3227 -0.0383
 6706SOL    HW131751   1.897   3.619   7.597 -0.7625 -0.7233 -2.4720
 6706SOL    HW231752   1.852   3.564   7.733 -1.0352  0.0406  0.1053
 6707SOL     OW31753   2.530   2.340   9.558  0.3853  0.2441 -0.9291
 6707SOL    HW131754   2.521   2.315   9.466  3.1181  0.1535 -1.1665
 6707SOL    HW231755   2.517   2.254   9.596  0.9447  0.1978 -0.8373
 6708SOL     OW31756   3.980   1.815  17.293  0.2507 -0.4958 -0.2911
 6708SOL    HW131757   3.974   1.904  17.257  0.6611 -1.0468 -1.7201
 6708SOL    HW231758   3.900   1.778  17.254 -0.1594 -0.9457  0.9833
 6709SOL     OW31759   3.874   4.651   7.433 -0.1447 -1.0222 -0.0306
 6709SOL    HW131760   3.858   4.557   7.437 -1.4364 -0.7132  2.2727
 6709SOL    HW231761   3.930   4.671   7.509  1.1548  1.1210 -1.5308
 6710SOL     OW31762   1.749   1.733   6.071 -0.1279 -0.7565 -0.3641
 6710SOL    HW131763   1.694   1.681   6.129 -1.8310  0.1854 -1.1158
 6710SOL    HW231764   1.824   1.763   6.122 -0.4986 -0.6540  0.1262
 6711SOL     OW31765   4.027   3.482  10.814  0.1083 -0.2563  0.1256
 6711SOL    HW131766   4.048   3.481  10.908  0.5166 -0.3948  0.0322
 6711SOL    HW231767   4.114   3.468  10.777 -0.9629  1.8201 -3.2141
 6712SOL     OW31768   4.379   0.611   4.525  0.1845 -0.5982  0.0566
 6712SOL    HW131769   4.395   0.558   4.448 -0.7326 -1.0198  0.1597
 6712SOL    HW231770   4.309   0.562   4.567 -0.9839  1.7850  0.9179
 6713SOL     OW31771   4.560   2.400   1.993  0.8236  0.0051 -0.1684
 6713SOL    HW131772   4.575   2.472   2.054 -0.6392 -1.1279  1.4993
 6713SOL    HW231773   4.632   2.413   1.931 -0.2096  1.7961 -1.0090
 6714SOL     OW31774   1.704   3.496  16.914  0.1108 -0.1247 -0.5040
 6714SOL    HW131775   1.763   3.571  16.917  1.0880 -0.9967  1.8079
 6714SOL    HW231776   1.639   3.528  16.976  2.1433  1.9881  0.4993
 6715SOL     OW31777   0.039   3.057   5.069 -0.2017  0.5388 -0.5398
 6715SOL    HW131778   0.090   3.128   5.108  0.9150 -0.0611 -0.8998
 6715SOL    HW231779   4.688   3.085   5.082 -0.5826 -0.3274 -1.3288
 6716SOL     OW31780   2.328   2.778   3.248  0.3255  0.5660  0.0550
 6716SOL    HW131781   2.372   2.704   3.289 -0.9937  0.6770  1.6551
 6716SOL    HW231782   2.384   2.852   3.274  0.0228  0.8114  0.0016
 6717SOL     OW31783   1.987   2.690   7.375  0.3392 -0.4099  0.1970
 6717SOL    HW131784   2.048   2.618   7.394  1.8188  0.6605 -0.5068
 6717SOL    HW231785   1.956   2.701   7.465 -0.6433 -0.3288 -0.1537
 6718SOL     OW31786   2.818   1.124   3.996  0.0244  0.4043  0.4646
 6718SOL    HW131787   2.865   1.158   3.920 -1.7471 -0.4983 -1.0390
 6718SOL    HW231788   2.816   1.208   4.044 -3.2104  0.6341 -0.0552
 6719SOL     OW31789   2.691   0.788   6.422  0.0914 -0.3501 -0.3378
 6719SOL    HW131790   2.608   0.804   6.378 -1.3615 -2.4510  1.6754
 6719SOL    HW231791   2.749   0.838   6.364  1.1339 -0.5521  0.5356
 6720SOL     OW31792   0.946   4.478   5.756 -0.6107  0.2856  0.3003
 6720SOL    HW131793   0.863   4.522   5.737 -0.4225  0.6771  0.3934
 6720SOL    HW231794   0.970   4.507   5.844 -1.2887  1.4688  0.0990
 6721SOL     OW31795   3.435   0.196   3.874  0.2197 -0.3782  0.2284
 6721SOL    HW131796   3.466   0.238   3.794  1.1769  0.2469  0.9345
 6721SOL    HW231797   3.402   0.266   3.930  0.9778 -1.5093  2.0895
 6722SOL     OW31798   3.289   0.211   7.494  0.1672  0.2146 -0.4071
 6722SOL    HW131799   3.345   0.288   7.491  0.2979  0.2438  2.7566
 6722SOL    HW231800   3.253   0.195   7.407  0.7448  2.2666 -1.0348
 6723SOL     OW31801   2.902   2.027   7.721  0.1838  0.1971 -0.0455
 6723SOL    HW131802   2.896   2.081   7.800  3.2009  1.0728 -0.4038
 6723SOL    HW231803   2.985   1.981   7.733 -0.1031 -0.8036 -1.9150
 6724SOL     OW31804   4.366   0.087   2.034 -0.5606  0.5243  0.1496
 6724SOL    HW131805   4.324   0.110   1.951  1.3866  0.7375 -0.7723
 6724SOL    HW231806   4.288   0.086   2.090  0.0043 -1.9719  0.8857
 6725SOL     OW31807   4.110   2.997   6.962  0.2629 -0.1234  0.6890
 6725SOL    HW131808   4.187   3.032   7.006  2.0679 -1.0271 -1.7557
 6725SOL    HW231809   4.086   2.918   7.011  0.2242  0.3550  1.4421
 6726SOL     OW31810   4.416   4.590   3.284  0.1059  0.4024 -0.2558
 6726SOL    HW131811   4.376   4.628   3.205 -1.4032  0.7960  0.6971
 6726SOL    HW231812   4.489   4.544   3.243 -0.9845 -0.8348 -0.8282
 6727SOL     OW31813   0.712   3.730   6.826 -0.0171 -0.4911 -0.0332
 6727SOL    HW131814   0.657   3.756   6.900 -0.4938  1.1174 -0.9578
 6727SOL    HW231815   0.789   3.778   6.857  1.1443 -2.2898 -0.0786
 6728SOL     OW31816   1.114   1.352   6.099 -0.2046 -0.4408 -0.0933
 6728SOL    HW131817   1.099   1.388   6.012  1.6175 -1.0941 -0.6751
 6728SOL    HW231818   1.095   1.436   6.140 -1.9628 -1.4382  1.1278
 6729SOL     OW31819   3.880   4.365  12.085 -0.5444  0.5650  0.1750
 6729SOL    HW131820   3.830   4.321  12.016 -0.8045  0.4360  0.4462
 6729SOL    HW231821   3.887   4.450  12.042 -0.4156 -0.0565 -1.0454
 6730SOL     OW31822   1.778   1.636   8.067  0.0662  0.0302 -0.3879
 6730SOL    HW131823   1.795   1.625   7.973 -0.0057 -1.3134 -0.2411
 6730SOL    HW231824   1.869   1.658   8.087 -0.0398  0.3261 -0.2271
 6731SOL     OW31825   1.821   1.191   8.541 -0.3914  0.2430 -0.0551
 6731SOL    HW131826   1.757   1.179   8.471  1.0187  1.1907 -1.4957
 6731SOL    HW231827   1.809   1.107   8.585 -1.2500 -0.6436 -2.0082
 6732SOL     OW31828   3.108   1.905   3.852  0.4111  0.2515 -0.5536
 6732SOL    HW131829   3.024   1.880   3.813 -0.7286 -1.3068  2.9134
 6732SOL    HW231830   3.118   1.863   3.937 -0.4264 -0.4085 -0.7737
 6733SOL     OW31831   2.129   1.117  13.846  0.0424  0.3779  0.0110
 6733SOL    HW131832   2.041   1.154  13.838 -0.5304 -1.1316 -0.7780
 6733SOL    HW231833   2.109   1.042  13.789 -1.7177  0.7561  0.1262
 6734SOL     OW31834   2.238   4.688   2.200  0.3359 -0.0732  0.1669
 6734SOL    HW131835   2.253   4.654   2.288 -1.4690 -1.3662 -0.0200
 6734SOL    HW231836   2.321   4.735   2.186  0.3388 -0.2506 -0.4085
 6735SOL     OW31837   0.574   1.618  13.298  0.3760 -0.3463 -0.0374
 6735SOL    HW131838   0.521   1.630  13.377  2.4238  2.7445  0.8769
 6735SOL    HW231839   0.600   1.526  13.304  1.5330  0.1657  2.4150
 6736SOL     OW31840   2.503   2.317   5.864 -0.1831  0.2540 -0.2288
 6736SOL    HW131841   2.469   2.254   5.801  2.9903 -1.0107 -0.6695
 6736SOL    HW231842   2.458   2.299   5.947  0.2515  0.1278 -0.0205
 6737SOL     OW31843   0.072   4.302   8.040 -0.3596 -0.6606  0.0650
 6737SOL    HW131844   0.093   4.252   8.119 -0.9655  0.4169  0.9142
 6737SOL    HW231845   4.723   4.330   8.065 -0.1896  0.4865 -0.6119
 6738SOL     OW31846   0.638   1.339   1.043  0.2451 -0.0854  0.5583
 6738SOL    HW131847   0.713   1.285   1.018 -0.5392 -1.0240  0.2233
 6738SOL    HW231848   0.690   1.408   1.083  1.6203 -0.7876 -0.0123
 6739SOL     OW31849   4.710   0.129   6.220 -0.4971 -0.1617  0.4371
 6739SOL    HW131850   4.645   0.168   6.162  0.1811 -0.2576 -0.3840
 6739SOL    HW231851   0.047   0.112   6.166  0.4275  2.2933  0.9897
 6740SOL     OW31852   1.528   3.214   5.143  0.1240 -0.1109 -0.1393
 6740SOL    HW131853   1.564   3.287   5.094  2.8161 -2.5275 -1.8195
 6740SOL    HW231854   1.475   3.259   5.208  0.4654 -0.2239  0.2168
 6741SOL     OW31855   2.928   3.370  13.728  0.0529 -0.4838  0.5044
 6741SOL    HW131856   2.951   3.291  13.679 -1.8942 -0.5372 -0.3181
 6741SOL    HW231857   2.948   3.426  13.654 -1.7883  0.3738  0.6589
 6742SOL     OW31858   0.193   0.750   9.790  0.3888 -0.4149 -0.5267
 6742SOL    HW131859   0.147   0.833   9.787 -0.1460 -0.6484  1.3533
 6742SOL    HW231860   0.211   0.731   9.697 -0.6992 -2.0244 -0.4140
 6743SOL     OW31861   0.722   4.305   6.938 -0.0013 -0.1016  0.0530
 6743SOL    HW131862   0.638   4.306   6.985 -0.0107  0.8473  0.0071
 6743SOL    HW231863   0.701   4.238   6.873  0.2164  0.4866 -0.6214
 6744SOL     OW31864   4.377   4.703   6.800 -0.1345 -0.1241 -0.0191
 6744SOL    HW131865   4.291   0.005   6.811 -0.0877 -0.4176  1.4734
 6744SOL    HW231866   4.429   0.019   6.857 -0.2516 -0.7751  0.7297
 6745SOL     OW31867   0.550   2.706  14.588  0.0720  0.3856 -0.6440
 6745SOL    HW131868   0.457   2.683  14.595  0.5942 -1.0682  1.5158
 6745SOL    HW231869   0.551   2.791  14.544  1.8359  1.6075  1.7301
 6746SOL     OW31870   1.550   0.393   2.526  0.1183 -0.0238 -0.3581
 6746SOL    HW131871   1.494   0.469   2.542 -1.2461 -1.4494  1.6148
 6746SOL    HW231872   1.610   0.432   2.462  1.2441  2.9055  2.4445
 6747SOL     OW31873   2.293   0.661   6.825  0.1680  0.0976 -0.1340
 6747SOL    HW131874   2.386   0.647   6.806  0.9204 -0.5583  4.0373
 6747SOL    HW231875   2.249   0.616   6.753 -1.3805 -1.1358  1.6004
 6748SOL     OW31876   0.308   4.400   2.389  0.4340 -0.4163 -0.4810
 6748SOL    HW131877   0.346   4.448   2.315 -1.4277 -1.4903 -2.1564
 6748SOL    HW231878   0.366   4.324   2.393  1.1230  0.0756 -1.0958
 6749SOL     OW31879   3.427   4.380  15.393  0.0805 -0.3072  0.1099
 6749SOL    HW131880   3.400   4.292  15.419  1.7925 -0.3568  1.7272
 6749SOL    HW231881   3.522   4.369  15.401  0.1511  0.7657  0.8060
 6750SOL     OW31882   1.041   4.215  17.568  0.3324  0.6869 -0.1242
 6750SOL    HW131883   0.997   4.262  17.498 -1.6307  1.3601  1.5436
 6750SOL    HW231884   1.110   4.274  17.598 -0.1750  0.5049  1.4346
 6751SOL     OW31885   4.571   0.859   1.513  0.1449  0.3745  0.0959
 6751SOL    HW131886   4.493   0.890   1.467  0.9125 -2.2275 -2.9012
 6751SOL    HW231887   4.632   0.929   1.492  0.6742 -0.5312 -1.3444
 6752SOL     OW31888   3.858   4.584  13.881 -0.3100  0.1201  0.0721
 6752SOL    HW131889   3.927   4.647  13.903 -0.7704  0.8117 -0.4478
 6752SOL    HW231890   3.813   4.569  13.964 -3.3161 -1.7980 -1.9382
 6753SOL     OW31891   3.286   2.742   5.206 -0.0551 -0.4842 -0.7150
 6753SOL    HW131892   3.379   2.730   5.186  0.4103  0.3436  0.9408
 6753SOL    HW231893   3.275   2.827   5.163  0.5355 -0.5056 -0.9155
 6754SOL     OW31894   0.220   1.223   5.661  0.3065 -0.4934 -0.1074
 6754SOL    HW131895   0.278   1.161   5.616  1.7149 -0.1445  1.2177
 6754SOL    HW231896   0.191   1.279   5.589  3.1169  0.3476 -0.5761
 6755SOL     OW31897   2.318   2.926  10.680 -0.0749 -0.2466  0.0996
 6755SOL    HW131898   2.302   2.868  10.606 -1.2213  0.7864 -0.4439
 6755SOL    HW231899   2.413   2.937  10.669 -0.2981  1.9232  0.2802
 6756SOL     OW31900   2.247   1.646   1.925 -0.1183  0.1120  0.4768
 6756SOL    HW131901   2.257   1.559   1.886 -3.2758 -0.2296  0.4228
 6756SOL    HW231902   2.295   1.631   2.006 -0.5420 -1.3954  0.4525
 6757SOL     OW31903   3.264   0.626   4.625 -0.2676 -0.4610  0.3962
 6757SOL    HW131904   3.253   0.537   4.591  0.8184  0.3500 -2.1147
 6757SOL    HW231905   3.273   0.614   4.720 -0.3145 -1.2610  0.2994
 6758SOL     OW31906   0.625   1.870   5.125  0.3536 -0.4558  0.3004
 6758SOL    HW131907   0.629   1.931   5.051  0.7740  0.1054  0.7811
 6758SOL    HW231908   0.534   1.840   5.118  0.0161  0.6464 -0.1051
 6759SOL     OW31909   1.354   4.470   7.160 -0.3365 -0.2325  0.2561
 6759SOL    HW131910   1.385   4.551   7.121  0.4837 -0.5549  0.2460
 6759SOL    HW231911   1.436   4.423   7.175  0.3180  0.0369 -2.5199
 6760SOL     OW31912   0.588   0.139   2.639 -0.1856  0.2633 -0.1967
 6760SOL    HW131913   0.507   0.145   2.589 -0.7686 -0.7644  0.6365
 6760SOL    HW231914   0.606   0.230   2.662  0.3249 -0.3299  1.7276
 6761SOL     OW31915   2.325   0.032   8.849 -0.2210 -0.2165 -0.1344
 6761SOL    HW131916   2.369   4.703   8.900  0.4762  3.0024  3.5923
 6761SOL    HW231917   2.394   0.096   8.837  1.2256 -1.7836 -0.0859
 6762SOL     OW31918   2.063   2.419   6.453  0.2829 -0.0940 -0.3230
 6762SOL    HW131919   2.138   2.372   6.417  0.2096 -0.8262  0.4881
 6762SOL    HW231920   2.054   2.488   6.387 -0.3699 -1.0082 -1.2000
 6763SOL     OW31921   0.705   4.239   4.326 -0.6276 -0.4737  0.4729
 6763SOL    HW131922   0.730   4.148   4.311 -1.7972 -0.7816  0.4184
 6763SOL    HW231923   0.669   4.230   4.414 -1.2948 -0.4289  0.2029
 6764SOL     OW31924   4.399   1.658  12.425  0.3014 -0.2474 -0.3997
 6764SOL    HW131925   4.450   1.578  12.423  0.4699 -0.1553  0.3039
 6764SOL    HW231926   4.463   1.729  12.424 -3.4688  3.2377  2.1120
 6765SOL     OW31927   0.599   2.949   9.433 -0.3545  0.2737 -0.2031
 6765SOL    HW131928   0.522   2.965   9.487  1.0312  2.1219  1.1973
 6765SOL    HW231929   0.656   3.020   9.463 -0.5399  0.2505  0.1952
 6766SOL     OW31930   1.151   2.250   2.757 -0.1617  0.5108  0.2251
 6766SOL    HW131931   1.190   2.213   2.678  1.9785  2.8962  0.1473
 6766SOL    HW231932   1.218   2.225   2.822 -0.7072  2.9952  1.7659
 6767SOL     OW31933   4.545   3.746   8.169 -1.3712 -0.2375 -0.2867
 6767SOL    HW131934   4.573   3.693   8.243  0.1733  1.6332  0.4585
 6767SOL    HW231935   4.476   3.793   8.215  0.5086  1.8420  0.4062
 6768SOL     OW31936   3.728   4.186   3.317  0.1798 -0.7714  0.6421
 6768SOL    HW131937   3.711   4.209   3.226 -0.4616  1.2500  1.2850
 6768SOL    HW231938   3.702   4.095   3.328  0.3125 -0.9554 -0.5352
 6769SOL     OW31939   2.240   0.398   5.590 -0.3640  0.6516  0.6595
 6769SOL    HW131940   2.314   0.338   5.581  1.0681  2.3609  1.1829
 6769SOL    HW231941   2.176   0.348   5.539 -1.3161  0.7073  1.7989
 6770SOL     OW31942   3.080   3.179   9.396  0.4454 -0.2364 -0.1104
 6770SOL    HW131943   3.124   3.227   9.466 -1.7302 -0.6223  1.5302
 6770SOL    HW231944   3.129   3.097   9.391  3.3128  1.4994 -0.9038
 6771SOL     OW31945   4.410   2.099   8.617 -0.4609  0.2598  0.2068
 6771SOL    HW131946   4.449   2.019   8.651 -0.2603  0.7982  1.2449
 6771SOL    HW231947   4.380   2.134   8.701  0.7647  0.2424  0.6486
 6772SOL     OW31948   4.514   4.471   6.021  0.4712 -0.6398 -0.3487
 6772SOL    HW131949   4.487   4.542   6.078  1.2549  0.1121 -0.9136
 6772SOL    HW231950   4.608   4.489   6.022  0.0131  1.4336  2.9820
 6773SOL     OW31951   0.505   3.540   3.154 -0.4025  0.0444  0.7414
 6773SOL    HW131952   0.546   3.625   3.168  0.9914 -0.4996 -0.0619
 6773SOL    HW231953   0.492   3.511   3.245  1.0067 -1.3388  0.5095
 6774SOL     OW31954   2.070   3.076  15.538 -0.1523 -0.6221 -0.2252
 6774SOL    HW131955   2.156   3.058  15.498 -0.0742  1.2833 -0.9411
 6774SOL    HW231956   2.012   3.017  15.490  0.2470 -1.0492 -0.1856
 6775SOL     OW31957   1.131   2.657  16.601 -0.1586  0.2194 -0.0305
 6775SOL    HW131958   1.195   2.594  16.568 -1.5491 -1.7203  0.9946
 6775SOL    HW231959   1.158   2.736  16.555 -0.3415 -0.5054 -1.3664
 6776SOL     OW31960   4.393   1.319   7.315 -0.4065 -0.9851 -0.7069
 6776SOL    HW131961   4.421   1.240   7.270  0.7409 -1.9795  1.7628
 6776SOL    HW231962   4.373   1.386   7.249  1.7920  1.3079  0.9419
 6777SOL     OW31963   4.325   4.587   9.836  0.0204  0.3807 -0.4695
 6777SOL    HW131964   4.361   4.572   9.748  0.8121  2.9673 -0.5995
 6777SOL    HW231965   4.309   4.681   9.828  1.2150  0.6009 -0.2683
 6778SOL     OW31966   2.431   3.217   0.881 -0.2177  0.3332 -0.2003
 6778SOL    HW131967   2.441   3.129   0.920  0.9391  0.4615 -0.1928
 6778SOL    HW231968   2.501   3.263   0.928  0.7860 -1.0945 -0.2858
 6779SOL     OW31969   2.363   2.565   6.415 -0.0108  0.0958 -0.2996
 6779SOL    HW131970   2.415   2.533   6.489 -0.9906 -1.5532 -0.3248
 6779SOL    HW231971   2.423   2.556   6.341  1.8747  0.3231  1.2066
 6780SOL     OW31972   0.445   3.574   7.610 -0.1566 -0.1949  0.0975
 6780SOL    HW131973   0.372   3.550   7.667  1.2752 -1.5979  1.3611
 6780SOL    HW231974   0.428   3.668   7.612  1.7098  0.1425  0.3585
 6781SOL     OW31975   4.422   3.138   1.028  0.6161 -0.3299  0.3060
 6781SOL    HW131976   4.501   3.095   0.995  0.2830  0.1240 -1.1109
 6781SOL    HW231977   4.389   3.166   0.942 -0.7319  0.0693  0.9561
 6782SOL     OW31978   2.052   1.578  10.123 -0.0033 -0.2426  0.0001
 6782SOL    HW131979   2.009   1.506  10.170  1.9412  0.7859  3.3863
 6782SOL    HW231980   2.139   1.569  10.161 -0.1522  1.3727  0.7269
 6783SOL     OW31981   3.120   1.631  16.772  0.3481 -0.0200  0.9986
 6783SOL    HW131982   3.093   1.685  16.847 -1.8432 -1.5178  1.2657
 6783SOL    HW231983   3.106   1.546  16.813 -0.4512  0.6237  2.0917
 6784SOL     OW31984   1.540   4.452   4.925  0.0128 -0.1758 -0.3279
 6784SOL    HW131985   1.540   4.372   4.978 -2.0087  0.4334  0.6014
 6784SOL    HW231986   1.629   4.487   4.937  0.5824 -1.7318  0.0030
 6785SOL     OW31987   0.667   3.574   4.899 -0.3938 -0.1449 -0.1837
 6785SOL    HW131988   0.731   3.645   4.897 -0.1652 -0.3126  1.1664
 6785SOL    HW231989   0.591   3.627   4.921  0.2329  0.1096  1.3926
 6786SOL     OW31990   3.997   3.204  10.414  0.1146  0.0987 -0.2176
 6786SOL    HW131991   3.937   3.131  10.424  1.7305 -1.1580  0.4090
 6786SOL    HW231992   4.005   3.203  10.319  0.2419  0.4060 -0.2118
 6787SOL     OW31993   2.495   2.494   2.574  0.0804 -0.1525 -0.1128
 6787SOL    HW131994   2.485   2.586   2.550  1.4124 -0.4416 -1.7585
 6787SOL    HW231995   2.445   2.488   2.655  2.4368 -0.7510  1.2852
 6788SOL     OW31996   0.392   0.770   7.458 -0.4943 -0.1469 -0.1276
 6788SOL    HW131997   0.454   0.769   7.531 -2.6245  0.6300  1.6885
 6788SOL    HW231998   0.451   0.773   7.383 -0.6655 -0.1664 -0.2635
 6789SOL     OW31999   3.180   2.663   3.020 -0.5661 -0.0772 -0.0065
 6789SOL    HW132000   3.101   2.702   3.056 -0.3585  0.3115  0.0282
 6789SOL    HW232001   3.218   2.745   2.989 -0.0317  0.2932  1.6312
 6790SOL     OW32002   2.652   1.471   7.868 -0.3180  0.0320  0.4894
 6790SOL    HW132003   2.667   1.399   7.806 -0.8874  1.0043 -0.7651
 6790SOL    HW232004   2.616   1.430   7.947 -0.1254  1.2550  1.2050
 6791SOL     OW32005   3.077   0.546   6.471  0.2275 -0.1000 -0.3761
 6791SOL    HW132006   3.081   0.574   6.379  2.2869 -1.1631 -0.6235
 6791SOL    HW232007   3.113   0.619   6.521 -0.5057  1.2342 -1.7857
 6792SOL     OW32008   2.002   0.422   2.659  0.7144 -0.4375 -0.3965
 6792SOL    HW132009   1.948   0.487   2.613 -0.3278  1.2092  3.0956
 6792SOL    HW232010   2.055   0.478   2.715  0.4565  1.4181 -1.9887
 6793SOL     OW32011   0.244   1.173  13.191  0.3620  0.2108 -0.3251
 6793SOL    HW132012   0.195   1.091  13.196  0.9847 -0.1052  0.8317
 6793SOL    HW232013   0.329   1.145  13.228  0.5932 -1.6907 -2.2818
 6794SOL     OW32014   4.423   3.334   0.527 -0.0032  0.3274  0.0331
 6794SOL    HW132015   4.341   3.348   0.479  0.4816  0.0027 -0.8878
 6794SOL    HW232016   4.463   3.257   0.487  0.5235 -0.2418  1.6926
 6795SOL     OW32017   1.401   1.332   6.094  0.7548  0.3222 -0.0127
 6795SOL    HW132018   1.426   1.241   6.079 -1.6924 -0.5398  1.1474
 6795SOL    HW232019   1.306   1.323   6.083  0.2774  2.2684  2.4074
 6796SOL     OW32020   3.635   3.404   8.358  0.0892  0.0720  0.0129
 6796SOL    HW132021   3.581   3.327   8.376  0.8584 -0.2746  0.8293
 6796SOL    HW232022   3.717   3.357   8.370  1.5289  2.6985  0.5406
 6797SOL     OW32023   2.934   2.815   4.889  0.7892 -0.3039  0.0083
 6797SOL    HW132024   2.992   2.879   4.846  0.7913 -2.2647 -2.8630
 6797SOL    HW232025   2.995   2.750   4.925  0.1210 -1.0798 -0.2859
 6798SOL     OW32026   1.380   2.473   6.089 -0.1399 -0.0258  0.3690
 6798SOL    HW132027   1.451   2.530   6.059 -1.4947  0.3000 -2.2305
 6798SOL    HW232028   1.308   2.526   6.057  1.1925  0.8678 -1.1674
 6799SOL     OW32029   4.318   0.395  16.762 -0.3224 -0.0183 -0.2972
 6799SOL    HW132030   4.380   0.455  16.720 -0.9573 -0.3552 -1.7154
 6799SOL    HW232031   4.309   0.447  16.843 -1.2752 -2.2650  1.0329
 6800SOL     OW32032   3.825   1.300   8.391 -0.4457  0.3701 -0.3891
 6800SOL    HW132033   3.835   1.335   8.480 -0.2206  0.4860 -0.4599
 6800SOL    HW232034   3.900   1.241   8.387 -0.3426  0.4879 -0.1901
 6801SOL     OW32035   3.165   1.781   5.669  0.7058 -0.0841  0.2394
 6801SOL    HW132036   3.130   1.856   5.717  0.4243 -0.5293  0.7419
 6801SOL    HW232037   3.184   1.722   5.742 -0.2227  0.4028  0.8853
 6802SOL     OW32038   4.585   0.364   2.896 -0.2325  0.0646 -0.6305
 6802SOL    HW132039   4.639   0.289   2.921 -1.4602 -0.8203 -0.6222
 6802SOL    HW232040   4.566   0.402   2.982  1.4537  0.4827 -0.4476
 6803SOL     OW32041   0.792   3.380   7.828 -0.2869  0.3130 -0.4572
 6803SOL    HW132042   0.818   3.402   7.917 -0.5320  0.4912 -0.4293
 6803SOL    HW232043   0.824   3.290   7.829  0.1143  0.4730  2.0358
 6804SOL     OW32044   3.738   1.486   4.793  0.5422  0.2483  0.3636
 6804SOL    HW132045   3.715   1.517   4.880  0.7174 -1.1880  0.9311
 6804SOL    HW232046   3.739   1.567   4.742  1.7491  0.6374  1.0132
 6805SOL     OW32047   0.532   2.629   5.116  0.1860 -0.0025 -0.2413
 6805SOL    HW132048   0.572   2.705   5.074  0.6969  0.2817  0.7702
 6805SOL    HW232049   0.454   2.673   5.148 -0.9933 -1.4007 -1.1654
 6806SOL     OW32050   0.465   0.221   9.209 -0.2841  0.4589  0.3571
 6806SOL    HW132051   0.459   0.132   9.244  0.0849 -0.3104 -1.5260
 6806SOL    HW232052   0.383   0.251   9.247  0.1219  1.7459  0.2247
 6807SOL     OW32053   2.234   1.200   9.304 -0.4857 -0.0912 -0.0250
 6807SOL    HW132054   2.158   1.258   9.303 -1.5287 -1.4201  1.7703
 6807SOL    HW232055   2.255   1.193   9.211 -0.8001 -0.2607 -0.0846
 6808SOL     OW32056   0.522   3.740   8.068 -0.1612  0.2553 -0.0144
 6808SOL    HW132057   0.547   3.747   8.160  0.0601  1.2209 -0.1489
 6808SOL    HW232058   0.448   3.682   8.086  0.6374 -1.0123 -0.7821
 6809SOL     OW32059   2.588   0.529  15.157 -0.2732  0.6040 -0.2148
 6809SOL    HW132060   2.520   0.525  15.090 -1.0353  1.5067  0.5057
 6809SOL    HW232061   2.559   0.456  15.211 -1.4172  1.6284  0.5638
 6810SOL     OW32062   3.438   1.685  11.345  0.1700  0.0085  0.2604
 6810SOL    HW132063   3.345   1.679  11.323  0.2390  0.5980 -0.1877
 6810SOL    HW232064   3.469   1.720  11.262  1.5051  1.4066  1.3564
 6811SOL     OW32065   2.334   3.851   4.610 -0.3155  0.3466 -0.1783
 6811SOL    HW132066   2.354   3.835   4.517  0.0218 -0.6639  0.0710
 6811SOL    HW232067   2.244   3.881   4.604 -0.4891  0.1693  1.7831
 6812SOL     OW32068   2.897   3.067   6.335 -0.1652 -0.3331  0.0269
 6812SOL    HW132069   2.978   3.025   6.307  0.4266  1.0610 -0.3334
 6812SOL    HW232070   2.853   3.075   6.251  0.3482  0.1531 -0.1897
 6813SOL     OW32071   2.454   1.364  14.151  0.6651 -0.4496  0.2017
 6813SOL    HW132072   2.527   1.324  14.104  0.7149  0.2704 -0.3326
 6813SOL    HW232073   2.494   1.450  14.145 -1.5658  0.4557 -1.8453
 6814SOL     OW32074   3.326   2.285  11.513  0.1826 -0.4279 -0.5359
 6814SOL    HW132075   3.249   2.229  11.505  0.2128 -0.4687 -0.5412
 6814SOL    HW232076   3.394   2.220  11.496  0.8829 -0.4691  2.5251
 6815SOL     OW32077   3.795   1.988  10.847  0.8750  0.2797  0.4005
 6815SOL    HW132078   3.792   2.066  10.793  3.0006  0.1641  0.0989
 6815SOL    HW232079   3.713   1.992  10.895  0.7435  0.5040  0.1539
 6816SOL     OW32080   1.934   3.375   5.061  0.0705 -0.0378 -0.7274
 6816SOL    HW132081   1.987   3.433   5.115  1.2731 -1.2270 -0.6588
 6816SOL    HW232082   1.988   3.297   5.058 -0.0180 -0.0226 -2.3869
 6817SOL     OW32083   2.563   0.972   1.006  0.2171 -0.3133  0.6235
 6817SOL    HW132084   2.577   1.067   1.000 -0.5072 -0.0815  2.8995
 6817SOL    HW232085   2.501   0.968   1.078  1.0557 -0.7261  1.3302
 6818SOL     OW32086   2.466   2.068   8.091 -0.3270  0.2356 -0.3609
 6818SOL    HW132087   2.503   1.993   8.046 -2.8407 -1.2119 -0.0362
 6818SOL    HW232088   2.471   2.131   8.019 -0.4542  0.7296  0.0612
 6819SOL     OW32089   4.443   1.793   4.697 -0.5184  0.2811 -0.4810
 6819SOL    HW132090   4.451   1.830   4.785 -0.9635  0.4092 -0.4911
 6819SOL    HW232091   4.351   1.815   4.681 -0.4657 -0.2530 -1.4987
 6820SOL     OW32092   0.781   3.119  11.965 -0.8391 -0.0319  0.5929
 6820SOL    HW132093   0.859   3.066  11.948 -1.8759 -1.2027 -0.4641
 6820SOL    HW232094   0.766   3.070  12.046  0.9424  0.0350  0.9755
 6821SOL     OW32095   2.186   1.098   1.883 -0.2547 -0.4669 -0.3210
 6821SOL    HW132096   2.145   1.106   1.969  2.2718 -3.0585  1.1172
 6821SOL    HW232097   2.194   1.002   1.878  0.0687 -0.3660 -1.7539
 6822SOL     OW32098   0.799   4.209   4.994  0.0569 -0.1510 -0.5400
 6822SOL    HW132099   0.724   4.185   5.050 -1.5897  2.5511 -1.6031
 6822SOL    HW232100   0.864   4.146   5.025 -0.2557 -0.6194 -0.8280
 6823SOL     OW32101   0.046   4.728   6.786  0.3455  0.2296 -0.0500
 6823SOL    HW132102   4.710   4.675   6.762 -0.3575  1.6857 -1.0791
 6823SOL    HW232103   0.060   0.049   6.713 -0.0378  0.9258  0.4480
 6824SOL     OW32104   4.442   2.918  11.968 -0.3045  0.1888  0.0032
 6824SOL    HW132105   4.457   2.841  11.913 -0.2994 -1.2085  1.9483
 6824SOL    HW232106   4.398   2.875  12.041  1.4085  0.8970  1.4418
 6825SOL     OW32107   0.253   1.464  13.427 -0.2123  0.6039  0.1368
 6825SOL    HW132108   0.281   1.414  13.351  1.4999  0.7843  0.6392
 6825SOL    HW232109   0.331   1.500  13.469  0.6633 -1.5551  0.3338
 6826SOL     OW32110   2.958   0.765   2.053  0.8782 -0.0138 -0.3717
 6826SOL    HW132111   2.898   0.718   2.110  3.8508 -2.5613  0.6493
 6826SOL    HW232112   2.994   0.839   2.102 -0.9991  0.8172 -0.2403
 6827SOL     OW32113   2.667   2.631   2.324 -0.3272 -0.3916 -0.5391
 6827SOL    HW132114   2.637   2.598   2.409  0.7579  1.6359  0.6412
 6827SOL    HW232115   2.758   2.660   2.339  0.3224 -1.5074 -2.3310
 6828SOL     OW32116   0.955   0.492   6.081  0.0657  0.4617 -0.1142
 6828SOL    HW132117   1.004   0.561   6.036  1.0087  0.6913  1.2732
 6828SOL    HW232118   1.023   0.424   6.080 -0.5294 -0.1399  0.1080
 6829SOL     OW32119   3.179   1.947   6.499  0.2473 -0.2460 -0.2582
 6829SOL    HW132120   3.150   1.926   6.588 -0.8146 -1.7152 -0.9427
 6829SOL    HW232121   3.261   1.994   6.515  0.1656 -0.6078  1.2493
 6830SOL     OW32122   0.017   1.759  16.024 -0.2268  0.8082 -0.0219
 6830SOL    HW132123   0.014   1.737  15.931 -0.4203  0.4063  0.0792
 6830SOL    HW232124   4.669   1.788  16.047  0.5244  1.5862  1.8693
 6831SOL     OW32125   4.248   0.712  15.796 -0.4435  0.0796 -0.8164
 6831SOL    HW132126   4.231   0.685  15.887  1.7046  0.6184 -0.2709
 6831SOL    HW232127   4.277   0.801  15.813  1.7795 -1.1049  1.5226
 6832SOL     OW32128   2.576   4.023   2.942  0.1417  0.6685  0.2789
 6832SOL    HW132129   2.511   4.091   2.957 -0.3821 -0.1744  1.7528
 6832SOL    HW232130   2.551   3.999   2.853  0.9579 -0.3640  0.3276
 6833SOL     OW32131   0.962   2.968   5.028 -0.4632  0.4326 -0.0696
 6833SOL    HW132132   1.021   2.944   4.957 -1.1206  0.9183 -0.7924
 6833SOL    HW232133   1.012   2.945   5.106  1.6023 -0.0333 -1.5358
 6834SOL     OW32134   4.426   1.352   4.747 -0.1863  0.0955  0.0058
 6834SOL    HW132135   4.407   1.271   4.701 -1.0509  1.0348 -1.2774
 6834SOL    HW232136   4.364   1.415   4.711 -0.7106 -1.0616 -1.1016
 6835SOL     OW32137   3.077   1.740  14.514  0.0631  0.3557 -0.3335
 6835SOL    HW132138   3.057   1.833  14.509 -0.2486  0.3879  1.5995
 6835SOL    HW232139   3.032   1.714  14.594  0.8395  1.3926  0.4387
 6836SOL     OW32140   2.605   0.798   5.562 -0.4405  0.6104  0.2799
 6836SOL    HW132141   2.611   0.835   5.650  0.1585  1.7650 -0.2557
 6836SOL    HW232142   2.551   0.722   5.586  0.5382 -0.6185 -1.4311
 6837SOL     OW32143   1.854   1.130  13.804  0.2019  0.2906 -0.3144
 6837SOL    HW132144   1.848   1.192  13.877  0.5379  1.0707 -0.9453
 6837SOL    HW232145   1.768   1.089  13.798  0.9813 -1.5548  1.3457
 6838SOL     OW32146   4.286   2.302  16.500  0.0680 -0.1548  0.0364
 6838SOL    HW132147   4.290   2.239  16.572 -0.0596 -1.3615 -1.0129
 6838SOL    HW232148   4.366   2.351  16.516 -0.7686  1.6919 -1.3602
 6839SOL     OW32149   4.706   2.015  10.506 -0.0005 -0.2545 -0.5009
 6839SOL    HW132150   4.681   1.989  10.595  0.6812  0.5994 -0.0556
 6839SOL    HW232151   0.008   2.100  10.519 -1.4645  0.6590 -1.7447
 6840SOL     OW32152   0.650   2.276   5.340 -0.5012 -0.2604  0.8003
 6840SOL    HW132153   0.702   2.248   5.264 -0.2052 -0.2810  1.0106
 6840SOL    HW232154   0.572   2.304   5.292  0.0784  1.2793  0.7843
 6841SOL     OW32155   3.278   4.465   7.513 -0.0616 -0.2686  0.3472
 6841SOL    HW132156   3.314   4.386   7.554  1.4833  0.1660 -0.1816
 6841SOL    HW232157   3.354   4.520   7.494 -3.1387  3.7562 -0.1603
 6842SOL     OW32158   1.152   1.819   8.307  0.1121  0.4530 -0.0452
 6842SOL    HW132159   1.074   1.862   8.274  0.6278  0.7996 -0.8078
 6842SOL    HW232160   1.176   1.884   8.373  0.5992 -0.2284  0.4616
 6843SOL     OW32161   2.100   4.418  10.843  0.0059  0.1266 -0.0915
 6843SOL    HW132162   2.077   4.506  10.874  0.8146  0.1114  0.5584
 6843SOL    HW232163   2.177   4.413  10.900 -0.3852 -1.3046  0.3206
 6844SOL     OW32164   3.577   1.762   5.771  0.1593 -0.2164 -0.8912
 6844SOL    HW132165   3.641   1.799   5.831 -1.4045 -0.3639  0.8599
 6844SOL    HW232166   3.507   1.731   5.828 -0.4953  1.0857 -0.9801
 6845SOL     OW32167   1.388   0.524   9.762 -0.7390 -0.0324 -0.3059
 6845SOL    HW132168   1.381   0.465   9.838  2.0170  2.1902  1.6666
 6845SOL    HW232169   1.299   0.519   9.726 -1.4542  0.4335  1.3922
 6846SOL     OW32170   2.833   2.175   8.296  0.0892 -0.6848  0.2713
 6846SOL    HW132171   2.912   2.132   8.265  0.3402  0.6880 -0.9561
 6846SOL    HW232172   2.866   2.237   8.362  1.6720 -0.6217 -0.5978
 6847SOL     OW32173   3.303   3.227   2.984  0.2930  0.1341 -0.1456
 6847SOL    HW132174   3.309   3.154   2.923  1.5932 -0.8155  1.1305
 6847SOL    HW232175   3.223   3.207   3.033  0.9692 -1.6525  0.1998
 6848SOL     OW32176   2.229   0.339   8.154 -0.0309 -0.1094 -0.2144
 6848SOL    HW132177   2.211   0.367   8.244  0.8336  2.9177 -0.9964
 6848SOL    HW232178   2.312   0.293   8.163 -0.3439 -0.7082 -0.3843
 6849SOL     OW32179   0.050   1.727  11.959  0.4354  0.1017  0.5740
 6849SOL    HW132180   4.705   1.770  11.975  0.1810 -0.5476  0.9264
 6849SOL    HW232181   0.053   1.750  11.866 -0.5015  1.3854  0.8520
 6850SOL     OW32182   0.364   1.106   8.990  0.1889 -0.2875  0.2195
 6850SOL    HW132183   0.303   1.157   8.937 -0.2903 -1.8859 -0.7758
 6850SOL    HW232184   0.436   1.111   8.928 -0.7994 -0.7797 -0.9670
 6851SOL     OW32185   1.238   2.275   9.263 -0.0716 -0.2713  0.2532
 6851SOL    HW132186   1.170   2.248   9.201  0.9486 -0.4042 -0.8188
 6851SOL    HW232187   1.195   2.280   9.348  3.0036 -0.2297  1.7835
 6852SOL     OW32188   1.602   2.003   4.597 -0.3768  0.0699 -0.4691
 6852SOL    HW132189   1.647   2.061   4.659  0.0068  0.6810 -1.3175
 6852SOL    HW232190   1.521   1.998   4.648 -0.5863 -0.0102 -0.8109
 6853SOL     OW32191   3.484   3.259   3.398  0.3371 -0.3492 -0.7194
 6853SOL    HW132192   3.569   3.301   3.413 -0.0541  0.7388 -1.5450
 6853SOL    HW232193   3.486   3.214   3.483 -0.2197  0.1662 -0.4315
 6854SOL     OW32194   2.737   2.661   5.599  0.1768  0.2256 -0.1330
 6854SOL    HW132195   2.659   2.673   5.655  1.0270  1.1089  0.8740
 6854SOL    HW232196   2.762   2.573   5.627 -1.1561  0.8440  3.0403
 6855SOL     OW32197   1.889   4.618  10.909  0.2063  0.1092  0.4418
 6855SOL    HW132198   1.852   4.535  10.938  1.2214 -0.6308 -0.4122
 6855SOL    HW232199   1.816   4.662  10.865  1.2961  1.0289 -0.4702
 6856SOL     OW32200   0.934   3.997   2.325 -0.2960  0.2180  0.2686
 6856SOL    HW132201   1.029   3.993   2.312 -0.3547  0.2251 -0.1888
 6856SOL    HW232202   0.913   4.080   2.368  0.9623  0.4757  0.3916
 6857SOL     OW32203   2.097   2.077   6.819  0.2401  0.8297  0.3267
 6857SOL    HW132204   2.015   2.034   6.844  1.6968 -2.0685  0.1933
 6857SOL    HW232205   2.076   2.106   6.730  1.9155  2.9652  0.6396
 6858SOL     OW32206   2.342   1.533  17.372 -0.7850 -0.1453  0.2867
 6858SOL    HW132207   2.435   1.511  17.370 -0.8078 -0.3203  1.1674
 6858SOL    HW232208   2.328   1.545  17.466 -1.9678  0.2617  0.0664
 6859SOL     OW32209   4.291   4.165   8.284  0.1540  0.1736 -0.0052
 6859SOL    HW132210   4.289   4.248   8.237 -2.5431  0.0798 -0.0467
 6859SOL    HW232211   4.210   4.125   8.252  1.5741 -1.9282 -1.0068
 6860SOL     OW32212   1.895   4.733  11.278 -0.3925 -0.6489  0.6559
 6860SOL    HW132213   1.887   4.686  11.361  0.5173 -1.0861  0.5037
 6860SOL    HW232214   1.969   4.682  11.245 -0.0134  1.3523 -1.6250
 6861SOL     OW32215   2.781   2.048  14.957  0.2374  0.1192  0.5434
 6861SOL    HW132216   2.687   2.045  14.974  0.2216  2.3439  0.9027
 6861SOL    HW232217   2.783   2.129  14.905  1.4892 -0.7400 -0.7441
 6862SOL     OW32218   1.633   1.375   2.123  0.4638 -0.8847  0.1888
 6862SOL    HW132219   1.655   1.432   2.196 -1.3337  0.5637 -0.3983
 6862SOL    HW232220   1.713   1.385   2.072  0.8074  1.7452  1.2763
 6863SOL     OW32221   0.906   3.188  14.247 -0.0092  0.6551 -0.8840
 6863SOL    HW132222   0.874   3.104  14.213 -0.4000  1.6123 -2.8271
 6863SOL    HW232223   0.824   3.237  14.250 -1.2408 -1.4889  1.5056
 6864SOL     OW32224   0.796   4.601  13.236 -0.2446  0.1888 -0.0945
 6864SOL    HW132225   0.701   4.617  13.241 -0.6484 -1.1539 -3.3794
 6864SOL    HW232226   0.823   4.643  13.318  0.1859 -0.6546  0.1900
 6865SOL     OW32227   1.618   0.283   4.441  0.1583 -0.4294  0.0031
 6865SOL    HW132228   1.637   0.338   4.364  0.5685 -0.2928  0.2046
 6865SOL    HW232229   1.550   0.333   4.486 -1.6094 -1.7092 -1.2361
 6866SOL     OW32230   1.091   4.049  13.704  0.1343 -0.0058 -0.1132
 6866SOL    HW132231   1.002   4.076  13.728  0.1311 -2.7276  2.8877
 6866SOL    HW232232   1.106   4.116  13.637 -0.7843 -0.0016 -0.3216
 6867SOL     OW32233   0.131   1.176   8.563  0.4199  0.5380 -0.1549
 6867SOL    HW132234   0.134   1.130   8.478  0.1762  0.7588 -0.2822
 6867SOL    HW232235   0.051   1.218   8.533 -0.5199 -0.1161  1.4658
 6868SOL     OW32236   3.589   2.425  16.588  0.3284 -0.2766  0.0611
 6868SOL    HW132237   3.556   2.367  16.657 -2.4728  0.2132 -0.8862
 6868SOL    HW232238   3.607   2.505  16.636  0.3034  1.4891 -2.8753
 6869SOL     OW32239   2.418   0.298  15.533  0.3203  0.0791  0.3770
 6869SOL    HW132240   2.396   0.205  15.539 -0.5754  0.3056  0.7428
 6869SOL    HW232241   2.429   0.304  15.439  0.1155  1.0910  0.4127
 6870SOL     OW32242   2.488   3.928   3.351  0.2086  0.3489  0.0076
 6870SOL    HW132243   2.440   3.845   3.349 -0.2615  0.5976  0.8947
 6870SOL    HW232244   2.577   3.901   3.372  0.6984  2.0020  0.0046
 6871SOL     OW32245   1.853   0.170   3.131  0.2716  0.6785  0.5626
 6871SOL    HW132246   1.778   0.148   3.075  0.6801 -0.6224  0.5181
 6871SOL    HW232247   1.840   0.261   3.159 -0.1639  0.3043  1.5733
 6872SOL     OW32248   2.257   0.753   7.188 -0.6016 -0.0255 -0.1027
 6872SOL    HW132249   2.188   0.746   7.122 -0.8068  0.4710  0.0607
 6872SOL    HW232250   2.306   0.678   7.155 -0.4829  0.5347 -1.1998
 6873SOL     OW32251   1.682   0.858   5.766  0.2652  0.2967 -0.0399
 6873SOL    HW132252   1.660   0.820   5.851 -2.0867  3.7204  0.8795
 6873SOL    HW232253   1.596   0.883   5.733 -0.1769 -0.5880  0.4549
 6874SOL     OW32254   2.248   1.391  15.293  0.4388 -0.3860 -0.0438
 6874SOL    HW132255   2.259   1.481  15.322  0.8797 -0.9155  1.4425
 6874SOL    HW232256   2.284   1.378  15.205 -0.3826 -0.0225 -0.4309
 6875SOL     OW32257   0.182   0.867   3.319  0.3318  0.1776 -0.4327
 6875SOL    HW132258   0.244   0.806   3.281  2.8972  1.5830  1.4664
 6875SOL    HW232259   0.147   0.918   3.246  0.6477 -0.3986 -0.9817
 6876SOL     OW32260   0.152   1.858   9.042  0.2491  0.6018 -0.3703
 6876SOL    HW132261   0.122   1.944   9.013 -1.0471  0.8005  1.5366
 6876SOL    HW232262   0.073   1.806   9.026 -0.9936  1.5820  2.4723
 6877SOL     OW32263   2.954   1.331   1.584 -0.4111 -0.3477  0.1480
 6877SOL    HW132264   3.047   1.326   1.561 -0.8781  1.3084 -2.0849
 6877SOL    HW232265   2.914   1.354   1.500 -0.3462 -0.6800  0.0248
 6878SOL     OW32266   0.696   0.143   1.944 -0.1831  0.1042  0.4885
 6878SOL    HW132267   0.627   0.136   1.878 -0.4220 -0.4165  0.7860
 6878SOL    HW232268   0.763   0.184   1.891  0.5838 -1.4287  0.2617
 6879SOL     OW32269   1.668   1.282   2.544 -0.0600  0.4630  0.7151
 6879SOL    HW132270   1.674   1.378   2.545  2.2587  0.3339  0.8524
 6879SOL    HW232271   1.656   1.268   2.638 -0.0062 -3.4853  0.1156
 6880SOL     OW32272   1.710   3.041   4.223  0.0874 -0.4590  0.1845
 6880SOL    HW132273   1.713   3.137   4.222 -1.3417 -0.4231 -1.1399
 6880SOL    HW232274   1.788   3.021   4.170  0.2409 -0.3977  0.3859
 6881SOL     OW32275   2.738   0.478  10.884 -0.3552 -0.1713  0.0294
 6881SOL    HW132276   2.824   0.454  10.850 -0.0287 -0.8852  1.3722
 6881SOL    HW232277   2.687   0.398  10.872  0.1616 -0.5002  0.0360
 6882SOL     OW32278   2.599   4.389   2.891  0.1664  0.4045 -0.2281
 6882SOL    HW132279   2.597   4.392   2.987 -0.2546 -2.2396 -0.1377
 6882SOL    HW232280   2.508   4.398   2.865 -0.1484 -0.8669  0.4108
 6883SOL     OW32281   2.604   0.419   4.084  0.3431 -0.3930  0.0045
 6883SOL    HW132282   2.625   0.384   3.998  0.9456 -0.7789  0.3110
 6883SOL    HW232283   2.680   0.374   4.121  0.4473 -0.0402  0.2175
 6884SOL     OW32284   0.500   1.509  13.976  0.3231  0.2035 -0.4640
 6884SOL    HW132285   0.434   1.575  13.953  0.7060  0.0268 -2.0971
 6884SOL    HW232286   0.452   1.433  14.008 -0.2413  1.3409  1.3717
 6885SOL     OW32287   4.013   3.969   5.314 -0.4167 -0.2393 -0.1005
 6885SOL    HW132288   3.930   3.978   5.362 -1.4331  2.2938 -2.2956
 6885SOL    HW232289   4.074   3.980   5.387 -0.0043 -0.2333 -0.4461
 6886SOL     OW32290   3.291   0.868   2.216 -0.4230  0.2822  0.7704
 6886SOL    HW132291   3.293   0.787   2.164  0.4493 -0.0008  1.2393
 6886SOL    HW232292   3.209   0.858   2.266 -0.8738 -0.7250 -0.1718
 6887SOL     OW32293   2.889   0.021   6.903  0.3383  0.0062 -0.0630
 6887SOL    HW132294   2.794   0.021   6.912  0.4789  0.3296  1.5323
 6887SOL    HW232295   2.901   0.044   6.811 -1.0652  0.2791 -0.1692
 6888SOL     OW32296   0.280   3.377  14.850  0.5767  0.2918 -0.8743
 6888SOL    HW132297   0.202   3.430  14.869  0.8100  0.9533 -1.7907
 6888SOL    HW232298   0.334   3.391  14.928  0.5512 -0.8075 -0.6552
 6889SOL     OW32299   3.473   4.538   1.859  0.3231  0.2953  0.3050
 6889SOL    HW132300   3.392   4.544   1.910  1.4579 -0.9420  2.2704
 6889SOL    HW232301   3.451   4.503   1.773 -2.4958  0.1953  1.0668
 6890SOL     OW32302   4.708   2.971  15.890 -0.4917  0.2387  0.3656
 6890SOL    HW132303   4.712   3.061  15.922  0.7729  0.7339 -1.2222
 6890SOL    HW232304   0.020   2.977  15.810 -2.1749 -1.1382 -0.8296
 6891SOL     OW32305   4.505   3.807   2.522 -0.2078  0.0553 -0.2242
 6891SOL    HW132306   4.414   3.780   2.529 -0.4189 -0.3365 -4.6861
 6891SOL    HW232307   4.500   3.838   2.431  0.0562 -0.3941 -0.3939
 6892SOL     OW32308   4.725   1.066  16.262  0.4551  0.0320  0.3813
 6892SOL    HW132309   4.687   1.042  16.178  2.9032  1.9864 -1.2859
 6892SOL    HW232310   0.037   1.144  16.242 -0.5159  0.2453 -1.2584
 6893SOL     OW32311   1.488   1.993   6.415 -0.1608 -0.4624 -0.3860
 6893SOL    HW132312   1.503   1.929   6.485 -0.3038 -0.6697 -0.5457
 6893SOL    HW232313   1.433   2.052   6.467  0.8117 -0.5555  0.7798
 6894SOL     OW32314   1.232   2.668   5.963  0.1587  0.7350 -0.0398
 6894SOL    HW132315   1.301   2.724   5.925  0.8090  0.2783  0.4691
 6894SOL    HW232316   1.156   2.727   5.963 -0.2745  0.1662 -2.5021
 6895SOL     OW32317   0.857   1.412   2.903  0.2443  0.0383 -0.2309
 6895SOL    HW132318   0.796   1.342   2.924 -1.0906  2.0150  2.4914
 6895SOL    HW232319   0.932   1.392   2.959 -0.4516  1.6780  1.3088
 6896SOL     OW32320   3.558   2.543   6.495  1.0106 -0.1466 -0.1662
 6896SOL    HW132321   3.627   2.553   6.561  0.4913  1.2432  0.1468
 6896SOL    HW232322   3.579   2.455   6.462 -2.9558 -0.3926 -2.0220
 6897SOL     OW32323   1.207   1.521  17.239 -0.1011  0.4933 -0.4193
 6897SOL    HW132324   1.127   1.561  17.273 -0.1347  0.0251  0.0541
 6897SOL    HW232325   1.277   1.546  17.299 -2.9504  0.0440  3.1060
 6898SOL     OW32326   2.097   1.287   6.837  0.2567 -0.0957 -0.1668
 6898SOL    HW132327   2.155   1.234   6.892  0.1034 -1.6176 -1.4851
 6898SOL    HW232328   2.020   1.289   6.894  0.5157  1.4226  0.1387
 6899SOL     OW32329   1.558   0.203   4.769 -0.6762  0.0340  0.3931
 6899SOL    HW132330   1.574   0.109   4.781  1.6569  0.2070 -1.3572
 6899SOL    HW232331   1.522   0.214   4.857  0.4373  0.2604  0.8254
 6900SOL     OW32332   0.024   2.590  15.538 -0.0992  0.0845  0.0133
 6900SOL    HW132333   0.060   2.648  15.470  2.5777 -0.8850  0.6013
 6900SOL    HW232334   4.674   2.577  15.509 -0.8220 -1.5129  2.9894
 6901SOL     OW32335   4.733   4.651   4.880 -0.1824 -0.2771 -0.1828
 6901SOL    HW132336   4.666   4.661   4.812  0.1978  0.7416 -0.4158
 6901SOL    HW232337   4.714   4.729   4.933  0.0507 -2.1245  2.5946
 6902SOL     OW32338   0.263   0.847  16.899 -0.1978 -0.1238 -0.3634
 6902SOL    HW132339   0.294   0.909  16.834 -2.5848 -0.5715 -1.9111
 6902SOL    HW232340   0.271   0.889  16.985  0.5331  2.2616 -1.6165
 6903SOL     OW32341   3.374   0.502   0.657  0.3251  0.6333  0.0472
 6903SOL    HW132342   3.468   0.505   0.637  0.3693 -0.7148  0.0276
 6903SOL    HW232343   3.366   0.429   0.718  0.5734  1.4824  1.0920
 6904SOL     OW32344   1.621   1.720  11.302  0.1624  0.3260 -0.1277
 6904SOL    HW132345   1.613   1.808  11.265 -3.2514 -0.1332 -0.4594
 6904SOL    HW232346   1.573   1.665  11.239  1.7103 -1.2819  0.0739
 6905SOL     OW32347   0.313   0.921  11.293  0.5970  0.3004  0.2456
 6905SOL    HW132348   0.220   0.913  11.316  0.3326 -2.5339 -1.7933
 6905SOL    HW232349   0.344   0.830  11.291  1.3237  0.6060 -1.7928
 6906SOL     OW32350   1.829   1.999  12.709 -0.0701  0.0506  0.3384
 6906SOL    HW132351   1.758   2.042  12.756 -1.2539 -1.9165  0.3252
 6906SOL    HW232352   1.857   1.937  12.777 -0.3157  0.4339  0.7920
 6907SOL     OW32353   4.707   0.760   5.544 -0.2606  0.1575  0.4823
 6907SOL    HW132354   0.049   0.747   5.591  0.0524  1.3405  0.2663
 6907SOL    HW232355   4.656   0.813   5.606 -1.1241 -1.0374  0.7942
 6908SOL     OW32356   1.794   3.948  16.088  0.0069 -0.3254  0.1255
 6908SOL    HW132357   1.719   3.985  16.041 -0.4863 -1.3402  0.1113
 6908SOL    HW232358   1.851   3.939  16.012  2.9022  0.9391  2.1694
 6909SOL     OW32359   4.598   0.661   5.303  0.4210 -0.9640  0.2965
 6909SOL    HW132360   4.637   0.710   5.376 -2.1290 -0.1102  1.1113
 6909SOL    HW232361   4.621   0.721   5.232  1.1889 -1.9687 -0.2949
 6910SOL     OW32362   1.538   0.830  13.464 -0.0654 -0.4291  0.1242
 6910SOL    HW132363   1.467   0.775  13.429  2.2344 -1.0712 -3.5688
 6910SOL    HW232364   1.587   0.855  13.385 -0.2621  1.8867  0.7324
 6911SOL     OW32365   4.216   3.200   9.275  0.8246 -0.2215  0.4009
 6911SOL    HW132366   4.253   3.139   9.340  2.4387  0.8425  0.4876
 6911SOL    HW232367   4.127   3.191   9.309  1.0202  0.7858  1.1830
 6912SOL     OW32368   3.525   0.137   0.442  0.1693  0.2458 -0.5677
 6912SOL    HW132369   3.588   0.203   0.413  1.4947 -1.5335 -1.7731
 6912SOL    HW232370   3.553   0.111   0.530 -0.5083  1.2353 -0.0662
 6913SOL     OW32371   0.517   3.317  12.212  0.9343 -0.2081 -0.3051
 6913SOL    HW132372   0.563   3.365  12.143  0.3358 -0.9046 -1.1859
 6913SOL    HW232373   0.464   3.393  12.238 -0.6877 -1.6085  0.4817
 6914SOL     OW32374   4.513   0.223   1.084  0.0806 -0.0482 -0.1084
 6914SOL    HW132375   4.507   0.143   1.033 -1.6572  0.7222 -1.1150
 6914SOL    HW232376   4.600   0.211   1.122 -1.5655 -1.0934  3.2950
 6915SOL     OW32377   0.389   2.650  15.936  0.6037 -0.4334 -0.1705
 6915SOL    HW132378   0.306   2.693  15.916  1.2683  0.3875 -1.2190
 6915SOL    HW232379   0.382   2.558  15.910 -0.8142 -0.4598  0.3122
 6916SOL     OW32380   0.964   2.670  15.791 -0.1921  0.7319 -0.1040
 6916SOL    HW132381   0.941   2.751  15.835  1.4100  0.5211  1.1201
 6916SOL    HW232382   0.909   2.610  15.842 -1.4597  2.4325  0.5307
 6917SOL     OW32383   3.677   3.313   7.872  0.6248  0.3934  0.0259
 6917SOL    HW132384   3.667   3.256   7.796 -2.2705  1.4339 -0.3648
 6917SOL    HW232385   3.677   3.246   7.941  0.0462  0.8232  0.4454
 6918SOL     OW32386   3.013   3.778   3.361 -0.4822 -0.1835  0.6191
 6918SOL    HW132387   2.951   3.784   3.289  0.2432  2.4092  0.2215
 6918SOL    HW232388   3.017   3.682   3.370  2.6115 -0.3194 -2.2929
 6919SOL     OW32389   0.199   3.876  10.748 -0.8442  0.0392 -0.2329
 6919SOL    HW132390   0.208   3.939  10.819  0.3657  0.5334 -0.8244
 6919SOL    HW232391   0.161   3.927  10.677  1.7154 -0.4561 -1.9434
 6920SOL     OW32392   0.013   2.275  10.531 -0.2246  0.0828  0.4721
 6920SOL    HW132393   4.660   2.298  10.520 -0.3307 -0.2370  0.6883
 6920SOL    HW232394   0.046   2.362  10.506  1.1773 -0.2044  1.3251
 6921SOL     OW32395   1.912   3.007   3.619 -0.0631 -0.0665 -0.3555
 6921SOL    HW132396   1.992   3.020   3.568  2.1369  0.1096  3.1675
 6921SOL    HW232397   1.938   2.964   3.700 -0.6886  0.9479  0.3858
 6922SOL     OW32398   2.015   3.677   3.463  0.1404 -0.7799  0.0698
 6922SOL    HW132399   2.071   3.695   3.388  0.2553  1.7103  0.7401
 6922SOL    HW232400   1.942   3.737   3.446  0.8628  0.8305  2.6295
 6923SOL     OW32401   3.993   3.089   1.581  0.3031  0.2563  0.1777
 6923SOL    HW132402   4.083   3.070   1.608  0.9229  0.3242 -1.7953
 6923SOL    HW232403   4.014   3.127   1.495  0.7729  1.1259  0.6835
 6924SOL     OW32404   4.353   3.667   2.827  0.5425  0.1193 -0.0023
 6924SOL    HW132405   4.315   3.739   2.777  0.5295  1.0464  1.3356
 6924SOL    HW232406   4.278   3.607   2.819  1.0848 -0.6812  0.8588
 6925SOL     OW32407   4.170   2.766   3.369  0.6375 -0.6875  0.4419
 6925SOL    HW132408   4.112   2.741   3.440  1.9912 -1.3874  1.3023
 6925SOL    HW232409   4.131   2.853   3.370  1.3083 -0.4041  1.2549
 6926SOL     OW32410   0.244   2.409   4.894 -0.0794 -0.3826 -0.2268
 6926SOL    HW132411   0.193   2.334   4.924  2.5436 -2.3358 -0.6229
 6926SOL    HW232412   0.282   2.384   4.810  1.9565 -0.1082  0.6049
 6927SOL     OW32413   2.480   0.599   9.687  0.6518  0.3636  0.3593
 6927SOL    HW132414   2.386   0.611   9.674  0.5828 -0.7295 -0.1601
 6927SOL    HW232415   2.494   0.665   9.755  2.8386 -1.4363  1.6793
 6928SOL     OW32416   3.575   2.555   8.741 -0.6622 -0.4108  0.0759
 6928SOL    HW132417   3.661   2.587   8.767 -1.9278  2.8446  0.2264
 6928SOL    HW232418   3.566   2.496   8.815 -1.1562 -1.2363 -0.6363
 6929SOL     OW32419   1.511   3.891   5.621  0.1310 -0.2877  0.2623
 6929SOL    HW132420   1.416   3.885   5.611  0.2785 -4.1181  1.0246
 6929SOL    HW232421   1.541   3.890   5.530 -1.6619 -0.5404 -0.3214
 6930SOL     OW32422   3.867   1.650   1.425  0.1487  0.0551 -0.0551
 6930SOL    HW132423   3.855   1.743   1.440 -1.5862 -0.4694  1.9000
 6930SOL    HW232424   3.779   1.634   1.388  0.6448 -2.4254 -0.1716
 6931SOL     OW32425   4.053   3.555   7.557  0.3015 -0.5390 -0.5149
 6931SOL    HW132426   3.965   3.565   7.595 -0.0901  0.2304 -1.6263
 6931SOL    HW232427   4.048   3.540   7.463 -5.3280 -0.2987 -0.2856
 6932SOL     OW32428   0.549   4.263   1.431  0.6625 -0.0927  0.4971
 6932SOL    HW132429   0.479   4.321   1.401 -0.5421 -1.2176  1.1075
 6932SOL    HW232430   0.538   4.190   1.371 -2.3747 -0.3858  1.3745
 6933SOL     OW32431   3.654   2.110   5.723 -0.1716 -0.1619 -0.0506
 6933SOL    HW132432   3.686   2.194   5.757  1.6820 -0.6437 -0.5920
 6933SOL    HW232433   3.737   2.076   5.690  0.2999 -0.7759  1.8276
 6934SOL     OW32434   2.860   1.793   0.932 -0.6272  0.1081 -0.3088
 6934SOL    HW132435   2.795   1.769   0.866 -0.3225 -0.5792 -0.3629
 6934SOL    HW232436   2.928   1.739   0.890 -1.2827  0.8387 -2.3190
 6935SOL     OW32437   2.084   3.397   7.109  0.4956  0.0199 -0.1072
 6935SOL    HW132438   2.167   3.352   7.126  0.1477  0.0702  1.6794
 6935SOL    HW232439   2.059   3.358   7.025  0.9831  1.8838 -1.1269
 6936SOL     OW32440   4.013   1.111   5.097  0.8817  0.0840  0.0505
 6936SOL    HW132441   4.033   1.169   5.024 -2.5765  0.9874 -0.2148
 6936SOL    HW232442   3.939   1.058   5.065  0.2652  0.1003  1.4274
 6937SOL     OW32443   3.319   0.114   4.595  0.1288 -0.9303  0.2801
 6937SOL    HW132444   3.322   0.043   4.531  1.0884 -1.3936  0.8350
 6937SOL    HW232445   3.369   0.082   4.670  0.7242 -1.1753 -0.2267
 6938SOL     OW32446   3.244   0.549   1.037 -0.2406  0.4518 -0.2049
 6938SOL    HW132447   3.327   0.581   1.072 -0.6926  0.9444  0.4092
 6938SOL    HW232448   3.192   0.629   1.032  1.0083  1.1866 -1.5639
 6939SOL     OW32449   2.180   3.684   2.820  0.2047 -0.1845 -0.1932
 6939SOL    HW132450   2.156   3.757   2.763 -0.1721  0.7758  1.2141
 6939SOL    HW232451   2.099   3.633   2.817 -0.3407  0.7214 -0.9035
 6940SOL     OW32452   4.649   1.734  10.789  0.2061  0.6624  0.4709
 6940SOL    HW132453   4.581   1.770  10.847 -2.8239 -0.0474 -2.6538
 6940SOL    HW232454   4.612   1.647  10.777  2.3559  0.1158 -2.3071
 6941SOL     OW32455   1.294   3.691   4.143 -0.0122 -0.3604  0.1344
 6941SOL    HW132456   1.292   3.734   4.057  0.6314  0.7217  0.6589
 6941SOL    HW232457   1.252   3.759   4.196  2.8137  1.3974  0.0818
 6942SOL     OW32458   2.173   1.729   9.923 -0.4301 -0.5753  0.1635
 6942SOL    HW132459   2.134   1.655   9.969 -4.1214  0.3376 -1.5228
 6942SOL    HW232460   2.220   1.680   9.856 -2.7893 -1.0119 -1.1343
 6943SOL     OW32461   3.815   3.352  16.179  0.2209 -0.0656 -0.3439
 6943SOL    HW132462   3.851   3.270  16.144  0.9811 -0.1628  0.6646
 6943SOL    HW232463   3.804   3.334  16.272 -0.6189 -0.4826 -0.5285
 6944SOL     OW32464   3.102   3.376   8.838 -0.5579  0.3435 -0.3866
 6944SOL    HW132465   3.089   3.282   8.821  2.2762 -0.1603  0.2996
 6944SOL    HW232466   3.013   3.413   8.835  0.0899  1.8263 -1.1482
 6945SOL     OW32467   2.558   1.812   9.673  0.0214 -0.6796  0.3646
 6945SOL    HW132468   2.592   1.799   9.585  1.3288  1.6376  0.5061
 6945SOL    HW232469   2.618   1.751   9.715 -1.6950 -0.9327  2.4291
 6946SOL     OW32470   2.444   0.387   4.294 -0.4408  0.2651  0.2875
 6946SOL    HW132471   2.473   0.395   4.203 -0.2456 -1.2349  0.2224
 6946SOL    HW232472   2.487   0.462   4.334  1.4580 -1.1754  0.9390
 6947SOL     OW32473   1.125   0.733   3.451  0.5822 -0.3781  0.0622
 6947SOL    HW132474   1.200   0.701   3.403  1.1665 -0.6080  1.1253
 6947SOL    HW232475   1.144   0.721   3.544 -1.9342  1.5664  0.8268
 6948SOL     OW32476   0.712   0.589   6.175  0.4615  0.1161  0.5283
 6948SOL    HW132477   0.807   0.590   6.177  0.4522 -1.0628  1.8643
 6948SOL    HW232478   0.690   0.651   6.105 -2.1537 -0.5313  0.7699
 6949SOL     OW32479   4.661   2.741   3.420 -0.4908  0.5933 -0.5950
 6949SOL    HW132480   4.610   2.789   3.486  3.1674  2.1089  1.1563
 6949SOL    HW232481   4.595   2.674   3.406 -0.6381  0.4249  0.8596
 6950SOL     OW32482   4.428   1.744   3.392  0.0989 -0.3091  0.4420
 6950SOL    HW132483   4.369   1.794   3.449  1.3791  0.3974  1.1405
 6950SOL    HW232484   4.484   1.698   3.454  1.5253 -0.2016 -0.7760
 6951SOL     OW32485   0.899   1.186   8.480 -0.5063 -0.3480 -0.0835
 6951SOL    HW132486   0.969   1.183   8.545  1.1144  1.4186 -1.7627
 6951SOL    HW232487   0.896   1.094   8.455  1.4586 -0.5792  0.5722
 6952SOL     OW32488   3.312   2.928   4.983  0.0189 -0.3634 -0.2191
 6952SOL    HW132489   3.313   2.997   5.051  2.1227 -0.1725 -0.4332
 6952SOL    HW232490   3.225   2.928   4.945  0.8166  1.0669 -2.0672
 6953SOL     OW32491   2.213   2.421   2.379  0.1100  0.0108 -0.1976
 6953SOL    HW132492   2.130   2.373   2.369  1.1668 -1.8697 -0.0502
 6953SOL    HW232493   2.190   2.513   2.390  0.3803 -0.0418  0.8220
 6954SOL     OW32494   4.315   4.379  16.944 -0.0479 -0.2702  0.2084
 6954SOL    HW132495   4.239   4.333  16.909 -0.0363  0.5112 -0.8250
 6954SOL    HW232496   4.315   4.469  16.914  0.0557  0.6360  2.8893
 6955SOL     OW32497   0.287   3.576   6.486  0.3241  0.0924  0.1938
 6955SOL    HW132498   0.261   3.668   6.486 -0.7333 -0.2145  2.4314
 6955SOL    HW232499   0.381   3.587   6.503 -0.0288  1.8116  1.0501
 6956SOL     OW32500   0.719   0.474   7.971  0.0255  0.8075  0.3042
 6956SOL    HW132501   0.814   0.479   7.982  0.2855 -1.5517 -0.9040
 6956SOL    HW232502   0.719   0.434   7.884  0.4800  0.7897  0.3142
 6957SOL     OW32503   4.441   0.892   5.339  0.6005  0.5040  0.1808
 6957SOL    HW132504   4.362   0.929   5.300  2.0313  1.6525 -1.6065
 6957SOL    HW232505   4.454   0.814   5.285 -1.4049  1.2276 -1.3355
 6958SOL     OW32506   0.447   4.055  12.175  0.0303 -0.9968  0.0870
 6958SOL    HW132507   0.521   4.115  12.183 -1.2633  0.3448  2.0770
 6958SOL    HW232508   0.426   4.043  12.268  0.8913 -0.5236  0.3410
 6959SOL     OW32509   2.259   3.191   9.142  0.0504  0.5481 -0.3473
 6959SOL    HW132510   2.262   3.279   9.180  1.1131  0.8852 -1.2067
 6959SOL    HW232511   2.182   3.202   9.086  0.8074 -1.2745 -1.7204
 6960SOL     OW32512   2.410   2.511   1.867 -0.5514  0.1871 -0.0696
 6960SOL    HW132513   2.502   2.500   1.891 -0.8814 -0.1751  1.0432
 6960SOL    HW232514   2.382   2.477   1.952 -0.9819  0.9955  0.1138
 6961SOL     OW32515   1.447   0.337   7.629  0.3880 -0.0592  0.2011
 6961SOL    HW132516   1.496   0.381   7.560 -0.3911  1.6401  0.7242
 6961SOL    HW232517   1.472   0.246   7.612 -2.9802 -1.0269  0.4849
 6962SOL     OW32518   3.615   1.149   4.600  0.2052  0.7668 -0.0075
 6962SOL    HW132519   3.531   1.147   4.555  0.6306 -1.7638 -0.6732
 6962SOL    HW232520   3.623   1.240   4.627  0.4716  0.4481  1.0258
 6963SOL     OW32521   3.086   0.977   7.515 -0.2671 -0.8989  0.1443
 6963SOL    HW132522   3.168   1.026   7.501 -0.3657 -1.0968 -1.1223
 6963SOL    HW232523   3.103   0.934   7.599 -1.3746 -1.3935  0.1037
 6964SOL     OW32524   3.834   2.643   8.819 -0.0194 -0.5114  0.4693
 6964SOL    HW132525   3.929   2.631   8.819 -0.0970 -1.1614 -3.5945
 6964SOL    HW232526   3.826   2.676   8.908 -0.6673 -0.6067  0.4431
 6965SOL     OW32527   3.146   0.897   6.236  0.0161 -0.1868  0.1650
 6965SOL    HW132528   3.240   0.916   6.245 -0.3611  1.1936  1.1215
 6965SOL    HW232529   3.140   0.803   6.251 -0.8126 -0.3486 -1.2126
 6966SOL     OW32530   3.857   1.508   8.906  0.4413 -0.2659  0.9904
 6966SOL    HW132531   3.953   1.500   8.902  0.5818  1.1703  1.4838
 6966SOL    HW232532   3.849   1.564   8.983  0.1863  2.1652 -0.7848
 6967SOL     OW32533   3.801   0.559   5.325 -0.2129  0.1180 -0.2950
 6967SOL    HW132534   3.887   0.558   5.368 -1.1004  1.1105  1.4825
 6967SOL    HW232535   3.737   0.581   5.393  1.7983 -0.5532  1.8260
 6968SOL     OW32536   1.654   4.343   6.338 -0.2978 -0.2074  0.1439
 6968SOL    HW132537   1.675   4.378   6.252 -0.1414  1.3612  0.8202
 6968SOL    HW232538   1.565   4.365   6.366 -1.1621 -1.3865 -1.7089
 6969SOL     OW32539   1.960   1.747  12.838  0.4179  0.0709 -0.2650
 6969SOL    HW132540   1.986   1.663  12.801  2.8955 -0.4565  2.7052
 6969SOL    HW232541   1.922   1.729  12.924 -1.3830  0.8038 -0.9067
 6970SOL     OW32542   4.439   2.636  10.353 -0.4888  0.5334  0.1384
 6970SOL    HW132543   4.532   2.624  10.371 -0.7717 -0.2740  1.0416
 6970SOL    HW232544   4.416   2.565  10.293  0.2201 -0.4017  0.9744
 6971SOL     OW32545   4.428   3.285  16.617 -0.0380  0.3219  0.0860
 6971SOL    HW132546   4.451   3.229  16.691 -0.6159 -2.9267 -2.1927
 6971SOL    HW232547   4.410   3.223  16.547 -2.7279 -1.1839  2.1286
 6972SOL     OW32548   0.025   1.516   5.769  0.4687 -0.1390  0.6664
 6972SOL    HW132549   4.720   1.461   5.705 -2.0265  0.7656  1.6523
 6972SOL    HW232550   0.066   1.584   5.716 -1.3199  0.5113  0.1190
 6973SOL     OW32551   2.857   1.453   1.310 -0.5280 -0.1041 -0.3399
 6973SOL    HW132552   2.930   1.424   1.255  1.6789  3.2746  0.7663
 6973SOL    HW232553   2.825   1.534   1.271  1.6787  1.1514  0.4021
 6974SOL     OW32554   2.682   0.564   7.009 -0.3875  0.0610 -0.3775
 6974SOL    HW132555   2.642   0.487   7.048  0.3707  0.7128  1.6949
 6974SOL    HW232556   2.633   0.636   7.048 -1.0902  0.4600 -1.9936
 6975SOL     OW32557   0.142   3.344   9.823  0.4523 -0.2294  0.0152
 6975SOL    HW132558   0.189   3.424   9.798 -0.5261  0.1519 -0.5893
 6975SOL    HW232559   0.161   3.338   9.917  1.2925 -1.1137 -0.2162
 6976SOL     OW32560   2.787   0.998   3.455 -0.0493 -0.0635  0.1756
 6976SOL    HW132561   2.703   1.021   3.495  0.4961  0.6852  0.8835
 6976SOL    HW232562   2.766   1.035   3.369  1.9906 -2.4185 -1.3560
 6977SOL     OW32563   3.773   1.492   6.605 -0.2158 -0.0708 -0.2729
 6977SOL    HW132564   3.826   1.508   6.527  2.1127  1.2905  1.5706
 6977SOL    HW232565   3.776   1.579   6.646 -1.7105 -0.0356 -0.2534
 6978SOL     OW32566   4.196   1.791   5.277  0.5804 -0.4200 -0.0327
 6978SOL    HW132567   4.247   1.845   5.337 -2.2083  3.3290 -1.0356
 6978SOL    HW232568   4.253   1.785   5.200  1.4842 -0.2642  0.6385
 6979SOL     OW32569   0.377   1.483   2.441 -0.0236  0.0207  0.7848
 6979SOL    HW132570   0.442   1.531   2.492 -0.9155  1.8345  0.2061
 6979SOL    HW232571   0.405   1.392   2.448  1.4120  0.4133  0.0856
 6980SOL     OW32572   3.707   3.263   5.519  0.2443  0.2317  0.0477
 6980SOL    HW132573   3.620   3.225   5.510  0.4872 -0.3792  0.2886
 6980SOL    HW232574   3.764   3.192   5.489 -1.2126 -0.8618 -0.1252
 6981SOL     OW32575   1.658   2.429  17.729  0.0119  0.3471 -0.4360
 6981SOL    HW132576   1.681   2.336  17.723  1.2661  0.7574 -1.8157
 6981SOL    HW232577   1.568   2.426  17.697  0.9900 -3.4023 -2.8695
 6982SOL     OW32578   0.195   2.210   4.252  0.1727 -0.3216 -0.4029
 6982SOL    HW132579   0.153   2.220   4.337 -1.5393  0.8668 -1.3701
 6982SOL    HW232580   0.186   2.115   4.250  0.0423 -0.2819 -1.7279
 6983SOL     OW32581   0.184   4.286  10.702  0.1223 -0.3075  0.1789
 6983SOL    HW132582   0.270   4.246  10.707 -0.2507 -1.4100 -2.3341
 6983SOL    HW232583   0.138   4.252  10.625 -2.5081 -1.1597  2.1121
 6984SOL     OW32584   3.625   1.206   2.875  0.4463 -0.0377  0.3749
 6984SOL    HW132585   3.610   1.294   2.843 -0.1865  0.1838  1.2863
 6984SOL    HW232586   3.721   1.209   2.881  0.3488  1.6872  0.9657
 6985SOL     OW32587   0.201   0.896   5.764 -0.0576  0.4705 -0.2619
 6985SOL    HW132588   0.253   0.915   5.686  1.7567  1.7642  1.2467
 6985SOL    HW232589   0.130   0.960   5.755 -1.7777 -1.8856 -3.2330
 6986SOL     OW32590   1.521   3.234   8.787  0.1281 -0.2305  0.3170
 6986SOL    HW132591   1.509   3.153   8.736  1.3024 -0.5731  0.5877
 6986SOL    HW232592   1.579   3.194   8.852  1.5504 -0.8188 -1.2843
 6987SOL     OW32593   4.156   1.546   5.511 -0.1521  0.5889 -0.2940
 6987SOL    HW132594   4.161   1.505   5.598  1.6648  0.3378 -0.5187
 6987SOL    HW232595   4.244   1.528   5.478 -0.4956  1.3096 -1.6142
 6988SOL     OW32596   3.351   4.565   9.109 -0.9912  0.2113  0.2297
 6988SOL    HW132597   3.275   4.531   9.061 -1.0184  0.6407 -0.0370
 6988SOL    HW232598   3.320   4.571   9.199 -1.4941  1.4189 -0.0100
 6989SOL     OW32599   4.073   1.649  17.652  0.3073 -0.2486  0.8279
 6989SOL    HW132600   4.008   1.611  17.593  2.6283 -3.4041  0.2948
 6989SOL    HW232601   4.113   1.571  17.689 -1.4755 -1.3021  0.5093
 6990SOL     OW32602   0.727   2.703   2.491 -0.0706  0.4845 -0.2177
 6990SOL    HW132603   0.723   2.734   2.581 -0.4154 -0.9194  0.2480
 6990SOL    HW232604   0.779   2.774   2.455 -1.2191  0.7196 -1.4078
 6991SOL     OW32605   3.329   0.437   1.730  0.1515  0.3839 -0.2153
 6991SOL    HW132606   3.256   0.416   1.788  0.6357  0.2686  0.3570
 6991SOL    HW232607   3.276   0.446   1.651 -0.8727 -0.9923  0.3195
 6992SOL     OW32608   2.334   2.784   1.891  0.8261  0.4666 -0.2909
 6992SOL    HW132609   2.261   2.757   1.947  1.0928 -0.4522 -0.3947
 6992SOL    HW232610   2.384   2.703   1.883 -0.0865 -0.2029  0.6105
 6993SOL     OW32611   3.023   2.239  11.626  0.1523 -0.0459  0.2075
 6993SOL    HW132612   2.978   2.162  11.591  0.4064  0.8468 -2.0955
 6993SOL    HW232613   2.982   2.308  11.575  0.4060  0.1529  0.2728
 6994SOL     OW32614   2.657   2.191  10.525 -0.0888  0.4887  0.4733
 6994SOL    HW132615   2.683   2.102  10.548 -1.1377  0.1013  0.1443
 6994SOL    HW232616   2.566   2.208  10.548 -0.1503 -2.2523  2.1445
 6995SOL     OW32617   4.050   1.639   6.198 -0.6788 -0.1459  0.0231
 6995SOL    HW132618   4.004   1.670   6.276  0.9386 -2.3159  1.8095
 6995SOL    HW232619   3.987   1.574   6.166  0.3911 -1.7790  1.2386
 6996SOL     OW32620   1.749   1.073   4.365  0.3886 -0.3672  0.3376
 6996SOL    HW132621   1.821   1.042   4.421 -0.3534 -1.3158  0.7767
 6996SOL    HW232622   1.688   1.106   4.430  1.1610  0.6543  0.5452
 6997SOL     OW32623   0.324   3.299   6.425  0.1693  0.2400 -0.6193
 6997SOL    HW132624   0.400   3.299   6.483 -0.1832  0.1862 -0.1590
 6997SOL    HW232625   0.288   3.386   6.441 -2.3832 -0.6939 -1.3613
 6998SOL     OW32626   3.054   3.468  11.722 -0.3913 -0.0707  0.1775
 6998SOL    HW132627   3.008   3.540  11.766  1.5378  0.1222  1.8629
 6998SOL    HW232628   3.073   3.414  11.798  1.3850 -0.3173 -0.4427
 6999SOL     OW32629   1.153   0.591   5.697 -0.0479 -0.5672 -0.0709
 6999SOL    HW132630   1.180   0.649   5.769 -1.7904  1.6630 -1.2248
 6999SOL    HW232631   1.066   0.562   5.723 -1.1232  2.5094 -0.2003
 7000SOL     OW32632   0.341   0.733   5.372  0.3135  0.2428 -0.1447
 7000SOL    HW132633   0.309   0.672   5.439  0.2120  0.6941  0.2104
 7000SOL    HW232634   0.375   0.670   5.308  1.2753  0.6815 -0.0598
 7001SOL     OW32635   0.438   3.279  13.694  0.1387 -0.1384 -0.6090
 7001SOL    HW132636   0.477   3.220  13.629  1.6000 -0.7972  0.8924
 7001SOL    HW232637   0.383   3.215  13.740  1.1136  0.2283  1.0363
 7002SOL     OW32638   0.582   0.702   7.908 -0.0490 -0.5040 -0.3411
 7002SOL    HW132639   0.626   0.722   7.825  0.1357  0.0352 -0.1076
 7002SOL    HW232640   0.621   0.620   7.940 -1.9874 -1.0892  0.4875
 7003SOL     OW32641   1.917   1.715   4.938  0.4280  0.1153 -0.0915
 7003SOL    HW132642   1.940   1.738   5.028  0.8919  0.8451 -0.4017
 7003SOL    HW232643   1.913   1.621   4.957 -0.3728  0.0989 -0.3218
 7004SOL     OW32644   0.062   1.003   9.892 -0.0125  0.3512  0.5352
 7004SOL    HW132645   0.119   1.050   9.953 -0.0590  0.5670  0.4135
 7004SOL    HW232646   0.051   1.074   9.828  0.9221  1.5442  1.7143
 7005SOL     OW32647   0.910   1.796  15.253 -0.1211  0.7130 -0.2490
 7005SOL    HW132648   0.887   1.725  15.194 -3.6908  1.4357  0.2599
 7005SOL    HW232649   0.899   1.864  15.187 -2.1400 -2.2479 -2.9460
 7006SOL     OW32650   4.446   0.241   1.637  0.1001  0.8786 -0.6422
 7006SOL    HW132651   4.377   0.193   1.591  2.3417  2.1213 -5.2418
 7006SOL    HW232652   4.419   0.215   1.725  1.5465 -0.6031 -0.6395
 7007SOL     OW32653   3.646   4.645  17.008 -0.0618 -0.8275 -0.7429
 7007SOL    HW132654   3.569   4.640  17.064  0.8834 -1.9541  0.4672
 7007SOL    HW232655   3.618   4.653  16.917 -2.0649 -0.9340 -0.1296
 7008SOL     OW32656   1.928   3.757  13.897 -0.1680  0.1033 -0.3322
 7008SOL    HW132657   1.894   3.704  13.825  0.5733 -1.6572  0.6206
 7008SOL    HW232658   2.018   3.769  13.868 -0.0896  1.2783  0.3843
 7009SOL     OW32659   0.555   0.770   3.002  0.1720  0.5889  0.6480
 7009SOL    HW132660   0.555   0.693   2.945  3.1090  1.1888 -0.1514
 7009SOL    HW232661   0.608   0.830   2.949  0.1367 -0.2927 -0.4052
 7010SOL     OW32662   0.751   2.675  12.081 -0.4184  0.0777 -0.0142
 7010SOL    HW132663   0.734   2.767  12.098  1.5657  0.8683 -2.3859
 7010SOL    HW232664   0.683   2.665  12.015  0.8627 -1.6714 -1.0590
 7011SOL     OW32665   2.901   1.685   4.175 -0.3019 -0.0413  0.2759
 7011SOL    HW132666   2.833   1.742   4.140 -0.5682 -0.4164  0.1936
 7011SOL    HW232667   2.936   1.646   4.095 -0.7566  0.2252 -0.0523
 7012SOL     OW32668   4.719   1.200  14.027 -0.1730 -0.4995  0.4143
 7012SOL    HW132669   0.052   1.207  13.966  0.8006 -0.2141  1.6156
 7012SOL    HW232670   4.663   1.254  13.971  1.3018 -1.4809 -2.0112
 7013SOL     OW32671   3.689   4.353   7.835  0.0426  0.1478  0.2124
 7013SOL    HW132672   3.676   4.447   7.822  0.7236  0.4497  1.6211
 7013SOL    HW232673   3.607   4.336   7.882  0.4708 -1.0224  0.5414
 7014SOL     OW32674   0.027   2.462   2.737  0.0715 -0.1360  0.6201
 7014SOL    HW132675   4.673   2.448   2.723  0.6110  0.5296 -3.5451
 7014SOL    HW232676   0.037   2.557   2.736  2.6587 -0.4351 -0.2497
 7015SOL     OW32677   1.122   0.893  13.512 -0.1238  0.1423  0.0523
 7015SOL    HW132678   1.160   0.943  13.584  1.0530 -3.2686  1.8104
 7015SOL    HW232679   1.057   0.954  13.476  0.8217 -1.3626 -4.1848
 7016SOL     OW32680   3.323   0.344   5.492  0.5203 -0.0256  0.0186
 7016SOL    HW132681   3.259   0.415   5.498  0.6238 -0.1862  3.0428
 7016SOL    HW232682   3.299   0.297   5.413  1.8043 -0.4098 -0.1484
 7017SOL     OW32683   1.854   1.742   6.529  0.3411 -0.4881 -0.0969
 7017SOL    HW132684   1.846   1.655   6.569 -1.8769  0.2851  1.1072
 7017SOL    HW232685   1.761   1.748   6.507 -0.1663 -2.1343  1.6422
 7018SOL     OW32686   1.742   0.098  11.834  0.1460 -0.4883 -0.7000
 7018SOL    HW132687   1.761   0.015  11.792 -1.2903 -1.2565  0.1822
 7018SOL    HW232688   1.742   0.075  11.927 -0.9697  1.8397 -0.1013
 7019SOL     OW32689   0.333   2.964   6.688  0.0455  0.3488 -0.0828
 7019SOL    HW132690   0.424   2.994   6.700  0.4803 -1.8599  2.0393
 7019SOL    HW232691   0.298   3.046   6.653 -1.9387  0.3094  1.9071
 7020SOL     OW32692   2.722   4.249   7.169 -0.5779 -0.2409 -0.4000
 7020SOL    HW132693   2.681   4.190   7.232  0.6914  1.1717  1.7325
 7020SOL    HW232694   2.788   4.187   7.140  0.0049  0.4536 -0.5569
 7021SOL     OW32695   2.466   0.978   4.212 -0.1712  0.5135 -0.6820
 7021SOL    HW132696   2.431   0.892   4.190  0.2253  0.2565 -0.3045
 7021SOL    HW232697   2.473   1.003   4.120  0.7181 -0.2649 -0.8302
 7022SOL     OW32698   1.189   3.330   7.333 -0.1961  0.0282  0.2170
 7022SOL    HW132699   1.276   3.299   7.309  0.0385 -0.0059  1.1091
 7022SOL    HW232700   1.131   3.288   7.270  0.0122 -0.8293  0.5960
 7023SOL     OW32701   2.637   0.884   7.325  0.1400  0.2836  0.9200
 7023SOL    HW132702   2.554   0.931   7.317 -0.7523 -1.8971 -2.8333
 7023SOL    HW232703   2.686   0.931   7.257 -0.2844  1.9279  1.7547
 7024SOL     OW32704   1.059   3.699   7.854  0.4353 -0.8918 -0.0076
 7024SOL    HW132705   1.088   3.648   7.930 -1.9844  3.0314  3.5214
 7024SOL    HW232706   1.033   3.785   7.886  1.7232 -0.7541  0.7026
 7025SOL     OW32707   4.069   3.206   6.675 -0.1307 -0.1846 -0.4443
 7025SOL    HW132708   3.981   3.175   6.696  0.0317 -1.2133 -1.2721
 7025SOL    HW232709   4.099   3.155   6.600  1.0253  0.9599 -0.7650
 7026SOL     OW32710   1.091   0.046  13.738 -0.7133  0.1209  0.2365
 7026SOL    HW132711   1.160   0.109  13.758  0.7593 -0.8318 -1.7863
 7026SOL    HW232712   1.018   0.101  13.711  0.4481  1.9467  0.8674
 7027SOL     OW32713   1.038   1.108   2.283 -0.5041 -0.4682  0.1701
 7027SOL    HW132714   1.126   1.072   2.289 -0.2454 -0.1881 -2.1472
 7027SOL    HW232715   1.015   1.124   2.375 -2.9195  2.2429 -0.9122
 7028SOL     OW32716   0.257   3.647   9.398 -0.2077  0.2623  0.0560
 7028SOL    HW132717   0.318   3.573   9.393  1.7003  1.7813  0.7105
 7028SOL    HW232718   0.295   3.699   9.469 -1.7742 -0.6217  1.5512
 7029SOL     OW32719   1.859   3.407   0.883 -0.9977 -0.1896 -0.3213
 7029SOL    HW132720   1.820   3.416   0.796  0.2560 -0.1342 -0.8796
 7029SOL    HW232721   1.859   3.312   0.885  0.1134 -0.1556  1.4419
 7030SOL     OW32722   1.123   1.062   9.705 -0.2911  0.3013  0.0057
 7030SOL    HW132723   1.056   1.110   9.753  0.5138  1.2462  0.1849
 7030SOL    HW232724   1.181   1.133   9.678 -2.1253  1.1322 -1.7382
 7031SOL     OW32725   1.544   0.070   1.533 -0.4240  0.3482 -0.3267
 7031SOL    HW132726   1.531   0.000   1.597  0.6662 -0.4312 -0.9647
 7031SOL    HW232727   1.635   0.061   1.506  0.3520  0.6160  2.1462
 7032SOL     OW32728   4.462   4.651   2.236  0.5152  0.5390 -0.2648
 7032SOL    HW132729   4.470   4.567   2.191  1.7454  0.2230  0.5550
 7032SOL    HW232730   4.455   4.713   2.162  0.1496  0.9181  0.0861
 7033SOL     OW32731   3.707   3.226  15.285  0.0066  0.3167  0.2710
 7033SOL    HW132732   3.799   3.241  15.306 -0.2548 -0.3075  1.8336
 7033SOL    HW232733   3.682   3.311  15.249 -1.1529 -1.1694 -2.4182
 7034SOL     OW32734   1.759   3.489  10.421 -0.0120 -0.4816 -0.3787
 7034SOL    HW132735   1.706   3.548  10.367  0.8408  0.9684  0.3568
 7034SOL    HW232736   1.687   3.433  10.450 -0.6135  0.2500 -0.4426
 7035SOL     OW32737   4.422   0.935   4.389  0.5479 -0.0279  0.1072
 7035SOL    HW132738   4.402   0.845   4.361 -0.6154  0.6514 -1.2685
 7035SOL    HW232739   4.343   0.987   4.371 -1.6672 -3.3226  0.2634
 7036SOL     OW32740   1.726   2.614  11.443  0.6743 -0.2332  0.0387
 7036SOL    HW132741   1.734   2.709  11.441  0.1430 -0.2083 -0.7742
 7036SOL    HW232742   1.780   2.600  11.521  1.2536 -1.0365 -0.5018
 7037SOL     OW32743   3.469   1.298   7.282  0.2299  0.0162  0.1546
 7037SOL    HW132744   3.421   1.215   7.288  2.7066 -1.5043 -0.6946
 7037SOL    HW232745   3.556   1.269   7.309  0.5385  0.4254 -0.3922
 7038SOL     OW32746   3.617   0.936   4.802 -0.0259  0.1230 -0.2482
 7038SOL    HW132747   3.567   0.935   4.720 -1.3947  1.2842  0.5575
 7038SOL    HW232748   3.585   1.015   4.846 -0.1597 -0.7081  1.1399
 7039SOL     OW32749   2.123   1.790   6.446 -0.2464 -0.3301 -0.2352
 7039SOL    HW132750   2.148   1.770   6.536 -0.9345  2.9457  0.6951
 7039SOL    HW232751   2.030   1.775   6.462 -0.6584  0.2772 -2.0303
 7040SOL     OW32752   1.983   2.623   5.934 -0.5339 -0.0002  0.5228
 7040SOL    HW132753   1.909   2.682   5.950  2.6380  3.9614  0.7845
 7040SOL    HW232754   1.941   2.544   5.968 -2.1887  0.6356 -0.0531
 7041SOL     OW32755   0.363   3.587   5.742  0.0094 -0.4149  0.1483
 7041SOL    HW132756   0.356   3.673   5.783  1.2231  0.2499 -1.0590
 7041SOL    HW232757   0.452   3.570   5.773 -0.0144 -2.2582 -0.7932
 7042SOL     OW32758   4.458   1.429   8.770 -0.1031  0.1297 -0.6884
 7042SOL    HW132759   4.551   1.453   8.769 -0.5050  1.5666 -2.5410
 7042SOL    HW232760   4.437   1.478   8.850  0.9280  0.3868 -0.5659
 7043SOL     OW32761   2.596   0.309  15.824  0.5158 -0.0322  0.0583
 7043SOL    HW132762   2.636   0.346  15.745  0.3548  0.8982  0.4153
 7043SOL    HW232763   2.638   0.367  15.887  0.0933  0.2234  0.0990
 7044SOL     OW32764   3.487   3.433   2.162  0.3562  0.0760  0.0708
 7044SOL    HW132765   3.537   3.354   2.138 -0.6957 -0.7251  0.5190
 7044SOL    HW232766   3.542   3.455   2.238  3.6043 -1.4918 -1.8047
 7045SOL     OW32767   4.256   3.577   1.356  0.1004 -0.5704  0.0484
 7045SOL    HW132768   4.191   3.519   1.316 -0.6826 -0.8689  1.7140
 7045SOL    HW232769   4.291   3.528   1.431  1.7276  2.4443  1.2516
 7046SOL     OW32770   2.367   3.701   0.176 -0.4856  0.1553 -0.4772
 7046SOL    HW132771   2.343   3.793   0.180 -0.4164  0.0821  1.7779
 7046SOL    HW232772   2.389   3.687   0.084 -1.0718 -0.7717 -0.4795
 7047SOL     OW32773   4.426   3.581   0.297 -0.3107  0.3920  0.3273
 7047SOL    HW132774   4.347   3.599   0.246  0.3082  2.0063 -0.0456
 7047SOL    HW232775   4.448   3.499   0.252 -0.0974 -0.8772  2.7689
 7048SOL     OW32776   4.494   2.085   6.212  0.0097  0.3422  0.0546
 7048SOL    HW132777   4.497   1.989   6.205 -0.0937  0.1173  3.0853
 7048SOL    HW232778   4.585   2.112   6.197  0.8060 -1.5676  1.3690
 7049SOL     OW32779   3.160   1.054   9.431  0.5264  0.0349  0.4477
 7049SOL    HW132780   3.247   1.016   9.441 -0.6298 -3.0365 -1.1357
 7049SOL    HW232781   3.163   1.117   9.359  0.0781 -0.4109  0.0398
 7050SOL     OW32782   2.333   4.078   7.332  0.0220  0.0730 -0.1807
 7050SOL    HW132783   2.312   3.996   7.287  2.7570  0.1572 -1.6065
 7050SOL    HW232784   2.413   4.100   7.284 -0.0212  4.6320  1.8556
 7051SOL     OW32785   0.241   3.785   2.600 -0.1494  0.8579 -0.3649
 7051SOL    HW132786   0.290   3.703   2.604 -2.8479 -0.7499 -0.8333
 7051SOL    HW232787   0.235   3.781   2.504 -0.0369  1.7075 -0.4142
 7052SOL     OW32788   1.940   0.396   2.349  0.3096 -0.4713  0.1135
 7052SOL    HW132789   1.872   0.421   2.286  0.5002 -0.1761  0.0194
 7052SOL    HW232790   1.948   0.483   2.389  0.4105 -0.8012  0.8034
 7053SOL     OW32791   2.355   3.088   0.638  0.0081  0.6819  0.6265
 7053SOL    HW132792   2.413   3.145   0.589 -1.7223  0.9824 -1.0780
 7053SOL    HW232793   2.411   3.060   0.711  1.2907  0.1956 -0.5644
 7054SOL     OW32794   1.088   1.204   9.173 -0.5013  0.3237 -0.1953
 7054SOL    HW132795   1.139   1.281   9.198  0.3602 -0.2792 -0.0798
 7054SOL    HW232796   1.159   1.165   9.123 -0.4387  1.3043 -0.8559
 7055SOL     OW32797   0.073   3.287   4.127 -0.6536  0.6801 -0.2724
 7055SOL    HW132798   0.062   3.378   4.151 -0.7802  1.1307 -2.0213
 7055SOL    HW232799   0.168   3.277   4.128 -0.5338  1.5597 -2.3516
 7056SOL     OW32800   4.211   0.938   5.191  0.2682 -0.2567 -0.5534
 7056SOL    HW132801   4.152   1.008   5.163  0.0986 -0.9143 -1.8182
 7056SOL    HW232802   4.150   0.886   5.244  0.6379 -2.6483 -2.4732
 7057SOL     OW32803   3.855   1.019   7.335  0.1251 -0.4475  0.1757
 7057SOL    HW132804   3.885   1.059   7.417  0.0408  0.4295 -0.2170
 7057SOL    HW232805   3.870   0.928   7.360  2.2091 -0.4521 -1.0031
 7058SOL     OW32806   3.963   0.701   3.314  0.6177 -0.5412 -0.0709
 7058SOL    HW132807   3.958   0.609   3.287  0.8913  0.0572 -2.1846
 7058SOL    HW232808   3.951   0.752   3.233  1.8948  1.6012  1.0764
 7059SOL     OW32809   2.257   4.483   6.106 -0.1821 -0.3624 -0.2471
 7059SOL    HW132810   2.306   4.532   6.172  0.3449 -0.2326 -0.7347
 7059SOL    HW232811   2.247   4.545   6.034 -1.6458 -0.6259 -0.2599
 7060SOL     OW32812   4.589   2.522   3.864 -0.3055  0.0833 -0.1144
 7060SOL    HW132813   4.557   2.593   3.809 -0.2061 -1.3696 -2.0456
 7060SOL    HW232814   4.665   2.567   3.900 -0.6880  0.4558  0.2332
 7061SOL     OW32815   3.105   1.198   5.835  0.1788  0.1055 -0.3155
 7061SOL    HW132816   3.051   1.119   5.837  0.9987 -0.4473 -0.0010
 7061SOL    HW232817   3.092   1.224   5.744  1.0328 -2.4100 -1.1813
 7062SOL     OW32818   3.786   2.747   5.845 -1.0139  1.0167  0.3363
 7062SOL    HW132819   3.746   2.827   5.878 -0.0997  0.4360  2.8609
 7062SOL    HW232820   3.742   2.677   5.894 -1.4655  2.3564  1.8337
 7063SOL     OW32821   0.189   3.596   3.398 -0.3554 -0.9529 -0.2092
 7063SOL    HW132822   0.168   3.584   3.305  2.4414 -1.9181 -0.7147
 7063SOL    HW232823   0.275   3.557   3.386 -0.4077 -1.5315  1.2775
 7064SOL     OW32824   2.275   1.858   7.652 -0.3806  0.3947 -0.1437
 7064SOL    HW132825   2.191   1.871   7.695 -0.7827 -1.3230 -0.4248
 7064SOL    HW232826   2.315   1.799   7.717 -0.3927 -2.2042 -2.4820
 7065SOL     OW32827   0.943   2.978   9.108 -0.0138  0.3237 -0.2463
 7065SOL    HW132828   0.903   3.065   9.109 -3.1030 -1.0967 -1.0145
 7065SOL    HW232829   0.866   2.928   9.135  0.3173  0.4504  0.9579
 7066SOL     OW32830   2.055   0.359  10.286 -0.4437  0.2481 -0.2480
 7066SOL    HW132831   2.000   0.291  10.325 -1.0962  1.2839  0.6266
 7066SOL    HW232832   2.056   0.417  10.362 -0.2491  1.4715 -1.1696
 7067SOL     OW32833   2.177   1.870   8.252 -0.3125  0.0676 -0.0004
 7067SOL    HW132834   2.237   1.857   8.326  1.8302  0.5645 -1.6395
 7067SOL    HW232835   2.181   1.966   8.249 -0.2763  0.0295 -1.1268
 7068SOL     OW32836   1.949   0.534   8.698  0.0258 -0.2214 -0.3717
 7068SOL    HW132837   1.988   0.451   8.672  0.8474  0.1782 -0.4178
 7068SOL    HW232838   1.898   0.502   8.772  1.5467 -1.3887  0.1534
 7069SOL     OW32839   2.350   1.582   5.722  0.4913  0.0282  0.1984
 7069SOL    HW132840   2.399   1.630   5.788  1.5410  1.4770 -1.6562
 7069SOL    HW232841   2.290   1.650   5.692  0.4098  1.4964  3.6315
 7070SOL     OW32842   0.240   1.116   6.794 -0.4819 -0.2039  0.0674
 7070SOL    HW132843   0.158   1.114   6.842 -0.8892  3.9547 -0.4559
 7070SOL    HW232844   0.305   1.126   6.864  0.5857 -1.0147 -0.8013
 7071SOL     OW32845   0.526   4.523   7.427 -0.6804 -0.1249 -0.7126
 7071SOL    HW132846   0.610   4.570   7.433  0.6516 -2.1500 -3.4399
 7071SOL    HW232847   0.464   4.588   7.396 -1.9152 -1.0436 -0.1773
 7072SOL     OW32848   2.134   2.174   8.937 -0.1801  0.6862  0.5940
 7072SOL    HW132849   2.209   2.216   8.979  0.0589  0.5367  0.3115
 7072SOL    HW232850   2.065   2.199   8.999  0.2744  2.7503  0.2820
 7073SOL     OW32851   1.847   3.717   3.108  0.0567  0.4441  0.1674
 7073SOL    HW132852   1.799   3.797   3.128 -1.1575 -0.6705  1.7507
 7073SOL    HW232853   1.796   3.663   3.168  0.3070 -0.5113 -0.4857
 7074SOL     OW32854   1.833   2.474   2.624 -0.1541 -0.3548 -0.5012
 7074SOL    HW132855   1.785   2.555   2.636 -1.0150 -0.8039 -0.9245
 7074SOL    HW232856   1.803   2.421   2.698  1.4360 -1.9650 -0.9969
 7075SOL     OW32857   4.507   3.879   4.642 -0.2811  0.7737 -0.2603
 7075SOL    HW132858   4.557   3.915   4.569  0.6228 -3.5600 -1.7425
 7075SOL    HW232859   4.418   3.895   4.610  0.0192 -0.5509 -1.7837
 7076SOL     OW32860   0.027   3.694   1.390 -0.1530  0.2611 -0.5578
 7076SOL    HW132861   0.121   3.714   1.394  0.5147 -2.9609 -0.0871
 7076SOL    HW232862   4.728   3.770   1.346 -0.1905  0.3912 -0.2994
 7077SOL     OW32863   2.148   4.603   3.537 -0.2615 -0.2999  0.3983
 7077SOL    HW132864   2.068   4.583   3.488 -1.1716  0.9389  1.3787
 7077SOL    HW232865   2.218   4.547   3.505  0.4452  0.3342  0.8355
 7078SOL     OW32866   4.163   1.870   2.325  0.1489 -0.1347  0.6852
 7078SOL    HW132867   4.101   1.939   2.348  0.2488  0.4162 -0.7437
 7078SOL    HW232868   4.109   1.811   2.273  1.5424 -1.7698  1.0969
 7079SOL     OW32869   0.769   1.773   5.908 -0.1790  0.4193  0.3760
 7079SOL    HW132870   0.770   1.854   5.857  1.5154  0.7841  0.9708
 7079SOL    HW232871   0.730   1.803   5.990 -0.2036 -0.8816  0.8420
 7080SOL     OW32872   1.815   2.092   3.688  0.3530  0.4285  0.4572
 7080SOL    HW132873   1.881   2.058   3.748  1.3048 -2.5539 -2.2901
 7080SOL    HW232874   1.792   2.021   3.627 -1.6242  1.4801 -0.0359
 7081SOL     OW32875   0.301   3.630   1.460 -0.3586  0.5931 -0.6812
 7081SOL    HW132876   0.301   3.593   1.548  0.4852  0.5108 -0.7194
 7081SOL    HW232877   0.353   3.709   1.475 -0.2508  0.5006 -0.5749
 7082SOL     OW32878   0.100   4.253   2.845 -0.3062 -0.2543  0.0196
 7082SOL    HW132879   0.188   4.282   2.822 -0.3376  0.1002  0.3472
 7082SOL    HW232880   0.109   4.160   2.824 -0.5721 -0.9095  2.7054
 7083SOL     OW32881   4.708   3.749  14.827 -0.4213 -0.4204  0.1638
 7083SOL    HW132882   0.014   3.829  14.799 -1.9112  0.6746  0.8252
 7083SOL    HW232883   4.701   3.718  14.737  1.4263  0.3818 -0.2785
 7084SOL     OW32884   1.310   3.310   4.011 -0.0752 -0.2646  0.3436
 7084SOL    HW132885   1.356   3.320   4.095 -0.7463  0.1716  0.6629
 7084SOL    HW232886   1.378   3.352   3.959  0.8435 -1.0722  0.8886
 7085SOL     OW32887   3.410   3.093  10.224 -0.4575  0.4946 -0.3210
 7085SOL    HW132888   3.340   3.030  10.239  0.9657 -0.7890  0.9776
 7085SOL    HW232889   3.465   3.082  10.301 -1.1682 -2.1396 -0.1632
 7086SOL     OW32890   2.427   3.276  12.471 -0.1514 -0.1958 -0.6012
 7086SOL    HW132891   2.483   3.231  12.533  0.6937  0.8570 -0.5987
 7086SOL    HW232892   2.481   3.287  12.392  0.3306  0.1366 -0.2244
 7087SOL     OW32893   3.814   0.047   7.191 -0.0226 -0.3169  0.0367
 7087SOL    HW132894   3.843   0.018   7.277 -1.3959  3.9904  1.9499
 7087SOL    HW232895   3.804   0.141   7.205  0.4821 -0.1809 -0.5472
 7088SOL     OW32896   3.253   1.032   1.971  0.2915 -0.6362 -0.4886
 7088SOL    HW132897   3.284   0.992   2.052  0.1105  0.5952  0.1958
 7088SOL    HW232898   3.170   1.071   1.998  0.0121 -1.2734 -0.4299
 7089SOL     OW32899   0.854   2.862  15.966 -0.6759  0.2660  0.6458
 7089SOL    HW132900   0.779   2.824  16.013 -2.9853  3.0982 -0.7506
 7089SOL    HW232901   0.902   2.906  16.037 -2.7796  1.7901  1.1707
 7090SOL     OW32902   4.627   0.354   7.299 -0.1338  0.2397  0.2045
 7090SOL    HW132903   4.572   0.408   7.355  1.9344  1.9901  0.5414
 7090SOL    HW232904   4.696   0.408   7.260 -2.1999  0.4554 -3.1495
 7091SOL     OW32905   3.508   3.761   3.480 -0.0711 -0.0390 -0.4039
 7091SOL    HW132906   3.469   3.816   3.548 -1.4076 -1.2130 -0.2271
 7091SOL    HW232907   3.516   3.678   3.525 -1.9236 -0.3561 -0.6574
 7092SOL     OW32908   2.947   2.441  15.181  0.1156  0.6441  0.3551
 7092SOL    HW132909   2.910   2.377  15.241  1.7209  0.6411  1.3432
 7092SOL    HW232910   2.970   2.506  15.248 -0.4201 -0.5401  1.6761
 7093SOL     OW32911   3.316   1.032   9.965  0.0261  0.1418  0.2192
 7093SOL    HW132912   3.365   1.013   9.885 -0.1054 -1.7523  0.5785
 7093SOL    HW232913   3.224   1.041   9.943 -0.4017  0.9971  2.3586
 7094SOL     OW32914   2.796   0.309   4.472 -0.1249  0.2293  0.2495
 7094SOL    HW132915   2.851   0.388   4.465  1.2891 -0.8719 -1.0388
 7094SOL    HW232916   2.764   0.318   4.561 -1.8303  1.0778 -0.4512
 7095SOL     OW32917   4.650   3.972   3.059  0.6810  0.3431  0.0981
 7095SOL    HW132918   4.611   3.890   3.091 -0.3395  0.3658 -1.0943
 7095SOL    HW232919   4.626   3.966   2.966 -0.7221  1.9514  0.3501
 7096SOL     OW32920   2.012   3.931   1.061  0.4185 -0.1507 -0.2163
 7096SOL    HW132921   2.072   3.969   1.125  1.9289 -0.7855 -1.2643
 7096SOL    HW232922   2.075   3.890   1.002  0.8696  0.7945 -0.4028
 7097SOL     OW32923   3.702   4.645   6.237  0.7814 -0.0513 -0.3299
 7097SOL    HW132924   3.685   4.617   6.327  2.8242  1.3161  0.4646
 7097SOL    HW232925   3.744   4.565   6.206 -0.5940 -1.4182  1.3073
 7098SOL     OW32926   2.544   0.636   8.339  0.3425  0.1518 -0.2657
 7098SOL    HW132927   2.477   0.656   8.274 -0.8270 -0.2177  0.8389
 7098SOL    HW232928   2.583   0.556   8.303  1.4252  0.6869 -0.3118
 7099SOL     OW32929   3.070   4.109  16.807 -0.1657 -0.3131 -0.2350
 7099SOL    HW132930   3.120   4.107  16.888  0.6312  0.3315 -0.7115
 7099SOL    HW232931   2.982   4.133  16.836  0.4450  1.8840 -0.1922
 7100SOL     OW32932   3.171   3.264   7.088  0.1716  0.0885  0.5059
 7100SOL    HW132933   3.233   3.197   7.116  0.9322  0.7066  0.2742
 7100SOL    HW232934   3.157   3.301   7.175 -1.1788 -1.6388  1.0291
 7101SOL     OW32935   3.979   3.516  12.325 -0.0669  0.1113 -0.2655
 7101SOL    HW132936   4.035   3.588  12.297 -1.1425  0.8683 -0.4720
 7101SOL    HW232937   4.013   3.450  12.265 -1.1796  0.2990 -1.0936
 7102SOL     OW32938   1.808   2.563  10.291  0.7559  0.9704 -0.1635
 7102SOL    HW132939   1.777   2.574  10.380 -1.6794 -0.8771 -0.7959
 7102SOL    HW232940   1.726   2.573  10.243 -0.4297  1.0965  1.9005
 7103SOL     OW32941   3.982   2.887   7.340  0.6856 -0.0007  0.4831
 7103SOL    HW132942   4.015   2.974   7.317 -0.0241  1.0956  3.6440
 7103SOL    HW232943   4.016   2.841   7.263 -2.4654 -1.2588 -0.1503
 7104SOL     OW32944   1.317   4.364   8.195  0.1362 -0.5435 -0.3431
 7104SOL    HW132945   1.328   4.274   8.226  0.6829 -0.2139  0.4113
 7104SOL    HW232946   1.228   4.355   8.160  0.4350 -3.0716 -0.4492
 7105SOL     OW32947   0.468   3.964  13.373  0.6243  0.1671 -0.3270
 7105SOL    HW132948   0.561   3.949  13.358  0.4827 -2.4322  1.3976
 7105SOL    HW232949   0.431   3.900  13.312 -0.9815  0.4861  0.3105
 7106SOL     OW32950   2.094   3.653   5.825  0.1850  0.3397 -0.5805
 7106SOL    HW132951   2.029   3.642   5.895  0.7568 -2.2688 -0.4755
 7106SOL    HW232952   2.171   3.612   5.862 -0.8899 -1.4948 -0.3653
 7107SOL     OW32953   3.845   2.232   7.539  0.4361  0.6176  0.0706
 7107SOL    HW132954   3.880   2.311   7.580 -0.4741  0.1899  1.6709
 7107SOL    HW232955   3.907   2.165   7.569 -0.1268 -0.7022 -1.7380
 7108SOL     OW32956   0.244   0.679   8.883  0.1368 -0.0318  0.4580
 7108SOL    HW132957   0.247   0.586   8.860 -0.6473 -0.9570  3.9715
 7108SOL    HW232958   0.218   0.667   8.975 -0.0861 -2.4089  0.0976
 7109SOL     OW32959   4.598   0.844   2.856  0.1247  0.3899  0.1147
 7109SOL    HW132960   4.568   0.933   2.840  0.6982  1.3344  4.3931
 7109SOL    HW232961   4.583   0.837   2.950 -2.8430 -0.4674 -0.3993
 7110SOL     OW32962   2.431   2.324   7.629 -0.6949 -0.3697  0.0119
 7110SOL    HW132963   2.428   2.229   7.616 -1.4958 -0.4103  0.4795
 7110SOL    HW232964   2.337   2.340   7.641 -0.6284 -2.2575  3.1673
 7111SOL     OW32965   0.213   4.284  15.742 -0.6576  0.1837  0.4666
 7111SOL    HW132966   0.218   4.379  15.736 -1.3933  0.2230  0.5362
 7111SOL    HW232967   0.151   4.276  15.815  0.5565 -1.7995  1.2933
 7112SOL     OW32968   1.718   4.149   1.521 -0.3779 -0.6995 -0.3220
 7112SOL    HW132969   1.754   4.120   1.605 -1.9142 -0.7901  0.2943
 7112SOL    HW232970   1.651   4.210   1.550  2.9188  1.4591  2.6583
 7113SOL     OW32971   2.784   3.601   3.299  0.1489 -0.2508 -0.7927
 7113SOL    HW132972   2.697   3.608   3.259 -0.2813 -0.1345  0.1482
 7113SOL    HW232973   2.829   3.552   3.230 -1.0984 -3.2468  0.5097
 7114SOL     OW32974   1.512   0.323   8.787 -0.3153 -0.1687  0.7332
 7114SOL    HW132975   1.480   0.293   8.701 -1.5640  1.4151  0.6410
 7114SOL    HW232976   1.493   0.415   8.771 -2.0976 -0.3624  1.7646
 7115SOL     OW32977   0.857   2.979   9.692 -0.1225 -0.3291  0.0527
 7115SOL    HW132978   0.777   3.020   9.659 -0.2283 -1.6972 -1.3622
 7115SOL    HW232979   0.923   2.996   9.625  1.6572  3.1213  2.6780
 7116SOL     OW32980   0.502   2.092   4.360  0.2925  0.3812  0.3221
 7116SOL    HW132981   0.447   2.019   4.387 -0.1564  0.8085  0.5574
 7116SOL    HW232982   0.442   2.147   4.310 -0.6995 -0.5425  0.5071
 7117SOL     OW32983   4.139   4.014   8.933  0.2954  0.0796 -0.3848
 7117SOL    HW132984   4.217   3.959   8.922 -0.1020 -1.0042  2.0728
 7117SOL    HW232985   4.103   3.987   9.018 -2.4788  1.7645 -1.0329
 7118SOL     OW32986   4.375   2.713   8.552  0.2235  0.0663  0.1032
 7118SOL    HW132987   4.282   2.690   8.542  0.4256 -0.2829 -0.9311
 7118SOL    HW232988   4.388   2.782   8.487  1.2919 -0.8808 -0.6921
 7119SOL     OW32989   0.102   3.046   8.351 -0.3620 -0.3741  0.0353
 7119SOL    HW132990   0.186   3.092   8.359 -0.2742 -0.3838 -0.9014
 7119SOL    HW232991   0.124   2.959   8.384  0.4025  0.1472  0.8962
 7120SOL     OW32992   4.132   2.247   7.432 -0.2343 -0.2979  0.1455
 7120SOL    HW132993   4.145   2.174   7.492  0.0386 -0.3672  0.0040
 7120SOL    HW232994   4.162   2.305   7.502  0.9579 -0.1654 -0.4626
 7121SOL     OW32995   1.715   0.032   4.359  0.2653 -0.7516 -0.3900
 7121SOL    HW132996   1.656   0.095   4.400  1.2799  1.1566 -1.8620
 7121SOL    HW232997   1.726   4.697   4.418  0.0865  0.1688  0.8172
 7122SOL     OW32998   4.003   2.214   9.400 -0.0383  0.5063  0.6776
 7122SOL    HW132999   4.010   2.245   9.490 -0.0536 -1.2091  1.2654
 7122SOL    HW233000   3.984   2.121   9.411 -0.6639  0.2857 -2.0615
 7123SOL     OW33001   1.068   2.817   7.622 -0.0678 -0.5892 -0.4258
 7123SOL    HW133002   1.091   2.863   7.541 -0.3203 -0.6698 -0.5438
 7123SOL    HW233003   0.980   2.853   7.631  0.2638  0.0994  0.1031
 7124SOL     OW33004   2.334   1.036  11.998 -0.3922 -0.5999  0.9030
 7124SOL    HW133005   2.349   1.119  12.045 -3.8378  0.9476 -0.7509
 7124SOL    HW233006   2.297   1.069  11.916  1.4689  2.6254  1.3742
 7125SOL     OW33007   1.305   3.868   8.383  0.8543 -0.6106  0.3628
 7125SOL    HW133008   1.384   3.918   8.362  0.3816 -0.0549 -0.0927
 7125SOL    HW233009   1.308   3.867   8.479  0.3929 -0.2238  0.3807
 7126SOL     OW33010   1.773   1.113   5.954 -0.0520  0.4164  0.4262
 7126SOL    HW133011   1.752   1.066   5.873 -0.6714  1.2379  0.1175
 7126SOL    HW233012   1.683   1.116   5.988 -0.6152  1.9626 -1.1964
 7127SOL     OW33013   0.572   4.180   7.964  0.3131  0.1600 -0.2459
 7127SOL    HW133014   0.506   4.213   7.903  0.9649  1.8547 -0.0481
 7127SOL    HW233015   0.596   4.091   7.938  1.7343  0.5607 -0.2880
 7128SOL     OW33016   1.025   1.252   6.517 -0.4081  0.2259 -0.5970
 7128SOL    HW133017   0.959   1.302   6.470 -0.5835 -0.4071 -1.0249
 7128SOL    HW233018   0.972   1.223   6.591 -0.6218 -1.1487 -1.2857
 7129SOL     OW33019   2.278   2.703  12.225  0.0957  0.4774  0.2834
 7129SOL    HW133020   2.236   2.618  12.239  1.9434 -0.4159  0.4403
 7129SOL    HW233021   2.365   2.676  12.253  0.5540  0.7056 -0.9258
 7130SOL     OW33022   2.741   2.592   8.150  0.0040  0.5197 -0.2677
 7130SOL    HW133023   2.690   2.631   8.079 -0.8707 -0.4800 -0.1787
 7130SOL    HW233024   2.722   2.499   8.141 -0.5548  0.4723  1.3879
 7131SOL     OW33025   3.738   3.415   3.394  0.2867  0.0116 -0.0947
 7131SOL    HW133026   3.754   3.423   3.300 -2.4682 -1.1726 -0.6665
 7131SOL    HW233027   3.764   3.496   3.436 -1.3986  0.2627  0.4788
 7132SOL     OW33028   2.927   2.604   8.449  0.3417 -0.2896 -0.5766
 7132SOL    HW133029   2.985   2.617   8.373 -1.9077  1.3319 -2.0005
 7132SOL    HW233030   2.978   2.535   8.491  1.0473  0.5553 -0.0386
 7133SOL     OW33031   3.835   0.679   7.754  0.2913  0.1464  0.1744
 7133SOL    HW133032   3.751   0.681   7.708 -0.8122 -2.3495  2.0335
 7133SOL    HW233033   3.846   0.584   7.757  1.7473  0.3490  1.1797
 7134SOL     OW33034   2.081   0.908   8.261 -0.0412 -0.0989  0.3903
 7134SOL    HW133035   2.030   0.893   8.340 -0.8726  1.4882  0.1501
 7134SOL    HW233036   2.117   0.994   8.282  1.4447 -0.4370 -0.7036
 7135SOL     OW33037   4.224   1.369  14.061 -0.6281 -0.1673  0.1955
 7135SOL    HW133038   4.212   1.328  13.975 -0.8462  0.2810  0.0151
 7135SOL    HW233039   4.133   1.364  14.092 -1.0533 -2.9733 -1.5202
 7136SOL     OW33040   4.501   1.708  15.629  0.6149 -0.4976  0.4006
 7136SOL    HW133041   4.441   1.776  15.600  0.6564  0.3093  2.2203
 7136SOL    HW233042   4.587   1.741  15.605  1.1043 -0.2659  2.5061
 7137SOL     OW33043   0.258   0.852   2.850 -0.6765  0.1823  0.1982
 7137SOL    HW133044   0.206   0.780   2.815  0.2365  0.2241 -1.2042
 7137SOL    HW233045   0.319   0.871   2.780 -0.2783 -0.2876  0.4195
 7138SOL     OW33046   3.174   3.392   7.340  0.1904 -0.3569  0.7905
 7138SOL    HW133047   3.093   3.342   7.349  0.5422 -1.0555  0.0153
 7138SOL    HW233048   3.149   3.485   7.339 -1.9652 -0.9281  2.2709
 7139SOL     OW33049   2.072   3.669   4.473  0.0882  0.0560  0.0071
 7139SOL    HW133050   2.162   3.643   4.456  0.2527  0.3987  0.3535
 7139SOL    HW233051   2.073   3.765   4.480 -0.6151  0.1511 -1.1952
 7140SOL     OW33052   2.607   4.259   3.786  0.5535 -0.2444  0.0483
 7140SOL    HW133053   2.666   4.203   3.836 -1.5397 -2.7988 -0.3398
 7140SOL    HW233054   2.667   4.331   3.767 -1.8593  1.4787 -1.0367
 7141SOL     OW33055   4.684   2.355   2.304 -0.0411  0.2356  0.1798
 7141SOL    HW133056   0.029   2.311   2.305 -0.1985 -0.0505  1.2845
 7141SOL    HW233057   4.713   2.445   2.287  0.2382  0.2565  0.7793
 7142SOL     OW33058   0.664   2.277   1.545 -0.4445  0.4642 -0.3191
 7142SOL    HW133059   0.579   2.240   1.570 -1.1333  2.5863  0.4549
 7142SOL    HW233060   0.719   2.284   1.623 -0.2178  2.1326 -0.6389
 7143SOL     OW33061   0.605   4.268  12.260  0.2395 -0.0684  0.1178
 7143SOL    HW133062   0.535   4.272  12.325  1.5578  0.9357  1.4398
 7143SOL    HW233063   0.644   4.352  12.282  2.0691 -0.0071 -3.3658
 7144SOL     OW33064   1.667   0.803   6.219 -0.0680  0.7304  0.4164
 7144SOL    HW133065   1.643   0.790   6.310 -1.1935 -0.4423 -0.0514
 7144SOL    HW233066   1.625   0.885   6.193 -0.7674  0.1890 -0.1675
 7145SOL     OW33067   1.397   3.531   3.201  0.6652 -0.0966 -0.1789
 7145SOL    HW133068   1.452   3.575   3.136 -0.8039  0.5974 -0.9524
 7145SOL    HW233069   1.403   3.581   3.283 -1.2375  0.0484 -0.1228
 7146SOL     OW33070   3.442   2.440   8.552 -0.2877 -0.2820  0.1656
 7146SOL    HW133071   3.500   2.484   8.614 -0.1403 -0.7892  0.3866
 7146SOL    HW233072   3.446   2.345   8.562 -1.8501 -0.5372 -1.5956
 7147SOL     OW33073   0.647   2.332   4.831  0.2339 -0.3573  0.1011
 7147SOL    HW133074   0.661   2.404   4.770  0.1660  1.2836  2.0039
 7147SOL    HW233075   0.597   2.272   4.776  0.2171 -0.3539  0.1125
 7148SOL     OW33076   4.282   2.100   8.889 -0.3203 -0.5578 -0.4179
 7148SOL    HW133077   4.206   2.120   8.834  1.4516  2.3376 -1.8112
 7148SOL    HW233078   4.320   2.181   8.923 -1.1291 -0.1417 -0.4993
 7149SOL     OW33079   4.518   1.395   8.057 -0.6170  0.0358  0.3644
 7149SOL    HW133080   4.438   1.444   8.039  0.5365 -0.0540 -5.2328
 7149SOL    HW233081   4.581   1.459   8.024 -0.4956 -0.5880 -0.6075
 7150SOL     OW33082   3.176   1.638   8.146  0.2913  0.3308 -0.2228
 7150SOL    HW133083   3.225   1.665   8.224  2.1341  1.5384 -1.8127
 7150SOL    HW233084   3.144   1.719   8.105 -2.1017 -1.0722 -1.1159
 7151SOL     OW33085   0.848   1.481  10.004 -0.5135 -0.0978  0.2102
 7151SOL    HW133086   0.786   1.533   9.953  1.2438  0.9537 -0.8550
 7151SOL    HW233087   0.808   1.394  10.011  2.2103 -1.3429  0.1837
 7152SOL     OW33088   3.553   1.560   9.465 -0.1875  0.2201 -0.0157
 7152SOL    HW133089   3.531   1.577   9.556 -1.0835  1.4568 -0.4700
 7152SOL    HW233090   3.639   1.519   9.477 -2.1169 -3.8732 -0.2968
 7153SOL     OW33091   1.315   2.597   7.155  0.1570 -0.2369 -0.7011
 7153SOL    HW133092   1.357   2.514   7.177 -0.1377  0.2564  1.7480
 7153SOL    HW233093   1.268   2.572   7.076 -0.6813  0.7810 -0.5292
 7154SOL     OW33094   2.749   0.675   5.258  0.5299 -0.4302 -0.1629
 7154SOL    HW133095   2.706   0.759   5.241  2.3571  1.2191  3.2841
 7154SOL    HW233096   2.752   0.632   5.173 -2.0085  0.3893 -0.6580
 7155SOL     OW33097   1.600   3.500  17.668  0.2287  0.6118  0.7952
 7155SOL    HW133098   1.550   3.420  17.651  0.6807  0.5482 -0.2468
 7155SOL    HW233099   1.643   3.470  17.748  1.5484 -0.7506 -0.4301
 7156SOL     OW33100   4.306   2.090  12.125  0.2373  0.2784 -0.0686
 7156SOL    HW133101   4.366   2.123  12.191  1.1042 -2.4268  0.5124
 7156SOL    HW233102   4.289   2.002  12.158  2.2214 -0.6110 -1.4306
 7157SOL     OW33103   1.589   1.536   8.252 -0.3455 -0.8657 -0.2134
 7157SOL    HW133104   1.656   1.578   8.198 -0.9511  0.7209  0.2446
 7157SOL    HW233105   1.511   1.586   8.228  0.5048  0.4794 -0.2174
 7158SOL     OW33106   3.494   1.406   6.586 -0.0181 -0.1446 -0.2482
 7158SOL    HW133107   3.437   1.482   6.599 -1.2312 -1.7416  3.6824
 7158SOL    HW233108   3.583   1.439   6.593 -0.2860  0.5675 -0.2511
 7159SOL     OW33109   2.769   0.961   8.985  0.3600  0.2012  0.3867
 7159SOL    HW133110   2.793   0.894   9.050  0.9564 -1.4601 -1.5325
 7159SOL    HW233111   2.750   1.039   9.037  1.5630  0.9098 -0.2404
 7160SOL     OW33112   0.413   3.143  12.550  0.1552  0.3236 -0.0809
 7160SOL    HW133113   0.507   3.150  12.538  0.1706  0.2876  0.0230
 7160SOL    HW233114   0.388   3.232  12.524 -0.9521  1.0688  3.5967
 7161SOL     OW33115   1.824   0.168   7.570 -0.2077 -0.3502  0.0773
 7161SOL    HW133116   1.816   0.252   7.525 -0.6880  0.1006  1.0099
 7161SOL    HW233117   1.772   0.114   7.511  0.2051 -0.7163  0.0419
 7162SOL     OW33118   0.366   3.165   2.981  0.0953  0.1536 -0.6884
 7162SOL    HW133119   0.376   3.254   2.945 -0.3939  0.8304  0.8308
 7162SOL    HW233120   0.457   3.138   2.978 -0.5331 -1.7078 -2.4496
 7163SOL     OW33121   2.504   2.107   5.377  0.0365  0.0601 -0.1887
 7163SOL    HW133122   2.508   2.012   5.387 -1.7789  0.0923  0.7014
 7163SOL    HW233123   2.565   2.118   5.450 -2.5327 -1.8820  2.2074
 7164SOL     OW33124   4.066   4.237  12.227 -1.0606 -0.1519  0.1931
 7164SOL    HW133125   3.993   4.274  12.177  1.1313  3.2863 -0.4423
 7164SOL    HW233126   4.022   4.219  12.310 -0.6476  2.5657  1.0082
 7165SOL     OW33127   1.368   1.143  12.266 -0.2406  0.2600 -0.1798
 7165SOL    HW133128   1.402   1.095  12.190 -0.7765 -0.2676 -0.0847
 7165SOL    HW233129   1.313   1.078  12.310  1.0824  0.1686  1.3238
 7166SOL     OW33130   1.291   3.838  11.762  0.2359 -0.2127  1.0136
 7166SOL    HW133131   1.336   3.754  11.771  2.7439  0.9395 -0.6978
 7166SOL    HW233132   1.276   3.841  11.667  2.1483  1.8422  0.7628
 7167SOL     OW33133   1.607   0.799  13.744  0.4034  0.5097  0.4705
 7167SOL    HW133134   1.601   0.791  13.649  1.1678 -0.3996  0.5080
 7167SOL    HW233135   1.609   0.892  13.769 -0.5670  0.7806 -0.4282
 7168SOL     OW33136   0.321   0.684  11.039  0.2864 -0.2634 -0.1387
 7168SOL    HW133137   0.342   0.648  11.125  0.4452 -0.7015 -0.3649
 7168SOL    HW233138   0.397   0.742  11.033  0.9191 -1.0473  0.3321
 7169SOL     OW33139   3.651   2.164  16.440  0.0242  0.1681 -0.7180
 7169SOL    HW133140   3.624   2.081  16.402  0.7023 -0.9242  1.1584
 7169SOL    HW233141   3.595   2.156  16.518  4.5368 -0.8285  2.3870
 7170SOL     OW33142   4.670   3.336   7.231 -0.3524  0.3629  0.7433
 7170SOL    HW133143   4.659   3.274   7.159 -1.4292  0.4934  0.7941
 7170SOL    HW233144   0.025   3.327   7.245 -0.2655  3.0035  1.7945
 7171SOL     OW33145   2.937   4.562  10.885  0.1287  0.1273 -0.2862
 7171SOL    HW133146   3.016   4.513  10.862 -0.5476  0.7400 -3.9256
 7171SOL    HW233147   2.861   4.506  10.870  1.5394 -1.8351 -0.0122
 7172SOL     OW33148   3.261   0.675   3.591 -0.2713  0.2629  0.1208
 7172SOL    HW133149   3.334   0.685   3.531  0.9611 -0.7077  1.4528
 7172SOL    HW233150   3.203   0.636   3.525 -1.2617  0.3752  0.9141
 7173SOL     OW33151   0.437   4.482  15.247  0.3701 -0.2910 -0.1748
 7173SOL    HW133152   0.475   4.408  15.201 -3.8552 -2.1895 -0.6085
 7173SOL    HW233153   0.357   4.492  15.196  0.7033  0.8724 -0.4673
 7174SOL     OW33154   1.919   0.756   6.129 -0.5777  0.9980 -0.1170
 7174SOL    HW133155   1.825   0.757   6.146 -0.4864  1.3008  0.3786
 7174SOL    HW233156   1.942   0.846   6.107  2.0931 -0.1424 -1.9546
 7175SOL     OW33157   3.928   0.244   6.179  0.1397 -0.1714  0.4833
 7175SOL    HW133158   3.846   0.219   6.221  0.1243  0.2761  0.7156
 7175SOL    HW233159   3.904   0.309   6.112  0.8471 -0.6826 -0.2678
 7176SOL     OW33160   4.590   3.588  15.749 -0.6036  0.2803 -0.0010
 7176SOL    HW133161   4.614   3.602  15.658 -0.2786  0.3754  0.0980
 7176SOL    HW233162   4.656   3.650  15.781  0.9706 -1.0940 -0.5410
 7177SOL     OW33163   0.321   2.384   7.943  0.1004 -0.2433 -0.1128
 7177SOL    HW133164   0.412   2.355   7.934  1.2034  3.5076 -0.9414
 7177SOL    HW233165   0.297   2.432   7.863  2.7422  0.8233 -0.2520
 7178SOL     OW33166   1.481   0.341   2.945 -0.0466  0.2211  0.0490
 7178SOL    HW133167   1.410   0.328   2.882  0.0581 -0.3113  0.0406
 7178SOL    HW233168   1.508   0.429   2.920 -3.8066  1.2460 -0.3871
 7179SOL     OW33169   0.406   2.994   1.519  0.0722  0.5856  0.8206
 7179SOL    HW133170   0.486   3.026   1.478 -0.2079  0.6740  0.3501
 7179SOL    HW233171   0.358   3.077   1.518  0.4974  0.8330  0.8021
 7180SOL     OW33172   1.757   2.513  13.298  0.6060  0.8234 -0.3473
 7180SOL    HW133173   1.732   2.593  13.252  0.4120 -0.3650 -2.3325
 7180SOL    HW233174   1.850   2.507  13.274  0.0303  0.5236 -2.4827
 7181SOL     OW33175   3.080   2.088   3.508  0.2147  0.8643  0.2485
 7181SOL    HW133176   3.097   2.003   3.548  0.4697  0.7906 -0.0163
 7181SOL    HW233177   3.100   2.070   3.417  0.0255  2.5964 -0.1503
 7182SOL     OW33178   1.949   4.397  15.168 -0.0023 -0.4619 -0.1817
 7182SOL    HW133179   1.998   4.404  15.085 -1.8091  0.9701 -1.1415
 7182SOL    HW233180   1.905   4.314  15.152  1.9226 -0.9309 -3.0278
 7183SOL     OW33181   2.209   0.340   7.475 -0.3675  0.1668 -0.7174
 7183SOL    HW133182   2.234   0.275   7.409  2.6961  0.9871 -0.3645
 7183SOL    HW233183   2.207   0.420   7.422  2.4024 -0.6824 -2.0931
 7184SOL     OW33184   0.959   4.418   3.810 -0.0900  1.0504  0.4480
 7184SOL    HW133185   0.934   4.405   3.718  1.2394  1.1265  0.0679
 7184SOL    HW233186   0.872   4.409   3.849 -0.1976 -0.2163 -0.0829
 7185SOL     OW33187   0.144   1.684   8.312 -0.1387 -0.2498  0.4782
 7185SOL    HW133188   0.059   1.663   8.352  0.0689 -1.5577  0.2508
 7185SOL    HW233189   0.125   1.772   8.281  0.3276 -0.3591 -0.1066
 7186SOL     OW33190   4.066   1.611   7.730 -0.8459 -0.2473  0.4424
 7186SOL    HW133191   4.029   1.617   7.818  0.3617 -1.5161  1.0459
 7186SOL    HW233192   4.155   1.577   7.740  0.0973  1.5885 -1.7060
 7187SOL     OW33193   3.840   4.022   3.076 -0.9764 -0.1404  0.1597
 7187SOL    HW133194   3.919   4.043   3.127 -1.2389  0.7531  0.1966
 7187SOL    HW233195   3.805   4.110   3.060 -0.0659  0.1307 -0.3499
 7188SOL     OW33196   1.766   3.219   6.458 -0.3644 -0.0865 -0.5416
 7188SOL    HW133197   1.752   3.170   6.539 -0.3507  1.1008  0.1735
 7188SOL    HW233198   1.708   3.170   6.399 -0.1080  0.1153 -0.9629
 7189SOL     OW33199   2.251   3.232   4.205  0.4248  0.1039  0.1012
 7189SOL    HW133200   2.287   3.252   4.292  2.2980 -0.7796 -0.4791
 7189SOL    HW233201   2.192   3.158   4.214 -1.0359  1.4507  1.6552
 7190SOL     OW33202   3.165   2.241   8.879  0.5994 -0.0637  0.0221
 7190SOL    HW133203   3.184   2.275   8.966  2.1217 -0.2973 -0.2166
 7190SOL    HW233204   3.183   2.325   8.836  0.1954 -1.7534 -3.4337
 7191SOL     OW33205   4.549   3.858   6.047  0.2380 -0.1490  0.0962
 7191SOL    HW133206   4.572   3.945   6.013 -0.8861 -0.1190 -0.6056
 7191SOL    HW233207   4.637   3.828   6.068  0.1710 -0.0810  0.4660
 7192SOL     OW33208   0.425   2.198  13.076 -0.4395  0.2908 -0.2799
 7192SOL    HW133209   0.468   2.144  13.143  0.8870  1.1581 -0.4490
 7192SOL    HW233210   0.338   2.158  13.067 -1.1564  1.2834  2.3123
 7193SOL     OW33211   3.926   1.608   5.885  0.2265 -0.0775  0.3335
 7193SOL    HW133212   4.019   1.614   5.864  0.6158 -1.6257  1.5982
 7193SOL    HW233213   3.906   1.517   5.863  0.0521 -0.3776  1.7197
 7194SOL     OW33214   0.770   2.934   6.047 -0.0080  0.2646 -0.4934
 7194SOL    HW133215   0.694   2.992   6.054 -0.4873 -0.5368  0.8634
 7194SOL    HW233216   0.727   2.860   6.004  0.3762 -0.0591 -0.3130
 7195SOL     OW33217   2.125   2.030   4.081 -0.3203 -0.2952  0.4439
 7195SOL    HW133218   2.111   1.974   4.157  0.3598  0.5658  1.2055
 7195SOL    HW233219   2.175   2.097   4.127  1.2709 -1.9425  1.0932
 7196SOL     OW33220   1.250   0.082   9.244 -0.5319  0.0205  0.6300
 7196SOL    HW133221   1.287   0.022   9.179 -2.6666 -0.6706  0.0374
 7196SOL    HW233222   1.233   0.161   9.194 -1.8999 -1.6793 -1.6161
 7197SOL     OW33223   3.592   3.745  11.185  0.3776  0.2904  0.0379
 7197SOL    HW133224   3.561   3.779  11.101 -1.1280 -1.9348 -0.2995
 7197SOL    HW233225   3.590   3.823  11.241  1.4613  1.8378 -2.0868
 7198SOL     OW33226   3.226   3.701   9.564  0.6654 -0.1847  0.2125
 7198SOL    HW133227   3.260   3.782   9.600 -2.9623  0.8215  1.3631
 7198SOL    HW233228   3.152   3.737   9.516  1.8384 -1.8563 -2.8580
 7199SOL     OW33229   0.307   1.449   6.194  0.3217  0.3041  0.2283
 7199SOL    HW133230   0.328   1.518   6.131 -1.3869  0.7288  0.1176
 7199SOL    HW233231   0.282   1.379   6.133 -0.7483  1.6389 -0.8953
 7200SOL     OW33232   1.867   4.215   6.999 -0.1491 -0.2824  0.0316
 7200SOL    HW133233   1.911   4.132   7.014  1.0733  1.1164  4.3415
 7200SOL    HW233234   1.938   4.278   7.010  0.8965 -1.2324 -1.2391
 7201SOL     OW33235   2.234   4.557   5.299  0.1324  0.1328  0.3348
 7201SOL    HW133236   2.242   4.471   5.258  0.1119 -0.2126  1.0510
 7201SOL    HW233237   2.188   4.531   5.379  1.4445  1.2565  1.4403
 7202SOL     OW33238   2.232   3.536  10.647  0.1509  0.3465 -0.4788
 7202SOL    HW133239   2.143   3.553  10.616  0.3480 -1.5208 -2.0777
 7202SOL    HW233240   2.250   3.449  10.610  0.4554 -0.1859  0.8977
 7203SOL     OW33241   3.889   1.635   2.952  0.2404 -0.4290 -0.1208
 7203SOL    HW133242   3.799   1.659   2.926  0.3245 -0.9304 -0.8524
 7203SOL    HW233243   3.908   1.587   2.872  1.3392 -0.0661 -0.0677
 7204SOL     OW33244   2.104   4.472  11.706 -0.3460 -0.1712 -0.6126
 7204SOL    HW133245   2.197   4.475  11.686 -0.5430  3.7852 -0.9965
 7204SOL    HW233246   2.110   4.401  11.769  0.2441  0.6528  0.2595
 7205SOL     OW33247   3.892   0.042   0.306 -0.0420  0.3057  0.1493
 7205SOL    HW133248   3.921   0.133   0.314  0.2608  0.3807 -1.8737
 7205SOL    HW233249   3.816   0.041   0.248 -0.2350  2.3932  0.3503
 7206SOL     OW33250   4.386   1.460   6.258  0.0676  0.3204 -0.0314
 7206SOL    HW133251   4.451   1.525   6.285  0.0576 -0.5609  2.0964
 7206SOL    HW233252   4.342   1.521   6.198 -1.1929 -0.8213 -0.2682
 7207SOL     OW33253   4.668   3.358   5.677  0.2735  0.3989  0.1480
 7207SOL    HW133254   4.605   3.402   5.620  1.0612  0.0121 -1.0174
 7207SOL    HW233255   4.654   3.404   5.760 -1.9253  3.1041 -1.7131
 7208SOL     OW33256   1.553   4.637   5.389  0.3659 -0.3698  0.0947
 7208SOL    HW133257   1.580   4.628   5.480 -0.7464 -0.6160  0.3927
 7208SOL    HW233258   1.496   4.560   5.379  3.1747 -2.7978  2.5491
 7209SOL     OW33259   4.512   2.327   4.206 -0.2385 -0.5851 -0.0063
 7209SOL    HW133260   4.572   2.393   4.242  0.7040 -2.2087  1.4021
 7209SOL    HW233261   4.460   2.377   4.143 -0.7215  0.7667  1.4398
 7210SOL     OW33262   2.623   0.154  17.295 -0.2352  0.1486  0.4015
 7210SOL    HW133263   2.674   0.111  17.226  0.1494 -0.4903  1.0790
 7210SOL    HW233264   2.557   0.089  17.319 -0.4272 -0.5328 -1.9389
 7211SOL     OW33265   0.679   0.094  13.495  0.2485  0.3145  0.1410
 7211SOL    HW133266   0.708   0.032  13.562  1.6445  1.1792  0.3411
 7211SOL    HW233267   0.588   0.115  13.515 -1.0688 -3.6036 -1.6581
 7212SOL     OW33268   3.443   4.548   1.255  0.1601 -0.2653  0.3783
 7212SOL    HW133269   3.370   4.610   1.253  1.2778  0.9960 -2.7759
 7212SOL    HW233270   3.510   4.589   1.199 -0.9141  1.8336  0.6106
 7213SOL     OW33271   0.691   4.706   3.268  0.2608  0.0515  0.6195
 7213SOL    HW133272   0.752   0.026   3.225  0.5212  0.0164  0.9318
 7213SOL    HW233273   0.646   4.656   3.201 -0.4490 -1.8439  2.5123
 7214SOL     OW33274   3.215   1.509   3.673 -0.0145  0.6764 -0.2688
 7214SOL    HW133275   3.134   1.556   3.654 -0.2318  0.5826  0.4196
 7214SOL    HW233276   3.242   1.548   3.756 -0.0251 -0.8107  0.4455
 7215SOL     OW33277   1.688   1.408   4.574  0.3747 -0.4413  0.0931
 7215SOL    HW133278   1.671   1.339   4.510  0.2003 -0.5118  0.2151
 7215SOL    HW233279   1.609   1.415   4.628  0.3297  0.7402 -0.1215
 7216SOL     OW33280   0.087   4.688   2.619 -0.4028 -0.2237  0.8190
 7216SOL    HW133281   0.162   4.628   2.612 -0.5891 -0.4936  1.1310
 7216SOL    HW233282   0.052   4.688   2.530 -0.1749  0.3488  0.7289
 7217SOL     OW33283   3.901   4.399   7.522 -0.4575  0.1503 -0.1948
 7217SOL    HW133284   3.925   4.316   7.480 -1.3365 -0.7356  1.0662
 7217SOL    HW233285   3.972   4.416   7.584  0.5211 -3.7161 -0.2422
 7218SOL     OW33286   0.638   3.578   2.810 -0.1794  0.0591 -0.1223
 7218SOL    HW133287   0.661   3.502   2.756 -2.0404 -0.1481 -0.6275
 7218SOL    HW233288   0.661   3.649   2.750 -1.0831 -1.4325 -2.2525
 7219SOL     OW33289   1.622   2.487   7.559  0.4798 -0.5607 -0.1733
 7219SOL    HW133290   1.581   2.408   7.522 -1.7367  1.0787 -1.2068
 7219SOL    HW233291   1.623   2.551   7.488  1.3420 -1.6039 -1.1160
 7220SOL     OW33292   0.483   3.088   3.603  0.6258  0.0217 -0.3225
 7220SOL    HW133293   0.511   3.002   3.572  0.3055 -0.5184  0.8826
 7220SOL    HW233294   0.559   3.111   3.656  0.3336  0.0615  0.0782
 7221SOL     OW33295   1.939   1.397  10.255  0.2430  0.3842  0.7672
 7221SOL    HW133296   1.980   1.323  10.301  0.7322  0.9880  1.3027
 7221SOL    HW233297   1.871   1.346  10.211  0.5770  0.6295 -0.0391
 7222SOL     OW33298   0.116   2.477   6.548 -0.5234  1.0292 -0.1284
 7222SOL    HW133299   0.163   2.560   6.543 -2.5827  2.1541 -0.8364
 7222SOL    HW233300   0.025   2.504   6.538 -1.5206 -1.9138  1.0144
 7223SOL     OW33301   2.429   3.928  10.295  0.4056  0.0031  0.5972
 7223SOL    HW133302   2.364   3.860  10.276 -0.1252  0.4036  0.9777
 7223SOL    HW233303   2.474   3.923  10.211 -0.7136  0.7574 -0.0417
 7224SOL     OW33304   0.699   2.645   5.937  0.1615  0.1654 -0.0502
 7224SOL    HW133305   0.787   2.652   5.899  0.0704  3.4717  0.3275
 7224SOL    HW233306   0.657   2.636   5.852  1.2967  2.9542 -0.9205
 7225SOL     OW33307   4.334   2.494   6.172  0.0826 -0.0266  0.3925
 7225SOL    HW133308   4.242   2.485   6.197 -0.4560  0.3139 -1.4880
 7225SOL    HW233309   4.369   2.476   6.259  0.3891  1.9572  0.6917
 7226SOL     OW33310   2.509   1.993  15.463 -0.0749 -0.1507  0.4275
 7226SOL    HW133311   2.477   1.912  15.503 -0.3126 -0.7142 -0.8962
 7226SOL    HW233312   2.602   1.979  15.480 -0.0375  1.5180  1.5935
 7227SOL     OW33313   0.105   0.505  10.935  0.2293 -0.0556  0.6975
 7227SOL    HW133314   0.078   0.573  10.873  1.7694  1.5902  1.8175
 7227SOL    HW233315   0.179   0.549  10.977  0.6956 -0.8211  0.6738
 7228SOL     OW33316   4.376   4.102   4.993  0.0026  0.1032 -0.0976
 7228SOL    HW133317   4.341   4.027   4.944 -0.3092  0.3372 -0.2250
 7228SOL    HW233318   4.313   4.113   5.064  0.0351  2.9929 -0.5414
 7229SOL     OW33319   1.314   3.026   4.155  0.0771  0.4748  0.3848
 7229SOL    HW133320   1.390   3.076   4.126  0.9397 -0.2716  1.3535
 7229SOL    HW233321   1.337   2.938   4.125  1.1152  0.2684  1.7807
 7230SOL     OW33322   2.007   2.103   4.864 -0.3042  0.3711  0.0002
 7230SOL    HW133323   1.956   2.179   4.893  0.7609  0.4211  1.7774
 7230SOL    HW233324   2.092   2.143   4.845 -0.4228  0.6850  0.1190
 7231SOL     OW33325   0.617   2.390  15.506 -0.0004  0.0792 -0.4105
 7231SOL    HW133326   0.521   2.391  15.498 -0.1188  0.4938  0.9401
 7231SOL    HW233327   0.626   2.307  15.554  0.5264  0.1098 -0.4627
 7232SOL     OW33328   2.109   1.560   2.222  0.3415 -0.1252 -0.5425
 7232SOL    HW133329   2.104   1.575   2.128  1.9687 -0.8999 -0.7653
 7232SOL    HW233330   2.051   1.486   2.241 -0.5198  0.8259  0.4705
 7233SOL     OW33331   3.861   1.268  13.820  0.0134 -0.4215 -0.4362
 7233SOL    HW133332   3.825   1.318  13.746 -0.1434  0.2099  0.0690
 7233SOL    HW233333   3.885   1.184  13.781  1.9089 -0.1683  0.2103
 7234SOL     OW33334   3.654   0.781   8.134  0.3663 -0.0260  0.4166
 7234SOL    HW133335   3.657   0.877   8.133 -0.6915  0.0052  0.5082
 7234SOL    HW233336   3.744   0.765   8.105 -0.3359 -1.2313 -1.0751
 7235SOL     OW33337   1.487   0.071   9.645  0.2700  0.5114  0.0572
 7235SOL    HW133338   1.521   4.733   9.689  2.2778  1.2597 -0.1746
 7235SOL    HW233339   1.392   0.072   9.658 -0.2895 -0.7037 -4.2096
 7236SOL     OW33340   3.401   4.462  16.984 -0.4097  0.5883  0.2847
 7236SOL    HW133341   3.353   4.527  17.035 -1.1856 -0.5719  1.0404
 7236SOL    HW233342   3.404   4.490  16.893  0.3859  3.5119  1.2319
 7237SOL     OW33343   1.353   4.708  13.440  0.4641  0.0909  0.0013
 7237SOL    HW133344   1.322   0.057  13.461  0.0205  0.7572 -3.3674
 7237SOL    HW233345   1.447   4.722  13.434  0.5386  0.0384  1.0103
 7238SOL     OW33346   1.598   3.659   5.730 -0.3134  0.7816 -0.5283
 7238SOL    HW133347   1.524   3.600   5.716 -0.1225  0.3551  0.3087
 7238SOL    HW233348   1.576   3.727   5.666  0.6009  0.8044 -0.8223
 7239SOL     OW33349   3.530   2.792   8.243  0.1925 -0.1852 -0.4542
 7239SOL    HW133350   3.601   2.812   8.304  1.5736 -1.1094 -1.7475
 7239SOL    HW233351   3.478   2.753   8.313 -0.9052 -1.1059 -1.7744
 7240SOL     OW33352   4.486   2.748   7.016 -0.2236 -0.0500  0.5530
 7240SOL    HW133353   4.394   2.771   7.003  0.5157  0.3283 -4.0001
 7240SOL    HW233354   4.506   2.822   7.074 -0.3243  0.1997  0.2702
 7241SOL     OW33355   0.380   3.074  15.563  0.2299 -0.4533 -0.2186
 7241SOL    HW133356   0.347   3.162  15.583  0.7559 -0.2024 -0.4185
 7241SOL    HW233357   0.436   3.060  15.640  1.4436  1.4829 -0.7303
 7242SOL     OW33358   0.962   1.034  15.609  0.0556  0.4326  0.2610
 7242SOL    HW133359   0.910   0.976  15.665 -0.5717 -1.3312 -2.1278
 7242SOL    HW233360   1.012   1.085  15.673  0.1256  2.3892 -1.3606
 7243SOL     OW33361   0.846   3.178   6.566 -0.4227 -0.3538 -0.3756
 7243SOL    HW133362   0.816   3.259   6.523  0.4525  0.6455  0.8772
 7243SOL    HW233363   0.783   3.113   6.534 -0.0029 -0.2218 -1.4754
 7244SOL     OW33364   4.240   1.407   6.636  1.3704 -0.4421 -0.2675
 7244SOL    HW133365   4.194   1.486   6.666  1.4996 -1.2339  2.0395
 7244SOL    HW233366   4.215   1.401   6.544  1.4698 -0.1665 -0.3144
 7245SOL     OW33367   1.913   0.693  14.376  0.5814  0.7507  0.5209
 7245SOL    HW133368   1.979   0.753  14.410  0.4520  1.4460 -0.4563
 7245SOL    HW233369   1.935   0.668  14.286 -1.4383 -1.0670  0.5279
 7246SOL     OW33370   0.442   4.676   2.792  0.0951  0.0474  0.4653
 7246SOL    HW133371   0.404   4.608   2.736 -1.0811 -0.1852  1.5479
 7246SOL    HW233372   0.475   4.736   2.725  1.3979 -2.7821 -1.4444
 7247SOL     OW33373   1.997   4.226   8.156 -0.4660 -0.2902  0.0029
 7247SOL    HW133374   1.957   4.288   8.094 -0.5781  1.6741  2.0387
 7247SOL    HW233375   2.004   4.280   8.235 -0.6778 -1.7548  1.0122
 7248SOL     OW33376   1.978   3.527   6.659  0.0253  0.3484  0.0096
 7248SOL    HW133377   1.936   3.534   6.574 -1.7204 -1.8828  0.6777
 7248SOL    HW233378   1.917   3.565   6.722  1.4868 -0.0643  1.6730
 7249SOL     OW33379   1.287   2.817   9.539  0.5389 -0.1112 -0.7381
 7249SOL    HW133380   1.367   2.764   9.538  0.7192  0.1394  1.5622
 7249SOL    HW233381   1.315   2.893   9.589 -0.9141 -0.9877  1.3891
 7250SOL     OW33382   2.193   3.995   3.906 -0.0312 -0.1673 -0.2852
 7250SOL    HW133383   2.240   4.060   3.854  2.5303 -2.7908 -1.2114
 7250SOL    HW233384   2.137   4.051   3.961  2.1064  2.0680 -0.3802
 7251SOL     OW33385   1.777   4.120  14.449 -0.3659  0.1619  0.5709
 7251SOL    HW133386   1.690   4.154  14.469 -0.4084  0.7166 -0.5483
 7251SOL    HW233387   1.810   4.194  14.398  3.0568 -0.9738  1.0688
 7252SOL     OW33388   4.094   2.573   8.719  0.1912 -0.0288 -0.0131
 7252SOL    HW133389   4.057   2.497   8.674  2.8101 -0.7780 -0.9203
 7252SOL    HW233390   4.104   2.626   8.641 -1.0411  1.6506  0.9752
 7253SOL     OW33391   2.161   2.110   5.347 -0.0495  0.2709 -0.2056
 7253SOL    HW133392   2.168   2.105   5.442 -1.5800  0.5143 -0.0783
 7253SOL    HW233393   2.246   2.148   5.327 -0.3756  0.7455 -0.7008
 7254SOL     OW33394   1.036   0.777   1.787  0.0750  0.3017  0.0257
 7254SOL    HW133395   1.115   0.821   1.755 -2.1076  4.3880  0.2374
 7254SOL    HW233396   0.977   0.852   1.785  0.5115  0.6193 -0.9194
 7255SOL     OW33397   3.661   1.484   7.879  0.2452 -0.7773 -0.0671
 7255SOL    HW133398   3.669   1.400   7.924  1.1189 -1.2478 -1.0872
 7255SOL    HW233399   3.682   1.454   7.790  0.6525 -0.2088 -0.1577
 7256SOL     OW33400   4.485   2.281  12.045 -0.2599 -0.0695  0.2529
 7256SOL    HW133401   4.437   2.207  12.007 -0.2348  1.0122 -1.8705
 7256SOL    HW233402   4.514   2.254  12.132 -1.3083 -1.6279  0.1248
 7257SOL     OW33403   0.868   1.674   4.694 -0.2397  0.8480 -0.3178
 7257SOL    HW133404   0.791   1.672   4.751 -0.3430 -0.2423 -0.4939
 7257SOL    HW233405   0.833   1.681   4.605  1.6252  2.1379 -0.9382
 7258SOL     OW33406   0.545   0.866   8.537 -0.0067  0.3396 -0.1561
 7258SOL    HW133407   0.453   0.865   8.562  0.6890  1.3687  2.4775
 7258SOL    HW233408   0.580   0.871   8.626 -2.5831 -0.1150  0.8752
 7259SOL     OW33409   1.689   4.490   0.889  0.8777  0.0902 -0.1418
 7259SOL    HW133410   1.753   4.485   0.818  1.5548  0.6545  0.4261
 7259SOL    HW233411   1.720   4.430   0.957  0.6345 -1.3859 -1.3251
 7260SOL     OW33412   2.111   4.612   7.927  0.1960 -0.4067 -0.6971
 7260SOL    HW133413   2.147   4.578   7.845 -0.3930  0.8750 -1.4918
 7260SOL    HW233414   2.057   4.678   7.884  0.2780 -0.5775 -1.0682
 7261SOL     OW33415   3.114   3.473   0.473  0.0604  0.2217 -0.5554
 7261SOL    HW133416   3.111   3.551   0.417 -3.3525  0.4654 -0.0210
 7261SOL    HW233417   3.035   3.420   0.457  0.2797  0.7089 -3.3298
 7262SOL     OW33418   0.175   4.051   2.251  0.0945  0.4868 -0.4330
 7262SOL    HW133419   0.268   4.066   2.234  0.7314 -1.9791  0.8043
 7262SOL    HW233420   0.151   4.132   2.296 -0.8949  1.2811 -2.3792
 7263SOL     OW33421   2.564   1.586   1.597 -0.8458  0.1801 -0.2825
 7263SOL    HW133422   2.583   1.527   1.670 -1.3180  0.4961  0.1023
 7263SOL    HW233423   2.471   1.565   1.587 -1.2868  0.8565  2.2275
 7264SOL     OW33424   0.440   3.707  11.812 -0.3036  0.0246 -0.0790
 7264SOL    HW133425   0.520   3.717  11.759  1.2021 -0.6323  2.0865
 7264SOL    HW233426   0.434   3.800  11.833 -4.1705 -0.3783  0.5832
 7265SOL     OW33427   3.223   2.188   2.835 -0.1977 -0.4154 -0.6209
 7265SOL    HW133428   3.236   2.268   2.784 -1.6880  0.7473  0.8034
 7265SOL    HW233429   3.231   2.133   2.758 -1.0386  0.3256 -1.2458
 7266SOL     OW33430   1.097   2.574   8.647 -0.3382  0.4344  0.3867
 7266SOL    HW133431   1.158   2.600   8.578 -1.2327  2.4187  0.3543
 7266SOL    HW233432   1.124   2.482   8.652 -1.6127 -0.0329 -1.2775
 7267SOL     OW33433   2.611   1.352   7.245  0.0704 -0.4643 -0.1257
 7267SOL    HW133434   2.527   1.370   7.201 -0.6959 -1.1386  1.0577
 7267SOL    HW233435   2.636   1.433   7.288  1.8755 -0.5268 -1.0671
 7268SOL     OW33436   1.229   0.999   7.884  0.2204  0.2461  0.4194
 7268SOL    HW133437   1.229   0.991   7.980  3.5463  0.0551  0.4338
 7268SOL    HW233438   1.169   0.928   7.861 -1.3678  1.9068 -0.5254
 7269SOL     OW33439   4.703   0.999   7.008 -0.2386 -0.3231  0.9706
 7269SOL    HW133440   4.650   1.002   7.088 -1.0068 -0.2917  0.4587
 7269SOL    HW233441   4.631   1.010   6.945  0.1422 -0.3528  0.5331
 7270SOL     OW33442   4.046   0.079   0.659  1.0978  0.4236  0.1615
 7270SOL    HW133443   4.073   0.022   0.731  1.1059  0.7316  0.3981
 7270SOL    HW233444   4.123   0.069   0.602  2.9195  1.0745  2.5248
 7271SOL     OW33445   2.148   4.712   6.856 -0.5815 -0.6778 -0.8898
 7271SOL    HW133446   2.226   4.677   6.813  0.3065 -1.2877  1.2403
 7271SOL    HW233447   2.076   4.700   6.794 -1.6613  2.0042 -0.1716
 7272SOL     OW33448   4.204   0.496   3.217 -0.5503 -0.3592  0.4950
 7272SOL    HW133449   4.211   0.591   3.210  1.6382 -0.5079  0.7977
 7272SOL    HW233450   4.292   0.473   3.245 -0.0717  1.6505  0.6242
 7273SOL     OW33451   1.481   4.071   8.355  0.0558 -0.0299 -0.4896
 7273SOL    HW133452   1.520   4.092   8.269  2.5302 -1.2021  0.3347
 7273SOL    HW233453   1.520   4.143   8.405  0.4060  0.2175 -1.1101
 7274SOL     OW33454   4.180   4.666  17.109 -0.0686  0.3673 -0.1328
 7274SOL    HW133455   4.185   4.680  17.203 -1.6249 -0.5473  0.0907
 7274SOL    HW233456   4.272   4.645  17.090 -0.7909 -1.6282 -1.4763
 7275SOL     OW33457   3.893   1.660   8.425  0.0198 -0.1501 -0.2266
 7275SOL    HW133458   3.811   1.616   8.447  0.2961 -0.8836 -0.6469
 7275SOL    HW233459   3.941   1.588   8.384  3.0823  1.9860 -0.4048
 7276SOL     OW33460   1.899   3.106   7.286  0.2328  0.2821 -0.3100
 7276SOL    HW133461   1.832   3.052   7.328 -0.5097  0.2791 -1.4863
 7276SOL    HW233462   1.976   3.058   7.317 -0.1165  0.2673  0.5178
 7277SOL     OW33463   2.045   0.283   2.094 -0.7830  0.1560 -0.4543
 7277SOL    HW133464   2.111   0.350   2.075  1.3774 -2.0940 -0.9187
 7277SOL    HW233465   2.048   0.305   2.188  1.4680  1.0413 -0.7340
 7278SOL     OW33466   2.222   0.572   2.774  0.2506  0.4268  0.3565
 7278SOL    HW133467   2.299   0.630   2.777  1.3952 -1.0933  0.4444
 7278SOL    HW233468   2.257   0.488   2.744 -3.3653 -0.3566 -1.6449
 7279SOL     OW33469   2.735   2.514   3.979 -0.2851  0.0670 -0.2653
 7279SOL    HW133470   2.828   2.513   3.957 -0.9918  1.1283 -3.3944
 7279SOL    HW233471   2.696   2.492   3.894  1.1833 -0.7395 -0.7235
 7280SOL     OW33472   1.037   1.790   5.717 -0.2557 -0.3916  0.5702
 7280SOL    HW133473   1.003   1.726   5.780 -0.2840  0.8896  1.8582
 7280SOL    HW233474   0.972   1.790   5.647  1.7225  1.0102 -1.2468
 7281SOL     OW33475   1.592   1.013   5.441  0.0800 -0.1727 -0.0353
 7281SOL    HW133476   1.529   0.942   5.433  1.4918 -1.6886  2.2798
 7281SOL    HW233477   1.535   1.089   5.453 -1.1242 -0.9776 -0.6566
 7282SOL     OW33478   4.682   0.706   3.558  0.6583  0.4381  0.0867
 7282SOL    HW133479   4.713   0.796   3.549 -0.4135  0.8317  0.3014
 7282SOL    HW233480   4.633   0.687   3.478  2.8820 -0.0846 -1.1473
 7283SOL     OW33481   3.363   2.998   7.542 -0.1605 -0.2549 -0.4328
 7283SOL    HW133482   3.304   2.975   7.614  0.0705  1.5634  0.3281
 7283SOL    HW233483   3.335   3.085   7.515  2.0760  0.8769  0.8981
 7284SOL     OW33484   3.995   0.606   4.950 -0.5174 -0.0726  0.1255
 7284SOL    HW133485   4.040   0.531   4.911 -1.1747 -0.1573 -0.4861
 7284SOL    HW233486   3.929   0.631   4.885 -2.6626  0.0598  2.3798
 7285SOL     OW33487   2.059   0.849   2.263 -0.1526 -0.1746  0.5063
 7285SOL    HW133488   2.083   0.927   2.313 -0.0134 -0.5359  1.0083
 7285SOL    HW233489   2.144   0.832   2.222  0.6874  0.7847  1.8533
 7286SOL     OW33490   0.918   0.803   6.663  0.1757  0.2895 -0.1066
 7286SOL    HW133491   0.969   0.821   6.742 -1.4288 -1.3437  1.3023
 7286SOL    HW233492   0.950   0.876   6.610  1.1307  1.1997  1.7302
 7287SOL     OW33493   0.305   3.438   4.723 -0.3438 -0.1531  0.1746
 7287SOL    HW133494   0.400   3.430   4.724 -0.1530  2.5798  3.8619
 7287SOL    HW233495   0.278   3.529   4.737 -0.0949 -0.0603  0.0399
 7288SOL     OW33496   0.406   0.564   2.662  0.3582 -0.2885 -0.2157
 7288SOL    HW133497   0.426   0.494   2.724  2.6385  2.4693  2.1402
 7288SOL    HW233498   0.326   0.526   2.624  1.2979 -1.0352 -1.4647
 7289SOL     OW33499   4.712   0.604   1.514  0.1834  0.2889  0.1283
 7289SOL    HW133500   0.059   0.617   1.552 -0.4222  0.4817  1.4868
 7289SOL    HW233501   4.683   0.695   1.507  0.4770  0.4887  1.4532
 7290SOL     OW33502   0.634   2.546   2.157 -0.5738  0.0383 -0.3530
 7290SOL    HW133503   0.649   2.533   2.251  3.4327  1.5949 -0.7860
 7290SOL    HW233504   0.559   2.605   2.161 -0.0730  0.5570  1.3757
 7291SOL     OW33505   3.015   3.366  11.389 -0.0338  0.1017  0.2751
 7291SOL    HW133506   3.031   3.314  11.310 -1.4993  0.1899 -0.0635
 7291SOL    HW233507   3.099   3.350  11.434 -1.5467 -1.6889  2.4632
 7292SOL     OW33508   1.034   4.678   4.810 -0.2097  0.3247 -0.2912
 7292SOL    HW133509   1.014   4.600   4.758  2.0199  0.0731 -0.7861
 7292SOL    HW233510   1.097   4.722   4.751  0.9280 -1.1277 -0.1618
 7293SOL     OW33511   1.382   2.462   2.579 -0.2333  0.5194 -0.6171
 7293SOL    HW133512   1.429   2.518   2.517  0.3592  1.2502  0.4885
 7293SOL    HW233513   1.326   2.403   2.528 -1.3135 -0.3605  1.5846
 7294SOL     OW33514   2.955   0.619   7.891  0.2521 -0.2255 -0.5426
 7294SOL    HW133515   2.900   0.694   7.871 -1.3051 -1.3506 -0.4839
 7294SOL    HW233516   2.968   0.581   7.805  0.2071  0.8011 -0.9990
 7295SOL     OW33517   4.354   2.960   3.483 -0.1456  0.2378  0.1419
 7295SOL    HW133518   4.267   2.970   3.521 -0.8646 -1.4432 -1.0500
 7295SOL    HW233519   4.380   3.052   3.492 -1.3189  0.8713 -2.9435
 7296SOL     OW33520   3.324   4.349   4.599 -0.3625 -0.1948  0.2602
 7296SOL    HW133521   3.370   4.422   4.640 -2.3793  1.8631 -1.1499
 7296SOL    HW233522   3.376   4.283   4.644  1.5996  2.3739  1.7679
 7297SOL     OW33523   0.851   3.664  15.185  0.0285 -0.1297  0.1684
 7297SOL    HW133524   0.874   3.609  15.259  0.1801 -0.6489 -0.2598
 7297SOL    HW233525   0.929   3.677  15.130  0.0448  0.4984  0.3488
 7298SOL     OW33526   1.929   0.300  17.473  0.0048 -0.0979  0.0645
 7298SOL    HW133527   1.955   0.314  17.564  0.6106  1.8867 -0.4161
 7298SOL    HW233528   1.999   0.237  17.452  0.6376  0.4023  0.6572
 7299SOL     OW33529   2.915   2.120   0.623 -0.5163  0.2962 -1.0880
 7299SOL    HW133530   2.884   2.092   0.709  2.1470 -0.7201 -0.4638
 7299SOL    HW233531   2.893   2.213   0.616 -0.3519  0.2879 -1.7024
 7300SOL     OW33532   3.359   2.296   1.075  0.7855  0.0755 -0.0858
 7300SOL    HW133533   3.363   2.209   1.116  0.0380  0.1725  0.1930
 7300SOL    HW233534   3.423   2.333   1.135 -0.4622 -1.2593  2.0666
 7301SOL     OW33535   1.100   2.400   6.569 -0.5837  0.4659  0.3571
 7301SOL    HW133536   1.138   2.329   6.622 -1.5259 -1.6678 -1.8308
 7301SOL    HW233537   1.014   2.423   6.604 -1.0712 -1.0488  0.1775
 7302SOL     OW33538   4.478   3.736   3.047 -0.9783  0.4643  0.5243
 7302SOL    HW133539   4.424   3.726   2.968 -0.1039  0.4327 -0.0789
 7302SOL    HW233540   4.416   3.705   3.113 -0.4448  0.0216  0.8131
 7303SOL     OW33541   3.519   4.372   6.400  0.1341 -0.4237 -0.9020
 7303SOL    HW133542   3.466   4.424   6.340  0.7852  1.4623  0.1475
 7303SOL    HW233543   3.465   4.300   6.432 -0.0671  0.4332  0.6534
 7304SOL     OW33544   3.696   1.394   0.189 -0.1653  0.4673 -0.4669
 7304SOL    HW133545   3.635   1.345   0.244  1.5395 -2.1247 -0.8460
 7304SOL    HW233546   3.689   1.484   0.220 -2.0385 -0.5189  1.9144
 7305SOL     OW33547   4.068   2.573   6.733 -0.6595  0.2627  0.2540
 7305SOL    HW133548   4.002   2.641   6.744 -0.6547  0.2537  0.3395
 7305SOL    HW233549   4.135   2.604   6.794 -1.3758 -0.5831  1.4716
 7306SOL     OW33550   0.142   0.485   3.124  0.2928 -0.1782 -0.2529
 7306SOL    HW133551   0.203   0.556   3.105 -0.8802  0.5787 -1.2295
 7306SOL    HW233552   0.162   0.463   3.215 -1.1173 -2.2846 -0.4517
 7307SOL     OW33553   0.831   2.107   2.988  0.3098  0.0457 -0.3785
 7307SOL    HW133554   0.891   2.144   3.053  1.3699  0.6772 -1.7137
 7307SOL    HW233555   0.784   2.057   3.054  1.3105  1.2110  1.2382
 7308SOL     OW33556   4.233   0.533   2.035  0.1572 -0.4207  0.6846
 7308SOL    HW133557   4.172   0.599   2.004  2.1049  1.7159  1.4014
 7308SOL    HW233558   4.294   0.590   2.082 -0.3269  0.6545  0.0008
 7309SOL     OW33559   1.549   1.319   3.382 -0.1886 -0.2694  0.0825
 7309SOL    HW133560   1.589   1.252   3.436  0.9213 -0.5618 -1.1102
 7309SOL    HW233561   1.491   1.363   3.445  1.5033  1.0820  0.6863
 7310SOL     OW33562   0.057   2.526   6.262 -0.3390  0.2196 -0.3115
 7310SOL    HW133563   0.108   2.534   6.182 -0.2866  0.2164 -0.2786
 7310SOL    HW233564   0.115   2.455   6.290 -1.4673 -0.0252  1.4086
 7311SOL     OW33565   0.330   1.559  12.989  0.6281 -0.1126  0.2545
 7311SOL    HW133566   0.422   1.583  12.978  0.6441 -0.6054 -0.6681
 7311SOL    HW233567   0.296   1.629  13.044  2.0566  1.1866 -0.5193
 7312SOL     OW33568   4.557   2.522   4.547  0.3421  0.8116 -0.2335
 7312SOL    HW133569   4.639   2.481   4.575 -0.8921 -1.1252  0.5695
 7312SOL    HW233570   4.525   2.548   4.633  1.0929  1.2390 -0.0806
 7313SOL     OW33571   1.192   4.617  14.409 -0.3476 -0.3107  0.2421
 7313SOL    HW133572   1.122   4.647  14.467  0.5028  1.1954  0.4781
 7313SOL    HW233573   1.142   4.558  14.352 -0.4869  0.6017 -0.5777
 7314SOL     OW33574   3.699   1.248   7.381 -0.4698 -0.2583  1.1052
 7314SOL    HW133575   3.722   1.245   7.473 -1.8731  0.1026  1.4721
 7314SOL    HW233576   3.754   1.174   7.355  1.1835  1.4526 -0.1703
 7315SOL     OW33577   3.764   3.264   3.628 -0.4065  0.3485 -0.1738
 7315SOL    HW133578   3.775   3.306   3.543 -0.5674  0.5258 -0.1070
 7315SOL    HW233579   3.757   3.174   3.597 -0.0167 -0.6790  2.7739
 7316SOL     OW33580   3.872   0.992   7.920 -0.2756 -0.2886  0.6498
 7316SOL    HW133581   3.955   1.010   7.877 -1.6554  0.5575 -1.6718
 7316SOL    HW233582   3.906   0.923   7.977  0.9211 -0.5131 -0.3350
 7317SOL     OW33583   1.457   0.794   2.293 -0.4814 -0.0176  0.4057
 7317SOL    HW133584   1.449   0.717   2.238 -0.2804  0.7421 -0.6788
 7317SOL    HW233585   1.540   0.787   2.340 -0.8249 -0.2145  0.9869
 7318SOL     OW33586   1.265   1.339   4.135 -0.1615 -0.0303  0.2540
 7318SOL    HW133587   1.290   1.287   4.212 -0.4075  1.4044  1.3062
 7318SOL    HW233588   1.173   1.314   4.123 -0.8262  1.5131  2.1802
 7319SOL     OW33589   3.543   1.726   6.920 -0.2968 -0.8830  0.4555
 7319SOL    HW133590   3.462   1.716   6.870 -1.5590  0.2500  2.2359
 7319SOL    HW233591   3.518   1.798   6.978  1.8451 -1.3812  2.0012
 7320SOL     OW33592   4.088   2.453  10.274 -0.6151  0.0066 -0.2584
 7320SOL    HW133593   3.995   2.470  10.261 -0.0730  2.0100 -1.4118
 7320SOL    HW233594   4.097   2.522  10.339 -2.9304  0.7327 -0.6997
 7321SOL     OW33595   2.585   3.501   6.432  0.1123 -0.0955  0.0338
 7321SOL    HW133596   2.561   3.594   6.439 -1.0219 -0.6153  3.1449
 7321SOL    HW233597   2.663   3.510   6.486  0.7011  0.8458 -0.9653
 7322SOL     OW33598   1.209   0.096   6.960 -0.5606 -0.0573 -0.1976
 7322SOL    HW133599   1.284   0.050   6.999 -0.3775  0.6465  0.2658
 7322SOL    HW233600   1.190   0.167   7.020  0.7676  0.8514 -0.8545
 7323SOL     OW33601   0.551   0.121   7.819  0.0634  0.4880  0.8288
 7323SOL    HW133602   0.631   0.172   7.808 -0.5050  1.0476 -0.7734
 7323SOL    HW233603   0.574   0.036   7.781 -3.9206 -0.2414 -0.0258
 7324SOL     OW33604   0.491   2.456   2.957 -0.4933  0.1828  0.0224
 7324SOL    HW133605   0.434   2.425   3.027  1.9204  0.5125  2.1196
 7324SOL    HW233606   0.554   2.511   3.003 -0.3014  0.3533 -0.4460
 7325SOL     OW33607   3.096   3.512   9.745 -0.4251  0.1244 -0.3703
 7325SOL    HW133608   3.050   3.475   9.669 -0.0744 -1.0371 -0.0199
 7325SOL    HW233609   3.137   3.583   9.695 -0.6957 -0.8370 -1.9512
 7326SOL     OW33610   2.686   1.496   6.138 -0.1081 -0.0865 -0.2116
 7326SOL    HW133611   2.736   1.417   6.161  4.3762  1.5334 -4.4029
 7326SOL    HW233612   2.678   1.530   6.228  0.8253  1.7170 -0.8034
 7327SOL     OW33613   3.328   2.680   1.483  0.3676 -0.3567  0.1439
 7327SOL    HW133614   3.350   2.745   1.550  2.1477 -1.2352  0.4094
 7327SOL    HW233615   3.237   2.655   1.498  0.9209 -2.2753  0.3618
 7328SOL     OW33616   3.366   1.608   5.015 -0.2624  0.3385  0.0956
 7328SOL    HW133617   3.385   1.671   5.085  3.0151 -0.3031 -0.2256
 7328SOL    HW233618   3.385   1.527   5.063  3.1887  0.7233 -0.6305
 7329SOL     OW33619   3.067   2.315   8.096  0.2824  0.4998 -0.8143
 7329SOL    HW133620   3.080   2.241   8.037  0.3407 -1.7842  2.1070
 7329SOL    HW233621   2.974   2.331   8.078  0.1233 -0.1602 -0.5720
 7330SOL     OW33622   2.350   3.637   6.814 -0.8118 -0.2049  0.1663
 7330SOL    HW133623   2.298   3.651   6.734  2.1125 -0.3842 -1.7735
 7330SOL    HW233624   2.339   3.724   6.851 -0.8863  0.2375 -0.9005
 7331SOL     OW33625   1.577   2.887   7.814 -0.1063  0.3454  0.9338
 7331SOL    HW133626   1.485   2.862   7.805  0.1080 -1.5065  4.0926
 7331SOL    HW233627   1.614   2.800   7.831 -0.6800 -0.4824 -2.0986
 7332SOL     OW33628   3.227   3.970   3.236  0.0289 -0.5393  0.6312
 7332SOL    HW133629   3.271   3.886   3.253 -0.5298 -0.8564  0.5182
 7332SOL    HW233630   3.136   3.941   3.240  0.4910 -2.1148 -0.0887
 7333SOL     OW33631   2.092   0.029   1.981 -0.1093 -0.0114 -0.1082
 7333SOL    HW133632   2.074   0.119   2.009  1.6906  0.4886 -0.5514
 7333SOL    HW233633   2.122   4.724   2.059 -3.4910 -0.5989  0.8716
 7334SOL     OW33634   3.068   2.517   6.450  0.5330 -0.1148  0.1331
 7334SOL    HW133635   3.069   2.439   6.394  1.1006 -1.3463  1.8338
 7334SOL    HW233636   3.073   2.471   6.534 -0.2556 -0.6196 -0.0988
 7335SOL     OW33637   0.684   1.468   7.282 -0.1283  0.6100  0.1496
 7335SOL    HW133638   0.634   1.547   7.261 -0.3919  0.3010 -0.3745
 7335SOL    HW233639   0.622   1.399   7.260  1.6829 -1.0487  0.2009
 7336SOL     OW33640   1.330   4.022  17.058 -0.2306  0.0295 -0.4051
 7336SOL    HW133641   1.327   3.985  16.969 -0.6571 -2.9219  0.8484
 7336SOL    HW233642   1.370   3.948  17.103 -0.9914  0.1696  0.5073
 7337SOL     OW33643   0.202   4.367   5.066 -0.5137  0.7469  0.1422
 7337SOL    HW133644   0.190   4.286   5.017  1.5897  0.9491 -0.7435
 7337SOL    HW233645   0.237   4.441   5.015  0.6229  0.4256  0.4435
 7338SOL     OW33646   0.465   3.019   3.951 -0.2294 -0.3677  0.3574
 7338SOL    HW133647   0.551   3.048   3.921 -1.4692  2.6878 -0.1444
 7338SOL    HW233648   0.450   2.934   3.910 -3.6842  0.5606 -0.2870
 7339SOL     OW33649   0.989   0.025   9.267 -0.1148  0.2779  0.6458
 7339SOL    HW133650   1.077   0.048   9.238 -0.0137  1.2775  1.7128
 7339SOL    HW233651   0.935   0.098   9.236  2.1520  2.0822  0.9067
 7340SOL     OW33652   3.405   0.102  11.824 -0.5255  0.0432 -0.4155
 7340SOL    HW133653   3.323   0.075  11.783 -0.8029  0.4798 -0.1537
 7340SOL    HW233654   3.392   0.086  11.918 -0.0420 -0.2069 -0.3882
 7341SOL     OW33655   2.994   2.428   9.512  0.3014 -0.0315 -0.0105
 7341SOL    HW133656   2.939   2.351   9.527 -1.9350  1.4204 -0.6491
 7341SOL    HW233657   2.968   2.453   9.423  1.8174  2.3255  0.2101
 7342SOL     OW33658   4.037   1.283  12.801  0.3260 -0.1307  0.6355
 7342SOL    HW133659   4.048   1.188  12.795  0.5176 -0.1404  1.2003
 7342SOL    HW233660   4.110   1.333  12.764 -0.7247 -0.2785 -1.6108
 7343SOL     OW33661   2.614   2.905   6.416 -0.2450  1.2271  0.3343
 7343SOL    HW133662   2.618   3.001   6.424 -1.9457  1.5070 -2.1374
 7343SOL    HW233663   2.520   2.893   6.431 -0.5082  0.9825 -1.4775
 7344SOL     OW33664   2.762   3.066   7.199  0.2234 -0.5191 -0.4675
 7344SOL    HW133665   2.846   3.020   7.202 -0.4856 -1.6082  2.9249
 7344SOL    HW233666   2.740   3.073   7.106 -0.8428 -0.3806 -0.2013
 7345SOL     OW33667   0.517   4.309  15.496  0.0104  0.0542  0.3473
 7345SOL    HW133668   0.510   4.367  15.420 -1.5781  1.5087  1.6076
 7345SOL    HW233669   0.589   4.352  15.542 -0.1449  0.4377  0.2357
 7346SOL     OW33670   4.642   1.627   7.178 -0.0106  0.0026 -0.0177
 7346SOL    HW133671   4.686   1.679   7.111  1.2922  1.2095  1.7634
 7346SOL    HW233672   4.563   1.681   7.190 -0.6232 -0.6507 -1.1881
 7347SOL     OW33673   0.411   0.002   3.413  0.7005  0.3084  1.1753
 7347SOL    HW133674   0.391   4.649   3.401  0.3277  0.5668 -0.1751
 7347SOL    HW233675   0.503   0.005   3.384  0.6469  0.7665  1.0515
 7348SOL     OW33676   3.802   0.203  16.704 -0.1773  0.0864  0.4267
 7348SOL    HW133677   3.805   0.108  16.706 -0.8015  0.0447 -0.7598
 7348SOL    HW233678   3.890   0.228  16.677  0.1617 -0.0832  1.4003
 7349SOL     OW33679   2.726   0.378   2.248 -0.4579  0.1245  0.1209
 7349SOL    HW133680   2.654   0.319   2.269  0.3541 -0.6976  0.5747
 7349SOL    HW233681   2.806   0.330   2.267 -0.9754 -1.2583 -1.1933
 7350SOL     OW33682   2.364   0.826   4.505  0.0626  0.3037 -0.0015
 7350SOL    HW133683   2.282   0.815   4.457 -1.2103  1.7264  1.8811
 7350SOL    HW233684   2.330   0.879   4.576  2.7607  1.0119  0.7921
 7351SOL     OW33685   1.686   4.049   2.551 -0.4261 -0.0867 -0.0189
 7351SOL    HW133686   1.624   4.040   2.624 -1.2337  1.9032 -0.4652
 7351SOL    HW233687   1.771   4.047   2.593  0.4859  2.0180 -1.7535
 7352SOL     OW33688   3.323   2.263   5.416  0.0841 -0.9967  0.2435
 7352SOL    HW133689   3.337   2.233   5.326 -0.0589  1.2868 -0.5580
 7352SOL    HW233690   3.413   2.278   5.444  0.1238  2.0260 -1.4146
 7353SOL     OW33691   0.075   3.368  10.116  0.0226  0.3047  0.2524
 7353SOL    HW133692   4.739   3.318  10.086  2.0987 -1.0393 -2.6845
 7353SOL    HW233693   0.140   3.299  10.125 -0.1152  0.2745  1.0786
 7354SOL     OW33694   3.103   2.927   3.281 -0.2947 -0.2833 -0.5294
 7354SOL    HW133695   3.074   2.838   3.299  2.3881 -0.4533  2.8404
 7354SOL    HW233696   3.177   2.931   3.341  0.0049 -0.1758 -0.9052
 7355SOL     OW33697   3.104   3.961   2.718 -0.7162  0.4239 -0.3904
 7355SOL    HW133698   3.074   3.874   2.744 -0.4127  0.3641 -0.2322
 7355SOL    HW233699   3.107   4.010   2.800 -1.0531 -0.3998  0.1247
 7356SOL     OW33700   3.053   3.802   1.568 -0.1673 -0.1127 -0.0275
 7356SOL    HW133701   3.022   3.738   1.633 -0.2621 -0.0149  0.0229
 7356SOL    HW233702   3.132   3.753   1.543  1.6698  2.6285  0.4298
 7357SOL     OW33703   2.240   1.374   1.886 -0.2079 -0.1805 -0.5009
 7357SOL    HW133704   2.330   1.364   1.856 -0.0222 -0.0193  0.0078
 7357SOL    HW233705   2.215   1.285   1.912 -2.7346  0.0531 -2.1308
 7358SOL     OW33706   1.913   1.446   5.071 -0.2718 -0.1416 -0.3982
 7358SOL    HW133707   1.910   1.419   5.163  1.2929 -1.9356 -0.8779
 7358SOL    HW233708   2.008   1.438   5.064 -0.1916  0.9142 -0.5940
 7359SOL     OW33709   0.297   2.625   7.515 -0.0212 -0.1594  0.3096
 7359SOL    HW133710   0.306   2.614   7.420  0.7086  2.0243  0.1311
 7359SOL    HW233711   0.303   2.720   7.521 -1.6414  0.0181 -0.8579
 7360SOL     OW33712   0.913   0.237   3.216 -0.3380  0.4601  0.4196
 7360SOL    HW133713   1.009   0.247   3.216 -0.2468 -0.4227 -0.0135
 7360SOL    HW233714   0.891   0.286   3.295  1.2333  0.4946  0.8350
 7361SOL     OW33715   0.071   4.379  15.333 -0.4621  0.0540 -0.8542
 7361SOL    HW133716   0.051   4.463  15.374 -0.5923 -1.9004  3.1859
 7361SOL    HW233717   0.154   4.360  15.376 -1.3336  0.2081  0.9260
 7362SOL     OW33718   1.360   1.673   7.821  0.0729  0.6872  0.6522
 7362SOL    HW133719   1.383   1.646   7.732 -1.5236 -0.6740  0.6639
 7362SOL    HW233720   1.409   1.621   7.886  0.9296  1.6026  0.7461
 7363SOL     OW33721   3.431   1.988   4.037 -0.6822 -0.1819 -0.3685
 7363SOL    HW133722   3.386   2.050   3.979  0.8013  1.8157  0.5993
 7363SOL    HW233723   3.519   1.989   3.999 -0.2260 -1.5846  0.6782
 7364SOL     OW33724   1.851   4.114  10.242 -0.0753  0.2344 -0.0355
 7364SOL    HW133725   1.944   4.096  10.249 -0.0515  0.5539  0.5011
 7364SOL    HW233726   1.821   4.027  10.271 -1.6776  0.2877 -1.5126
 7365SOL     OW33727   0.236   3.687  17.098  0.9742  0.3040  0.1589
 7365SOL    HW133728   0.180   3.739  17.041  0.2136  0.5080  1.0902
 7365SOL    HW233729   0.285   3.635  17.035 -1.8078 -0.4323 -1.4129
 7366SOL     OW33730   3.383   1.197  15.448 -0.2593 -0.5894  0.2793
 7366SOL    HW133731   3.421   1.113  15.474  3.0433  1.4540  1.8948
 7366SOL    HW233732   3.360   1.250  15.524  0.2250 -2.1809  1.5200
 7367SOL     OW33733   2.699   4.229  15.847 -0.2798  0.0316 -0.1445
 7367SOL    HW133734   2.669   4.214  15.937  2.2155 -2.2293  0.2778
 7367SOL    HW233735   2.704   4.324  15.849 -0.2849  0.0130  0.5299
 7368SOL     OW33736   2.749   0.112   8.077 -0.2933  0.3076 -0.3529
 7368SOL    HW133737   2.786   0.194   8.045  1.6202 -0.5780 -0.4137
 7368SOL    HW233738   2.685   0.096   8.007 -0.0688 -1.4399 -0.1454
 7369SOL     OW33739   2.030   1.380   7.320 -0.4466  0.5155  0.3396
 7369SOL    HW133740   2.009   1.315   7.387  0.0984 -0.6154 -0.5820
 7369SOL    HW233741   2.083   1.442   7.370 -1.8496  2.7846 -1.0086
 7370SOL     OW33742   3.414   1.664   7.830  0.1762 -0.0861 -0.5255
 7370SOL    HW133743   3.377   1.672   7.918  1.6383  3.0131 -0.1980
 7370SOL    HW233744   3.497   1.618   7.841  1.1587  1.2929 -2.1809
 7371SOL     OW33745   2.779   0.111   7.144 -0.1836 -0.4300 -0.1619
 7371SOL    HW133746   2.700   0.058   7.136 -0.5803  0.2535 -0.8111
 7371SOL    HW233747   2.834   0.089   7.069 -1.6385 -1.3631 -0.9601
 7372SOL     OW33748   3.860   2.373  15.913  0.0005  0.5155  0.1425
 7372SOL    HW133749   3.924   2.302  15.914 -1.7509 -1.0657 -0.0580
 7372SOL    HW233750   3.917   2.444  15.941 -1.3284  0.6724  2.4273
 7373SOL     OW33751   0.329   1.059   4.980 -0.4865 -0.2395 -0.4209
 7373SOL    HW133752   0.242   1.092   4.956 -1.3639 -2.0514  0.2491
 7373SOL    HW233753   0.301   0.989   5.040  1.2370 -1.5807 -1.1670
 7374SOL     OW33754   0.001   4.062   6.973 -0.3019  0.3734 -0.1508
 7374SOL    HW133755   0.064   4.126   7.006  0.4769 -0.7369  0.5087
 7374SOL    HW233756   0.031   3.979   7.008 -0.3880  0.2887 -0.2777
 7375SOL     OW33757   4.290   0.080   3.700  0.6323  0.2204  0.1241
 7375SOL    HW133758   4.358   0.043   3.645  0.3724  3.6740 -2.5369
 7375SOL    HW233759   4.332   0.095   3.785 -1.1413  0.3235  0.9879
 7376SOL     OW33760   0.207   0.912  17.431 -0.0164  0.2542 -0.0411
 7376SOL    HW133761   0.123   0.939  17.395 -0.9647 -3.0152 -0.3131
 7376SOL    HW233762   0.213   0.824  17.394 -3.2182 -1.1760  2.7960
 7377SOL     OW33763   2.827   2.795   5.808  0.5531  0.1075 -0.1803
 7377SOL    HW133764   2.816   2.888   5.787  0.1211  0.2697  0.7478
 7377SOL    HW233765   2.831   2.747   5.725  0.3292 -1.0954  0.5007
 7378SOL     OW33766   0.905   1.035   3.512 -0.0994  0.4581 -0.4880
 7378SOL    HW133767   0.959   1.015   3.589 -0.5868 -0.6422 -0.4260
 7378SOL    HW233768   0.916   1.129   3.501  0.0740  0.3247 -1.4263
 7379SOL     OW33769   1.314   4.290   2.987  0.7348  0.4708  0.0096
 7379SOL    HW133770   1.358   4.373   3.005 -1.6169  1.7504 -0.1773
 7379SOL    HW233771   1.239   4.298   3.045 -1.1042  1.3088 -2.4944
 7380SOL     OW33772   2.095   2.386  16.464 -0.0531 -0.1983 -0.4450
 7380SOL    HW133773   2.111   2.307  16.412  0.8624 -0.0906 -0.3349
 7380SOL    HW233774   2.169   2.381  16.525 -0.5200  2.4809  0.3284
 7381SOL     OW33775   1.576   3.862   4.300 -0.7941  0.2305 -0.1674
 7381SOL    HW133776   1.546   3.921   4.369 -0.5620  0.2517 -0.0822
 7381SOL    HW233777   1.540   3.909   4.224 -0.1893  1.4949  0.3319
 7382SOL     OW33778   3.934   3.179  10.101  0.0987  0.6212  0.5205
 7382SOL    HW133779   3.861   3.240  10.113 -0.6092 -0.3824  1.3134
 7382SOL    HW233780   3.903   3.106  10.046 -2.1933  1.7816  0.2536
 7383SOL     OW33781   2.304   3.495   8.321  0.0256  0.4368  0.0816
 7383SOL    HW133782   2.245   3.459   8.255 -0.8509  2.3001 -0.1694
 7383SOL    HW233783   2.256   3.506   8.404  0.4355 -0.5516  0.4461
 7384SOL     OW33784   0.921   3.251  11.572  0.0108  0.5901  0.2395
 7384SOL    HW133785   0.987   3.219  11.510  0.5405  1.7115  0.2266
 7384SOL    HW233786   0.860   3.178  11.564  0.9371 -0.2319  0.6555
 7385SOL     OW33787   3.885   1.039   1.959  0.3171 -0.5184 -0.2212
 7385SOL    HW133788   3.843   1.091   1.890  1.3779  1.6076  0.7144
 7385SOL    HW233789   3.968   1.084   1.973  0.2309 -1.1974  2.4003
 7386SOL     OW33790   2.546   4.409   7.375 -0.9637  0.2068 -0.3825
 7386SOL    HW133791   2.619   4.365   7.419 -0.0645  0.5468 -1.5577
 7386SOL    HW233792   2.514   4.483   7.427 -0.5248 -0.8404  1.3762
 7387SOL     OW33793   2.138   0.501   3.021  0.3718 -0.2214  0.3201
 7387SOL    HW133794   2.206   0.547   3.070  0.7294 -0.0997 -0.2943
 7387SOL    HW233795   2.149   0.561   2.947 -1.0291  0.8197  0.9449
 7388SOL     OW33796   1.706   0.389   7.101  0.0679 -0.0527 -0.4743
 7388SOL    HW133797   1.797   0.414   7.087  0.4355  0.0563  2.1547
 7388SOL    HW233798   1.707   0.296   7.079 -0.9993  0.4281 -2.5987
 7389SOL     OW33799   3.744   4.636   6.847  0.3709 -0.1068 -0.3057
 7389SOL    HW133800   3.787   4.721   6.848  0.0023  0.0759  0.2421
 7389SOL    HW233801   3.761   4.600   6.760 -1.5903 -2.3191  0.2448
 7390SOL     OW33802   3.400   1.206   5.422  0.5316 -0.1108 -0.3211
 7390SOL    HW133803   3.494   1.195   5.436  0.9316  1.6135 -1.6612
 7390SOL    HW233804   3.401   1.293   5.462 -1.1444 -0.7314  1.1006
 7391SOL     OW33805   3.034   2.873  17.047 -0.6284 -0.7856  0.3955
 7391SOL    HW133806   3.081   2.955  17.031 -2.1970  0.0329 -0.0404
 7391SOL    HW233807   3.055   2.863  17.140 -1.4026 -2.9699  0.3327
 7392SOL     OW33808   3.300   2.636   6.549 -0.2967  0.1900  0.4112
 7392SOL    HW133809   3.381   2.586   6.558  0.1517  1.1864  2.0126
 7392SOL    HW233810   3.236   2.571   6.520 -0.0773 -1.0258  2.5916
 7393SOL     OW33811   0.254   2.740  10.269 -0.0058  0.3035  0.0839
 7393SOL    HW133812   0.319   2.672  10.283 -0.5178  0.0276  1.1240
 7393SOL    HW233813   0.316   2.812  10.281  0.9998 -0.4495 -0.6901
 7394SOL     OW33814   3.926   2.925   6.124  0.2433 -0.2211 -0.5942
 7394SOL    HW133815   3.951   2.889   6.209  0.9260 -1.6358 -1.3781
 7394SOL    HW233816   4.011   2.920   6.080 -0.1237 -2.8967 -0.9915
 7395SOL     OW33817   4.650   1.136  11.778  0.5421  0.1912 -0.3838
 7395SOL    HW133818   4.597   1.193  11.834 -2.7973 -1.8106 -1.5014
 7395SOL    HW233819   4.618   1.048  11.795 -0.2051  0.9173  1.9776
 7396SOL     OW33820   2.432   4.472   7.890 -0.7279 -0.1224  0.1752
 7396SOL    HW133821   2.367   4.497   7.824 -0.8169  0.8904  0.6439
 7396SOL    HW233822   2.516   4.470   7.844 -1.5804 -0.2416 -1.4043
 7397SOL     OW33823   2.117   1.584  13.767  0.4452  0.7377 -0.0535
 7397SOL    HW133824   2.084   1.617  13.851 -0.8465 -1.0856  0.1533
 7397SOL    HW233825   2.204   1.623  13.753  0.8128 -0.8291 -2.2280
 7398SOL     OW33826   2.109   2.985   4.202  0.0751 -0.4372  0.5179
 7398SOL    HW133827   2.067   2.921   4.144 -0.5656  1.2800 -0.9042
 7398SOL    HW233828   2.198   2.950   4.194 -0.5717 -1.2233 -3.2257
 7399SOL     OW33829   1.945   1.819   6.210 -0.1336 -0.2227 -0.1903
 7399SOL    HW133830   1.997   1.832   6.289  1.4747 -0.0244 -1.2826
 7399SOL    HW233831   2.020   1.792   6.156 -0.5037 -0.5153 -0.5609
 7400SOL     OW33832   3.031   1.601   7.875  0.9313  0.3878 -0.6187
 7400SOL    HW133833   3.058   1.533   7.813 -3.2916 -2.1589  0.3622
 7400SOL    HW233834   3.093   1.576   7.944  0.4379  0.2110 -0.2466
 7401SOL     OW33835   1.445   1.729   8.908 -0.1362 -0.4343  0.1260
 7401SOL    HW133836   1.392   1.733   8.828 -0.8387  0.0554  0.6202
 7401SOL    HW233837   1.419   1.643   8.940  4.1369 -1.5290  0.7170
 7402SOL     OW33838   1.706   3.749   8.223 -0.2222  0.4121 -0.5326
 7402SOL    HW133839   1.734   3.740   8.314 -1.3112 -0.4238 -0.2781
 7402SOL    HW233840   1.725   3.842   8.210  1.7185 -0.1433 -1.5841
 7403SOL     OW33841   3.573   1.317  11.244 -0.0913  0.3729  0.2293
 7403SOL    HW133842   3.575   1.411  11.262 -0.0468 -0.1474  2.9196
 7403SOL    HW233843   3.665   1.294  11.261 -0.5510 -2.6349 -1.3392
 7404SOL     OW33844   3.347   2.900   5.466 -0.3275  0.3488  0.7386
 7404SOL    HW133845   3.264   2.904   5.419 -0.7016  0.5188  1.4259
 7404SOL    HW233846   3.316   2.891   5.556 -0.8388 -1.2372  0.4061
 7405SOL     OW33847   4.199   4.694   5.565 -0.0870  0.4797 -0.9695
 7405SOL    HW133848   4.288   4.689   5.530  0.0872 -1.0947 -0.2679
 7405SOL    HW233849   4.223   4.688   5.657 -0.0685  0.0395 -1.0061
 7406SOL     OW33850   0.906   1.951   7.518 -0.0174  0.4590 -0.6329
 7406SOL    HW133851   0.894   1.874   7.572 -1.6013  1.0102 -0.2158
 7406SOL    HW233852   0.854   1.924   7.442  1.3762 -2.4125 -0.5729
 7407SOL     OW33853   1.698   0.496  13.324 -0.0046  0.8138 -0.1369
 7407SOL    HW133854   1.785   0.527  13.349 -0.4566  0.6420  1.6248
 7407SOL    HW233855   1.650   0.471  13.403  1.1445  0.7922  0.5564
 7408SOL     OW33856   3.955   1.720   7.971  0.0627  0.0127 -0.2355
 7408SOL    HW133857   3.917   1.635   7.993 -0.9689  0.8098  1.0957
 7408SOL    HW233858   3.879   1.764   7.933  0.0806  0.6913  0.5084
 7409SOL     OW33859   2.635   1.309   1.326 -0.5761  0.3237 -0.0667
 7409SOL    HW133860   2.704   1.374   1.311  0.4200 -1.0150 -1.1886
 7409SOL    HW233861   2.688   1.230   1.327 -0.6088  0.2753 -1.9880
 7410SOL     OW33862   0.111   3.856   5.825 -0.0450  0.6971 -0.3986
 7410SOL    HW133863   0.065   3.772   5.827  0.5547  0.3715 -0.1912
 7410SOL    HW233864   0.151   3.851   5.738 -1.7140  0.6045 -1.1660
 7411SOL     OW33865   0.830   0.522   3.264 -0.8408 -0.1824  0.3091
 7411SOL    HW133866   0.882   0.505   3.343  0.4708  1.6138 -0.1778
 7411SOL    HW233867   0.823   0.616   3.251 -0.5836 -0.2082  0.0011
 7412SOL     OW33868   2.165   4.030  16.944  0.1084 -0.1233  0.5926
 7412SOL    HW133869   2.126   4.108  16.904 -1.1064 -0.1732  1.6973
 7412SOL    HW233870   2.226   3.989  16.882  0.6064 -0.7445  1.4872
 7413SOL     OW33871   3.558   0.683   7.690  0.2358  0.0633 -0.1565
 7413SOL    HW133872   3.477   0.643   7.657 -0.1257 -0.6607  1.5863
 7413SOL    HW233873   3.533   0.705   7.780  0.0493  1.3934 -0.5330
 7414SOL     OW33874   2.193   3.206  12.068  0.0811 -0.3477  0.8186
 7414SOL    HW133875   2.165   3.120  12.035  1.9843 -1.0253  0.9730
 7414SOL    HW233876   2.273   3.216  12.017  1.1796 -1.1154  2.3926
 7415SOL     OW33877   3.673   1.147   3.680  0.5885  0.0422 -0.3045
 7415SOL    HW133878   3.764   1.124   3.663  0.3310 -1.4652  0.3841
 7415SOL    HW233879   3.684   1.242   3.684 -1.6557  0.3412 -1.3238
 7416SOL     OW33880   4.660   1.947  11.043 -0.0217  0.6359  0.0591
 7416SOL    HW133881   4.653   1.911  11.131  0.7168  0.1108 -0.1022
 7416SOL    HW233882   4.580   1.918  10.999  0.5075  1.6570 -1.5872
 7417SOL     OW33883   4.462   3.657   4.826 -0.0906 -0.0759  0.9306
 7417SOL    HW133884   4.475   3.729   4.764  0.4525 -1.1153 -0.1623
 7417SOL    HW233885   4.533   3.601   4.796  1.6462  4.1666 -2.7854
 7418SOL     OW33886   0.619   1.411   6.620  0.3140 -0.1695  0.4327
 7418SOL    HW133887   0.569   1.471   6.564  2.4171  0.8708 -0.3656
 7418SOL    HW233888   0.557   1.349   6.659 -0.4058 -0.2515 -0.8403
 7419SOL     OW33889   1.214   0.733   7.675 -0.6900 -0.2716  0.3858
 7419SOL    HW133890   1.260   0.724   7.758  0.1211  1.5478  0.1337
 7419SOL    HW233891   1.190   0.642   7.661 -1.8800 -0.2887  2.5567
 7420SOL     OW33892   4.698   4.054   5.670  0.0954 -0.1297 -0.6099
 7420SOL    HW133893   0.046   4.019   5.680  0.0311 -0.0921  0.0631
 7420SOL    HW233894   4.662   3.981   5.619 -2.3373  0.4993  0.2190
 7421SOL     OW33895   1.487   4.607   3.973 -0.0099 -0.0916  0.2608
 7421SOL    HW133896   1.536   4.582   3.895 -1.4111 -0.1213 -0.6168
 7421SOL    HW233897   1.558   4.613   4.036 -0.9196  2.1393  1.0845
 7422SOL     OW33898   3.610   4.549   2.486 -0.3576 -0.3490 -0.7519
 7422SOL    HW133899   3.670   4.478   2.510 -0.1839  0.5369  1.4385
 7422SOL    HW233900   3.661   4.622   2.519  0.5864 -1.6134  0.5804
 7423SOL     OW33901   0.929   2.458   4.994 -0.0560  0.0067  0.6639
 7423SOL    HW133902   0.858   2.486   4.936  1.9565  1.1167 -1.2197
 7423SOL    HW233903   1.007   2.501   4.960 -0.6100 -0.5479 -1.3210
 7424SOL     OW33904   1.698   1.364   7.743  0.1374 -0.0197 -0.0519
 7424SOL    HW133905   1.781   1.334   7.781 -0.9148 -2.8910  0.0104
 7424SOL    HW233906   1.653   1.390   7.823 -0.4307  1.6073 -0.9101
 7425SOL     OW33907   1.411   3.574   7.287  0.1153 -0.0232 -0.1477
 7425SOL    HW133908   1.463   3.569   7.367 -0.7391  0.8908  0.4653
 7425SOL    HW233909   1.461   3.512   7.235 -0.4670 -0.9123  0.3422
 7426SOL     OW33910   1.548   3.712   8.551 -0.3131  0.1397 -0.2787
 7426SOL    HW133911   1.540   3.776   8.621 -0.4023 -0.8947  0.6465
 7426SOL    HW233912   1.535   3.637   8.610  0.3275 -0.4954 -0.9424
 7427SOL     OW33913   4.397   0.833  11.517  0.1939 -0.4721  0.6038
 7427SOL    HW133914   4.343   0.760  11.548 -0.8489  0.1507  0.2359
 7427SOL    HW233915   4.439   0.791  11.441  2.0704  0.5665  1.0633
 7428SOL     OW33916   4.663   3.079   2.966 -0.1694  0.2454  0.4428
 7428SOL    HW133917   4.572   3.069   2.994 -0.8691  1.1117 -1.5716
 7428SOL    HW233918   4.670   3.158   2.913  0.0410 -0.0392  0.0483
 7429SOL     OW33919   0.848   2.440  15.897  0.0326  0.0380 -0.0286
 7429SOL    HW133920   0.830   2.399  15.982 -1.5232 -1.0616 -0.9049
 7429SOL    HW233921   0.942   2.420  15.899  0.6806  3.0556 -0.3926
 7430SOL     OW33922   0.945   4.203   7.263  0.0142 -0.5158  0.4832
 7430SOL    HW133923   0.948   4.259   7.341  2.1587 -0.0057  0.0299
 7430SOL    HW233924   0.887   4.129   7.284 -0.2262 -0.3766  0.3199
 7431SOL     OW33925   1.841   2.844   1.414  0.0117 -0.5317  0.4067
 7431SOL    HW133926   1.904   2.833   1.342 -0.2033  0.8075  0.0166
 7431SOL    HW233927   1.876   2.922   1.459 -0.7522 -1.1398  2.0655
 7432SOL     OW33928   4.379   0.746   8.385  0.4710  0.3150  0.2965
 7432SOL    HW133929   4.405   0.838   8.381 -0.1988  0.5212  0.7394
 7432SOL    HW233930   4.351   0.737   8.294  2.0206 -0.5939 -0.0865
 7433SOL     OW33931   2.953   3.956  14.096  0.7116 -0.6079 -0.1259
 7433SOL    HW133932   2.956   4.050  14.078  1.6871  0.1436  3.8853
 7433SOL    HW233933   2.986   3.929  14.011 -0.1265  0.5788 -0.8239
 7434SOL     OW33934   3.447   3.872  17.740  0.4723 -0.0577 -0.4415
 7434SOL    HW133935   3.430   3.957  17.701 -2.8887 -0.5829 -0.0733
 7434SOL    HW233936   3.542   3.880  17.729  0.8952 -2.6499  1.2090
 7435SOL     OW33937   4.154   1.652   1.759 -0.2212 -0.6469  0.1233
 7435SOL    HW133938   4.173   1.587   1.828 -2.1035  0.8142  2.0093
 7435SOL    HW233939   4.190   1.733   1.794 -1.4302 -0.1491  0.2050
 7436SOL     OW33940   3.928   4.369   6.624  0.3947 -0.2805  0.2373
 7436SOL    HW133941   3.832   4.379   6.629  0.3986  0.7060 -1.8561
 7436SOL    HW233942   3.944   4.276   6.606  2.6989  0.3441 -0.9220
 7437SOL     OW33943   0.319   1.909   8.450 -0.7156  0.4020 -0.4574
 7437SOL    HW133944   0.307   1.840   8.384  0.7863  0.4094 -0.7407
 7437SOL    HW233945   0.273   1.885   8.531 -0.4647 -0.4933 -0.5815
 7438SOL     OW33946   0.551   3.746  12.168  0.0163  0.2855 -0.9519
 7438SOL    HW133947   0.493   3.713  12.237  3.2723 -1.3985  0.9686
 7438SOL    HW233948   0.514   3.828  12.136 -1.3123  0.6428  1.4809
 7439SOL     OW33949   1.920   2.257   5.737  0.2399 -0.2340  0.1416
 7439SOL    HW133950   1.889   2.169   5.717  0.4514 -0.1592 -0.5138
 7439SOL    HW233951   1.912   2.263   5.833  1.6196  2.2607  0.0962
 7440SOL     OW33952   4.185   2.788   9.615  0.5270 -0.2916  0.3497
 7440SOL    HW133953   4.204   2.709   9.666  1.9979 -2.3312 -3.3608
 7440SOL    HW233954   4.134   2.838   9.678  0.6316  0.3391 -0.0667
 7441SOL     OW33955   2.244   0.478   7.759 -0.7073 -0.1376 -0.1647
 7441SOL    HW133956   2.217   0.397   7.801  0.8281  0.2224  1.5342
 7441SOL    HW233957   2.220   0.451   7.670  0.4334 -0.0842 -0.4894
 7442SOL     OW33958   4.729   2.127   6.786  0.2246 -0.3496  0.2007
 7442SOL    HW133959   4.644   2.170   6.796  1.1756  1.5687 -0.0102
 7442SOL    HW233960   4.722   2.077   6.868  0.3905  2.1224  1.7334
 7443SOL     OW33961   2.395   1.228  10.275 -0.3773  0.4973  0.0986
 7443SOL    HW133962   2.385   1.197  10.185  0.2787 -1.9508  0.8652
 7443SOL    HW233963   2.410   1.321  10.263  1.0719 -0.2909 -3.9310
 7444SOL     OW33964   4.527   1.728   6.650  0.1841 -0.8003 -0.8987
 7444SOL    HW133965   4.436   1.726   6.619 -0.6050  2.6900  1.1406
 7444SOL    HW233966   4.558   1.799   6.594 -1.5592  0.5405 -0.1781
 7445SOL     OW33967   4.437   0.201  10.268 -0.0083 -0.3025 -0.2145
 7445SOL    HW133968   4.475   0.272  10.215  0.5170  0.7039  1.5155
 7445SOL    HW233969   4.493   0.205  10.345 -2.6581 -4.1744  1.8778
 7446SOL     OW33970   3.372   3.071   5.229  0.5450  0.0927 -0.1026
 7446SOL    HW133971   3.350   3.091   5.320  0.8648 -1.7081  0.3559
 7446SOL    HW233972   3.459   3.104   5.209 -0.4129  2.9337  0.3680
 7447SOL     OW33973   2.469   0.804   8.897 -0.2369 -0.1865 -0.0631
 7447SOL    HW133974   2.521   0.803   8.977 -1.6401  3.1089  0.8886
 7447SOL    HW233975   2.480   0.716   8.863 -0.6344 -0.1639 -0.2538
 7448SOL     OW33976   0.970   3.668  13.509 -0.2937 -0.2147 -0.2337
 7448SOL    HW133977   1.027   3.618  13.450  2.3303  2.5741 -0.0759
 7448SOL    HW233978   0.949   3.731  13.440 -0.6796  0.0811  0.1574
 7449SOL     OW33979   2.987   3.206   2.487  0.3282  0.1886 -0.6807
 7449SOL    HW133980   3.004   3.298   2.467  0.3471  0.3348  0.0152
 7449SOL    HW233981   2.918   3.205   2.553  2.9500  0.5698  2.0259
 7450SOL     OW33982   1.553   1.797   2.098 -0.6610  0.2179  0.3175
 7450SOL    HW133983   1.487   1.775   2.164 -1.2685  0.6106 -0.1535
 7450SOL    HW233984   1.495   1.852   2.045 -0.1034 -0.5322 -1.0839
 7451SOL     OW33985   2.998   0.506   7.660  0.0398  0.2926 -0.0538
 7451SOL    HW133986   3.005   0.535   7.569 -1.2531  0.1419 -0.2065
 7451SOL    HW233987   2.993   0.411   7.661  1.1794  0.2296  0.2754
 7452SOL     OW33988   4.032   0.463  14.374 -0.0751  0.2542 -0.1719
 7452SOL    HW133989   4.068   0.533  14.428 -4.2205  3.1525 -1.1516
 7452SOL    HW233990   4.035   0.505  14.287  1.0432 -1.9177 -1.1753
 7453SOL     OW33991   0.328   2.002   1.735 -0.3680  0.1529  0.0082
 7453SOL    HW133992   0.385   2.079   1.734 -1.6292  1.0789  0.0938
 7453SOL    HW233993   0.340   1.986   1.829  0.7702 -1.1210 -0.3475
 7454SOL     OW33994   1.213   0.588   3.992 -0.2228  0.6438  0.0882
 7454SOL    HW133995   1.168   0.613   4.072 -0.2387 -2.5811  1.0706
 7454SOL    HW233996   1.180   0.498   3.985  2.7852 -0.5903  1.5415
 7455SOL     OW33997   1.913   1.668   3.564 -1.2216  0.1826  0.7773
 7455SOL    HW133998   1.969   1.649   3.640 -1.3530 -0.4332  0.7194
 7455SOL    HW233999   1.975   1.658   3.492 -2.1763  0.0636 -0.0133
 7456SOL     OW34000   1.009   1.883   6.873 -0.2217  0.2866 -0.0529
 7456SOL    HW134001   0.952   1.857   6.946  0.4237  0.6399  0.5795
 7456SOL    HW234002   1.027   1.804   6.822  0.7012 -0.0445  0.7729
 7457SOL     OW34003   2.752   3.986  13.310  0.4609  0.2368 -0.1209
 7457SOL    HW134004   2.781   4.036  13.386  0.3728 -1.1442  0.8243
 7457SOL    HW234005   2.747   4.054  13.243 -1.8219 -1.1845 -1.3977
 7458SOL     OW34006   2.781   2.008   2.050  0.5836 -0.2060 -0.5599
 7458SOL    HW134007   2.712   2.063   2.086  2.4716  0.7807  1.5239
 7458SOL    HW234008   2.801   2.060   1.973  1.6622  0.0418 -0.1172
 7459SOL     OW34009   2.632   3.166   7.406  0.1156 -0.2362  0.4338
 7459SOL    HW134010   2.669   3.124   7.329 -0.1950 -0.2145  0.2726
 7459SOL    HW234011   2.625   3.255   7.370  3.7176  1.0528  2.8881
 7460SOL     OW34012   0.813   0.906  11.085  0.1728 -0.2244  0.9084
 7460SOL    HW134013   0.853   0.892  11.171 -0.6526 -4.8454  0.5324
 7460SOL    HW234014   0.753   0.979  11.099 -3.2813 -2.6696 -1.1398
 7461SOL     OW34015   1.716   3.600   4.018  0.2215  0.2735  0.1285
 7461SOL    HW134016   1.750   3.656   3.949  0.2828  0.0627 -0.0112
 7461SOL    HW234017   1.746   3.516   3.983 -0.5054  1.5535 -3.5210
 7462SOL     OW34018   1.121   2.403   4.440 -0.1466  0.3870 -0.3298
 7462SOL    HW134019   1.065   2.333   4.407  1.1479 -0.2395 -1.1562
 7462SOL    HW234020   1.141   2.369   4.528  1.6069 -1.1654 -1.3320
 7463SOL     OW34021   4.329   3.717   5.055  0.5678  0.3913 -0.1580
 7463SOL    HW134022   4.356   3.672   4.976 -0.6306  0.3971 -0.5720
 7463SOL    HW234023   4.261   3.775   5.022  2.4208  0.8032 -3.2526
 7464SOL     OW34024   1.189   2.614   4.946 -0.3440 -0.7732 -0.2074
 7464SOL    HW134025   1.272   2.597   4.901  0.6988  1.8380  0.7471
 7464SOL    HW234026   1.220   2.642   5.032 -1.1455  0.6282 -0.3654
 7465SOL     OW34027   4.537   4.450   2.639  0.3125 -0.2267 -0.3631
 7465SOL    HW134028   4.568   4.365   2.608 -0.6306 -1.2090  1.3476
 7465SOL    HW234029   4.500   4.499   2.566  0.3681  1.0327  0.4531
 7466SOL     OW34030   4.308   0.491   3.730  0.5821 -0.4057 -0.0837
 7466SOL    HW134031   4.389   0.526   3.692  1.6182 -0.5776  1.9920
 7466SOL    HW234032   4.233   0.540   3.696  0.8935 -0.6358 -1.1014
 7467SOL     OW34033   2.512   0.281   4.987 -0.0641  0.1852 -0.6772
 7467SOL    HW134034   2.441   0.265   5.049 -0.1261  3.8436  0.2286
 7467SOL    HW234035   2.548   0.193   4.980  0.1480  0.1965  0.2460
 7468SOL     OW34036   0.199   0.142  11.917 -0.6750 -0.5487  0.0076
 7468SOL    HW134037   0.155   0.059  11.898  2.1278 -1.4710 -2.6091
 7468SOL    HW234038   0.285   0.120  11.881 -0.4424  2.9959 -1.6090
 7469SOL     OW34039   1.954   3.812  16.276  0.4910  0.1410  0.6039
 7469SOL    HW134040   1.907   3.729  16.287 -0.3234  0.3651 -1.2917
 7469SOL    HW234041   1.893   3.856  16.216 -0.1098 -0.3146  0.8842
 7470SOL     OW34042   4.086   0.300   2.358  0.9722 -0.3008  0.2714
 7470SOL    HW134043   4.031   0.379   2.364  0.8111 -0.4044  0.1688
 7470SOL    HW234044   4.092   0.275   2.450  1.1002 -2.5637 -0.3546
 7471SOL     OW34045   2.994   1.407  16.225 -0.0900  1.1135  0.8267
 7471SOL    HW134046   3.075   1.430  16.271  0.8358  0.3922 -0.4598
 7471SOL    HW234047   2.994   1.313  16.243 -0.7860  0.4462 -2.6671
 7472SOL     OW34048   0.821   0.450   2.292 -0.0189 -0.2161  0.3375
 7472SOL    HW134049   0.805   0.410   2.207 -2.2310  1.7065 -0.1727
 7472SOL    HW234050   0.737   0.444   2.337 -1.4427  0.5538 -2.2026
 7473SOL     OW34051   1.337   2.150   6.559  0.1869 -0.0650 -0.0584
 7473SOL    HW134052   1.373   2.239   6.550  0.1755 -0.1741 -1.1917
 7473SOL    HW234053   1.275   2.156   6.632  0.4273 -0.4929  0.1831
 7474SOL     OW34054   2.724   4.371   2.488 -0.2004 -0.6489 -0.0939
 7474SOL    HW134055   2.644   4.332   2.523 -0.3885 -0.8402 -0.7404
 7474SOL    HW234056   2.698   4.461   2.506 -1.6395 -0.8436 -1.2879
 7475SOL     OW34057   4.425   4.181   5.534 -0.2500  0.4423  0.1472
 7475SOL    HW134058   4.499   4.222   5.577  0.6962 -0.6066 -0.4665
 7475SOL    HW234059   4.455   4.091   5.521 -0.8547  0.2707 -0.0555
 7476SOL     OW34060   3.038   4.475   6.030 -0.0654  0.6708 -0.1632
 7476SOL    HW134061   3.048   4.417   5.955  1.6377 -0.2048  0.7242
 7476SOL    HW234062   3.051   4.560   5.988  1.1626  0.1511 -0.8320
 7477SOL     OW34063   2.315   4.063   6.565 -0.4700 -0.1366  0.1623
 7477SOL    HW134064   2.262   4.128   6.519 -1.2987 -0.8829  0.0714
 7477SOL    HW234065   2.365   4.124   6.619  1.0910 -1.1329 -0.1704
 7478SOL     OW34066   2.287   0.534   1.831  0.1978  0.7373 -0.1213
 7478SOL    HW134067   2.324   0.449   1.853  3.2666  2.4583  1.4615
 7478SOL    HW234068   2.203   0.538   1.876 -0.8911  0.3837 -2.1350
 7479SOL     OW34069   1.819   0.363   7.401 -0.5620  0.0534  0.1271
 7479SOL    HW134070   1.878   0.384   7.328 -1.0888  1.7464  0.1962
 7479SOL    HW234071   1.742   0.419   7.387 -0.7378 -0.4694 -1.0595
 7480SOL     OW34072   2.442   0.878   9.478 -0.1755 -0.5819  0.3786
 7480SOL    HW134073   2.368   0.934   9.501  0.9204  0.6494  0.8867
 7480SOL    HW234074   2.417   0.799   9.527 -2.1253  0.2030  0.6640
 7481SOL     OW34075   0.902   1.215   4.318  0.8579  0.0551  0.3023
 7481SOL    HW134076   0.885   1.307   4.296  0.2339  0.6215  3.0903
 7481SOL    HW234077   0.913   1.232   4.412  2.6424  0.6995 -0.0224
 7482SOL     OW34078   3.359   4.110  15.081 -0.3741  0.1971 -0.5117
 7482SOL    HW134079   3.397   4.055  15.013  2.5456 -0.7655  1.8603
 7482SOL    HW234080   3.433   4.169  15.099 -0.8127 -0.0584  2.1431
 7483SOL     OW34081   1.326   1.070   4.632  0.0666  0.3449 -0.3430
 7483SOL    HW134082   1.324   0.979   4.604 -3.5771  0.1820  0.3820
 7483SOL    HW234083   1.253   1.067   4.694  0.1217 -0.3578 -0.3172
 7484SOL     OW34084   0.287   1.773   1.002 -0.2594 -0.2711 -0.6552
 7484SOL    HW134085   0.362   1.807   1.051  0.9169 -1.0039 -1.9471
 7484SOL    HW234086   0.273   1.847   0.943 -1.8742  0.5264  0.6978
 7485SOL     OW34087   0.105   2.844  14.823 -0.2586  0.0714  0.6912
 7485SOL    HW134088   0.081   2.934  14.846  1.1357  1.1984 -2.1939
 7485SOL    HW234089   0.189   2.840  14.868  1.0254  0.0924 -1.7072
 7486SOL     OW34090   0.628   0.402   3.770  0.4518 -0.1105 -0.0907
 7486SOL    HW134091   0.686   0.334   3.738  1.3105  0.7396 -0.3289
 7486SOL    HW234092   0.656   0.466   3.705  1.3103  1.2894  1.6457
 7487SOL     OW34093   4.187   3.954   3.026  0.2225  0.1022  0.0839
 7487SOL    HW134094   4.164   4.010   3.100  3.8407  1.8153 -0.1175
 7487SOL    HW234095   4.192   3.871   3.074  1.2254  0.9823  1.5205
 7488SOL     OW34096   0.110   4.103   3.193 -0.1897  0.1432 -0.1597
 7488SOL    HW134097   0.130   4.039   3.261  1.3583  0.2668 -0.5037
 7488SOL    HW234098   0.037   4.062   3.145 -0.5524  0.4826  0.0999
 7489SOL     OW34099   0.368   1.714   4.061  0.1513 -0.7586 -1.0390
 7489SOL    HW134100   0.403   1.665   3.987  1.7515  1.6163 -1.8585
 7489SOL    HW234101   0.368   1.806   4.034  0.3718 -0.0932  1.1744
 7490SOL     OW34102   1.899   0.607  12.762  0.0520  0.1165  0.1622
 7490SOL    HW134103   1.894   0.562  12.678  0.2615  1.4437 -0.5450
 7490SOL    HW234104   1.836   0.678  12.762  0.5046  0.5173  0.0433
 7491SOL     OW34105   3.239   1.995   8.559 -0.4670 -0.1053  0.2788
 7491SOL    HW134106   3.153   2.024   8.588 -0.7139  0.3832 -0.9348
 7491SOL    HW234107   3.258   1.933   8.629 -1.0124 -0.6575 -0.0691
 7492SOL     OW34108   1.078   1.945   5.301  0.0049  0.3652 -0.8569
 7492SOL    HW134109   1.141   2.017   5.298 -0.0896  0.4390 -1.0233
 7492SOL    HW234110   0.993   1.984   5.281 -1.7291 -1.1173  3.5816
 7493SOL     OW34111   3.818   2.679   9.078 -0.3754  0.4088 -0.1001
 7493SOL    HW134112   3.836   2.587   9.099  1.3728  0.4696 -1.2507
 7493SOL    HW234113   3.805   2.713   9.166 -1.0684 -1.3918  0.4937
 7494SOL     OW34114   1.741   0.688   7.230  0.4810 -0.1545 -0.5872
 7494SOL    HW134115   1.829   0.660   7.256 -0.3634  0.5494  3.1092
 7494SOL    HW234116   1.716   0.736   7.309 -0.0239 -0.5951 -0.4782
 7495SOL     OW34117   2.117   2.995   3.184 -0.0078  0.1761  0.3261
 7495SOL    HW134118   2.167   2.932   3.235  1.2548  1.3711  0.5836
 7495SOL    HW234119   2.045   3.013   3.245  1.3138  0.9763  1.6598
 7496SOL     OW34120   0.715   0.493  13.445  0.3523  0.0008  0.6919
 7496SOL    HW134121   0.620   0.503  13.444  0.1572 -2.1172 -0.8519
 7496SOL    HW234122   0.736   0.584  13.422  0.5154  0.1826  1.5681
 7497SOL     OW34123   4.418   3.842  14.624  0.4835 -0.2544  0.3641
 7497SOL    HW134124   4.328   3.870  14.609 -0.1760 -1.4684  2.0941
 7497SOL    HW234125   4.406   3.811  14.714 -1.2160 -2.0913 -0.4801
 7498SOL     OW34126   2.209   0.710   3.198  0.0427  0.3334 -0.4438
 7498SOL    HW134127   2.240   0.780   3.141  1.3926 -0.3699 -0.5771
 7498SOL    HW234128   2.288   0.671   3.235  0.2406  1.3977  0.2475
 7499SOL     OW34129   4.326   3.086   7.080  0.1972 -0.2374  0.1114
 7499SOL    HW134130   4.363   3.169   7.050  2.0763 -0.8762  0.6848
 7499SOL    HW234131   4.398   3.039   7.123 -0.3668  0.5247  1.8995
 7500SOL     OW34132   0.642   3.345  15.881 -0.0509 -0.2498 -0.7964
 7500SOL    HW134133   0.639   3.348  15.976  1.0605  1.3962 -0.8080
 7500SOL    HW234134   0.733   3.372  15.869 -1.0156  1.8326 -3.4163
 7501SOL     OW34135   3.293   0.416   8.072 -0.3813  0.5830  0.3156
 7501SOL    HW134136   3.260   0.459   8.151  2.5716  3.0520  0.2218
 7501SOL    HW234137   3.379   0.456   8.057  0.2191 -0.8586 -0.0709
 7502SOL     OW34138   3.088   0.524   2.675  0.3222 -0.9547  1.3933
 7502SOL    HW134139   3.162   0.531   2.614  0.4392 -0.3641  1.6072
 7502SOL    HW234140   3.071   0.615   2.701  1.2351 -0.7412  1.2287
 7503SOL     OW34141   2.507   2.565   4.628 -0.3228  0.1010 -0.4845
 7503SOL    HW134142   2.479   2.569   4.720  2.2268  0.9332  0.2445
 7503SOL    HW234143   2.429   2.599   4.584  0.6199  0.5385 -1.7998
 7504SOL     OW34144   1.704   4.280   8.420  0.0564 -0.1291  0.2068
 7504SOL    HW134145   1.787   4.238   8.396 -0.9290 -1.8790 -0.1365
 7504SOL    HW234146   1.684   4.324   8.337  2.2137 -0.0685 -0.2726
 7505SOL     OW34147   4.721   4.220   6.595  0.2434 -1.2000 -0.1878
 7505SOL    HW134148   4.727   4.268   6.513  1.6318  0.4892  0.9161
 7505SOL    HW234149   4.639   4.171   6.601  0.0980 -0.9541 -0.1641
 7506SOL     OW34150   3.978   4.604  12.323  0.2106  0.1692 -0.3330
 7506SOL    HW134151   3.979   4.638  12.412  1.2832  0.4897 -0.4664
 7506SOL    HW234152   3.897   4.555  12.312  0.3489  0.4505 -2.6570
 7507SOL     OW34153   0.595   1.548   3.402  0.2932 -0.1971 -0.0226
 7507SOL    HW134154   0.511   1.507   3.381  1.0558 -0.0253 -3.3115
 7507SOL    HW234155   0.654   1.476   3.381  0.9177  0.0314  0.9283
 7508SOL     OW34156   0.043   0.755   4.538 -0.2748  0.5003 -0.4059
 7508SOL    HW134157   0.011   0.831   4.489 -2.6801 -0.4131 -0.2673
 7508SOL    HW234158   0.077   0.803   4.614  2.7231 -1.0134 -0.7828
 7509SOL     OW34159   1.844   2.843  12.608  0.3419  0.2812 -0.4868
 7509SOL    HW134160   1.762   2.885  12.583  0.1949  0.7299  0.7637
 7509SOL    HW234161   1.900   2.855  12.531 -1.1904  0.2400 -1.6180
 7510SOL     OW34162   1.710   0.226  15.496  0.0106  0.6747  0.4681
 7510SOL    HW134163   1.679   0.157  15.555  2.6297 -1.4126 -0.5963
 7510SOL    HW234164   1.796   0.252  15.528 -0.2962  2.6344 -0.3491
 7511SOL     OW34165   2.776   0.705   9.952 -0.2309 -0.2443  0.4338
 7511SOL    HW134166   2.749   0.760  10.025 -2.6852 -1.1543  0.2041
 7511SOL    HW234167   2.749   0.763   9.881 -1.0493 -0.8050  0.2811
 7512SOL     OW34168   2.733   3.461  10.043  0.1382  0.0004  0.3444
 7512SOL    HW134169   2.823   3.467  10.012  0.3102  0.7784  1.0181
 7512SOL    HW234170   2.727   3.373  10.081  0.2962  0.1737  0.7701
 7513SOL     OW34171   2.555   2.971  12.346  0.1754 -0.0404  0.1480
 7513SOL    HW134172   2.546   2.876  12.339 -0.7515  0.3367 -3.4557
 7513SOL    HW234173   2.482   2.998  12.290  0.0457  0.3210  0.4895
 7514SOL     OW34174   2.983   1.514   6.270  0.1922  0.0125  0.3341
 7514SOL    HW134175   2.958   1.557   6.188 -0.4029  0.2028  0.6063
 7514SOL    HW234176   2.948   1.426   6.259 -0.1899  0.6217 -3.2162
 7515SOL     OW34177   1.681   0.745   6.515 -0.0553 -0.2243  0.3226
 7515SOL    HW134178   1.622   0.790   6.576  1.1829  2.3397 -0.3729
 7515SOL    HW234179   1.747   0.815   6.521 -0.1108 -0.1864  0.5166
 7516SOL     OW34180   2.997   2.092   9.122 -0.6882 -0.5314  0.1077
 7516SOL    HW134181   2.905   2.108   9.100 -1.1032 -3.5175 -0.3860
 7516SOL    HW234182   3.020   2.177   9.159  1.9569 -1.6607  1.0424
 7517SOL     OW34183   2.298   2.990  13.371 -0.2046 -0.1514 -0.2879
 7517SOL    HW134184   2.280   3.023  13.284 -1.3889 -0.5320 -0.1817
 7517SOL    HW234185   2.394   2.988  13.368 -0.1390 -1.0913  1.8921
 7518SOL     OW34186   3.153   0.570   5.554  0.4566  0.5112  0.5001
 7518SOL    HW134187   3.169   0.550   5.647  0.5158 -2.0533 -0.0524
 7518SOL    HW234188   3.059   0.583   5.566  0.2881  1.0412 -1.4998
 7519SOL     OW34189   0.358   1.264  13.970 -0.4885 -0.1482  0.0652
 7519SOL    HW134190   0.283   1.232  13.920  0.1576 -1.3448 -0.1130
 7519SOL    HW234191   0.358   1.193  14.033  0.0445  1.0721  1.4405
 7520SOL     OW34192   2.621   0.980   6.091 -0.4788  0.6356 -0.1274
 7520SOL    HW134193   2.591   1.012   6.176 -1.9974 -3.2507  0.7725
 7520SOL    HW234194   2.705   0.951   6.125  0.2724 -0.0314 -2.5859
 7521SOL     OW34195   0.378   1.841   2.255  0.7783 -0.3003 -0.5259
 7521SOL    HW134196   0.382   1.761   2.203  0.7911 -0.6780  0.0622
 7521SOL    HW234197   0.468   1.843   2.290  0.4522 -0.6485  0.3421
 7522SOL     OW34198   3.777   1.232   7.079  0.3949 -0.4332  0.4437
 7522SOL    HW134199   3.772   1.279   6.996  0.7735  2.8423  2.2694
 7522SOL    HW234200   3.683   1.228   7.095 -0.3076  0.5640 -3.4839
 7523SOL     OW34201   1.619   0.678   5.054 -0.1514  0.5739  0.1503
 7523SOL    HW134202   1.532   0.639   5.060 -0.4334  1.2552  0.4999
 7523SOL    HW234203   1.614   0.731   4.974 -0.4342  0.6452  0.2139
 7524SOL     OW34204   3.519   1.546   3.775  0.3463  0.2699 -0.3709
 7524SOL    HW134205   3.592   1.494   3.809  0.6868  1.1336  0.2099
 7524SOL    HW234206   3.460   1.552   3.851 -2.2367 -0.2962 -2.3494
 7525SOL     OW34207   1.574   4.106   5.292  0.1187  0.5399  0.6680
 7525SOL    HW134208   1.609   4.125   5.205  1.7602  1.4172  1.5138
 7525SOL    HW234209   1.527   4.028   5.263 -2.2379  1.9867  0.5833
 7526SOL     OW34210   2.696   3.625   2.909 -0.7269 -0.0210 -0.0823
 7526SOL    HW134211   2.634   3.651   2.841 -2.0304 -2.3410  0.2254
 7526SOL    HW234212   2.668   3.674   2.987 -1.3068 -0.9327  0.2813
 7527SOL     OW34213   4.270   3.008  10.469  0.1890  0.1685 -0.2490
 7527SOL    HW134214   4.212   2.957  10.413  0.1115 -0.1642  0.1305
 7527SOL    HW234215   4.218   3.036  10.544  1.6742  0.6081  0.6112
 7528SOL     OW34216   4.585   1.383   3.572  0.7892 -0.3935  0.4759
 7528SOL    HW134217   4.593   1.478   3.584  1.5040 -0.5942  1.5432
 7528SOL    HW234218   4.490   1.377   3.581  0.5790 -0.3249 -1.6533
 7529SOL     OW34219   3.773   2.626  14.395  0.6133  0.1719 -0.3904
 7529SOL    HW134220   3.719   2.563  14.443 -2.0698  0.8669 -2.4995
 7529SOL    HW234221   3.825   2.575  14.333 -0.9205  0.2893 -1.7512
 7530SOL     OW34222   0.359   2.202  17.480  0.3743  0.5487  0.2279
 7530SOL    HW134223   0.388   2.114  17.458 -0.1656 -0.1890  2.4141
 7530SOL    HW234224   0.281   2.188  17.535  0.0017 -0.6022 -0.6023
 7531SOL     OW34225   2.194   0.110   7.629  0.4434 -0.0540  1.2813
 7531SOL    HW134226   2.180   0.196   7.590 -1.7355 -1.1449 -0.3945
 7531SOL    HW234227   2.196   0.127   7.723 -1.2743  1.1795  1.0807
 7532SOL     OW34228   4.291   0.785   3.170 -0.1569  0.4965  0.4497
 7532SOL    HW134229   4.381   0.814   3.159  0.3587 -0.9048  0.9683
 7532SOL    HW234230   4.252   0.866   3.203  0.7714  1.0883  0.0893
 7533SOL     OW34231   3.361   1.784  13.423 -0.1932  0.2472 -0.3804
 7533SOL    HW134232   3.328   1.872  13.445 -0.8191 -0.7462  2.5782
 7533SOL    HW234233   3.322   1.787  13.336  0.8219 -0.7570 -0.8656
 7534SOL     OW34234   4.282   2.571  14.121 -0.9122 -0.1020  0.1095
 7534SOL    HW134235   4.201   2.597  14.166  0.0651  1.5982  0.8850
 7534SOL    HW234236   4.336   2.639  14.162 -1.1067 -1.3242  2.4093
 7535SOL     OW34237   3.324   2.401  14.718  0.2849 -0.5050 -0.5826
 7535SOL    HW134238   3.381   2.335  14.756 -0.5931 -0.8968  0.0685
 7535SOL    HW234239   3.242   2.359  14.690  0.1086  0.6386 -1.7675
 7536SOL     OW34240   3.329   2.503  11.790 -0.6617 -0.1354  0.3303
 7536SOL    HW134241   3.282   2.522  11.708  1.8719 -1.1643 -1.3649
 7536SOL    HW234242   3.367   2.590  11.795  0.6056 -0.7428  1.1880
 7537SOL     OW34243   3.417   1.547   7.215 -0.1742  0.1081 -0.3530
 7537SOL    HW134244   3.475   1.471   7.221 -2.2686 -1.3047  1.9657
 7537SOL    HW234245   3.485   1.612   7.200 -1.8666  1.9960  0.2200
 7538SOL     OW34246   0.162   0.642   2.363 -0.5252 -0.1873 -0.6398
 7538SOL    HW134247   0.192   0.731   2.345 -1.1717  0.1709  0.0488
 7538SOL    HW234248   0.237   0.592   2.330  0.1332  1.1816 -1.2161
 7539SOL     OW34249   2.337   1.565   0.685 -0.7517  0.3412 -0.3046
 7539SOL    HW134250   2.338   1.483   0.735 -0.3922  0.9668  0.7022
 7539SOL    HW234251   2.303   1.627   0.749 -1.8558 -0.8890  0.2915
 7540SOL     OW34252   1.122   0.838   4.712 -0.6731  0.6191 -0.4168
 7540SOL    HW134253   1.182   0.855   4.785 -0.8244 -0.5150 -0.0403
 7540SOL    HW234254   1.038   0.861   4.752  0.5822  1.5165  1.7541
 7541SOL     OW34255   2.046   0.983   6.115 -0.2718 -0.2222 -0.0810
 7541SOL    HW134256   2.082   1.017   6.197 -0.3178 -0.4820  0.0447
 7541SOL    HW234257   2.000   1.065   6.097  0.5902  0.5966  1.4249
 7542SOL     OW34258   2.766   2.837   8.933 -0.2282 -0.0293 -0.4083
 7542SOL    HW134259   2.791   2.873   8.847 -0.6266  2.0498  0.3636
 7542SOL    HW234260   2.712   2.762   8.907  1.3797 -0.8026 -1.5493
 7543SOL     OW34261   0.801   1.088   9.469 -0.3187  0.1305 -0.9813
 7543SOL    HW134262   0.821   1.137   9.548  0.1701 -0.5794 -0.6608
 7543SOL    HW234263   0.748   1.156   9.427 -2.2180  0.0522  1.3326
 7544SOL     OW34264   2.640   4.405   8.292 -0.4547  0.1005 -0.3172
 7544SOL    HW134265   2.655   4.313   8.271 -4.6175 -0.4080 -1.0694
 7544SOL    HW234266   2.730   4.437   8.285  0.7143 -2.8538  1.4288
 7545SOL     OW34267   4.346   3.703  15.798  0.1819  0.4836 -0.2372
 7545SOL    HW134268   4.327   3.696  15.892 -1.3227  1.1843 -0.4858
 7545SOL    HW234269   4.409   3.633  15.782  1.1480  1.2983 -0.0071
 7546SOL     OW34270   3.430   0.735   1.644  0.2020  0.8175  0.3425
 7546SOL    HW134271   3.488   0.786   1.700 -1.7784  3.0442  0.3766
 7546SOL    HW234272   3.489   0.663   1.624  0.0853  1.0402 -0.7876
 7547SOL     OW34273   2.492   3.287   8.530  0.0739 -0.3582 -0.2619
 7547SOL    HW134274   2.496   3.378   8.558  0.2992 -0.1260 -1.0430
 7547SOL    HW234275   2.399   3.275   8.514 -0.5363  1.6099  1.9100
 7548SOL     OW34276   1.895   2.658  15.947  0.1854  0.0717  0.3519
 7548SOL    HW134277   1.888   2.650  16.042 -0.8173  2.2857  0.4734
 7548SOL    HW234278   1.932   2.746  15.936  1.0431 -0.4376 -0.8309
 7549SOL     OW34279   3.143   1.384   8.253 -0.5843 -0.2925  0.2239
 7549SOL    HW134280   3.118   1.459   8.199  0.2725 -1.2138 -1.4558
 7549SOL    HW234281   3.214   1.414   8.309 -0.5171  0.3718 -0.2193
 7550SOL     OW34282   1.992   3.504  11.695 -0.1309  0.1791 -0.4292
 7550SOL    HW134283   2.018   3.572  11.634 -1.7353  2.2845  1.2138
 7550SOL    HW234284   1.907   3.543  11.717 -0.7282 -0.1184 -2.2128
 7551SOL     OW34285   2.038   0.160   2.677 -1.0951 -0.4681 -0.1625
 7551SOL    HW134286   1.975   0.160   2.605  0.2559  1.2354 -1.3336
 7551SOL    HW234287   2.034   0.254   2.698  0.4789 -0.4481  0.0976
 7552SOL     OW34288   3.381   3.201  17.579 -0.3295  0.2175  1.1189
 7552SOL    HW134289   3.430   3.145  17.640 -1.8093  1.4840  3.4953
 7552SOL    HW234290   3.309   3.138  17.573 -0.5766  0.6535 -0.4206
 7553SOL     OW34291   3.129   2.783   9.978 -0.6057 -0.2381 -0.4569
 7553SOL    HW134292   3.090   2.723  10.041  1.8090 -0.8879  0.4447
 7553SOL    HW234293   3.084   2.864  10.005 -0.1484  1.0623 -3.6260
 7554SOL     OW34294   0.168   1.562  17.468  0.4099 -0.1871  0.1056
 7554SOL    HW134295   0.146   1.525  17.382  0.0567 -0.6857  0.4145
 7554SOL    HW234296   0.118   1.643  17.468  0.4663 -0.1651  2.2174
 7555SOL     OW34297   0.630   0.128  13.829 -0.3058  0.1864 -0.4761
 7555SOL    HW134298   0.653   0.128  13.923 -0.4456  3.2431 -0.4544
 7555SOL    HW234299   0.659   0.212  13.794 -1.9983  0.1208 -1.9824
 7556SOL     OW34300   2.085   3.882   8.668  0.3609 -0.1066  0.4800
 7556SOL    HW134301   2.173   3.918   8.657  0.1619  0.6179  1.2175
 7556SOL    HW234302   2.037   3.947   8.618 -0.0059 -0.2887  0.5986
 7557SOL     OW34303   2.433   2.359   3.973  0.1666  0.1411  0.1644
 7557SOL    HW134304   2.366   2.318   4.029  0.1458  1.2755  0.9627
 7557SOL    HW234305   2.412   2.448   4.000 -0.2643 -0.3334  1.3814
 7558SOL     OW34306   3.650   0.648  13.628  0.4810  0.8721  0.3645
 7558SOL    HW134307   3.618   0.608  13.547  0.4625  0.9765  0.3207
 7558SOL    HW234308   3.659   0.741  13.606  2.6824  0.3004 -1.1299
 7559SOL     OW34309   2.589   1.429   1.798  0.6580  0.3114 -0.1651
 7559SOL    HW134310   2.580   1.360   1.733 -1.0473 -0.2011  0.6071
 7559SOL    HW234311   2.624   1.376   1.869 -2.4310 -2.3229 -0.6000
 7560SOL     OW34312   4.231   3.667  15.269 -0.2076 -0.0477  0.7195
 7560SOL    HW134313   4.319   3.632  15.285  0.4589  0.5143 -1.6847
 7560SOL    HW234314   4.256   3.754  15.238 -2.1848  0.0114 -0.7285
 7561SOL     OW34315   4.000   4.443  11.285  0.5019  0.2236  0.5688
 7561SOL    HW134316   4.091   4.418  11.267 -0.2243 -1.8244 -0.2149
 7561SOL    HW234317   4.015   4.530  11.323 -2.6693  2.1245 -2.4542
 7562SOL     OW34318   4.036   4.586  16.899  0.1530 -0.4021  0.3921
 7562SOL    HW134319   3.965   4.571  16.961 -2.4668 -2.7685 -3.1557
 7562SOL    HW234320   4.098   4.615  16.966  0.0580 -1.7919  1.0706
 7563SOL     OW34321   3.538   2.726   5.355 -0.7706  0.2469 -0.5781
 7563SOL    HW134322   3.460   2.769   5.388 -0.1184  1.5690 -0.7513
 7563SOL    HW234323   3.577   2.687   5.434 -1.2581  0.7710 -0.0770
 7564SOL     OW34324   1.909   1.094   5.030  0.6232 -0.5633  0.0472
 7564SOL    HW134325   1.912   1.003   5.060 -0.8429 -0.9586 -1.0251
 7564SOL    HW234326   1.965   1.130   5.099 -0.4971 -0.0992  0.7128
 7565SOL     OW34327   3.783   3.481   3.120  0.0054 -0.6288 -0.2777
 7565SOL    HW134328   3.782   3.393   3.082  2.5220 -1.1307  0.8393
 7565SOL    HW234329   3.862   3.519   3.082 -0.0550 -2.7443 -2.5563
 7566SOL     OW34330   2.848   2.236   7.346  0.1352  0.1946 -0.3027
 7566SOL    HW134331   2.939   2.266   7.345 -0.3314  1.8964  3.5746
 7566SOL    HW234332   2.806   2.267   7.427 -1.7110 -0.7463 -0.8938
 7567SOL     OW34333   4.563   2.291   3.717  0.1011  0.2071  0.0722
 7567SOL    HW134334   4.558   2.344   3.796  1.3992 -0.9884  0.9723
 7567SOL    HW234335   4.608   2.354   3.662 -0.5634  1.0219  0.4700
 7568SOL     OW34336   3.999   3.573   7.297  0.2395  0.0538  0.0240
 7568SOL    HW134337   4.006   3.653   7.245  3.3409  0.0515  0.4195
 7568SOL    HW234338   3.905   3.560   7.282  0.6780 -1.6529 -1.3120
 7569SOL     OW34339   1.635   2.938   2.286  0.5582  0.0538 -0.0148
 7569SOL    HW134340   1.559   2.883   2.267  0.8072 -1.1137  2.2598
 7569SOL    HW234341   1.605   3.027   2.272  0.8984  0.5469  2.2730
 7570SOL     OW34342   2.747   2.339   7.091 -0.1741  0.4268  0.1662
 7570SOL    HW134343   2.655   2.316   7.078  0.2142 -1.0214  0.0087
 7570SOL    HW234344   2.759   2.300   7.178 -0.3002 -1.9330 -0.8799
 7571SOL     OW34345   2.914   1.461  11.915  0.0953  0.0812  0.6111
 7571SOL    HW134346   2.990   1.501  11.956  1.6070 -0.4441 -1.6673
 7571SOL    HW234347   2.856   1.435  11.987 -2.0857 -0.4253 -1.3144
 7572SOL     OW34348   0.490   0.915   0.079 -0.1202  0.1864  0.0914
 7572SOL    HW134349   0.537   0.864   0.013  0.0887  0.4671  0.0225
 7572SOL    HW234350   0.425   0.966   0.032  0.4517  1.5361  0.7671
 7573SOL     OW34351   0.808   4.021  10.475  0.1354  0.1124 -0.1525
 7573SOL    HW134352   0.795   3.928  10.456  1.8890 -0.4024  1.1483
 7573SOL    HW234353   0.831   4.026  10.568 -2.1603 -0.3647  0.4296
 7574SOL     OW34354   4.265   1.631   9.392 -0.2296 -0.0600  0.3426
 7574SOL    HW134355   4.352   1.605   9.422  0.5684  1.7042 -0.4211
 7574SOL    HW234356   4.215   1.574   9.450  0.0678  0.2623  0.9137
 7575SOL     OW34357   2.538   3.016   8.354 -0.6796 -0.2958 -0.3979
 7575SOL    HW134358   2.464   3.077   8.351  0.1702  0.6860 -1.3422
 7575SOL    HW234359   2.611   3.075   8.334 -0.1480 -1.2109 -1.1539
 7576SOL     OW34360   4.617   1.282   8.520 -0.1534 -0.0929 -0.3047
 7576SOL    HW134361   4.564   1.362   8.529 -1.8235 -1.0767 -1.2759
 7576SOL    HW234362   4.619   1.274   8.425 -0.2219 -1.4261 -0.1841
 7577SOL     OW34363   0.245   0.281  10.355 -0.0745  0.0486  0.0532
 7577SOL    HW134364   0.247   0.342  10.428 -1.3215 -0.6445  0.6823
 7577SOL    HW234365   0.322   0.315  10.310  0.4789 -2.3161 -0.8309
 7578SOL     OW34366   3.265   3.819   4.040  0.1919  0.0839 -0.5961
 7578SOL    HW134367   3.257   3.905   4.082  1.1208 -0.6841  1.1736
 7578SOL    HW234368   3.173   3.805   4.017  0.4287 -3.1964  0.4590
 7579SOL     OW34369   3.669   3.307  10.658 -0.3049  0.8358  1.0763
 7579SOL    HW134370   3.657   3.335  10.567  0.3443 -0.9843  0.4172
 7579SOL    HW234371   3.588   3.342  10.696 -0.4667  0.9615  0.6162
 7580SOL     OW34372   3.803   1.751   7.229 -0.6561 -0.2856 -0.1578
 7580SOL    HW134373   3.759   1.758   7.314  0.5828  0.4768  0.4231
 7580SOL    HW234374   3.831   1.661   7.241 -0.4225 -0.5265 -2.4774
 7581SOL     OW34375   0.428   4.501   4.127  0.3866 -0.6188 -0.5152
 7581SOL    HW134376   0.364   4.502   4.199 -0.2372  1.5604 -1.1047
 7581SOL    HW234377   0.370   4.511   4.051  0.3655  1.4895 -0.2267
 7582SOL     OW34378   1.833   3.542   7.921  0.2021  0.2268  0.2041
 7582SOL    HW134379   1.844   3.447   7.924  1.9077  0.3610 -2.5500
 7582SOL    HW234380   1.916   3.568   7.881  0.0337  2.1404  1.0506
 7583SOL     OW34381   0.997   0.646   4.530 -0.3101 -0.1334  0.9063
 7583SOL    HW134382   0.938   0.716   4.504 -0.5788 -0.6373  0.1687
 7583SOL    HW234383   1.072   0.697   4.560 -0.9530  1.7172 -0.7070
 7584SOL     OW34384   1.858   4.093  14.007  0.0604 -0.5411  0.0114
 7584SOL    HW134385   1.816   4.116  14.090  1.1652 -0.5101  0.5638
 7584SOL    HW234386   1.889   4.004  14.020 -0.1909 -0.3786  1.6971
 7585SOL     OW34387   4.456   1.028   5.919 -0.0199 -0.9836  0.4400
 7585SOL    HW134388   4.406   1.055   5.996  1.3741  1.2770  0.5424
 7585SOL    HW234389   4.477   1.112   5.877  0.6265 -1.9782 -1.2272
 7586SOL     OW34390   1.519   1.023   7.720 -0.0628 -0.0306 -0.0016
 7586SOL    HW134391   1.540   1.055   7.807  0.0282 -1.0169  0.3457
 7586SOL    HW234392   1.446   0.969   7.750  0.7431 -0.9969  0.2369
 7587SOL     OW34393   1.166   4.178   6.541  0.9487  0.3280  0.2097
 7587SOL    HW134394   1.220   4.245   6.498 -0.2776  0.0777 -1.7110
 7587SOL    HW234395   1.076   4.212   6.547  1.4153  1.4530  0.8899
 7588SOL     OW34396   0.950   2.486  14.583  0.2120 -0.2179  0.1491
 7588SOL    HW134397   0.967   2.503  14.491 -0.7698  1.8148  0.3489
 7588SOL    HW234398   0.988   2.400  14.597  0.4934 -0.2879 -1.0701
 7589SOL     OW34399   0.307   1.248   1.695 -0.2471 -0.1091 -0.1733
 7589SOL    HW134400   0.287   1.233   1.603  0.8011 -2.1809 -0.0567
 7589SOL    HW234401   0.375   1.181   1.703  1.0318  1.6758  3.7914
 7590SOL     OW34402   2.275   3.199   7.107 -0.5403 -0.6673  0.1124
 7590SOL    HW134403   2.216   3.167   7.039  0.6307 -0.0666 -1.1992
 7590SOL    HW234404   2.353   3.200   7.050  1.2424  0.8809  2.5527
 7591SOL     OW34405   4.391   3.592   6.807  0.1363  0.3845  0.4909
 7591SOL    HW134406   4.413   3.523   6.870  0.6725 -1.0771 -1.3365
 7591SOL    HW234407   4.311   3.622   6.851 -0.8091 -0.2546 -0.8041
 7592SOL     OW34408   0.432   3.764  13.782  0.1660  0.5261 -0.2693
 7592SOL    HW134409   0.462   3.694  13.725 -1.3732  0.6407 -1.2257
 7592SOL    HW234410   0.342   3.732  13.793  0.8509 -0.4440  2.6012
 7593SOL     OW34411   3.326   1.769   2.135 -0.0213 -0.5615 -0.3637
 7593SOL    HW134412   3.239   1.794   2.166  0.8955  0.8967  1.0604
 7593SOL    HW234413   3.331   1.794   2.043 -1.3073 -0.9590 -0.5468
 7594SOL     OW34414   2.060   3.847   3.730 -0.6204  0.4279  0.1220
 7594SOL    HW134415   2.113   3.898   3.791  0.3429 -0.0268 -0.3387
 7594SOL    HW234416   2.092   3.881   3.647 -1.1962  0.7129  0.0127
 7595SOL     OW34417   0.947   1.791   8.629  0.0513 -0.4427 -0.5383
 7595SOL    HW134418   0.938   1.886   8.621  0.0605 -0.5628 -2.0163
 7595SOL    HW234419   0.887   1.764   8.699 -0.8331  0.6611 -0.8558
 7596SOL     OW34420   0.037   0.256   3.599  0.1644 -0.0205 -0.5063
 7596SOL    HW134421   0.107   0.244   3.535 -0.5155  1.0303 -1.4510
 7596SOL    HW234422   4.736   0.327   3.550 -1.8271 -1.9650 -1.6508
 7597SOL     OW34423   2.892   1.239  17.051  0.1535  0.4716 -0.4373
 7597SOL    HW134424   2.831   1.232  16.977  0.9885 -3.0011 -0.8107
 7597SOL    HW234425   2.838   1.188  17.112  1.2053  0.6431  0.6220
 7598SOL     OW34426   0.897   2.343   9.169  0.1193 -0.0517  0.3252
 7598SOL    HW134427   0.920   2.387   9.250 -0.3185  0.8951 -0.0652
 7598SOL    HW234428   0.843   2.274   9.208  0.6182 -0.9584 -0.5915
 7599SOL     OW34429   2.178   1.257   4.438 -0.6114  0.0223 -0.2239
 7599SOL    HW134430   2.262   1.278   4.397 -1.1037  0.8235 -0.8252
 7599SOL    HW234431   2.200   1.271   4.530 -1.7987  2.3313 -0.2863
 7600SOL     OW34432   4.339   3.853   8.311  0.2266 -0.2771  0.2030
 7600SOL    HW134433   4.286   3.891   8.242  1.9189 -0.3602 -1.1520
 7600SOL    HW234434   4.273   3.800   8.355 -1.9122  0.9892 -1.5229
 7601SOL     OW34435   4.011   3.568   2.999  0.0087 -0.5604  1.0316
 7601SOL    HW134436   3.998   3.661   2.982 -0.0349 -1.1574 -2.0463
 7601SOL    HW234437   4.058   3.547   2.918 -2.1351 -1.3048 -0.0064
 7602SOL     OW34438   1.763   0.406   0.305 -0.7822 -0.2824 -0.4789
 7602SOL    HW134439   1.829   0.472   0.282  1.5412 -2.8470 -1.2004
 7602SOL    HW234440   1.786   0.344   0.235  0.1382 -2.3846  1.6972
 7603SOL     OW34441   2.418   3.086   4.781 -0.1579 -0.3087 -0.2223
 7603SOL    HW134442   2.380   3.173   4.772 -0.2827 -0.4954 -1.4409
 7603SOL    HW234443   2.379   3.041   4.706  2.5508 -0.7209 -1.3929
 7604SOL     OW34444   1.296   4.138  15.437 -0.0888  1.0762 -0.4801
 7604SOL    HW134445   1.210   4.133  15.397 -0.6887 -0.2690  0.9820
 7604SOL    HW234446   1.347   4.214  15.408 -1.2876  1.8635 -0.5245
 7605SOL     OW34447   2.571   4.735   3.615  0.5133 -0.2811  0.0956
 7605SOL    HW134448   2.560   4.653   3.662  3.8270 -1.7264 -1.6976
 7605SOL    HW234449   2.646   0.039   3.655  0.4210  1.8969 -2.0863
 7606SOL     OW34450   4.264   0.027   6.307 -0.4521 -0.0200  0.4451
 7606SOL    HW134451   4.337   4.711   6.279 -1.7168 -0.4014 -2.1119
 7606SOL    HW234452   4.206   0.021   6.231  2.3818 -0.0096 -1.7386
 7607SOL     OW34453   0.394   0.602   8.086 -0.0657  0.3190 -0.2933
 7607SOL    HW134454   0.461   0.637   8.027 -0.5169  2.2725  0.3606
 7607SOL    HW234455   0.424   0.627   8.173 -1.2633  0.8858 -0.0353
 7608SOL     OW34456   4.646   3.080   5.741 -0.0767 -0.6112  0.1622
 7608SOL    HW134457   4.737   3.081   5.770  0.1807 -1.6394 -0.6027
 7608SOL    HW234458   4.621   3.172   5.744 -0.7788 -0.7748 -0.5397
 7609SOL     OW34459   1.007   3.687   5.734  0.5500  0.0343  0.0518
 7609SOL    HW134460   1.054   3.687   5.817 -2.5856  1.1787  1.8452
 7609SOL    HW234461   0.925   3.730   5.758 -0.6663 -1.5821 -1.3149
 7610SOL     OW34462   4.537   4.379   3.949  0.2403 -0.5939  0.5555
 7610SOL    HW134463   4.467   4.426   3.994  2.1073  2.4100  0.2836
 7610SOL    HW234464   4.494   4.369   3.864  2.0984 -0.0285 -0.4513
 7611SOL     OW34465   2.114   4.210  11.121  0.5883 -0.0914 -0.7175
 7611SOL    HW134466   2.135   4.280  11.183  0.3285 -0.6954  0.0584
 7611SOL    HW234467   2.195   4.226  11.073  1.6774 -1.9685  0.4879
 7612SOL     OW34468   4.549   3.016  14.634  0.6530  0.4453  0.4569
 7612SOL    HW134469   4.489   2.970  14.575  0.6436 -1.6046  2.0592
 7612SOL    HW234470   4.625   3.034  14.580  1.3159 -2.1957  0.4822
 7613SOL     OW34471   3.674   2.878   8.666  0.6124 -0.1231 -0.7888
 7613SOL    HW134472   3.624   2.906   8.743 -2.4182 -0.8170 -2.4675
 7613SOL    HW234473   3.731   2.816   8.710 -2.8338 -3.4950 -1.0370
 7614SOL     OW34474   2.714   2.945   3.384 -0.3409  0.2406  0.4644
 7614SOL    HW134475   2.705   2.853   3.410  0.3188 -0.0193 -0.2341
 7614SOL    HW234476   2.801   2.969   3.417  0.2039 -2.4348  1.0396
 7615SOL     OW34477   4.644   4.500   9.049 -0.2994  0.5494 -0.3679
 7615SOL    HW134478   4.647   4.462   8.961 -1.4692  2.4841 -1.2285
 7615SOL    HW234479   4.607   4.427   9.099 -0.7190  0.0156 -1.4645
 7616SOL     OW34480   1.879   2.429   5.472  0.3212  0.2757 -0.0028
 7616SOL    HW134481   1.973   2.447   5.465 -0.0280  1.9390 -0.5268
 7616SOL    HW234482   1.882   2.397   5.563  1.9588 -0.6016 -0.3577
 7617SOL     OW34483   4.144   0.431   0.817 -0.1724  0.3477  0.2959
 7617SOL    HW134484   4.216   0.467   0.870 -0.5622 -0.1409  1.1394
 7617SOL    HW234485   4.190   0.352   0.789 -0.2799  0.9692 -1.6444
 7618SOL     OW34486   2.019   2.298   9.352 -0.8415  0.3737  0.2231
 7618SOL    HW134487   2.079   2.361   9.311 -0.5653 -0.8621 -1.2522
 7618SOL    HW234488   1.965   2.290   9.274 -0.3320  3.0830 -0.4291
 7619SOL     OW34489   3.786   2.167   4.487  0.6738 -0.0144  0.2120
 7619SOL    HW134490   3.774   2.261   4.473  0.6287 -0.3427 -2.0444
 7619SOL    HW234491   3.877   2.169   4.518  0.8616 -0.6180 -0.2901
 7620SOL     OW34492   0.796   4.465  11.639  0.7669 -0.2536  0.2591
 7620SOL    HW134493   0.771   4.413  11.563 -0.0337  0.3127  0.1398
 7620SOL    HW234494   0.823   4.545  11.594  0.0439  0.0322  0.3366
 7621SOL     OW34495   2.718   1.799   5.811 -0.0125 -0.1459 -1.4334
 7621SOL    HW134496   2.645   1.749   5.849  1.3414 -0.0565  1.3217
 7621SOL    HW234497   2.760   1.830   5.891 -2.9547  3.7765 -1.4207
 7622SOL     OW34498   1.110   3.770   4.734  0.4643  0.1225  0.4075
 7622SOL    HW134499   1.199   3.736   4.729  0.3144 -0.0094 -1.4950
 7622SOL    HW234500   1.115   3.832   4.661 -0.4081 -1.0585 -0.6681
 7623SOL     OW34501   0.212   4.111   6.759  0.4086 -0.3036  0.5475
 7623SOL    HW134502   0.143   4.146   6.703 -0.0939 -0.8975  0.7830
 7623SOL    HW234503   0.157   4.075   6.829  0.6866 -0.2422  0.7994
 7624SOL     OW34504   3.627   3.266   4.367  0.6299 -0.3909  0.2548
 7624SOL    HW134505   3.575   3.236   4.442  0.5367  0.6500  0.6094
 7624SOL    HW234506   3.675   3.341   4.402 -0.5559  0.8694 -0.7826
 7625SOL     OW34507   3.502   2.103   5.944 -0.8916  0.0725  0.0911
 7625SOL    HW134508   3.551   2.108   5.863 -0.9223 -1.7576 -0.0359
 7625SOL    HW234509   3.475   2.193   5.960 -0.2936 -0.2216  2.8818
 7626SOL     OW34510   2.406   1.404  12.004 -0.1628 -0.0745  0.0842
 7626SOL    HW134511   2.482   1.366  11.959 -0.8159 -0.2161 -0.8967
 7626SOL    HW234512   2.385   1.475  11.944  0.1834 -1.1651 -1.3279
 7627SOL     OW34513   2.537   2.189   8.849 -0.8113 -0.0983 -0.0372
 7627SOL    HW134514   2.482   2.261   8.881 -0.7476  0.0260 -0.2108
 7627SOL    HW234515   2.582   2.235   8.779  0.1093  1.3086  1.4678
 7628SOL     OW34516   0.917   2.037  14.855  0.0541  0.4835  0.2119
 7628SOL    HW134517   0.960   2.112  14.897  0.1939  0.5418 -0.0353
 7628SOL    HW234518   0.857   2.012  14.925  0.8303  1.7399  1.3543
 7629SOL     OW34519   2.351   2.418   2.111 -0.1886 -0.5369  0.3963
 7629SOL    HW134520   2.353   2.445   2.202 -1.5815  0.7998  0.0274
 7629SOL    HW234521   2.257   2.404   2.103  0.0362 -0.7021 -2.0071
 7630SOL     OW34522   0.541   3.784   7.057  0.1053 -0.2152  0.0340
 7630SOL    HW134523   0.592   3.752   7.131 -2.1132 -3.4581  0.1541
 7630SOL    HW234524   0.467   3.812   7.112 -0.7786 -0.5707 -0.9728
 7631SOL     OW34525   2.588   4.437  14.628  0.7207 -0.4527 -0.2217
 7631SOL    HW134526   2.681   4.422  14.612  1.0426  1.0292  0.2406
 7631SOL    HW234527   2.564   4.392  14.709  0.3777 -0.3693 -0.2760
 7632SOL     OW34528   0.727   4.208   2.157 -1.1721 -0.2748 -0.3018
 7632SOL    HW134529   0.774   4.132   2.124 -0.7145 -0.7316  1.4065
 7632SOL    HW234530   0.737   4.206   2.252  0.2853  0.4179 -0.4427
 7633SOL     OW34531   4.676   0.485   2.655 -0.1124  0.0999  0.1673
 7633SOL    HW134532   4.643   0.471   2.743 -1.0079  0.4724 -0.1075
 7633SOL    HW234533   4.594   0.484   2.605 -1.4336  0.3445  2.3115
 7634SOL     OW34534   0.802   2.744   4.815 -0.7333  0.3895 -0.0936
 7634SOL    HW134535   0.893   2.739   4.844 -1.2590 -1.9474  1.1682
 7634SOL    HW234536   0.777   2.837   4.819 -0.7284  0.3663  0.4933
 7635SOL     OW34537   3.965   3.811   8.639 -0.5193  0.1335 -0.6855
 7635SOL    HW134538   3.920   3.888   8.676  2.3983  0.6093  1.8832
 7635SOL    HW234539   4.039   3.859   8.602 -0.8778  2.7024  1.8437
 7636SOL     OW34540   2.460   0.598   3.196 -0.0412 -0.6538  0.2829
 7636SOL    HW134541   2.538   0.648   3.221 -0.4388 -0.4511  1.1316
 7636SOL    HW234542   2.473   0.511   3.233  1.6762 -1.1347 -1.4519
 7637SOL     OW34543   1.478   2.900   2.723  0.0929  0.0886 -0.1602
 7637SOL    HW134544   1.490   2.808   2.749  2.2236  0.9686  1.8981
 7637SOL    HW234545   1.555   2.941   2.761  0.3245 -0.2437 -0.2656
 7638SOL     OW34546   0.296   4.574   6.139  0.8326 -0.2462  0.1740
 7638SOL    HW134547   0.258   4.518   6.071  0.5916 -0.3130  0.3601
 7638SOL    HW234548   0.235   4.557   6.212  3.7609  0.0207  2.6706
 7639SOL     OW34549   1.986   0.783   0.145  0.2633  0.0644 -0.0395
 7639SOL    HW134550   1.951   0.708   0.195  0.4279 -0.3929 -0.6130
 7639SOL    HW234551   2.049   0.733   0.093 -1.2590 -0.0224 -1.8110
 7640SOL     OW34552   4.700   2.055  15.382  0.3752 -0.0605 -0.5786
 7640SOL    HW134553   4.660   2.133  15.420 -0.7518 -0.2671 -1.3646
 7640SOL    HW234554   4.711   2.092  15.294  0.9839  0.3498 -0.3304
 7641SOL     OW34555   1.309   3.620   9.321  0.3915 -0.2429 -0.2762
 7641SOL    HW134556   1.263   3.703   9.323  0.0224 -0.4574 -0.0342
 7641SOL    HW234557   1.237   3.558   9.326 -1.5898  2.0375 -0.9113
 7642SOL     OW34558   4.183   4.495  11.767 -0.1675  0.6811  0.1548
 7642SOL    HW134559   4.143   4.409  11.758 -0.5383  0.9058 -0.3205
 7642SOL    HW234560   4.250   4.499  11.699  1.5094 -2.1308  1.6571
 7643SOL     OW34561   4.465   2.782  14.095  0.7300 -0.0874 -0.2073
 7643SOL    HW134562   4.534   2.716  14.091 -0.0412 -0.8484 -1.0925
 7643SOL    HW234563   4.476   2.832  14.014 -1.3273  0.0217 -0.4117
 7644SOL     OW34564   3.969   1.922   4.311  0.6891 -0.3007 -0.0233
 7644SOL    HW134565   3.940   1.939   4.222  1.2774  0.9893  0.0216
 7644SOL    HW234566   3.987   2.013   4.335 -0.9910  0.4253 -1.5277
 7645SOL     OW34567   0.717   1.186   2.037 -0.1601 -0.2642  0.3750
 7645SOL    HW134568   0.724   1.231   1.952  0.5533  0.0595  0.6076
 7645SOL    HW234569   0.769   1.109   2.016  0.8612 -0.0633  2.2144
 7646SOL     OW34570   4.706   2.274  11.765  0.0093 -0.3357 -0.4146
 7646SOL    HW134571   0.026   2.349  11.759 -0.5628  0.3701  2.8510
 7646SOL    HW234572   4.624   2.306  11.727 -0.3433  1.2286  1.6805
 7647SOL     OW34573   1.947   4.238   9.348  0.4614  0.2893 -0.2262
 7647SOL    HW134574   1.906   4.165   9.301  1.5156 -0.1905 -0.4096
 7647SOL    HW234575   1.993   4.183   9.411  0.1468  2.1583  1.6047
 7648SOL     OW34576   4.353   4.077   6.400 -0.6274 -0.4918 -1.1547
 7648SOL    HW134577   4.340   4.171   6.385  0.5265 -0.3600 -1.2794
 7648SOL    HW234578   4.305   4.038   6.327 -0.5409 -0.8945 -0.9927
 7649SOL     OW34579   3.402   0.161   1.106  0.8358 -0.4989  0.2920
 7649SOL    HW134580   3.457   0.227   1.146 -2.2257  0.7102  2.4550
 7649SOL    HW234581   3.468   0.092   1.102 -0.2058 -1.4849 -0.3097
 7650SOL     OW34582   0.239   2.413   7.677 -0.0673  0.2635 -0.0708
 7650SOL    HW134583   0.281   2.494   7.649  0.5307 -0.2325 -0.5948
 7650SOL    HW234584   0.177   2.403   7.604  0.4163 -4.0400  0.1228
 7651SOL     OW34585   0.206   4.206   7.095 -0.6425  0.4309  0.3553
 7651SOL    HW134586   0.161   4.183   7.177  2.1778 -0.2311  1.7328
 7651SOL    HW234587   0.292   4.168   7.113 -0.7880 -1.8348 -3.6232
 7652SOL     OW34588   0.681   1.914  15.602 -0.1960 -0.4030  0.2743
 7652SOL    HW134589   0.745   1.859  15.647  1.7421  1.7466  0.1096
 7652SOL    HW234590   0.647   1.850  15.539  0.5363  0.2927 -0.8387
 7653SOL     OW34591   1.628   1.376   7.998 -0.1941 -0.2327  0.5267
 7653SOL    HW134592   1.645   1.418   8.083  1.8386  0.6537 -0.3035
 7653SOL    HW234593   1.534   1.388   7.987 -0.4398 -1.9332  0.7888
 7654SOL     OW34594   1.116   4.497   4.116  0.5375  0.1805  0.2122
 7654SOL    HW134595   1.164   4.477   4.036 -0.0152  0.2112 -0.1268
 7654SOL    HW234596   1.052   4.427   4.124  1.8889 -1.1086 -0.2876
 7655SOL     OW34597   1.612   3.690   7.975  0.0908 -0.3860 -0.0190
 7655SOL    HW134598   1.651   3.707   8.061 -1.1166 -0.7354  0.5947
 7655SOL    HW234599   1.673   3.623   7.944  0.9493 -0.0813  1.0116
 7656SOL     OW34600   2.712   1.817   8.027  0.1396 -0.1458 -0.0094
 7656SOL    HW134601   2.762   1.799   8.106 -0.8600  0.3857  0.7418
 7656SOL    HW234602   2.761   1.774   7.956  2.9634  1.0637  1.2175
 7657SOL     OW34603   2.048   3.558   4.908 -0.1882  0.2965  0.5515
 7657SOL    HW134604   2.013   3.475   4.939 -2.0750  0.6763 -0.5285
 7657SOL    HW234605   2.058   3.597   4.994 -1.2650  2.1873 -0.1783
 7658SOL     OW34606   1.822   0.363  17.746 -0.0898 -0.2215  0.2984
 7658SOL    HW134607   1.779   0.379  17.662  3.5472  0.5596 -1.4304
 7658SOL    HW234608   1.916   0.358  17.728 -0.3190  0.5116 -1.1087
 7659SOL     OW34609   1.871   0.586   9.410  0.0258 -0.1115 -0.0773
 7659SOL    HW134610   1.948   0.529   9.402  0.4091  0.6003 -1.5312
 7659SOL    HW234611   1.819   0.530   9.468 -1.7355  0.1354 -1.4154
 7660SOL     OW34612   2.669   1.892  13.002  0.1657  0.2010 -0.1784
 7660SOL    HW134613   2.631   1.978  12.984  1.5236  1.3359  2.2733
 7660SOL    HW234614   2.762   1.900  12.978  0.8641 -1.1495  2.0307
 7661SOL     OW34615   3.674   1.283   7.668  0.9601 -0.0389 -0.1371
 7661SOL    HW134616   3.769   1.295   7.658  1.2311 -2.4864 -0.4621
 7661SOL    HW234617   3.668   1.251   7.758 -1.4921  1.0770  0.0918
 7662SOL     OW34618   0.311   3.838  13.160 -0.3746  0.4721  1.0309
 7662SOL    HW134619   0.218   3.829  13.139  0.3841  0.8819 -2.4761
 7662SOL    HW234620   0.342   3.908  13.102 -0.1684  0.6700  1.3757
 7663SOL     OW34621   3.660   1.174   0.785 -0.0994 -0.0085  0.6692
 7663SOL    HW134622   3.621   1.089   0.766  0.6925 -0.4771  1.1833
 7663SOL    HW234623   3.588   1.237   0.779  1.1651  1.3473 -0.5258
 7664SOL     OW34624   1.585   1.138   4.559 -0.2418  0.0499 -0.2669
 7664SOL    HW134625   1.493   1.127   4.585  0.1436  0.4156  1.2399
 7664SOL    HW234626   1.623   1.140   4.646  1.1776  1.9372 -0.9313
 7665SOL     OW34627   1.605   3.713   2.015  0.0615  0.3328 -0.3452
 7665SOL    HW134628   1.611   3.618   2.024 -0.6163  0.3971  0.8414
 7665SOL    HW234629   1.549   3.725   1.938 -0.5286  0.9186  0.1673
 7666SOL     OW34630   3.728   2.148   1.777  0.1453  0.0180 -0.2595
 7666SOL    HW134631   3.695   2.062   1.802  0.7858  0.0594  0.7778
 7666SOL    HW234632   3.700   2.192   1.858 -0.2702  0.8161 -0.8346
 7667SOL     OW34633   2.255   4.257   8.347  0.0984 -0.1840  0.2686
 7667SOL    HW134634   2.279   4.220   8.262 -1.7898 -0.1094 -0.3010
 7667SOL    HW234635   2.183   4.316   8.323  0.2664 -0.2079 -0.3014
 7668SOL     OW34636   1.088   3.727   8.322 -0.3872  0.1976 -0.0001
 7668SOL    HW134637   1.106   3.674   8.400  4.9583 -0.8004 -1.9504
 7668SOL    HW234638   1.163   3.784   8.341  0.0734 -0.4451  0.1237
 7669SOL     OW34639   1.512   4.605   1.718  0.5407  0.1833 -0.3208
 7669SOL    HW134640   1.563   4.525   1.710 -0.3486 -0.3144 -0.9689
 7669SOL    HW234641   1.451   4.593   1.791  2.5674 -1.6256  1.0847
 7670SOL     OW34642   2.514   3.797   5.762 -0.5472  0.0263 -0.1722
 7670SOL    HW134643   2.505   3.890   5.740  1.1252  0.6406  1.8207
 7670SOL    HW234644   2.459   3.754   5.695 -1.0006 -2.0924  1.5695
 7671SOL     OW34645   2.549   1.867   7.018 -0.4033 -0.0023 -0.1890
 7671SOL    HW134646   2.522   1.842   7.107  0.9685  0.5059  0.3648
 7671SOL    HW234647   2.462   1.865   6.979 -0.0524 -1.1026 -0.9040
 7672SOL     OW34648   3.989   1.374   3.149  0.1764  0.0776 -0.2313
 7672SOL    HW134649   3.904   1.363   3.190  0.6490 -0.9772  0.4871
 7672SOL    HW234650   3.974   1.443   3.085  0.7625  0.8799  0.5103
 7673SOL     OW34651   1.845   3.698   3.819  0.0086  0.1979 -0.0882
 7673SOL    HW134652   1.918   3.733   3.768  0.7731  3.0157  2.9060
 7673SOL    HW234653   1.786   3.773   3.825 -0.7399  0.0294 -5.0632
 7674SOL     OW34654   1.867   1.308   5.602 -0.0014 -0.6225  0.1631
 7674SOL    HW134655   1.950   1.276   5.637  1.1590 -0.3495 -2.2874
 7674SOL    HW234656   1.842   1.244   5.535 -1.0239 -1.7575  1.6490
 7675SOL     OW34657   3.295   4.678   3.311  0.0073 -0.3087 -0.2731
 7675SOL    HW134658   3.384   4.713   3.312  0.2493 -0.9161 -0.1782
 7675SOL    HW234659   3.271   4.675   3.404  0.4018  0.3567 -0.1527
 7676SOL     OW34660   0.400   3.097   9.646  0.4111  0.0228  0.2043
 7676SOL    HW134661   0.423   3.102   9.739 -0.8005 -1.8971  0.6000
 7676SOL    HW234662   0.307   3.082   9.658  0.7558 -1.0798  1.5566
 7677SOL     OW34663   4.625   0.984   7.622 -0.1210  0.2849 -0.0024
 7677SOL    HW134664   4.627   1.035   7.541 -0.1448  0.8724  0.3667
 7677SOL    HW234665   4.658   0.899   7.593  0.1525  0.5233 -0.3832
 7678SOL     OW34666   4.231   2.565   5.427  0.4544  0.0850 -0.0417
 7678SOL    HW134667   4.314   2.607   5.408  0.6240 -0.4508 -0.4975
 7678SOL    HW234668   4.253   2.487   5.477  1.6643  0.2832 -0.2626
 7679SOL     OW34669   0.956   3.947   7.989 -0.3206  0.3680  0.0288
 7679SOL    HW134670   0.898   4.023   7.977 -0.4461  0.2961  0.1812
 7679SOL    HW234671   0.892   3.876   7.984 -0.5591  0.6359 -0.7359
 7680SOL     OW34672   0.087   3.374   6.981 -0.6099  0.3696 -0.4864
 7680SOL    HW134673   0.107   3.281   6.979  1.8577  0.8879 -0.5698
 7680SOL    HW234674   0.112   3.404   6.893  2.9954 -2.3021 -0.3589
 7681SOL     OW34675   4.238   2.372   6.459  0.3673 -0.2512  0.1611
 7681SOL    HW134676   4.161   2.345   6.409 -1.6065  1.4941  2.2977
 7681SOL    HW234677   4.275   2.285   6.476  1.1597 -0.0634 -0.5517
 7682SOL     OW34678   0.412   1.042  12.327 -0.0665 -0.4449 -0.2452
 7682SOL    HW134679   0.445   1.128  12.356  0.1661 -0.7421  0.3717
 7682SOL    HW234680   0.480   0.982  12.358  0.8371  0.1852 -1.0027
 7683SOL     OW34681   2.532   1.956   9.985 -0.2495  0.0693 -0.2003
 7683SOL    HW134682   2.453   1.993   9.946  0.7675  3.4346  0.8856
 7683SOL    HW234683   2.584   1.917   9.914  1.3843  0.8812  0.5404
 7684SOL     OW34684   3.205   3.993   8.138 -0.3978  0.4170  0.2752
 7684SOL    HW134685   3.270   3.928   8.109 -0.6755  0.5726 -0.6727
 7684SOL    HW234686   3.273   4.036   8.190  0.5522 -2.5759  1.5487
 7685SOL     OW34687   2.523   1.665   3.615 -0.1349  0.1737  0.4593
 7685SOL    HW134688   2.436   1.676   3.577  0.5706  1.1561 -0.8411
 7685SOL    HW234689   2.566   1.727   3.557 -0.2999  2.1794  2.4575
 7686SOL     OW34690   2.634   1.267   2.608  0.0681 -0.1161 -0.0552
 7686SOL    HW134691   2.683   1.333   2.559  0.8089  0.4002  1.4018
 7686SOL    HW234692   2.584   1.236   2.532  1.1159  0.5975 -1.0205
 7687SOL     OW34693   3.869   4.125   1.914 -0.6208  0.2026  0.1045
 7687SOL    HW134694   3.809   4.055   1.889 -0.2867  0.0856 -0.3697
 7687SOL    HW234695   3.951   4.092   1.879 -0.2315  0.1517  1.0513
 7688SOL     OW34696   2.784   3.518  10.359  0.1398  0.5559  0.2652
 7688SOL    HW134697   2.714   3.579  10.380 -0.9582 -1.1827  1.6516
 7688SOL    HW234698   2.854   3.583  10.352 -1.3430  2.3397  1.9405
 7689SOL     OW34699   2.932   0.564   1.111 -0.3935  0.0561  0.4671
 7689SOL    HW134700   2.954   0.524   1.026 -0.5761  0.2285  0.3390
 7689SOL    HW234701   3.019   0.582   1.146  0.5472  0.2399 -1.9740
 7690SOL     OW34702   0.411   3.141  11.998 -0.2703  0.4716  0.5858
 7690SOL    HW134703   0.382   3.060  12.040 -1.3545 -0.0198 -1.0887
 7690SOL    HW234704   0.461   3.184  12.067 -0.0113  0.7762  0.2036
 7691SOL     OW34705   0.738   1.377   6.063 -0.0752 -0.0918 -0.3897
 7691SOL    HW134706   0.770   1.459   6.099 -0.4240 -0.7222  1.3604
 7691SOL    HW234707   0.736   1.396   5.969  0.5899  1.6391 -0.0397
 7692SOL     OW34708   1.828   2.393   9.530  0.3332 -0.8926 -0.1545
 7692SOL    HW134709   1.910   2.370   9.486  0.9592 -3.5078  2.4498
 7692SOL    HW234710   1.862   2.467   9.579 -0.3680 -0.2550 -0.6222
 7693SOL     OW34711   3.799   1.409  10.434  0.6709 -0.2680 -0.3784
 7693SOL    HW134712   3.834   1.430  10.348  0.7654  0.0420 -0.2637
 7693SOL    HW234713   3.738   1.337  10.416  1.0270 -0.3798 -1.1169
 7694SOL     OW34714   2.862   3.811   0.938  0.6228 -0.1143 -0.4659
 7694SOL    HW134715   2.947   3.796   0.897  0.0292 -2.1719 -0.9646
 7694SOL    HW234716   2.845   3.722   0.969 -2.8768  1.2091  1.4453
 7695SOL     OW34717   4.364   3.487   8.233  0.6300  0.1283  0.0040
 7695SOL    HW134718   4.443   3.456   8.188 -0.6472 -2.3199 -0.5311
 7695SOL    HW234719   4.324   3.523   8.154 -0.0839  0.4807  0.5235
 7696SOL     OW34720   2.656   1.828   5.139 -0.1280  0.2069  0.3494
 7696SOL    HW134721   2.611   1.759   5.090  1.2821 -1.0407  0.7983
 7696SOL    HW234722   2.617   1.824   5.226 -1.3326  0.9397 -0.1475
 7697SOL     OW34723   3.963   2.563   5.050  0.0101  0.1876  0.0804
 7697SOL    HW134724   3.975   2.559   5.145  1.8725  0.4384 -0.1403
 7697SOL    HW234725   3.967   2.657   5.033 -2.7784  0.0456 -1.3705
 7698SOL     OW34726   2.206   3.546  11.438 -0.2009  0.2175 -0.2474
 7698SOL    HW134727   2.297   3.530  11.464  0.1678  0.2696 -1.5295
 7698SOL    HW234728   2.179   3.601  11.511 -0.7376  0.2374 -0.4639
 7699SOL     OW34729   1.747   3.697   3.392 -0.1995  0.1917  0.1822
 7699SOL    HW134730   1.718   3.782   3.428  1.6081  1.0273 -0.3596
 7699SOL    HW234731   1.701   3.635   3.449 -1.9079  1.6865  0.4342
 7700SOL     OW34732   1.897   4.730   7.752 -0.2109  0.0766 -0.1096
 7700SOL    HW134733   1.912   0.046   7.675  1.3483  2.3854  1.8468
 7700SOL    HW234734   1.825   0.032   7.799  0.0204 -0.7713  0.9959
 7701SOL     OW34735   2.257   4.347  12.661 -0.0494  0.3889 -0.4785
 7701SOL    HW134736   2.314   4.421  12.681 -1.7214  1.8355 -1.0631
 7701SOL    HW234737   2.210   4.336  12.744  0.2544 -1.0500 -0.4963
 7702SOL     OW34738   1.734   2.580   7.204 -0.0403  0.2245 -0.1899
 7702SOL    HW134739   1.708   2.612   7.118  0.4952  3.3338  0.8051
 7702SOL    HW234740   1.824   2.608   7.220  0.0044 -1.4053  2.5292
 7703SOL     OW34741   0.625   1.083  11.108 -0.2845 -0.4881 -0.0794
 7703SOL    HW134742   0.545   1.095  11.056  0.7209 -1.4732 -1.8301
 7703SOL    HW234743   0.604   1.107  11.198 -0.6512  0.5204 -0.4374
 7704SOL     OW34744   1.731   1.352   6.835  0.0765  0.4904 -0.1142
 7704SOL    HW134745   1.675   1.314   6.768 -1.0460  1.7557  0.1296
 7704SOL    HW234746   1.692   1.439   6.842 -1.9617 -0.4888  0.4373
 7705SOL     OW34747   2.175   1.177   8.318  0.1414 -0.3225 -0.3219
 7705SOL    HW134748   2.141   1.183   8.228  1.1078  0.8876 -0.6062
 7705SOL    HW234749   2.258   1.129   8.309  0.0227 -0.4818 -0.5841
 7706SOL     OW34750   0.283   0.407   8.771 -0.5202  0.1275  0.4865
 7706SOL    HW134751   0.212   0.436   8.713 -0.7338 -0.7751  0.2900
 7706SOL    HW234752   0.243   0.334   8.818 -2.4372 -0.4226 -1.9811
 7707SOL     OW34753   1.265   4.173   5.573  0.3838  0.1706 -0.5739
 7707SOL    HW134754   1.250   4.085   5.606 -0.9775  0.9414  0.8731
 7707SOL    HW234755   1.228   4.167   5.485 -2.8655  3.5570  0.5615
 7708SOL     OW34756   2.227   0.822   4.888 -0.4969 -0.2706 -0.5909
 7708SOL    HW134757   2.261   0.817   4.977 -0.7261 -0.6242 -0.5242
 7708SOL    HW234758   2.236   0.735   4.848 -0.6943 -0.9554  0.8895
 7709SOL     OW34759   2.846   3.014   7.988  0.4864 -0.2588 -0.0823
 7709SOL    HW134760   2.862   3.038   8.079 -0.6073  0.5308 -0.0946
 7709SOL    HW234761   2.936   3.017   7.956 -0.2287 -0.1793 -2.0722
 7710SOL     OW34762   2.698   1.954   5.589  0.0407  0.4253 -0.4781
 7710SOL    HW134763   2.744   1.901   5.654  0.5038  1.9320  0.4359
 7710SOL    HW234764   2.724   1.914   5.506  0.5301 -1.1299  0.4278
 7711SOL     OW34765   3.063   0.281   1.638  0.0024 -0.0073  0.1209
 7711SOL    HW134766   3.066   0.205   1.580  1.7870 -0.0523  0.2799
 7711SOL    HW234767   3.023   0.247   1.717 -1.3828  0.5081 -0.3601
 7712SOL     OW34768   3.018   2.482  15.972  0.0290  0.1405  0.1060
 7712SOL    HW134769   2.944   2.540  15.992 -1.0767 -1.1233 -0.2798
 7712SOL    HW234770   3.015   2.485  15.876  2.0160  1.1528  0.0921
 7713SOL     OW34771   0.775   1.943  13.159 -0.1728  0.3428  0.1361
 7713SOL    HW134772   0.788   1.926  13.065 -0.6907 -0.7860  0.2655
 7713SOL    HW234773   0.686   1.912  13.176  0.0113 -0.6726 -0.7089
 7714SOL     OW34774   3.924   3.086  17.375 -0.1328 -0.3201  0.1660
 7714SOL    HW134775   3.831   3.078  17.394 -0.7867  0.2231 -2.8409
 7714SOL    HW234776   3.923   3.168  17.325 -0.9419 -1.3377 -1.4682
 7715SOL     OW34777   3.781   4.641  12.708 -0.1125 -0.4307 -0.1977
 7715SOL    HW134778   3.742   4.718  12.668 -0.4791 -0.4427  0.1417
 7715SOL    HW234779   3.870   4.675  12.701 -0.0659 -0.9576 -2.2679
 7716SOL     OW34780   3.178   3.095   3.693  0.0355  0.2614 -0.3214
 7716SOL    HW134781   3.114   3.038   3.735  0.2400  0.8346  0.7588
 7716SOL    HW234782   3.124   3.139   3.627  0.2069 -1.8846 -1.9024
 7717SOL     OW34783   2.712   0.802   4.775 -0.4929 -0.2827  0.1425
 7717SOL    HW134784   2.749   0.714   4.779  1.6099  0.5627 -0.5402
 7717SOL    HW234785   2.753   0.828   4.692 -2.8427 -0.5189 -1.1016
 7718SOL     OW34786   0.380   0.268   3.062  0.2414  0.4821 -0.0911
 7718SOL    HW134787   0.308   0.323   3.093  0.2692  1.4595 -1.7670
 7718SOL    HW234788   0.443   0.316   3.117 -2.8885  1.3904  2.6770
 7719SOL     OW34789   1.144   3.572   8.525  0.6022 -0.2626 -0.8928
 7719SOL    HW134790   1.227   3.544   8.487  1.5360 -0.8034  1.5132
 7719SOL    HW234791   1.147   3.526   8.609 -2.4354  0.6134 -0.2712
 7720SOL     OW34792   0.082   2.120   8.986 -0.4470  0.6406 -0.2388
 7720SOL    HW134793   0.164   2.169   8.989  0.3369 -0.7911  2.0631
 7720SOL    HW234794   0.039   2.171   9.055  0.5299  0.9649  0.1284
 7721SOL     OW34795   0.777   0.354   2.743  0.6972  0.0607  0.5916
 7721SOL    HW134796   0.797   0.355   2.836  1.2324 -1.8585  0.5014
 7721SOL    HW234797   0.775   0.446   2.718  1.5466  0.4798  2.0868
 7722SOL     OW34798   0.889   1.314   8.219  0.1751 -0.7541  0.1563
 7722SOL    HW134799   0.951   1.255   8.261 -1.2512 -2.3694 -0.0183
 7722SOL    HW234800   0.813   1.305   8.277  0.4933  1.1063  0.8608
 7723SOL     OW34801   3.457   0.413  10.653 -0.4490 -0.2004  0.5171
 7723SOL    HW134802   3.370   0.412  10.614  0.4342  0.0720 -1.4475
 7723SOL    HW234803   3.503   0.373  10.579  0.4173  1.6388  0.0532
 7724SOL     OW34804   0.150   4.588   7.527 -0.8073 -0.1735 -0.1444
 7724SOL    HW134805   0.105   4.519   7.477  1.0006 -0.3440 -1.5487
 7724SOL    HW234806   0.085   4.652   7.558  0.2513 -0.2708  2.2651
 7725SOL     OW34807   1.327   3.368   5.950  0.1734 -0.2675  0.0267
 7725SOL    HW134808   1.388   3.298   5.927  0.3389  0.2259 -1.0528
 7725SOL    HW234809   1.374   3.413   6.020 -0.3823  0.4737 -0.0792
 7726SOL     OW34810   0.868   4.261   5.618 -0.1244 -0.1277  0.3968
 7726SOL    HW134811   0.898   4.203   5.688  1.0848 -0.3872 -0.3244
 7726SOL    HW234812   0.899   4.344   5.653  0.8459  0.3714 -1.6508
 7727SOL     OW34813   2.977   2.536   7.739 -0.4166  0.6996 -0.2034
 7727SOL    HW134814   3.055   2.500   7.780 -0.3501 -0.6006 -1.4627
 7727SOL    HW234815   2.911   2.467   7.741  0.6700 -0.3987 -2.0774
 7728SOL     OW34816   1.319   4.570   7.967  0.2729  0.2834  0.0726
 7728SOL    HW134817   1.261   4.525   8.029  3.1598  1.0393  3.3526
 7728SOL    HW234818   1.253   4.624   7.924  0.7975  1.2433  0.4660
 7729SOL     OW34819   3.497   0.543   2.359  0.3899 -0.1008 -0.2883
 7729SOL    HW134820   3.504   0.522   2.266 -0.3941 -1.1808 -0.1095
 7729SOL    HW234821   3.553   0.618   2.341 -3.3805  2.3723 -1.8345
 7730SOL     OW34822   1.665   1.412   4.909 -0.1145 -0.2859  0.1018
 7730SOL    HW134823   1.758   1.430   4.925 -0.1981  1.1330 -1.1091
 7730SOL    HW234824   1.630   1.500   4.900  0.0178 -0.2169  0.2521
 7731SOL     OW34825   1.302   1.818   1.356 -0.3792 -0.6203 -0.2781
 7731SOL    HW134826   1.281   1.734   1.398 -1.4548 -0.8228 -1.2177
 7731SOL    HW234827   1.222   1.866   1.377  0.0495 -0.2783  0.6071
 7732SOL     OW34828   3.618   3.851  11.488  0.2738  0.2705  0.6686
 7732SOL    HW134829   3.528   3.878  11.467  1.1905  1.2345 -1.9667
 7732SOL    HW234830   3.608   3.827  11.580 -1.8449 -1.1015  0.1044
 7733SOL     OW34831   3.811   1.536   8.136 -0.2387 -0.1494  0.5965
 7733SOL    HW134832   3.735   1.538   8.077 -0.1954 -1.7932  0.5000
 7733SOL    HW234833   3.756   1.531   8.214  0.9501 -1.0221  1.3730
 7734SOL     OW34834   1.745   2.074   4.813  0.3077 -0.0066  0.0629
 7734SOL    HW134835   1.838   2.058   4.830  0.3354 -0.2985 -0.3900
 7734SOL    HW234836   1.710   2.096   4.899 -0.9480 -1.2584 -0.1256
 7735SOL     OW34837   0.087   2.130   3.175 -0.1063 -0.0552  0.2090
 7735SOL    HW134838   0.081   2.201   3.112  0.4416 -0.0357  0.1747
 7735SOL    HW234839   0.158   2.076   3.141  0.4272 -0.3095  1.6999
 7736SOL     OW34840   4.028   3.835  12.551 -0.4463 -0.1942  0.0463
 7736SOL    HW134841   4.079   3.916  12.547  1.9589 -1.8318 -1.9591
 7736SOL    HW234842   4.082   3.769  12.595 -0.1092  1.4068  2.0421
 7737SOL     OW34843   0.918   1.031   6.222 -0.3073 -0.4429  0.3374
 7737SOL    HW134844   0.829   1.065   6.218 -0.1146 -0.1753 -1.7453
 7737SOL    HW234845   0.938   0.997   6.134 -0.2887  2.2640 -0.7214
 7738SOL     OW34846   3.725   3.489   5.670  0.0327 -0.1617  0.2085
 7738SOL    HW134847   3.727   3.396   5.649  0.5583  0.6959 -3.5683
 7738SOL    HW234848   3.633   3.502   5.694  0.2914  1.1140  0.5094
 7739SOL     OW34849   2.961   2.085   7.980 -0.2556  0.7272 -0.4133
 7739SOL    HW134850   2.884   2.074   8.035  0.1486 -1.5342 -0.3178
 7739SOL    HW234851   3.024   2.035   8.032 -0.4064  0.4138 -0.5385
 7740SOL     OW34852   1.499   1.072   8.245  0.3097  0.2587 -0.4264
 7740SOL    HW134853   1.551   1.141   8.284  1.2054 -1.2517  1.0322
 7740SOL    HW234854   1.495   1.020   8.325  0.5615  0.6835 -0.1436
 7741SOL     OW34855   3.627   1.873  11.711 -0.7644  0.2754  0.3998
 7741SOL    HW134856   3.550   1.870  11.768 -1.1036  1.3861 -0.0081
 7741SOL    HW234857   3.691   1.920  11.765 -1.0843  1.2713 -0.0784
 7742SOL     OW34858   3.818   1.292  17.161 -0.3074  0.0095 -0.0478
 7742SOL    HW134859   3.842   1.229  17.228  0.0714  1.4795  1.2174
 7742SOL    HW234860   3.905   1.333  17.165 -1.3340  1.9941  2.1199
 7743SOL     OW34861   4.516   3.165   9.210 -0.1520  0.3924  0.4333
 7743SOL    HW134862   4.508   3.116   9.129  4.2691  0.8011 -0.2632
 7743SOL    HW234863   4.425   3.180   9.235 -0.6925 -2.0372 -0.1395
 7744SOL     OW34864   0.092   0.751  16.558  0.0675 -0.0185  0.9945
 7744SOL    HW134865   0.075   0.763  16.465 -1.9034 -0.2347  1.3132
 7744SOL    HW234866   0.183   0.779  16.562 -0.1494  0.7729  0.5215
 7745SOL     OW34867   3.067   2.376   5.427  0.0701  0.1620  0.1746
 7745SOL    HW134868   3.035   2.298   5.471 -0.4802  0.6401  0.6232
 7745SOL    HW234869   3.160   2.356   5.433  0.2603  1.0371  0.1911
 7746SOL     OW34870   3.495   4.444   3.190  0.6851 -0.1229 -0.3440
 7746SOL    HW134871   3.420   4.400   3.232  1.6043 -0.1023  1.2909
 7746SOL    HW234872   3.445   4.471   3.113  0.7833  1.7014  0.2317
 7747SOL     OW34873   2.453   1.559   7.101 -0.0439  0.3669 -0.4852
 7747SOL    HW134874   2.386   1.491   7.097  0.8211 -0.3617 -2.8136
 7747SOL    HW234875   2.431   1.596   7.186 -1.0353 -3.3469  0.8822
 7748SOL     OW34876   3.649   1.346   6.008  0.6102 -0.7681 -0.0601
 7748SOL    HW134877   3.721   1.374   5.953 -1.2524  0.1136 -2.0683
 7748SOL    HW234878   3.662   1.395   6.089  0.9499 -1.0714  0.0693
 7749SOL     OW34879   1.569   2.085  14.603 -0.4175 -0.0027  0.3218
 7749SOL    HW134880   1.493   2.045  14.560 -0.3405 -2.8318  2.8179
 7749SOL    HW234881   1.527   2.169  14.622  0.4031  1.1533 -3.0378
 7750SOL     OW34882   0.944   3.586  17.047  0.7379  0.0306 -0.1346
 7750SOL    HW134883   0.981   3.673  17.063 -0.0723 -0.0492  2.1785
 7750SOL    HW234884   1.021   3.545  17.009  1.5113  1.9669 -0.6662
 7751SOL     OW34885   0.066   2.531  16.023 -0.1198 -0.0557  0.5767
 7751SOL    HW134886   0.108   2.594  16.082  1.1059 -1.1024  0.8153
 7751SOL    HW234887   0.088   2.573  15.939  0.6250 -2.3799 -0.3907
 7752SOL     OW34888   3.807   2.854  11.963 -0.4911  0.8298  0.0771
 7752SOL    HW134889   3.713   2.843  11.979 -0.9678  0.3295 -3.1933
 7752SOL    HW234890   3.846   2.785  12.017 -2.0557  0.3443  0.6008
 7753SOL     OW34891   3.798   0.689   4.779 -0.5260  0.5831 -0.6326
 7753SOL    HW134892   3.762   0.777   4.793 -2.5013 -0.2979 -0.2270
 7753SOL    HW234893   3.762   0.664   4.694  1.4027 -1.3486 -0.8828
 7754SOL     OW34894   1.148   1.292  17.399 -0.5429 -0.2732 -0.2646
 7754SOL    HW134895   1.152   1.365  17.337 -0.3669 -1.2227 -1.3751
 7754SOL    HW234896   1.232   1.249  17.385  0.7101  2.5066 -1.3431
 7755SOL     OW34897   2.565   2.987  13.368 -0.7443 -0.0083  0.2916
 7755SOL    HW134898   2.648   2.951  13.338  0.3801  2.0887  0.9284
 7755SOL    HW234899   2.563   3.080  13.348 -0.7049  0.0553  0.5826
 7756SOL     OW34900   2.331   3.841   2.558  0.2009  0.0385  0.2194
 7756SOL    HW134901   2.269   3.780   2.518  0.8878 -0.5301  0.0366
 7756SOL    HW234902   2.345   3.909   2.492  0.1152  2.2350  2.4605
 7757SOL     OW34903   0.832   1.563   4.004  0.0196 -0.2838 -1.0008
 7757SOL    HW134904   0.793   1.483   3.968 -1.0451 -0.3608  0.3305
 7757SOL    HW234905   0.773   1.626   3.962 -2.3231 -0.9077  1.3774
 7758SOL     OW34906   2.223   2.529   6.000 -0.4963  0.0807  0.2419
 7758SOL    HW134907   2.139   2.561   5.967 -0.1205  0.2347 -0.5580
 7758SOL    HW234908   2.253   2.480   5.923 -1.3246  1.0887 -0.7278
 7759SOL     OW34909   3.905   0.431   3.282 -0.5541 -0.5331 -0.0619
 7759SOL    HW134910   3.916   0.348   3.236  0.3657 -0.2266 -0.4014
 7759SOL    HW234911   3.810   0.440   3.282 -0.5289 -0.2716  0.6208
 7760SOL     OW34912   4.377   1.047   6.507  0.0598  0.5648 -0.4955
 7760SOL    HW134913   4.459   1.001   6.525  0.2349  1.3033  0.5925
 7760SOL    HW234914   4.417   1.127   6.475  1.6365  0.2343  0.6414
 7761SOL     OW34915   1.364   2.515  16.474 -0.0779 -0.0220  0.5399
 7761SOL    HW134916   1.435   2.470  16.521  0.4487 -0.1687 -0.3994
 7761SOL    HW234917   1.386   2.607  16.483  2.1988 -0.5879  0.9370
 7762SOL     OW34918   3.092   3.287   6.125  0.1772 -0.2720 -0.1946
 7762SOL    HW134919   3.036   3.209   6.123 -0.0816 -0.0655 -0.9832
 7762SOL    HW234920   3.027   3.350   6.094  1.2953 -0.7661 -3.4820
 7763SOL     OW34921   3.441   3.873   7.571  0.3108 -0.5507  0.2624
 7763SOL    HW134922   3.490   3.852   7.491 -0.6970 -1.9147 -0.0054
 7763SOL    HW234923   3.511   3.905   7.627  1.6524 -1.3466 -0.9737
 7764SOL     OW34924   1.785   0.832  13.119  0.1439 -0.0928  0.8546
 7764SOL    HW134925   1.710   0.891  13.107  2.4971  3.0670  1.7088
 7764SOL    HW234926   1.734   0.753  13.103 -0.5143  0.3004  1.0008
 7765SOL     OW34927   0.965   0.219   9.750 -0.1989  0.4338  0.0782
 7765SOL    HW134928   0.957   0.197   9.657  1.7783 -1.7117  0.4284
 7765SOL    HW234929   0.924   0.146   9.796  1.1026 -2.1656 -2.8953
 7766SOL     OW34930   1.054   4.377  12.371 -0.2424  0.0088 -0.5352
 7766SOL    HW134931   0.967   4.410  12.351 -1.9208 -2.4619  2.7352
 7766SOL    HW234932   1.073   4.307  12.308  3.4371  0.6992 -0.1856
 7767SOL     OW34933   0.118   2.577   5.977 -0.5381 -0.0108  0.0410
 7767SOL    HW134934   0.099   2.665   5.944 -0.3928  0.2942  0.7709
 7767SOL    HW234935   0.145   2.529   5.899 -0.9108 -0.0631 -0.0561
 7768SOL     OW34936   3.312   0.418   0.359 -0.2203  0.1905 -0.0834
 7768SOL    HW134937   3.334   0.427   0.452 -0.2492 -1.8735  0.1275
 7768SOL    HW234938   3.256   0.495   0.350  1.0045  1.1088  0.0775
 7769SOL     OW34939   4.264   3.046   5.462 -0.1602  0.0092 -0.2074
 7769SOL    HW134940   4.194   3.086   5.410 -1.4067 -0.0701  1.4190
 7769SOL    HW234941   4.329   3.116   5.465  1.2564 -1.3015 -0.1470
 7770SOL     OW34942   3.751   1.786   4.356  0.2052  0.4080  0.2515
 7770SOL    HW134943   3.831   1.838   4.351  2.3663 -3.2940 -3.5316
 7770SOL    HW234944   3.692   1.859   4.374 -1.4554 -0.3513 -2.0702
 7771SOL     OW34945   1.247   3.964   4.558  0.1532 -0.1559 -0.2234
 7771SOL    HW134946   1.241   3.952   4.463  0.7236  0.9192 -0.4013
 7771SOL    HW234947   1.337   3.996   4.556 -0.2457  1.1024  2.3288
 7772SOL     OW34948   0.008   1.520  11.702 -0.5752 -0.1533  0.2119
 7772SOL    HW134949   0.051   1.438  11.680  0.1950  0.0734  0.8655
 7772SOL    HW234950   0.013   1.511  11.797 -3.4713 -1.8959  0.1923
 7773SOL     OW34951   4.738   0.633  11.431 -0.2567 -0.2931  0.1885
 7773SOL    HW134952   4.730   0.680  11.514 -0.2581 -1.4461  0.8493
 7773SOL    HW234953   4.648   0.631  11.399  0.0248 -1.5872 -0.5337
 7774SOL     OW34954   0.312   3.538   9.801  0.1203 -0.3347  0.0537
 7774SOL    HW134955   0.329   3.612   9.742 -0.4035  0.2013  0.5774
 7774SOL    HW234956   0.401   3.503   9.796  0.6750  0.8422  1.4045
 7775SOL     OW34957   0.149   1.224  13.543  0.4314  0.4525  0.3249
 7775SOL    HW134958   0.236   1.257  13.521  0.2864  0.7611  0.2234
 7775SOL    HW234959   0.149   1.153  13.478  1.7959  1.0854 -0.3656
 7776SOL     OW34960   0.653   1.649   8.701 -0.2115  0.1028  0.0472
 7776SOL    HW134961   0.672   1.611   8.616 -2.3654 -0.1495 -0.3037
 7776SOL    HW234962   0.632   1.735   8.664  0.7493 -0.1284 -1.0446
 7777SOL     OW34963   2.304   1.888   0.530 -0.0804  0.5648  0.3252
 7777SOL    HW134964   2.374   1.907   0.593  0.6227 -0.7754 -0.0297
 7777SOL    HW234965   2.232   1.858   0.585  1.0113 -3.1017 -0.2071
 7778SOL     OW34966   2.846   0.436  12.282 -0.8193 -0.0670  0.4455
 7778SOL    HW134967   2.867   0.520  12.241  2.3832 -1.6067 -1.0192
 7778SOL    HW234968   2.753   0.426  12.259 -1.0297 -0.2087  1.3815
 7779SOL     OW34969   3.168   0.223   6.051  0.2787  0.2160  0.0578
 7779SOL    HW134970   3.170   0.224   5.956 -1.2786  1.9640  0.0331
 7779SOL    HW234971   3.076   0.237   6.073  0.4352 -0.6316  1.2509
 7780SOL     OW34972   0.717   2.728   1.568 -0.2221  0.0468  0.0943
 7780SOL    HW134973   0.679   2.805   1.610 -0.6867  1.4456 -2.8930
 7780SOL    HW234974   0.641   2.676   1.541  0.8736 -0.3795 -2.1454
 7781SOL     OW34975   2.658   1.626  15.134  0.4309  0.4365 -0.3532
 7781SOL    HW134976   2.595   1.689  15.168  0.7208  0.2684  0.4874
 7781SOL    HW234977   2.606   1.593  15.060 -1.2291  1.7600  0.2342
 7782SOL     OW34978   4.350   4.113   4.001 -0.4873 -0.1771  0.2018
 7782SOL    HW134979   4.311   4.145   3.920  2.5456 -1.9999 -1.9933
 7782SOL    HW234980   4.331   4.187   4.058  1.6311  0.1357  0.4987
 7783SOL     OW34981   2.781   0.196  14.512 -0.8106 -0.1619  0.1483
 7783SOL    HW134982   2.839   0.146  14.454  3.5665  1.1799  3.3983
 7783SOL    HW234983   2.792   0.286  14.480  1.3234 -0.6399 -0.4839
 7784SOL     OW34984   0.507   2.253   0.482  0.3170  0.3462 -0.4492
 7784SOL    HW134985   0.521   2.168   0.523  1.0610  0.7783  0.1934
 7784SOL    HW234986   0.508   2.237   0.387  0.3464  2.0358 -0.7304
 7785SOL     OW34987   3.708   4.167  10.340  0.3422 -0.3056  0.9507
 7785SOL    HW134988   3.793   4.184  10.381  1.0662 -0.0949 -0.6010
 7785SOL    HW234989   3.660   4.111  10.400 -0.2733 -2.2969 -1.3781
 7786SOL     OW34990   1.146   2.000   8.529  0.0187 -0.0133 -0.0282
 7786SOL    HW134991   1.115   2.020   8.617 -0.8925  0.8111 -0.5433
 7786SOL    HW234992   1.239   2.020   8.543  0.4906 -1.1572 -1.5766
 7787SOL     OW34993   1.278   1.391   4.941 -0.4842 -0.2695  0.5976
 7787SOL    HW134994   1.343   1.440   4.992  2.1340 -1.3365 -1.7374
 7787SOL    HW234995   1.203   1.451   4.942 -1.9643 -2.1179 -0.4173
 7788SOL     OW34996   4.572   4.173  13.477  0.0125 -0.4683  0.6521
 7788SOL    HW134997   4.587   4.227  13.400  2.0008 -2.1189 -0.0973
 7788SOL    HW234998   4.635   4.102  13.465 -0.6158 -0.6626 -1.5079
 7789SOL     OW34999   3.881   2.357  12.086  0.2371  0.0508  0.2202
 7789SOL    HW135000   3.831   2.360  12.168  1.5240  2.0289  0.9409
 7789SOL    HW235001   3.958   2.305  12.106  0.3223  0.9652  2.3075
 7790SOL     OW35002   2.908   0.270   5.999  0.5729  0.2238  0.1477
 7790SOL    HW135003   2.955   0.277   5.916  0.3753 -0.9943 -0.0730
 7790SOL    HW235004   2.849   0.197   5.978  2.3700 -0.8272 -1.3078
 7791SOL     OW35005   1.340   3.914   5.254  0.0986  0.8088 -0.1652
 7791SOL    HW135006   1.329   3.880   5.166  2.5147  1.1358 -0.5860
 7791SOL    HW235007   1.274   3.866   5.304  0.1475  2.2461  1.2946
 7792SOL     OW35008   1.886   1.244   7.889  0.1241 -0.6479  0.1059
 7792SOL    HW135009   1.962   1.254   7.947 -0.1849 -0.7549  0.5282
 7792SOL    HW235010   1.818   1.262   7.954  1.6712  0.9837  1.2593
 7793SOL     OW35011   2.836   4.454   3.762  0.3117 -0.0450 -0.1699
 7793SOL    HW135012   2.930   4.453   3.781  0.6956  2.3752 -1.9500
 7793SOL    HW235013   2.832   4.461   3.667 -0.1343  0.0526 -0.1443
 7794SOL     OW35014   0.358   1.620   8.009 -0.2874  0.0223 -0.3024
 7794SOL    HW135015   0.361   1.607   8.104  0.8065 -0.0573 -0.3422
 7794SOL    HW235016   0.315   1.705   8.009  0.0885  0.2136 -1.6796
 7795SOL     OW35017   4.055   0.924  15.807 -0.6094  0.3452  0.1172
 7795SOL    HW135018   4.014   0.880  15.882 -2.4855 -0.0880 -1.1567
 7795SOL    HW235019   4.140   0.949  15.843 -0.2436  0.4774 -0.8630
 7796SOL     OW35020   4.203   3.737   6.935 -0.7209  0.2605  0.5649
 7796SOL    HW135021   4.159   3.821   6.950  1.2621  1.2467  0.9014
 7796SOL    HW235022   4.253   3.733   7.016  1.0197 -1.4523 -0.5973
 7797SOL     OW35023   3.259   0.226   5.261  0.0046  0.0149 -0.0937
 7797SOL    HW135024   3.186   0.280   5.229  1.5776  2.4096  0.3212
 7797SOL    HW235025   3.236   0.136   5.238 -0.3787  0.6947 -2.3200
 7798SOL     OW35026   2.699   4.683   8.916  0.0505  0.1253 -0.6613
 7798SOL    HW135027   2.690   0.007   8.845 -0.6523  2.9895  2.0091
 7798SOL    HW235028   2.628   4.619   8.907 -0.9353  1.2871 -1.0756
 7799SOL     OW35029   3.606   1.648  10.495  0.3577 -0.2769 -0.0467
 7799SOL    HW135030   3.621   1.554  10.498 -1.6409 -0.6179 -0.3626
 7799SOL    HW235031   3.579   1.661  10.403 -0.2354 -1.9033 -0.1022
 7800SOL     OW35032   3.898   1.996   8.575 -0.2404  0.3235  0.0604
 7800SOL    HW135033   3.918   1.914   8.622  0.2714  0.0354 -0.6601
 7800SOL    HW235034   3.881   1.969   8.485  0.9537 -0.1654 -0.0189
 7801SOL     OW35035   3.117   2.013   4.297  0.0303  0.0854 -0.1592
 7801SOL    HW135036   3.187   2.071   4.267  0.0885  0.0321 -0.1290
 7801SOL    HW235037   3.048   2.074   4.321 -2.3782 -2.5679 -0.3461
 7802SOL     OW35038   2.052   2.671   4.328 -0.1326 -0.0801  0.1586
 7802SOL    HW135039   2.083   2.759   4.350 -0.9425  0.7520 -2.0089
 7802SOL    HW235040   2.013   2.653   4.413  2.1429  1.6526  1.5780
 7803SOL     OW35041   2.448   2.275   5.601  0.0529  0.3486  0.2395
 7803SOL    HW135042   2.432   2.212   5.531 -1.2213 -0.0188  0.8629
 7803SOL    HW235043   2.497   2.344   5.557  0.6711 -0.7081 -0.7237
 7804SOL     OW35044   4.711   3.256  15.977  0.1648 -0.0094  0.2510
 7804SOL    HW135045   4.696   3.325  16.042 -1.7333  0.4369 -0.6650
 7804SOL    HW235046   0.051   3.222  16.016 -0.2929  2.4499  3.3459
 7805SOL     OW35047   1.753   2.690   9.075 -0.0810 -0.5261  0.0340
 7805SOL    HW135048   1.814   2.690   9.002 -0.0929  1.9932  0.0394
 7805SOL    HW235049   1.677   2.648   9.034  0.1148  0.5136 -1.3884
 7806SOL     OW35050   1.821   0.633   6.926  0.8257  0.5264 -0.2597
 7806SOL    HW135051   1.775   0.639   7.010  0.7044 -1.1086 -0.2052
 7806SOL    HW235052   1.839   0.725   6.905  0.5255  1.0694  1.8817
 7807SOL     OW35053   0.076   3.205   7.893 -0.0414 -0.0480  0.1490
 7807SOL    HW135054   0.004   3.192   7.954  0.2282  0.5863  0.6076
 7807SOL    HW235055   0.131   3.128   7.906  2.2037  1.8621  2.1723
 7808SOL     OW35056   1.877   4.345  14.329  0.5725  0.1285  0.7660
 7808SOL    HW135057   1.938   4.371  14.259 -0.8326 -1.7885 -1.1339
 7808SOL    HW235058   1.844   4.430  14.360 -3.6867 -1.6406  0.9823
 7809SOL     OW35059   4.509   0.059   0.341 -0.0212 -0.2352 -0.4450
 7809SOL    HW135060   4.528   0.137   0.393  0.5357  0.0521 -1.0734
 7809SOL    HW235061   4.584   0.004   0.366 -1.1022 -0.6113  1.9204
 7810SOL     OW35062   1.152   4.539   6.859  0.0701 -0.0617  0.1420
 7810SOL    HW135063   1.173   4.628   6.887  0.5237 -0.8581  2.3029
 7810SOL    HW235064   1.066   4.544   6.819 -0.4921 -0.8482  1.2496
 7811SOL     OW35065   0.240   3.535   3.786 -0.2587  0.3884 -0.1607
 7811SOL    HW135066   0.325   3.557   3.825 -0.9622 -0.1610  1.6846
 7811SOL    HW235067   0.191   3.547   3.867 -0.1162  1.3076 -0.2136
 7812SOL     OW35068   2.426   1.534   4.103  0.5738  0.2315 -0.0713
 7812SOL    HW135069   2.484   1.492   4.040 -2.0391 -0.7603 -1.8183
 7812SOL    HW235070   2.403   1.470   4.171 -0.7989  0.0171 -0.7500
 7813SOL     OW35071   4.540   1.515  14.088  0.4279  0.4803  0.0774
 7813SOL    HW135072   4.567   1.473  14.007  0.7155  1.4061 -0.3071
 7813SOL    HW235073   4.445   1.502  14.094  0.2804  2.0259  1.3076
 7814SOL     OW35074   0.163   0.837   6.502  0.1649  0.4443 -0.0287
 7814SOL    HW135075   0.202   0.805   6.421 -0.3824 -3.5275  1.2778
 7814SOL    HW235076   0.193   0.778   6.571  0.0869  0.5680  0.1107
 7815SOL     OW35077   0.955   3.921   6.690  0.2026  0.7956 -0.2520
 7815SOL    HW135078   0.920   3.994   6.742  0.3715 -0.2987  1.3766
 7815SOL    HW235079   1.032   3.960   6.648  1.9263 -1.7591  0.5985
 7816SOL     OW35080   2.804   0.543   6.588 -0.0950 -0.1105 -0.0171
 7816SOL    HW135081   2.878   0.497   6.547  1.1406  0.3466  1.6818
 7816SOL    HW235082   2.780   0.616   6.532 -2.3117 -2.1740 -1.7242
 7817SOL     OW35083   0.908   3.544   6.079  0.5767  0.4187 -0.0728
 7817SOL    HW135084   0.822   3.573   6.108  0.2862 -0.0771 -0.4477
 7817SOL    HW235085   0.938   3.523   6.168  3.0483  0.0013 -0.9863
 7818SOL     OW35086   4.309   1.485   7.777  0.0299 -0.0739  0.0016
 7818SOL    HW135087   4.313   1.423   7.704  1.3646  1.0396 -0.8994
 7818SOL    HW235088   4.400   1.514   7.782  0.3554 -0.8141 -1.4760
 7819SOL     OW35089   3.015   2.474  15.679 -0.2435  0.2321  0.4786
 7819SOL    HW135090   2.968   2.433  15.606  0.6424  0.3451 -0.1437
 7819SOL    HW235091   2.988   2.566  15.670 -0.2190  0.2249  0.3249
 7820SOL     OW35092   2.616   0.342   7.142 -0.0362 -0.2274 -0.2126
 7820SOL    HW135093   2.613   0.365   7.235 -0.4453 -1.5064  0.0820
 7820SOL    HW235094   2.663   0.259   7.141  1.4096  0.5975 -1.4987
 7821SOL     OW35095   1.361   3.213   2.436 -0.4351 -0.2916  0.0423
 7821SOL    HW135096   1.302   3.288   2.423  0.2845  0.3378  0.4240
 7821SOL    HW235097   1.354   3.218   2.532 -0.0633 -0.2613  0.0665
 7822SOL     OW35098   2.744   3.596   0.474  0.5113 -0.4329 -0.3070
 7822SOL    HW135099   2.671   3.591   0.536  1.1346 -0.7943  0.3964
 7822SOL    HW235100   2.704   3.641   0.399  1.7337  0.6939 -0.2812
 7823SOL     OW35101   3.351   3.271   7.526  0.0583 -0.4524  0.3759
 7823SOL    HW135102   3.299   3.326   7.467  1.5247  2.2617  1.6054
 7823SOL    HW235103   3.309   3.293   7.609 -0.9465 -1.3974  0.1326
 7824SOL     OW35104   3.002   3.682   9.346  0.2518 -0.2301 -0.1168
 7824SOL    HW135105   2.951   3.758   9.318 -0.5041 -0.4436  0.7018
 7824SOL    HW235106   3.043   3.651   9.265  0.8409 -1.1540  0.5487
 7825SOL     OW35107   2.349   1.107  14.226 -0.5537 -0.2648  0.0094
 7825SOL    HW135108   2.321   1.196  14.205 -0.8055 -0.7352 -1.6853
 7825SOL    HW235109   2.273   1.065  14.267  0.7842 -2.9230 -0.2346
 7826SOL     OW35110   2.714   0.216  16.897 -0.1078 -0.6862  0.0114
 7826SOL    HW135111   2.648   0.279  16.927  1.9411  1.9156 -0.9730
 7826SOL    HW235112   2.675   0.182  16.817  2.9818 -1.2144 -1.2333
 7827SOL     OW35113   0.274   0.951   7.291 -0.0623  0.3101  0.1616
 7827SOL    HW135114   0.281   0.873   7.235 -0.0730  0.1602  0.3686
 7827SOL    HW235115   0.306   0.905   7.369 -0.8915  0.6573  0.6985
 7828SOL     OW35116   1.736   1.784   4.632 -0.0975 -0.8490  0.6277
 7828SOL    HW135117   1.673   1.855   4.621  0.1394 -0.6567  0.5146
 7828SOL    HW235118   1.813   1.827   4.669  0.2429 -2.0666  1.3532
 7829SOL     OW35119   0.152   3.011  11.044  0.0580  0.0222  0.5270
 7829SOL    HW135120   0.164   2.916  11.040  0.0677 -0.0058  1.2386
 7829SOL    HW235121   0.177   3.018  11.136  0.1289  0.0416  0.5064
 7830SOL     OW35122   4.268   1.737   6.554  0.1116 -0.3607  1.2068
 7830SOL    HW135123   4.237   1.769   6.469 -0.2850  0.1121  1.5256
 7830SOL    HW235124   4.187   1.713   6.600  0.4545 -1.5842  1.1663
 7831SOL     OW35125   0.388   2.535   5.803 -0.1152  0.3615  0.1681
 7831SOL    HW135126   0.334   2.479   5.748 -0.0516  1.7609 -1.3297
 7831SOL    HW235127   0.472   2.539   5.757 -0.5280  0.2079 -0.5954
 7832SOL     OW35128   1.379   0.106   2.071  0.1842  0.0818  0.1418
 7832SOL    HW135129   1.421   0.189   2.096 -0.6368  0.9110 -1.2472
 7832SOL    HW235130   1.289   0.117   2.102  0.4486 -0.8708  1.2597
 7833SOL     OW35131   2.896   3.134   9.074 -0.6714 -0.0217 -0.0177
 7833SOL    HW135132   2.819   3.169   9.028 -0.5596 -0.0992 -0.2674
 7833SOL    HW235133   2.892   3.181   9.157  1.9287  2.2045 -1.1652
 7834SOL     OW35134   4.662   2.684   6.550  0.0086 -0.0228  0.1048
 7834SOL    HW135135   4.638   2.755   6.491 -1.5630 -1.2526 -0.7513
 7834SOL    HW235136   4.629   2.726   6.630 -0.9113 -2.0350  0.7779
 7835SOL     OW35137   3.446   2.161   8.513 -0.1340 -0.7059  0.0196
 7835SOL    HW135138   3.512   2.135   8.578 -0.2740 -0.4073  0.2815
 7835SOL    HW235139   3.378   2.096   8.529  0.0289 -0.2763  2.5831
 7836SOL     OW35140   1.390   1.035   8.870 -0.4123  0.0050  0.0630
 7836SOL    HW135141   1.304   1.020   8.908 -0.1678  1.2637  1.1155
 7836SOL    HW235142   1.441   0.979   8.928  1.5934 -0.3382 -2.0412
 7837SOL     OW35143   3.786   3.940   7.304 -0.1607  0.0761  0.9128
 7837SOL    HW135144   3.711   3.887   7.276 -0.7835  1.8792 -0.8754
 7837SOL    HW235145   3.764   4.024   7.265  0.6098 -0.2605 -0.2624
 7838SOL     OW35146   0.407   3.178  16.076 -0.1146 -0.0243 -0.3233
 7838SOL    HW135147   0.437   3.268  16.091  2.3751 -0.7123 -1.1504
 7838SOL    HW235148   0.486   3.129  16.097 -0.3260 -0.3481 -0.2715
 7839SOL     OW35149   4.547   3.864   0.109  0.1602 -0.2812 -0.0446
 7839SOL    HW135150   4.526   3.952   0.078 -0.6126  0.2737  2.0339
 7839SOL    HW235151   4.540   3.825   0.022  2.6488 -0.7450 -0.0387
 7840SOL     OW35152   4.538   3.055   7.789  0.3089 -0.7283 -0.5227
 7840SOL    HW135153   4.510   2.975   7.745  2.1451 -2.6194  1.7205
 7840SOL    HW235154   4.629   3.072   7.763 -0.2099 -0.1494 -1.9340
 7841SOL     OW35155   2.842   2.196   5.678  0.4389 -0.2159  0.4490
 7841SOL    HW135156   2.904   2.159   5.615 -0.2706 -2.4546  1.0668
 7841SOL    HW235157   2.774   2.129   5.673 -1.2558  1.5893 -0.6128
 7842SOL     OW35158   0.193   0.080   6.065  0.0390 -0.0065  0.0348
 7842SOL    HW135159   0.241   0.153   6.027 -1.4400  0.7400 -0.4316
 7842SOL    HW235160   0.254   0.013   6.097 -1.2291 -0.9172  0.5546
 7843SOL     OW35161   3.758   2.965  16.715 -0.0086 -0.1304 -0.7102
 7843SOL    HW135162   3.751   3.032  16.783 -3.5050 -2.0938  0.8532
 7843SOL    HW235163   3.813   2.993  16.641  0.6455 -0.4006 -0.3236
 7844SOL     OW35164   3.179   2.250   0.461  0.2198  0.6091 -0.4100
 7844SOL    HW135165   3.170   2.206   0.377 -0.4278 -0.6232  0.3012
 7844SOL    HW235166   3.143   2.338   0.447 -0.1860  0.3554 -0.9180
 7845SOL     OW35167   3.275   1.440  11.138 -0.1447  0.5641  0.6816
 7845SOL    HW135168   3.369   1.446  11.122  0.0023 -0.4186  1.1877
 7845SOL    HW235169   3.249   1.514  11.083  0.3120 -2.0618 -2.9994
 7846SOL     OW35170   4.056   2.829   5.046 -0.1594  0.0856 -0.3364
 7846SOL    HW135171   4.069   2.920   5.020  2.0536  0.5996  2.5309
 7846SOL    HW235172   4.144   2.793   5.052 -0.7257 -1.6800 -2.8941
 7847SOL     OW35173   0.425   1.526   5.632 -0.5333 -0.5363  0.8254
 7847SOL    HW135174   0.352   1.467   5.614 -0.0194 -0.3716 -1.8358
 7847SOL    HW235175   0.479   1.520   5.553 -0.6761  2.6146  0.4885
 7848SOL     OW35176   3.135   4.620  17.134 -0.1188  0.4718 -0.1234
 7848SOL    HW135177   3.223   4.654  17.154  0.3090 -0.3995 -0.5163
 7848SOL    HW235178   3.082   4.699  17.128 -0.4330  0.1790 -1.1646
 7849SOL     OW35179   4.025   2.606   9.911 -0.7751  0.6110 -0.2768
 7849SOL    HW135180   4.095   2.550   9.878  0.2923  1.9776 -0.3525
 7849SOL    HW235181   4.063   2.642   9.992  3.3932 -0.5249 -1.7354
 7850SOL     OW35182   0.146   2.201   8.322  0.1128  0.6097  0.5244
 7850SOL    HW135183   0.076   2.160   8.371 -0.5714  2.8421  1.3896
 7850SOL    HW235184   0.209   2.229   8.388  0.5889  1.1622 -0.1475
 7851SOL     OW35185   4.561   4.114   8.180 -0.1187  0.2772  0.2741
 7851SOL    HW135186   4.616   4.056   8.231 -0.2082 -0.5601 -0.5795
 7851SOL    HW235187   4.479   4.116   8.230 -0.6481 -1.4321 -0.5221
 7852SOL     OW35188   3.549   0.551   4.261 -0.2248 -0.2370  0.1029
 7852SOL    HW135189   3.454   0.559   4.259 -0.2255 -0.6105 -1.6491
 7852SOL    HW235190   3.573   0.634   4.218  0.6497 -0.2235  0.6150
 7853SOL     OW35191   0.879   2.116   3.593  0.3305 -0.1038  0.8313
 7853SOL    HW135192   0.957   2.062   3.602  1.0552  0.9301  0.6934
 7853SOL    HW235193   0.907   2.205   3.615  1.4429  0.1168 -1.4790
 7854SOL     OW35194   1.549   1.606   8.652 -0.0051 -0.4955 -0.6052
 7854SOL    HW135195   1.567   1.579   8.742 -0.3564 -1.5867 -0.8625
 7854SOL    HW235196   1.622   1.585   8.593  1.3283  3.7791 -0.4807
 7855SOL     OW35197   3.514   4.055  12.818 -0.1909 -0.1171  0.2096
 7855SOL    HW135198   3.591   4.070  12.763 -0.7712  1.2077 -0.2255
 7855SOL    HW235199   3.544   3.969  12.848  0.2890 -0.1780 -0.4341
 7856SOL     OW35200   3.718   2.572   4.228 -0.0949  0.0235  0.4837
 7856SOL    HW135201   3.728   2.529   4.313  1.3548 -2.6685 -1.0379
 7856SOL    HW235202   3.767   2.512   4.172 -2.5608 -0.3498 -1.3103
 7857SOL     OW35203   2.916   0.096   3.431 -0.1760  0.5954 -0.3613
 7857SOL    HW135204   2.959   0.122   3.349  1.1538 -1.1237 -0.2034
 7857SOL    HW235205   2.840   0.052   3.392 -0.0359  1.0019 -1.0886
 7858SOL     OW35206   2.682   4.462   7.761 -0.0688 -0.4167 -0.4494
 7858SOL    HW135207   2.685   4.384   7.706  1.7629  0.3907 -1.4888
 7858SOL    HW235208   2.768   4.500   7.745  0.8485 -2.7519 -0.9583
 7859SOL     OW35209   1.761   3.105   6.740 -0.4026 -0.0554  0.1641
 7859SOL    HW135210   1.793   3.095   6.830  1.2627  1.3702 -0.2535
 7859SOL    HW235211   1.715   3.188   6.748 -0.1489 -0.0080  1.1953
 7860SOL     OW35212   3.298   0.022   3.665 -0.3563  0.0802  0.3802
 7860SOL    HW135213   3.263   0.103   3.627  0.0941 -0.3011 -0.8500
 7860SOL    HW235214   3.242   0.012   3.741 -1.9866 -2.0773 -1.1039
 7861SOL     OW35215   3.580   2.304   1.269  0.3252 -0.6971 -0.4805
 7861SOL    HW135216   3.551   2.359   1.342  1.0185 -0.8571 -0.0815
 7861SOL    HW235217   3.608   2.228   1.319  1.1516 -0.9880 -1.3909
 7862SOL     OW35218   3.803   2.584   3.433  0.5154 -0.1923 -0.3252
 7862SOL    HW135219   3.748   2.507   3.448 -0.2631  0.9410  2.5779
 7862SOL    HW235220   3.847   2.542   3.359 -2.2032 -1.8608 -0.9970
 7863SOL     OW35221   3.847   2.639   2.124 -0.3631 -0.0690  0.2408
 7863SOL    HW135222   3.770   2.618   2.071  0.6780 -1.9332 -0.5161
 7863SOL    HW235223   3.903   2.668   2.052 -0.7483  0.3796  0.1229
 7864SOL     OW35224   0.523   1.508   2.993 -0.5346  0.1179  0.2005
 7864SOL    HW135225   0.611   1.506   3.030 -0.7364  0.0074  0.6725
 7864SOL    HW235226   0.497   1.586   3.042  0.5490  1.5501 -1.5031
 7865SOL     OW35227   2.058   2.630   6.260 -0.9801  0.0183  0.0362
 7865SOL    HW135228   2.050   2.703   6.198 -0.2188 -0.8912 -1.1484
 7865SOL    HW235229   2.151   2.616   6.242 -1.3650 -1.2732 -1.0145
 7866SOL     OW35230   2.833   4.565   5.088  0.1991 -0.0388  0.7798
 7866SOL    HW135231   2.856   4.477   5.117 -1.6123 -0.8502 -0.2779
 7866SOL    HW235232   2.747   4.552   5.049  1.0984  0.1000 -1.2460
 7867SOL     OW35233   4.422   3.343   7.990 -0.4479  0.4208 -0.0971
 7867SOL    HW135234   4.474   3.333   7.910  1.4435 -1.3131  1.3486
 7867SOL    HW235235   4.355   3.406   7.964  0.6442  1.3255 -0.7396
 7868SOL     OW35236   3.553   2.312  11.239 -0.2034  0.4218  0.8063
 7868SOL    HW135237   3.504   2.393  11.249  0.4301  0.9178 -0.1641
 7868SOL    HW235238   3.533   2.269  11.322  1.0377  0.9425  1.3780
 7869SOL     OW35239   0.561   4.016   5.635  0.3014  0.3295  0.1756
 7869SOL    HW135240   0.521   4.064   5.563  2.2127  0.1504 -0.9968
 7869SOL    HW235241   0.652   4.031   5.611  0.0980 -1.3578 -1.7016
 7870SOL     OW35242   4.367   0.706   2.849 -0.1402 -0.3571  0.3011
 7870SOL    HW135243   4.335   0.722   2.938  0.1649 -0.1434  0.3722
 7870SOL    HW235244   4.460   0.724   2.858  0.0597 -1.6180  0.7508
 7871SOL     OW35245   3.006   1.739   5.165 -0.0513  0.0116 -0.6023
 7871SOL    HW135246   3.061   1.662   5.180  0.0222  0.1771 -0.0490
 7871SOL    HW235247   2.919   1.704   5.185  0.0024 -0.3923 -1.0690
 7872SOL     OW35248   4.348   1.322  12.746  0.0537  0.1669  0.3747
 7872SOL    HW135249   4.313   1.409  12.764 -0.1453  0.3133 -0.7367
 7872SOL    HW235250   4.394   1.298  12.827  0.4271 -1.3184 -0.2612
 7873SOL     OW35251   0.175   2.064  15.720  0.2164  0.2483 -0.0246
 7873SOL    HW135252   0.249   2.037  15.775  0.4894 -1.6676 -1.3362
 7873SOL    HW235253   0.219   2.078  15.637  0.0758  0.4621 -0.0606
 7874SOL     OW35254   0.813   0.778   7.676  0.3359  0.5719  0.2468
 7874SOL    HW135255   0.895   0.797   7.630  2.1069 -2.4574  2.1161
 7874SOL    HW235256   0.786   0.863   7.710  2.1051  2.0312 -2.0022
 7875SOL     OW35257   1.256   0.941   1.693 -0.3383 -0.1882  0.3506
 7875SOL    HW135258   1.283   0.998   1.765  1.9593  0.0434 -0.6865
 7875SOL    HW235259   1.297   0.978   1.615  2.7882 -0.1171  2.0266
 7876SOL     OW35260   3.616   0.127   2.307  0.5639  0.2038  0.6659
 7876SOL    HW135261   3.667   0.098   2.383 -0.2962  0.5597  1.3811
 7876SOL    HW235262   3.535   0.080   2.324  0.3885  0.0600 -0.5373
 7877SOL     OW35263   4.016   2.335   2.900 -0.2956  0.2433 -0.3648
 7877SOL    HW135264   3.947   2.269   2.905  2.1194 -2.1966  0.7424
 7877SOL    HW235265   4.061   2.309   2.981 -2.3160 -0.6221  0.4846
 7878SOL     OW35266   3.205   1.643  14.816 -0.3553  0.7313  0.0521
 7878SOL    HW135267   3.120   1.643  14.861  0.7228 -0.3701  2.0773
 7878SOL    HW235268   3.240   1.719  14.862 -0.6930 -0.4205  2.2177
 7879SOL     OW35269   2.797   0.862   1.763  0.1546 -0.2467  0.9185
 7879SOL    HW135270   2.837   0.780   1.792 -0.3140 -0.0830  2.0022
 7879SOL    HW235271   2.829   0.873   1.673 -1.2232  0.3216  0.5123
 7880SOL     OW35272   2.751   3.798   3.563  0.6921  0.0538 -0.1251
 7880SOL    HW135273   2.821   3.847   3.606  1.6202 -0.9204 -0.5202
 7880SOL    HW235274   2.781   3.793   3.473 -0.1020 -0.7258 -0.3418
 7881SOL     OW35275   1.329   0.235   2.725  0.4379  0.4804  0.8441
 7881SOL    HW135276   1.404   0.253   2.669 -0.7670  0.4041 -0.7731
 7881SOL    HW235277   1.269   0.177   2.678  1.8896 -0.6757  0.4213
 7882SOL     OW35278   1.062   3.696  15.000 -0.0949  0.4593 -0.0317
 7882SOL    HW135279   1.148   3.737  14.987 -0.1108  0.1994 -0.9296
 7882SOL    HW235280   1.076   3.610  14.960  0.4807  0.1361  0.8561
 7883SOL     OW35281   3.166   1.374   6.037  0.2457 -0.0071  0.1657
 7883SOL    HW135282   3.233   1.437   6.011 -1.2170  1.2526 -0.6025
 7883SOL    HW235283   3.133   1.328   5.959  1.9073  1.4778 -1.4166
 7884SOL     OW35284   3.910   3.884   7.992  0.4275 -0.3012 -0.4735
 7884SOL    HW135285   3.950   3.936   7.922 -0.1155  0.7186 -0.0259
 7884SOL    HW235286   3.837   3.944   8.011  1.3203  1.1015 -1.4338
 7885SOL     OW35287   0.294   4.024  14.325 -0.1001  0.0430 -0.4166
 7885SOL    HW135288   0.258   4.101  14.369  0.0045  0.5987 -1.2935
 7885SOL    HW235289   0.363   4.053  14.266 -0.6821  0.2756 -0.9911
 7886SOL     OW35290   4.439   4.067   7.587 -0.0948  0.2846 -0.5489
 7886SOL    HW135291   4.369   4.058   7.651 -0.9966  1.8224 -1.3104
 7886SOL    HW235292   4.395   4.114   7.516  0.3713  0.2228 -0.8777
 7887SOL     OW35293   0.212   0.371   7.787  0.1747 -0.0057  0.1215
 7887SOL    HW135294   0.241   0.381   7.878  0.5699 -1.2060  0.1315
 7887SOL    HW235295   0.189   0.278   7.793  1.6830 -0.4278 -0.9333
 7888SOL     OW35296   3.309   1.134   0.780 -0.2197  0.6217  0.2306
 7888SOL    HW135297   3.252   1.148   0.705  0.8230  2.2439 -0.2520
 7888SOL    HW235298   3.320   1.039   0.780 -2.2255  0.3997 -0.7148
 7889SOL     OW35299   3.189   3.632   4.331  0.2914 -0.0844  0.9836
 7889SOL    HW135300   3.115   3.673   4.286  0.7940  0.3450  0.5568
 7889SOL    HW235301   3.182   3.543   4.296  0.8169  0.2393  0.0360
 7890SOL     OW35302   4.170   4.405  16.260  0.1734  0.3494  0.1644
 7890SOL    HW135303   4.081   4.405  16.224 -0.0846  1.2967  0.7850
 7890SOL    HW235304   4.213   4.475  16.210 -0.7002  1.1660  0.5483
 7891SOL     OW35305   3.346   0.441  17.681  0.0413 -0.4157  0.0296
 7891SOL    HW135306   3.374   0.532  17.675 -0.0787 -0.3302  0.8296
 7891SOL    HW235307   3.397   0.413  17.757  1.5350 -0.8532 -1.1230
 7892SOL     OW35308   2.586   1.473   3.879 -0.4376 -0.0843 -0.1694
 7892SOL    HW135309   2.570   1.566   3.862  1.4303  0.7651  2.7644
 7892SOL    HW235310   2.562   1.439   3.793 -2.5819  1.4088 -0.1446
 7893SOL     OW35311   2.768   1.402   5.055  0.2827 -0.0895 -0.3010
 7893SOL    HW135312   2.722   1.333   5.006  0.3558 -0.8879  0.7472
 7893SOL    HW235313   2.692   1.423   5.110 -0.9375 -0.8854 -1.6820
 7894SOL     OW35314   1.200   4.359   9.031  0.3446  0.1333 -0.1265
 7894SOL    HW135315   1.274   4.321   9.077 -1.2369 -1.5314  1.0566
 7894SOL    HW235316   1.211   4.452   9.053 -0.1936 -0.1852  1.4687
 7895SOL     OW35317   0.416   1.181   4.124  0.3473 -0.2331  0.5119
 7895SOL    HW135318   0.428   1.099   4.173 -0.8922 -1.8119 -1.8581
 7895SOL    HW235319   0.437   1.238   4.198 -1.4537 -0.2497  1.0566
 7896SOL     OW35320   0.386   2.713   9.791  0.5502  0.6554  0.0957
 7896SOL    HW135321   0.324   2.704   9.864  1.5481  1.8739  1.1087
 7896SOL    HW235322   0.320   2.747   9.730 -0.0841 -1.1139 -0.1811
 7897SOL     OW35323   1.414   0.853   9.097  0.3800  0.0488 -0.0855
 7897SOL    HW135324   1.471   0.879   9.169  0.7837  0.6805 -0.6324
 7897SOL    HW235325   1.353   0.801   9.149 -0.4931 -0.6114 -1.7645
 7898SOL     OW35326   1.147   3.248   8.412  0.2936 -0.3065  0.2210
 7898SOL    HW135327   1.140   3.217   8.503 -0.8200  2.4254  1.0656
 7898SOL    HW235328   1.234   3.211   8.394  0.8413 -0.1355  2.5091
 7899SOL     OW35329   1.606   2.268   6.239 -0.4055  0.1677  0.4008
 7899SOL    HW135330   1.636   2.358   6.225 -0.2150  0.2291  1.2413
 7899SOL    HW235331   1.533   2.269   6.177  0.6027  0.9831 -0.7688
 7900SOL     OW35332   2.702   1.948   8.347 -0.1244  0.4697 -0.1497
 7900SOL    HW135333   2.764   1.875   8.347 -1.1779 -0.4096 -2.6950
 7900SOL    HW235334   2.753   2.016   8.304  0.7732  0.6350  1.1795
 7901SOL     OW35335   3.533   3.573   3.025  0.5310 -0.1088  0.1761
 7901SOL    HW135336   3.602   3.530   3.076 -0.7971 -3.9053 -1.2094
 7901SOL    HW235337   3.584   3.650   3.001  0.6054 -0.0438  0.5437
 7902SOL     OW35338   2.390   1.015   3.911 -0.2810 -0.1311 -0.0167
 7902SOL    HW135339   2.339   1.094   3.892 -0.3129 -0.0453  0.4340
 7902SOL    HW235340   2.322   0.951   3.889  0.3143 -0.8081  0.1367
 7903SOL     OW35341   2.041   2.798   1.213  0.5011  0.3597  0.7103
 7903SOL    HW135342   2.016   2.789   1.121  1.4319 -3.1589  0.7692
 7903SOL    HW235343   2.109   2.865   1.203  0.7737  0.1834  1.3931
 7904SOL     OW35344   0.219   3.134   6.943  0.2189 -0.0772 -0.5920
 7904SOL    HW135345   0.220   3.056   6.887  0.0650 -1.6027  1.5419
 7904SOL    HW235346   0.312   3.155   6.948 -0.3120  1.6521  1.7859
 7905SOL     OW35347   2.292   4.604   4.603 -0.4240 -0.5777  0.3735
 7905SOL    HW135348   2.359   4.566   4.546  0.2886 -0.9764  1.4755
 7905SOL    HW235349   2.309   4.571   4.692  2.5079  2.4630  0.9787
 7906SOL     OW35350   0.535   0.941   4.182 -0.1295  0.0574 -0.1406
 7906SOL    HW135351   0.553   0.933   4.276 -1.4193  0.5545  0.1376
 7906SOL    HW235352   0.475   0.866   4.181 -0.2187  0.1675 -2.3062
 7907SOL     OW35353   3.926   4.738   1.435 -0.2548  0.1172 -0.1097
 7907SOL    HW135354   4.017   4.721   1.457 -0.5920 -2.4669 -0.7203
 7907SOL    HW235355   3.889   4.667   1.487  1.7704 -0.6300  0.2908
 7908SOL     OW35356   3.698   3.561  11.633 -0.0423 -0.2701 -0.5588
 7908SOL    HW135357   3.610   3.525  11.618 -0.4602  1.0079 -1.1845
 7908SOL    HW235358   3.674   3.610  11.711  0.1094 -0.8897 -0.1234
 7909SOL     OW35359   1.662   2.982   7.583  0.7628  0.2885  0.9542
 7909SOL    HW135360   1.633   2.954   7.670  0.8987 -1.1237  0.5482
 7909SOL    HW235361   1.641   3.075   7.586  0.7805  0.2953  0.8635
 7910SOL     OW35362   0.500   0.391   9.502 -0.2483 -0.6246 -0.3230
 7910SOL    HW135363   0.560   0.316   9.498  0.7826  0.1005  2.0854
 7910SOL    HW235364   0.510   0.441   9.582  1.0970 -1.4030 -0.0003
 7911SOL     OW35365   0.486   0.753   9.003 -0.3820  0.2908  0.0157
 7911SOL    HW135366   0.418   0.719   8.944 -3.0363  1.7313  2.2646
 7911SOL    HW235367   0.521   0.673   9.043 -1.0893 -0.3947 -0.7200
 7912SOL     OW35368   0.700   0.399  13.699  0.2849  1.0619 -0.2426
 7912SOL    HW135369   0.685   0.475  13.756  1.0239  1.3775 -0.4654
 7912SOL    HW235370   0.718   0.444  13.616  0.0568  0.0810 -0.8226
 7913SOL     OW35371   4.674   3.379   9.628  0.5027 -0.4346  0.1231
 7913SOL    HW135372   4.724   3.380   9.710  1.4673 -3.2025 -0.4359
 7913SOL    HW235373   4.607   3.445   9.646  0.9679  0.2769 -0.7472
 7914SOL     OW35374   3.043   1.647   0.796  0.3015  0.5517 -0.2787
 7914SOL    HW135375   3.009   1.572   0.844  1.1400 -1.0436 -2.1731
 7914SOL    HW235376   3.070   1.601   0.716  1.5523 -0.1441  0.5548
 7915SOL     OW35377   0.541   2.156  15.644  0.3025 -0.2135  0.1705
 7915SOL    HW135378   0.447   2.140  15.631  0.4551  0.5928 -1.8289
 7915SOL    HW235379   0.588   2.074  15.631  0.0192 -0.3186 -0.1832
 7916SOL     OW35380   1.164   0.411   9.312 -0.8610  0.2542 -0.0638
 7916SOL    HW135381   1.114   0.472   9.366 -1.2657  1.7573 -2.1355
 7916SOL    HW235382   1.184   0.341   9.375  0.1463  1.1678  0.6218
 7917SOL     OW35383   2.705   1.121   4.302  0.7685  0.5894 -0.1793
 7917SOL    HW135384   2.669   1.043   4.259 -1.0448  2.3764 -1.8649
 7917SOL    HW235385   2.669   1.118   4.390  0.3036  0.7635 -0.3626
 7918SOL     OW35386   0.914   0.996  10.654  0.2256  0.0475 -0.7095
 7918SOL    HW135387   0.916   1.027  10.744  1.0073  0.8572 -1.0074
 7918SOL    HW235388   0.935   0.903  10.655 -1.2128 -0.2871 -0.7888
 7919SOL     OW35389   1.834   3.633   2.354 -0.5530  0.1242  0.2865
 7919SOL    HW135390   1.825   3.538   2.362 -1.4530  0.3789  2.3407
 7919SOL    HW235391   1.858   3.639   2.261  1.7608  0.5381  0.9013
 7920SOL     OW35392   3.231   2.931   5.727  0.2659  0.1276  0.4973
 7920SOL    HW135393   3.153   2.975   5.693 -0.0472 -0.7929  0.0338
 7920SOL    HW235394   3.191   2.847   5.751 -1.6487  0.5189 -1.3196
 7921SOL     OW35395   0.308   1.407   2.829  0.3507 -0.2174  0.4510
 7921SOL    HW135396   0.341   1.352   2.758 -1.5857  1.8374 -2.0499
 7921SOL    HW235397   0.387   1.442   2.871 -0.1505 -1.0543  2.0624
 7922SOL     OW35398   2.050   0.337   1.267 -0.0293  0.0423 -0.0698
 7922SOL    HW135399   2.052   0.412   1.208  1.1751  1.6908  2.0679
 7922SOL    HW235400   2.088   0.366   1.350 -1.2695  3.0134 -0.5614
 7923SOL     OW35401   2.251   3.626  15.209  0.4050  0.1326 -0.3599
 7923SOL    HW135402   2.345   3.639  15.219  0.0420  0.5729  2.3014
 7923SOL    HW235403   2.212   3.707  15.242 -1.8623 -0.5305 -1.4175
 7924SOL     OW35404   4.508   2.253   8.875  0.5214  0.2203 -0.1916
 7924SOL    HW135405   4.500   2.278   8.967  0.1633  0.4672 -0.2901
 7924SOL    HW235406   4.496   2.344   8.846 -0.8665  0.1650  0.2337
 7925SOL     OW35407   3.237   3.358  16.537  0.1407  0.2146  0.1357
 7925SOL    HW135408   3.236   3.453  16.552 -0.2519  0.9063 -4.2121
 7925SOL    HW235409   3.279   3.345  16.451 -0.0085 -2.4238  0.4542
 7926SOL     OW35410   1.823   3.796   7.332 -0.0847  0.1414  0.4103
 7926SOL    HW135411   1.798   3.888   7.323  0.3876  0.5343  2.9252
 7926SOL    HW235412   1.877   3.807   7.411  2.7402  1.0804 -1.6591
 7927SOL     OW35413   3.761   2.831   7.842  0.0374 -0.1131  0.4740
 7927SOL    HW135414   3.784   2.802   7.754  0.3156  0.7145  0.2738
 7927SOL    HW235415   3.697   2.896   7.814  0.2217 -0.3750 -0.5396
 7928SOL     OW35416   0.351   3.186  11.397 -0.2912  0.1617  0.3194
 7928SOL    HW135417   0.271   3.158  11.441  0.1154 -0.3699  0.7269
 7928SOL    HW235418   0.386   3.107  11.356 -0.7582 -1.4755  3.0658
 7929SOL     OW35419   1.280   4.381   7.486  0.2566  0.2323 -1.0826
 7929SOL    HW135420   1.220   4.446   7.448 -0.0751  1.2976  1.2367
 7929SOL    HW235421   1.241   4.299   7.457  1.0245 -0.5893  0.2515
 7930SOL     OW35422   2.422   2.503   9.201 -0.0476  0.8685  0.0592
 7930SOL    HW135423   2.446   2.593   9.180  0.1932  0.5398 -1.0685
 7930SOL    HW235424   2.339   2.527   9.244  0.7321  0.7186  1.6659
 7931SOL     OW35425   3.273   0.329   0.894 -0.3927 -0.1006 -0.1295
 7931SOL    HW135426   3.286   0.256   0.955 -0.1392  1.3587  1.5698
 7931SOL    HW235427   3.265   0.411   0.942 -2.2652 -0.7060  0.5776
 7932SOL     OW35428   3.417   4.291  14.764  0.1302 -0.2826  0.0172
 7932SOL    HW135429   3.434   4.249  14.849 -0.2619  0.6305  0.5465
 7932SOL    HW235430   3.321   4.287  14.766  0.2052 -3.3903 -2.1543
 7933SOL     OW35431   0.617   4.229   3.263 -0.1192  0.0391 -0.3414
 7933SOL    HW135432   0.545   4.209   3.323 -0.4911  1.7988 -0.1821
 7933SOL    HW235433   0.600   4.171   3.190  1.5147 -2.5281  1.3271
 7934SOL     OW35434   1.033   4.689   1.776  0.2060  0.6894 -0.2391
 7934SOL    HW135435   1.047   0.032   1.732  0.4545  0.3802 -0.7465
 7934SOL    HW235436   0.941   4.687   1.750 -0.1184  2.8333  0.7095
 7935SOL     OW35437   0.416   3.687   2.296  0.0070  0.1596  0.3030
 7935SOL    HW135438   0.329   3.725   2.309  0.3477  1.0038  0.0917
 7935SOL    HW235439   0.469   3.766   2.310 -0.5910  0.4632  0.8526
 7936SOL     OW35440   2.965   2.498  17.188 -0.4949  0.8337 -0.0375
 7936SOL    HW135441   2.872   2.479  17.201 -0.4432  2.5549  2.9283
 7936SOL    HW235442   2.962   2.556  17.113 -0.8141  2.5844  1.3306
 7937SOL     OW35443   2.359   4.690   4.259  0.0146  0.1185  0.2594
 7937SOL    HW135444   2.313   4.607   4.246  1.1929 -0.1362 -2.3476
 7937SOL    HW235445   2.287   0.012   4.248 -0.8473 -0.5170  2.4330
 7938SOL     OW35446   3.724   2.231   2.038 -0.3342  0.1170  0.0586
 7938SOL    HW135447   3.665   2.306   2.046 -2.0873 -1.2618  0.1207
 7938SOL    HW235448   3.798   2.261   2.091  1.3258 -1.9747 -1.0761
 7939SOL     OW35449   1.788   3.242  16.190 -0.3398 -0.3758  0.1108
 7939SOL    HW135450   1.721   3.270  16.128  0.1201  1.4561  0.4638
 7939SOL    HW235451   1.785   3.147  16.176  1.6002 -0.5196  0.7088
 7940SOL     OW35452   1.086   2.172   7.569  0.1759  0.1360 -0.2308
 7940SOL    HW135453   1.142   2.109   7.614 -1.0330 -0.8694 -0.1008
 7940SOL    HW235454   1.034   2.100   7.532  0.0107  0.6800 -1.0476
 7941SOL     OW35455   4.649   1.281   9.007 -0.3576  0.1546 -0.2244
 7941SOL    HW135456   4.667   1.358   8.953  2.8580  1.2397  2.3701
 7941SOL    HW235457   4.584   1.229   8.961  0.6364  0.9081 -2.4583
 7942SOL     OW35458   2.539   1.156   7.471  0.3478 -0.3809 -0.3600
 7942SOL    HW135459   2.568   1.219   7.405 -2.1450  0.8435 -0.2849
 7942SOL    HW235460   2.498   1.085   7.422  0.5055  0.4674 -1.7162
 7943SOL     OW35461   4.735   4.313  14.702 -0.5692  0.3418 -0.3163
 7943SOL    HW135462   0.051   4.340  14.775 -0.6839  0.9806 -0.4617
 7943SOL    HW235463   4.650   4.340  14.738  0.1567  1.0790  0.8235
 7944SOL     OW35464   0.338   0.747   7.121 -0.0210  0.2428  0.1317
 7944SOL    HW135465   0.312   0.666   7.078  0.5344  1.9249 -3.3163
 7944SOL    HW235466   0.433   0.736   7.126  0.0245  0.0566 -1.3770
 7945SOL     OW35467   2.730   0.661   1.263 -1.2883  0.1492 -0.3052
 7945SOL    HW135468   2.785   0.614   1.200 -2.3614 -1.2292 -0.2341
 7945SOL    HW235469   2.678   0.584   1.286 -1.1474 -0.2408 -1.2931
 7946SOL     OW35470   4.474   2.710  11.772  0.1919 -0.3082  0.3436
 7946SOL    HW135471   4.508   2.629  11.810 -0.7206 -1.2690 -0.8847
 7946SOL    HW235472   4.548   2.736  11.717 -0.3096  1.7926  0.6450
 7947SOL     OW35473   2.430   3.010   8.029  0.1063 -0.0812  0.5946
 7947SOL    HW135474   2.415   3.064   8.106 -1.8707  1.2360 -0.7092
 7947SOL    HW235475   2.503   3.051   7.983 -2.2341  3.3973 -0.0560
 7948SOL     OW35476   3.169   1.095   2.805 -0.5288  0.1668  0.3205
 7948SOL    HW135477   3.164   1.189   2.786  0.0032  0.3066  0.8403
 7948SOL    HW235478   3.263   1.076   2.802 -0.7957 -1.2612  0.9532
 7949SOL     OW35479   0.863   2.189   2.642  0.3808 -0.3299  0.0738
 7949SOL    HW135480   0.856   2.276   2.682 -3.1847  0.2981 -1.9380
 7949SOL    HW235481   0.959   2.180   2.648  0.4852 -0.8998 -2.7090
 7950SOL     OW35482   1.853   0.302   4.588 -0.0912 -0.4925  0.2478
 7950SOL    HW135483   1.767   0.285   4.551 -0.2096 -0.1081  0.3485
 7950SOL    HW235484   1.911   0.241   4.542  1.5462  0.6717  0.7602
 7951SOL     OW35485   1.348   0.470   4.227 -0.2885  0.3544 -0.2055
 7951SOL    HW135486   1.271   0.527   4.222  0.7570  1.6217 -2.1660
 7951SOL    HW235487   1.325   0.405   4.160  0.0972  0.5172 -0.4954
 7952SOL     OW35488   4.403   3.147  15.750 -0.3403 -0.0157 -1.0486
 7952SOL    HW135489   4.377   3.140  15.658  1.9347  0.7025 -1.7574
 7952SOL    HW235490   4.483   3.199  15.761 -0.2723 -0.4663  0.4518
 7953SOL     OW35491   4.532   1.010   8.345 -0.0607 -0.7947 -0.2288
 7953SOL    HW135492   4.558   0.923   8.314 -1.8905 -0.9929 -1.1673
 7953SOL    HW235493   4.581   1.069   8.289 -0.4292 -0.4781 -0.2182
 7954SOL     OW35494   1.393   4.075  17.662  0.3303 -0.2329  0.5356
 7954SOL    HW135495   1.447   3.996  17.658 -0.4643 -0.7373 -0.3599
 7954SOL    HW235496   1.431   4.116  17.739 -0.8309 -2.3047  2.2169
 7955SOL     OW35497   0.335   3.693  17.347  0.0466 -0.3749  0.3020
 7955SOL    HW135498   0.310   3.771  17.398 -0.8175 -1.4146  1.4925
 7955SOL    HW235499   0.277   3.698  17.271  0.8060 -1.5698 -0.3440
 7956SOL     OW35500   2.965   1.287   3.289 -1.1028  0.0994 -0.7665
 7956SOL    HW135501   3.042   1.336   3.259 -1.8690 -0.0706 -3.0002
 7956SOL    HW235502   2.990   1.197   3.266  1.4263  0.8028 -0.7201
 7957SOL     OW35503   1.787   2.990   5.857 -0.1405  0.1401 -0.0594
 7957SOL    HW135504   1.787   2.919   5.922  1.8629 -0.0146 -0.2418
 7957SOL    HW235505   1.833   3.056   5.909 -0.9224 -0.9000  1.9722
 7958SOL     OW35506   1.716   2.706   9.355  0.2768  0.0486  0.2905
 7958SOL    HW135507   1.762   2.696   9.272 -1.3806 -2.3532 -0.3467
 7958SOL    HW235508   1.633   2.746   9.330  0.1741  0.0669  0.6565
 7959SOL     OW35509   4.415   2.636   3.414 -0.5662 -0.2388  0.1359
 7959SOL    HW135510   4.339   2.683   3.379  1.2500 -0.9284 -4.8094
 7959SOL    HW235511   4.380   2.599   3.495  0.5993 -1.8821 -0.1047
 7960SOL     OW35512   4.510   1.778  14.807  0.0302 -0.6663 -0.0595
 7960SOL    HW135513   4.570   1.727  14.754  3.9156  2.4620  1.3548
 7960SOL    HW235514   4.488   1.844  14.741  1.8126  1.9047  1.9446
 7961SOL     OW35515   1.263   1.304   7.532 -0.2441 -0.2590  0.4961
 7961SOL    HW135516   1.251   1.303   7.437 -2.6216  3.2760  0.7819
 7961SOL    HW235517   1.356   1.328   7.539 -0.1367 -0.3193 -0.6739
 7962SOL     OW35518   3.592   3.964   2.497 -0.6883  0.1279 -0.7109
 7962SOL    HW135519   3.546   4.032   2.547  0.4426  0.0639  0.4206
 7962SOL    HW235520   3.588   4.005   2.411 -3.2694  0.0201 -0.6476
 7963SOL     OW35521   3.448   1.525   1.837  0.0430  0.5750  0.3439
 7963SOL    HW135522   3.371   1.560   1.791 -0.2868  1.7097  1.7787
 7963SOL    HW235523   3.415   1.435   1.845  0.4157  0.3015 -1.1660
 7964SOL     OW35524   1.770   1.940   7.992 -0.0040  0.3917  0.5369
 7964SOL    HW135525   1.826   1.926   8.067  0.4941  0.5419  0.1920
 7964SOL    HW235526   1.764   1.852   7.955  0.0708  0.6328 -0.0490
 7965SOL     OW35527   3.137   2.857   1.219 -1.0107  0.3848  0.7406
 7965SOL    HW135528   3.124   2.890   1.131 -1.4111  1.3637  1.1678
 7965SOL    HW235529   3.185   2.778   1.193 -1.8881  0.2946 -0.6152
 7966SOL     OW35530   3.744   4.473  12.298  0.1400  0.2300  0.4756
 7966SOL    HW135531   3.800   4.438  12.229 -1.3601  0.4688 -0.8472
 7966SOL    HW235532   3.666   4.417  12.289 -0.7686  1.2336  2.1564
 7967SOL     OW35533   2.394   0.385   2.708 -0.3222  0.0382 -0.0499
 7967SOL    HW135534   2.407   0.290   2.701  1.9659  0.5937 -3.4014
 7967SOL    HW235535   2.460   0.417   2.770  1.9183 -2.3609 -1.1908
 7968SOL     OW35536   2.007   2.758  12.155 -0.3345  0.1785  0.0474
 7968SOL    HW135537   1.965   2.675  12.175  0.2252 -0.4231 -1.2591
 7968SOL    HW235538   2.098   2.733  12.167 -0.8791 -0.0035  3.7318
 7969SOL     OW35539   1.645   4.714  12.068 -0.0338 -0.6855 -0.5164
 7969SOL    HW135540   1.635   4.624  12.038  2.7723 -1.7351  1.6632
 7969SOL    HW235541   1.560   0.016  12.055  0.2211  0.0029  0.0467
 7970SOL     OW35542   4.177   1.764  15.956 -0.0543 -0.4903 -0.2973
 7970SOL    HW135543   4.153   1.834  16.018 -2.2281  0.2902 -1.9992
 7970SOL    HW235544   4.234   1.802  15.890  2.2948 -0.9248  1.4883
 7971SOL     OW35545   2.325   4.177   3.766 -0.2515  0.0767  0.2354
 7971SOL    HW135546   2.420   4.165   3.763 -0.4024 -1.8733  3.1660
 7971SOL    HW235547   2.306   4.243   3.832  0.6226 -0.5548  1.1240
 7972SOL     OW35548   1.781   1.952  13.011 -0.1860  0.1522 -0.1144
 7972SOL    HW135549   1.796   1.955  13.105 -2.1278 -1.2905  0.2321
 7972SOL    HW235550   1.791   2.043  12.982 -0.8051  0.3286  0.2031
 7973SOL     OW35551   1.282   3.060   1.238 -0.3986  0.6015 -0.5484
 7973SOL    HW135552   1.293   3.150   1.268 -1.4328  1.6152 -3.1981
 7973SOL    HW235553   1.190   3.053   1.264  0.2380 -2.3495  0.9106
 7974SOL     OW35554   1.092   4.325   8.778  0.1916 -0.5364 -1.0941
 7974SOL    HW135555   1.175   4.325   8.731  2.6736 -1.3122  3.2484
 7974SOL    HW235556   1.122   4.313   8.868 -2.4902 -1.0835 -0.2644
 7975SOL     OW35557   1.924   1.088   3.453 -0.1600 -0.1624 -0.5223
 7975SOL    HW135558   1.900   0.996   3.446 -1.0714  0.1910 -1.9210
 7975SOL    HW235559   2.002   1.095   3.509  0.4117  1.1529 -1.4858
 7976SOL     OW35560   0.403   2.567   8.936 -0.5966  0.0133  0.2560
 7976SOL    HW135561   0.445   2.501   8.880  0.6552  0.2733  0.8900
 7976SOL    HW235562   0.330   2.515   8.968  1.2755 -1.1092  2.6686
 7977SOL     OW35563   1.730   2.724  14.698 -0.2480 -0.0536  0.2193
 7977SOL    HW135564   1.717   2.818  14.708  0.8182 -0.0840  2.0217
 7977SOL    HW235565   1.644   2.701  14.733 -0.2956 -0.8206 -0.4116
 7978SOL     OW35566   1.037   0.156   6.036 -0.4012 -0.4424 -0.1786
 7978SOL    HW135567   0.955   0.176   6.081  1.2368  0.9187  2.2439
 7978SOL    HW235568   1.099   0.122   6.101 -0.2760 -1.6693 -0.9334
 7979SOL     OW35569   3.417   4.143   4.731 -0.4282 -0.1650 -0.1972
 7979SOL    HW135570   3.364   4.066   4.747  1.5988 -1.6578 -0.6769
 7979SOL    HW235571   3.476   4.145   4.806 -1.9548  0.0437  1.0070
 7980SOL     OW35572   3.842   0.930   5.010 -0.8858 -0.7175 -0.1521
 7980SOL    HW135573   3.772   0.942   4.945 -0.2998  2.5037 -0.1752
 7980SOL    HW235574   3.815   0.856   5.064 -1.7513  0.3321  0.8482
 7981SOL     OW35575   0.110   2.079   4.838  0.1019 -0.4513  0.2111
 7981SOL    HW135576   0.205   2.087   4.833 -0.2155  2.7604 -0.6539
 7981SOL    HW235577   0.084   2.033   4.758 -0.9744  0.5478 -0.0103
 7982SOL     OW35578   1.707   1.441  15.312 -0.3714 -0.6451  1.3975
 7982SOL    HW135579   1.695   1.369  15.249  0.6163 -0.0978  0.5847
 7982SOL    HW235580   1.727   1.387  15.389  0.5116 -1.4749  0.5973
 7983SOL     OW35581   1.675   1.454   7.174  0.0185 -0.0365 -0.0132
 7983SOL    HW135582   1.594   1.478   7.130  0.3147 -1.9777 -1.6073
 7983SOL    HW235583   1.645   1.392   7.239 -1.1330 -1.5909 -2.0402
 7984SOL     OW35584   2.191   0.317   7.062  0.2649  0.0027 -0.5732
 7984SOL    HW135585   2.259   0.309   7.129 -0.0235  1.5399 -0.1119
 7984SOL    HW235586   2.240   0.321   6.980  0.7763  0.4691 -0.2462
 7985SOL     OW35587   0.691   1.927   3.136 -0.2542 -0.2843  0.1543
 7985SOL    HW135588   0.652   1.840   3.140  0.9278 -0.7483  1.3776
 7985SOL    HW235589   0.684   1.954   3.227  0.9297 -2.1051  0.7852
 7986SOL     OW35590   4.374   2.394  11.193 -0.4939  0.1650  0.2732
 7986SOL    HW135591   4.444   2.352  11.144 -0.8665 -0.9242  0.6774
 7986SOL    HW235592   4.303   2.330  11.182  0.2891 -0.5980 -0.3328
 7987SOL     OW35593   4.548   2.984   7.188  0.1049 -0.1672 -0.0945
 7987SOL    HW135594   4.625   3.033   7.159  0.8323 -0.5953  1.0882
 7987SOL    HW235595   4.588   2.931   7.257 -1.2725 -0.3118  0.5886
 7988SOL     OW35596   4.402   4.138   1.760  0.2079 -0.1253  0.1695
 7988SOL    HW135597   4.370   4.207   1.702  1.2094  3.3449  3.7267
 7988SOL    HW235598   4.454   4.086   1.698 -1.6574 -1.2067 -0.5020
 7989SOL     OW35599   1.613   1.827  13.783 -0.1615  0.5623 -0.5501
 7989SOL    HW135600   1.551   1.826  13.856  0.7368 -2.2249  0.1627
 7989SOL    HW235601   1.700   1.839  13.821  0.0474 -0.6665 -0.6383
 7990SOL     OW35602   0.517   1.697   6.145  0.5352 -0.4730 -0.0949
 7990SOL    HW135603   0.480   1.693   6.056 -0.0661  2.2442  0.0319
 7990SOL    HW235604   0.546   1.788   6.143 -1.5862  0.1842 -1.4178
 7991SOL     OW35605   4.666   3.531   7.511  0.2868  0.1521 -0.1887
 7991SOL    HW135606   4.618   3.528   7.594  1.1963 -0.4395  0.3168
 7991SOL    HW235607   4.722   3.455   7.525  0.1048  0.2722  1.1351
 7992SOL     OW35608   4.336   1.852  15.283 -0.7604 -0.7233  0.0451
 7992SOL    HW135609   4.295   1.768  15.301  1.1334 -1.7172 -0.2644
 7992SOL    HW235610   4.337   1.846  15.188 -0.5864  2.5528 -0.1779
 7993SOL     OW35611   2.651   3.340   8.311 -0.0481  0.1495 -0.6213
 7993SOL    HW135612   2.635   3.434   8.310 -4.0441 -0.4962  1.1962
 7993SOL    HW235613   2.606   3.321   8.393  1.4791  0.7285  0.3462
 7994SOL     OW35614   4.066   2.936   9.874  0.4693 -0.4741 -0.0029
 7994SOL    HW135615   3.973   2.929   9.897  1.0149  0.2286  2.4146
 7994SOL    HW235616   4.099   2.881   9.945 -1.3550 -0.6632  0.6788
 7995SOL     OW35617   0.874   3.217   7.377  0.1609 -0.2163 -0.0152
 7995SOL    HW135618   0.930   3.169   7.437 -1.6963 -1.4698  0.7360
 7995SOL    HW235619   0.871   3.304   7.418  0.7612  0.9234 -2.3547
 7996SOL     OW35620   1.198   3.833   7.611  0.1072  0.2608 -0.0033
 7996SOL    HW135621   1.212   3.770   7.541 -0.7945  1.5340 -1.3367
 7996SOL    HW235622   1.200   3.779   7.690  1.7996 -1.4909 -1.2504
 7997SOL     OW35623   1.587   0.899   9.326  0.1866  0.2456 -0.3815
 7997SOL    HW135624   1.631   0.983   9.333 -0.7525  0.8003 -0.9854
 7997SOL    HW235625   1.543   0.888   9.410 -0.3653  0.2048 -0.6764
 7998SOL     OW35626   3.407   0.116   6.821 -0.0226 -0.1314  0.5123
 7998SOL    HW135627   3.477   0.126   6.885 -0.4713 -0.1011  0.9977
 7998SOL    HW235628   3.344   0.180   6.853 -0.8956 -0.1420 -1.1695
 7999SOL     OW35629   1.991   1.762   2.435 -0.6479  0.3502  0.0549
 7999SOL    HW135630   2.004   1.835   2.374  0.9747 -0.4027 -0.5175
 7999SOL    HW235631   2.038   1.704   2.375 -2.2096 -0.6784 -0.1669
 8000SOL     OW35632   1.928   1.352  15.011  0.7654  0.4354 -0.4201
 8000SOL    HW135633   2.000   1.390  15.061  1.0152 -1.1288  0.4209
 8000SOL    HW235634   1.918   1.269  15.057 -2.5602 -0.7011 -3.1555
 8001SOL     OW35635   4.066   0.612   8.907  0.4936  0.0784 -0.0973
 8001SOL    HW135636   4.019   0.674   8.850  0.0998 -1.6453 -1.6372
 8001SOL    HW235637   4.155   0.613   8.871 -0.8677 -1.0917 -3.4899
 8002SOL     OW35638   3.014   3.267   2.848 -0.5386 -0.4249 -0.0095
 8002SOL    HW135639   2.985   3.357   2.838 -0.4982 -0.4341 -0.2206
 8002SOL    HW235640   3.045   3.268   2.939 -0.1109 -0.7153 -0.1508
 8003SOL     OW35641   0.192   1.189   2.968 -0.4149 -0.0154 -0.3391
 8003SOL    HW135642   0.259   1.254   2.944  0.4429  0.2112  2.6320
 8003SOL    HW235643   0.130   1.244   3.016  2.6311  2.9062  0.3162
 8004SOL     OW35644   3.580   3.233   4.672  0.2332 -0.3918  0.6041
 8004SOL    HW135645   3.540   3.226   4.759 -0.3364  2.2995  0.5686
 8004SOL    HW235646   3.598   3.140   4.656 -0.8163 -0.3601 -0.7397
 8005SOL     OW35647   3.386   2.384   6.239  0.0922 -0.6248 -0.4788
 8005SOL    HW135648   3.474   2.383   6.277 -0.1008  2.2089  0.0077
 8005SOL    HW235649   3.343   2.305   6.271  0.8387 -0.9761 -0.3380
 8006SOL     OW35650   2.861   0.875   6.205 -0.1533  0.4244 -0.1664
 8006SOL    HW135651   2.908   0.792   6.211  2.7997  2.1312  0.4309
 8006SOL    HW235652   2.926   0.938   6.175  1.1298 -1.4759 -1.4028
 8007SOL     OW35653   3.817   3.039  10.635 -0.5223  0.1898  0.1744
 8007SOL    HW135654   3.892   3.005  10.683  0.3736 -0.2479 -1.5496
 8007SOL    HW235655   3.811   3.119  10.687 -0.4229  1.0352 -1.1025
 8008SOL     OW35656   0.614   3.025   6.739 -0.3266  0.1286  0.1188
 8008SOL    HW135657   0.685   3.084   6.764  0.4702  0.0613 -2.0046
 8008SOL    HW235658   0.666   2.959   6.693  1.8157  0.9621  1.3519
 8009SOL     OW35659   3.178   3.628  14.376 -0.3113  0.3356 -0.0253
 8009SOL    HW135660   3.107   3.686  14.350 -0.8697 -0.1534  0.4158
 8009SOL    HW235661   3.134   3.578  14.446  0.1018  1.2318  0.8724
 8010SOL     OW35662   2.822   2.181   9.546 -0.3692  0.1610 -0.0177
 8010SOL    HW135663   2.790   2.146   9.629  0.1378  0.0013  0.1108
 8010SOL    HW235664   2.748   2.174   9.485  0.3146  0.7855 -0.9292
 8011SOL     OW35665   2.986   4.319  10.362  0.2361 -0.2335  0.4365
 8011SOL    HW135666   2.904   4.271  10.360  0.1168 -0.0224  0.2448
 8011SOL    HW235667   2.982   4.359  10.275  0.3755 -3.9252 -1.2388
 8012SOL     OW35668   2.984   1.652  14.973 -0.4425  0.3927  0.5014
 8012SOL    HW135669   2.978   1.565  15.012 -1.7174 -0.9856 -2.8525
 8012SOL    HW235670   2.941   1.715  15.031 -0.7979  0.6118 -0.0075
 8013SOL     OW35671   0.162   2.765   8.335  0.2144  0.3738 -0.3247
 8013SOL    HW135672   0.223   2.817   8.282 -0.1299  0.8960 -0.2030
 8013SOL    HW235673   0.117   2.720   8.263 -0.2403  0.3867 -0.0482
 8014SOL     OW35674   2.991   2.642  16.938  0.5516  0.3113 -0.4476
 8014SOL    HW135675   3.006   2.729  16.974  0.5133  0.2834 -0.3664
 8014SOL    HW235676   2.957   2.664  16.851 -0.9332  0.2551  0.1247
 8015SOL     OW35677   2.389   3.046  16.446  0.1624 -0.7581  0.3460
 8015SOL    HW135678   2.438   3.126  16.431 -3.7254  1.4672 -0.4627
 8015SOL    HW235679   2.304   3.079  16.476  0.6950 -0.9142  2.0277
 8016SOL     OW35680   2.337   0.213  10.721  0.0649  0.2302 -0.5179
 8016SOL    HW135681   2.283   0.289  10.742  2.3706  1.6224  0.3360
 8016SOL    HW235682   2.399   0.221  10.793  0.3040  2.2906 -0.9426
 8017SOL     OW35683   2.348   3.226   3.138  0.2401 -0.2068  0.5218
 8017SOL    HW135684   2.342   3.232   3.043 -0.7319 -0.2040  0.5795
 8017SOL    HW235685   2.291   3.149   3.144  1.5887 -1.1836  0.8647
 8018SOL     OW35686   1.615   2.130   5.441 -0.0792 -0.8249  0.1364
 8018SOL    HW135687   1.578   2.059   5.388 -1.2426 -0.0251 -0.1238
 8018SOL    HW235688   1.606   2.207   5.386 -1.6452 -0.9216  0.2627
 8019SOL     OW35689   0.371   2.835  14.918  0.1869  0.2059  0.9692
 8019SOL    HW135690   0.445   2.872  14.869 -1.1055 -0.7951 -1.6734
 8019SOL    HW235691   0.399   2.744  14.910  1.6036  0.5046  2.4650
 8020SOL     OW35692   3.664   4.002   8.036 -0.2384 -0.1007  0.5684
 8020SOL    HW135693   3.581   3.964   8.063 -1.0341  1.1041 -0.1680
 8020SOL    HW235694   3.660   4.084   8.085 -0.4862 -0.5299  1.2568
 8021SOL     OW35695   3.146   1.576   7.167  0.0058 -0.4184 -0.2914
 8021SOL    HW135696   3.240   1.567   7.154  0.0187 -0.1206 -0.4172
 8021SOL    HW235697   3.116   1.486   7.154  3.1399 -1.6772  1.3979
 8022SOL     OW35698   0.008   4.600   2.039 -0.0777 -0.2007 -0.1106
 8022SOL    HW135699   4.714   4.620   1.952 -0.9919 -0.7112  0.1346
 8022SOL    HW235700   0.096   4.631   2.017 -0.5886  1.6318  0.4565
 8023SOL     OW35701   1.986   2.393   3.740  0.0175 -0.5601 -0.0962
 8023SOL    HW135702   2.053   2.452   3.774 -0.9260 -0.1489  1.0291
 8023SOL    HW235703   2.044   2.321   3.716  0.5479 -0.4839  0.9455
 8024SOL     OW35704   4.186   3.190   9.614  0.2018 -0.5360  0.1116
 8024SOL    HW135705   4.159   3.262   9.557  1.0699  1.1513  1.8424
 8024SOL    HW235706   4.144   3.212   9.697  0.6362  0.4185  0.0776
 8025SOL     OW35707   0.143   1.788   4.977  0.1193  0.1458  0.1048
 8025SOL    HW135708   0.081   1.737   4.925  1.9220 -1.5834 -0.3868
 8025SOL    HW235709   0.111   1.874   4.952  0.3828 -0.0763 -1.0244
 8026SOL     OW35710   3.746   0.327   2.143  0.4999 -0.4293  0.0361
 8026SOL    HW135711   3.714   0.256   2.198 -0.4804 -0.7816 -0.9824
 8026SOL    HW235712   3.803   0.380   2.198 -0.3641 -0.9793  1.4699
 8027SOL     OW35713   3.079   2.575  13.597  0.5519 -0.3673  0.2714
 8027SOL    HW135714   3.129   2.576  13.515  0.3118 -3.2700  0.0845
 8027SOL    HW235715   3.061   2.481  13.592 -2.4002  0.2347 -0.4702
 8028SOL     OW35716   4.139   1.157  14.405 -0.2047  0.2152  0.0348
 8028SOL    HW135717   4.071   1.090  14.416 -0.6429  0.6402 -0.0655
 8028SOL    HW235718   4.089   1.226  14.361  0.3628 -0.3935 -1.5657
 8029SOL     OW35719   0.321   3.399  12.528  0.0588 -0.0368  0.2114
 8029SOL    HW135720   0.242   3.447  12.553  0.4885  0.3474  0.8390
 8029SOL    HW235721   0.345   3.442  12.446  1.0161 -1.0890 -0.0609
 8030SOL     OW35722   3.535   2.869   5.781 -0.6281 -0.2561 -0.2719
 8030SOL    HW135723   3.443   2.894   5.777 -0.6541 -0.7009 -2.1685
 8030SOL    HW235724   3.562   2.897   5.869  2.3291  1.5597 -1.7564
 8031SOL     OW35725   4.384   4.539  16.112  0.7971  0.5172  0.2294
 8031SOL    HW135726   4.368   4.584  16.194 -0.6671  0.8707 -0.2479
 8031SOL    HW235727   4.450   4.594  16.070  0.0848 -0.8854 -2.7422
 8032SOL     OW35728   1.333   0.475   7.213  0.3394  0.8130  0.0115
 8032SOL    HW135729   1.288   0.437   7.289  2.3550  0.4929  1.0439
 8032SOL    HW235730   1.406   0.413   7.217 -0.1853  0.1135 -1.1970
 8033SOL     OW35731   3.941   0.209   3.473  0.3509  0.1050 -0.4125
 8033SOL    HW135732   3.863   0.153   3.464 -0.8111  2.3725 -4.4464
 8033SOL    HW235733   3.906   0.290   3.436 -1.4283 -1.3245 -1.8938
 8034SOL     OW35734   2.455   2.335   2.953  0.0240  0.0503  0.1756
 8034SOL    HW135735   2.537   2.332   3.002  0.4946 -1.1753 -0.6843
 8034SOL    HW235736   2.431   2.425   2.975  0.2681  0.0326  0.5068
 8035SOL     OW35737   2.563   1.892   2.856 -0.0698  0.5455 -0.2460
 8035SOL    HW135738   2.477   1.924   2.826 -0.6792 -1.3971 -0.5970
 8035SOL    HW235739   2.594   1.840   2.781  2.1425  3.7797 -1.5847
 8036SOL     OW35740   1.786   4.033   5.434 -0.5372  0.2556 -0.3115
 8036SOL    HW135741   1.729   4.052   5.360 -0.1677 -0.1155 -0.6920
 8036SOL    HW235742   1.776   4.103   5.498  0.6762  0.7397 -0.6415
 8037SOL     OW35743   3.667   3.926   3.318  0.2561 -0.4594 -0.2314
 8037SOL    HW135744   3.611   3.871   3.373  1.5909 -1.0163  0.5731
 8037SOL    HW235745   3.645   3.886   3.234 -3.5067  0.9607  0.0612
 8038SOL     OW35746   2.540   0.137  12.665 -0.5458  0.5288 -0.4442
 8038SOL    HW135747   2.544   0.190  12.585  0.4463 -1.5333 -1.7967
 8038SOL    HW235748   2.629   0.128  12.698 -0.2623 -0.2788 -1.4073
 8039SOL     OW35749   3.031   2.534   0.965 -0.1702  0.0228 -0.5185
 8039SOL    HW135750   3.115   2.575   0.984 -1.0622  0.8275  1.7373
 8039SOL    HW235751   3.041   2.444   0.995  0.2210 -0.2338 -1.4155
 8040SOL     OW35752   4.160   0.311   5.625  0.0514  0.5087 -0.0023
 8040SOL    HW135753   4.161   0.260   5.706  0.5127 -0.3466 -0.5406
 8040SOL    HW235754   4.193   0.398   5.646 -0.1190  0.3825  0.7871
 8041SOL     OW35755   0.185   3.852   0.998 -0.0185  0.1553  0.4893
 8041SOL    HW135756   0.098   3.889   0.979  0.3575  0.3813 -0.7798
 8041SOL    HW235757   0.154   3.762   1.009 -0.1698  0.5182  2.8619
 8042SOL     OW35758   2.092   0.654   7.014 -0.1252  0.2726 -0.3087
 8042SOL    HW135759   2.148   0.613   6.948 -0.7950 -0.9035 -0.1397
 8042SOL    HW235760   2.005   0.640   6.976 -0.2568 -0.7799  0.4098
 8043SOL     OW35761   3.682   0.709   5.104 -0.2537 -0.4256 -0.2128
 8043SOL    HW135762   3.731   0.662   5.172 -0.6216  0.7371  0.8489
 8043SOL    HW235763   3.668   0.639   5.040 -2.3251 -0.6071  0.4475
 8044SOL     OW35764   4.683   3.465   3.466 -0.1270 -0.4333  0.1819
 8044SOL    HW135765   0.009   3.523   3.430  0.2780 -0.3227  1.0896
 8044SOL    HW235766   0.001   3.391   3.485 -0.7757 -0.7023  1.1251
 8045SOL     OW35767   4.255   3.993  15.479  0.1418  0.9398 -0.0770
 8045SOL    HW135768   4.255   3.977  15.574  1.8381 -1.6102 -0.5031
 8045SOL    HW235769   4.231   3.902  15.463  1.5821  0.5132  0.2363
 8046SOL     OW35770   3.103   1.659   4.751  0.4425  0.2006 -0.0824
 8046SOL    HW135771   3.023   1.619   4.784  0.5980  0.2669  0.3717
 8046SOL    HW235772   3.077   1.751   4.746  1.6210  0.5998  1.4336
 8047SOL     OW35773   0.589   2.084   4.970 -0.5050 -0.4118 -0.3180
 8047SOL    HW135774   0.501   2.057   4.944 -1.2324  2.5441 -0.9088
 8047SOL    HW235775   0.593   2.171   4.930  0.5488 -1.5852 -2.7484
 8048SOL     OW35776   1.730   4.483   8.192  0.0832 -0.7266 -0.3093
 8048SOL    HW135777   1.787   4.527   8.254 -0.7937 -0.1382  0.0817
 8048SOL    HW235778   1.650   4.536   8.191  0.3767 -0.2858 -0.1753
 8049SOL     OW35779   2.897   1.231   9.333  0.0826  0.3150 -0.6412
 8049SOL    HW135780   2.933   1.187   9.256  0.6869  0.5674 -0.5090
 8049SOL    HW235781   2.959   1.301   9.353  0.0041 -0.2229  1.4659
 8050SOL     OW35782   2.831   0.767   4.298  0.3506 -1.0429 -0.1000
 8050SOL    HW135783   2.880   0.841   4.335 -0.4698 -0.8070  0.5132
 8050SOL    HW235784   2.741   0.762   4.330  0.0504  1.0066 -0.6100
 8051SOL     OW35785   3.961   1.480  13.986 -0.0619 -0.3597 -0.3231
 8051SOL    HW135786   3.929   1.394  13.957 -0.4883 -0.3552  0.1337
 8051SOL    HW235787   3.924   1.505  14.070  0.8779  0.1844 -0.0802
 8052SOL     OW35788   2.955   3.428   3.149 -0.7687 -0.0026  0.1946
 8052SOL    HW135789   3.029   3.486   3.130 -0.1149 -1.8236 -2.7716
 8052SOL    HW235790   3.004   3.346   3.143  2.0288  1.4150  2.9533
 8053SOL     OW35791   4.730   3.986   0.804 -0.5239  0.1676 -0.0608
 8053SOL    HW135792   0.003   3.912   0.744  1.6354  2.6106 -2.6133
 8053SOL    HW235793   4.709   4.057   0.743  1.1848  1.2053  0.5607
 8054SOL     OW35794   4.335   0.135  15.494  0.5913  0.5703 -0.6142
 8054SOL    HW135795   4.316   0.131  15.400 -0.1441 -2.8933 -0.3225
 8054SOL    HW235796   4.431   0.133  15.497  0.6054  1.2283 -0.6663
 8055SOL     OW35797   0.070   3.557   1.013 -0.3413  0.1535 -0.2581
 8055SOL    HW135798   4.721   3.555   1.049  0.5419  2.8308  2.0297
 8055SOL    HW235799   0.119   3.534   1.092 -0.1638  0.6759 -0.2206
 8056SOL     OW35800   1.523   4.135   8.092 -0.6181 -0.5915 -0.1656
 8056SOL    HW135801   1.492   4.090   8.014 -1.1395 -1.3636  0.4794
 8056SOL    HW235802   1.460   4.207   8.094  1.1760  0.9411  1.5970
 8057SOL     OW35803   1.428   0.570   4.884 -0.6426 -0.0314  0.3831
 8057SOL    HW135804   1.490   0.523   4.830  0.6936 -0.6016  2.4087
 8057SOL    HW235805   1.350   0.518   4.865 -1.6216  1.6396 -0.1891
 8058SOL     OW35806   2.495   1.414   5.953 -0.1687  0.5736  0.7614
 8058SOL    HW135807   2.571   1.454   5.996  1.5703 -1.5037 -0.3707
 8058SOL    HW235808   2.425   1.459   6.001 -1.5124  0.2513 -0.9282
 8059SOL     OW35809   3.528   1.810  11.965  0.1171 -0.6249 -0.0938
 8059SOL    HW135810   3.552   1.726  11.925 -2.0136 -1.2026 -0.1461
 8059SOL    HW235811   3.505   1.774  12.051  1.3596 -1.7435 -0.2265
 8060SOL     OW35812   2.434   3.730   3.610 -0.1554 -0.2312 -0.1159
 8060SOL    HW135813   2.444   3.725   3.515 -0.8377 -0.5096 -0.1750
 8060SOL    HW235814   2.359   3.672   3.621  0.7515 -1.7903 -2.2371
 8061SOL     OW35815   0.809   4.151   1.510 -0.4832  0.7711 -0.4801
 8061SOL    HW135816   0.727   4.191   1.481 -1.4399  0.2919  1.5122
 8061SOL    HW235817   0.792   4.137   1.603  0.4344 -0.3028 -0.4805
 8062SOL     OW35818   0.727   0.547   1.622  0.0942  0.0692  0.2294
 8062SOL    HW135819   0.781   0.489   1.569  0.0268 -0.4592  0.7341
 8062SOL    HW235820   0.766   0.631   1.598  2.0395 -0.7970  0.3662
 8063SOL     OW35821   0.334   3.848   0.199  0.2108 -0.1188  0.3553
 8063SOL    HW135822   0.240   3.853   0.180  0.0426  1.9599  1.6835
 8063SOL    HW235823   0.364   3.859   0.109 -0.9473 -0.9447 -0.1410
 8064SOL     OW35824   0.452   4.590  12.836  0.8570 -0.5265 -0.1755
 8064SOL    HW135825   0.508   4.610  12.761 -0.8089  0.2906 -1.1884
 8064SOL    HW235826   0.420   4.502  12.814  0.3456 -0.2026 -0.7076
 8065SOL     OW35827   4.120   0.245   1.179  0.6360 -0.2561 -0.7148
 8065SOL    HW135828   4.213   0.268   1.176  0.0114  1.9125 -2.8456
 8065SOL    HW235829   4.089   0.325   1.220  3.3012  0.3299  0.2118
 8066SOL     OW35830   4.193   1.272  10.879  0.0704  0.5765  0.0835
 8066SOL    HW135831   4.107   1.311  10.894  0.5906  0.9988  1.9812
 8066SOL    HW235832   4.192   1.223  10.796 -0.0385 -0.9957  1.0095
 8067SOL     OW35833   0.531   3.525  16.977  0.3024 -0.2132  0.2731
 8067SOL    HW135834   0.527   3.604  17.030  1.0631  1.3910 -2.0581
 8067SOL    HW235835   0.453   3.538  16.924  0.3046  1.5944  0.7299
 8068SOL     OW35836   3.670   3.856   2.784 -0.4171 -0.1181 -0.0082
 8068SOL    HW135837   3.675   3.879   2.691 -3.1264  2.0108  0.3963
 8068SOL    HW235838   3.580   3.824   2.792 -0.9811  0.9661 -2.2649
 8069SOL     OW35839   2.743   3.814   2.318  0.0166  0.4076 -0.0370
 8069SOL    HW135840   2.695   3.886   2.357 -2.7270 -1.0108 -0.8030
 8069SOL    HW235841   2.815   3.855   2.271  0.6580  0.0752  0.6592
 8070SOL     OW35842   3.652   4.260   3.046 -0.1883  0.1138  0.7368
 8070SOL    HW135843   3.607   4.327   3.098  1.5467  0.7008  1.4872
 8070SOL    HW235844   3.583   4.205   3.008  1.4495 -1.7495  0.4555
 8071SOL     OW35845   1.025   1.835   9.117  0.1275 -0.3239  0.4462
 8071SOL    HW135846   1.025   1.809   9.025 -0.4815 -2.3046  1.0154
 8071SOL    HW235847   0.938   1.803   9.139  0.0275 -0.4397 -0.1083
 8072SOL     OW35848   0.526   2.072   8.304  0.0095  0.1599  0.9743
 8072SOL    HW135849   0.537   2.161   8.336  2.6644  0.3324 -0.4196
 8072SOL    HW235850   0.432   2.058   8.318  0.2657 -3.9879 -1.3524
 8073SOL     OW35851   3.911   3.584   6.684 -0.2624 -0.6086 -0.0868
 8073SOL    HW135852   3.912   3.680   6.691 -0.3038 -0.7443  1.7640
 8073SOL    HW235853   3.940   3.555   6.770  4.3545  1.7916 -0.8608
 8074SOL     OW35854   4.521   3.819   2.052 -0.1842 -0.0759  0.1194
 8074SOL    HW135855   4.427   3.833   2.059  0.1330  1.7356  0.7074
 8074SOL    HW235856   4.537   3.857   1.965 -1.0027  0.9565  0.4198
 8075SOL     OW35857   2.055   0.603   3.831 -0.2076  0.4073  0.1263
 8075SOL    HW135858   2.133   0.549   3.819 -2.0819 -1.9119 -1.7558
 8075SOL    HW235859   2.050   0.633   3.740 -0.5109  0.2996  0.1075
 8076SOL     OW35860   1.351   2.363   7.466  0.0334 -0.1922  0.7794
 8076SOL    HW135861   1.410   2.299   7.506  1.0507 -0.9556 -1.9585
 8076SOL    HW235862   1.271   2.359   7.518 -0.4834 -1.1995 -0.1008
 8077SOL     OW35863   2.313   3.336   2.413  0.5872 -0.0054  0.0662
 8077SOL    HW135864   2.291   3.297   2.497 -0.1736 -1.0183 -0.6036
 8077SOL    HW235865   2.276   3.278   2.347 -0.2146  0.2133  0.3231
 8078SOL     OW35866   0.942   0.919   5.978  0.1489  0.2080 -0.5073
 8078SOL    HW135867   0.890   0.907   5.898 -1.4909  1.3289  0.3907
 8078SOL    HW235868   1.000   0.988   5.944 -1.1631  0.9278 -1.2907
 8079SOL     OW35869   0.907   3.533   8.038  0.0768 -0.1773  0.1981
 8079SOL    HW135870   0.865   3.593   8.099  0.8515  2.8108 -2.1897
 8079SOL    HW235871   0.980   3.498   8.090  0.6625 -0.1400 -0.5942
 8080SOL     OW35872   0.954   3.626   6.634 -0.3581  0.5386 -0.1823
 8080SOL    HW135873   0.962   3.596   6.725 -1.1241  3.7632  0.9486
 8080SOL    HW235874   0.964   3.720   6.647 -0.3140  0.9444 -3.3054
 8081SOL     OW35875   3.435   3.161   3.991  0.1190  0.5227  0.3653
 8081SOL    HW135876   3.512   3.121   3.951  0.3667 -0.0694  1.4312
 8081SOL    HW235877   3.437   3.252   3.961 -0.9709  0.6419  0.6584
 8082SOL     OW35878   4.566   1.045  16.551 -0.1334  0.3329 -0.0870
 8082SOL    HW135879   4.591   1.094  16.473  1.4845 -0.0864  0.1624
 8082SOL    HW235880   4.526   0.966  16.516 -1.6025  0.2103  1.8727
 8083SOL     OW35881   1.309   1.991   9.091 -0.4958  0.2691 -0.5755
 8083SOL    HW135882   1.221   1.962   9.113 -0.6877  1.8175  0.7395
 8083SOL    HW235883   1.348   2.008   9.177  0.5437 -1.5868 -0.6745
 8084SOL     OW35884   1.162   4.517   5.598 -0.0544 -0.2515  0.0025
 8084SOL    HW135885   1.228   4.471   5.651  0.2869 -0.1293 -0.3162
 8084SOL    HW235886   1.090   4.508   5.661 -0.1265 -0.2608 -0.0818
 8085SOL     OW35887   0.712   1.218  15.747  0.3965  0.7682 -0.5126
 8085SOL    HW135888   0.706   1.312  15.766  0.1977  0.9463 -1.4432
 8085SOL    HW235889   0.806   1.200  15.743  0.2009  0.3407 -3.0594
 8086SOL     OW35890   3.099   2.406  16.772  0.5628  0.5676 -0.3478
 8086SOL    HW135891   3.148   2.370  16.845 -0.4928  0.9586  0.5544
 8086SOL    HW235892   3.035   2.458  16.821 -0.2708 -1.5089  0.7427
 8087SOL     OW35893   0.680   3.582   1.925  0.4018 -0.1593  0.3286
 8087SOL    HW135894   0.661   3.675   1.939  0.9395  0.1579 -1.1373
 8087SOL    HW235895   0.625   3.547   1.996 -1.4954  1.1077 -0.5249
 8088SOL     OW35896   1.735   3.035   2.772  0.5014  0.0320  0.4154
 8088SOL    HW135897   1.771   3.003   2.690 -0.1050 -0.1936  0.2373
 8088SOL    HW235898   1.818   3.033   2.819  0.5543 -0.1134  0.3159
 8089SOL     OW35899   2.829   4.715   7.722  0.2202 -0.2596  0.4450
 8089SOL    HW135900   2.830   0.071   7.718 -1.9369 -0.2370  0.5287
 8089SOL    HW235901   2.871   4.693   7.639  0.7409  0.9448  0.3901
 8090SOL     OW35902   2.047   4.740   6.405  0.3503  0.4684 -0.4701
 8090SOL    HW135903   2.019   0.054   6.331 -0.4422  0.3014 -0.2957
 8090SOL    HW235904   2.047   4.662   6.349  1.0445  0.0073  0.1773
 8091SOL     OW35905   0.461   4.193  11.733  0.3572  0.3349 -0.0652
 8091SOL    HW135906   0.378   4.239  11.749  0.0273  0.4839 -2.1961
 8091SOL    HW235907   0.525   4.251  11.773  1.0666  0.4502 -1.3777
 8092SOL     OW35908   0.961   2.601  12.667 -0.3939 -0.6833  0.6113
 8092SOL    HW135909   0.958   2.547  12.588 -0.5553  0.5606 -0.2401
 8092SOL    HW235910   1.021   2.548  12.719 -0.7914 -1.9051 -0.1862
 8093SOL     OW35911   4.664   0.942   2.260 -0.3319 -0.0385  0.4523
 8093SOL    HW135912   4.688   1.022   2.306  1.7810 -0.6388  0.3994
 8093SOL    HW235913   4.598   0.895   2.310 -2.3031  1.4772 -0.7087
 8094SOL     OW35914   2.967   3.814   7.700 -0.5109 -0.3834  0.1428
 8094SOL    HW135915   2.979   3.723   7.672 -0.4303 -0.6647  1.1012
 8094SOL    HW235916   3.011   3.822   7.785 -0.4431 -0.4851  0.1178
 8095SOL     OW35917   3.476   0.864   4.551  0.4504 -0.0276  0.1908
 8095SOL    HW135918   3.425   0.800   4.602 -2.2834  1.7458 -0.3634
 8095SOL    HW235919   3.409   0.888   4.487  0.3059 -1.3835 -0.1659
 8096SOL     OW35920   4.086   0.168  14.711 -0.1630 -0.2316 -0.1084
 8096SOL    HW135921   4.084   0.112  14.788  0.7340 -1.3422 -0.8819
 8096SOL    HW235922   4.001   0.167  14.668  0.4731  0.0640 -1.3805
 8097SOL     OW35923   0.835   1.655  13.163 -0.5654 -0.1910 -0.5048
 8097SOL    HW135924   0.817   1.726  13.100  0.2846  1.1969  0.8296
 8097SOL    HW235925   0.754   1.657  13.214 -0.4119 -0.4369 -0.2547
 8098SOL     OW35926   3.648   0.976   7.772 -0.2009  0.3686  0.0245
 8098SOL    HW135927   3.726   0.959   7.825 -0.5848  0.0379  0.4824
 8098SOL    HW235928   3.587   0.907   7.799 -1.2533  0.7993 -1.2348
 8099SOL     OW35929   2.445   2.069   9.626 -0.2902  0.6166 -0.1194
 8099SOL    HW135930   2.505   1.996   9.642 -0.1073  1.1164  1.5835
 8099SOL    HW235931   2.362   2.030   9.654  0.6149 -1.2453 -0.0236
 8100SOL     OW35932   2.833   1.499  10.729  0.2486 -0.3622 -0.1259
 8100SOL    HW135933   2.892   1.498  10.803  0.1338 -1.1016 -0.0433
 8100SOL    HW235934   2.808   1.407  10.717  1.2039 -0.7645  1.1092
 8101SOL     OW35935   1.678   0.199   6.046  0.2026  0.1525  0.3584
 8101SOL    HW135936   1.674   0.226   6.137  0.0446  0.0718  0.3751
 8101SOL    HW235937   1.603   0.238   6.002  1.1465  3.5434  1.7834
 8102SOL     OW35938   4.145   4.051   6.651  0.3474  0.4405 -0.2542
 8102SOL    HW135939   4.176   3.962   6.639 -1.7441 -0.6098  2.0408
 8102SOL    HW235940   4.215   4.102   6.610  0.1261  1.9808  1.2601
 8103SOL     OW35941   2.725   4.287   1.897 -0.7333 -0.6301  0.0447
 8103SOL    HW135942   2.694   4.227   1.965 -0.7286 -0.3466  0.2981
 8103SOL    HW235943   2.682   4.261   1.816 -0.4456 -0.9437 -0.0080
 8104SOL     OW35944   1.998   2.495  12.552 -0.1656  0.1068  0.1242
 8104SOL    HW135945   1.991   2.425  12.617 -2.7915  0.0085 -0.2812
 8104SOL    HW235946   1.908   2.510  12.522  0.0720  1.6353  0.2025
 8105SOL     OW35947   1.821   3.305  17.445  0.1369  0.0154  0.4634
 8105SOL    HW135948   1.868   3.328  17.526 -0.7569  2.9778  0.1652
 8105SOL    HW235949   1.765   3.381  17.432 -1.9648 -1.2335  2.2629
 8106SOL     OW35950   0.459   4.187   2.387 -0.6350 -0.2259  0.7792
 8106SOL    HW135951   0.521   4.161   2.454 -0.1212 -1.9929 -0.3934
 8106SOL    HW235952   0.487   4.126   2.319  0.6912 -0.6833  1.7554
 8107SOL     OW35953   4.718   2.843   8.594 -0.4528  0.0306 -0.0459
 8107SOL    HW135954   0.065   2.874   8.618 -0.5713  0.3405 -0.0213
 8107SOL    HW235955   4.728   2.817   8.502  0.0601  0.8140 -0.2119
 8108SOL     OW35956   2.683   4.719  14.660 -0.0845  0.1432  0.1078
 8108SOL    HW135957   2.718   0.051  14.606 -1.6560 -0.1980 -1.3832
 8108SOL    HW235958   2.734   4.643  14.630 -2.9599 -1.4778 -0.6428
 8109SOL     OW35959   3.393   3.587  11.962  0.0723  0.0173  0.0841
 8109SOL    HW135960   3.405   3.495  11.939  0.0605 -0.2784  1.2532
 8109SOL    HW235961   3.394   3.583  12.057  0.6037 -1.0978  0.0296
 8110SOL     OW35962   3.558   0.261  16.811 -0.4056 -0.3027 -0.6381
 8110SOL    HW135963   3.596   0.174  16.818  1.2035  0.4761  0.3772
 8110SOL    HW235964   3.638   0.302  16.777 -0.5661  0.3307 -0.2484
 8111SOL     OW35965   0.960   3.842  11.894  0.4429  0.5914 -0.0859
 8111SOL    HW135966   0.963   3.859  11.800  1.2611 -1.5810 -0.4380
 8111SOL    HW235967   0.955   3.747  11.887  1.3366  0.7774 -3.0866
 8112SOL     OW35968   1.669   2.675   9.630 -0.4075  0.0645  0.3632
 8112SOL    HW135969   1.668   2.685   9.535 -1.1233 -0.8110  0.2796
 8112SOL    HW235970   1.761   2.651   9.637 -0.0431  1.0641 -1.0441
 8113SOL     OW35971   0.222   2.782   6.859  0.1334  0.4010 -0.1323
 8113SOL    HW135972   0.194   2.705   6.809  1.6295 -1.7963  2.4004
 8113SOL    HW235973   0.223   2.852   6.794 -0.2204 -0.0871 -0.6712
 8114SOL     OW35974   3.711   4.464   5.917 -0.1290  0.8482  0.0022
 8114SOL    HW135975   3.620   4.469   5.947  0.3382 -0.8102  1.6959
 8114SOL    HW235976   3.753   4.433   5.997 -0.8386  0.8376  0.3692
 8115SOL     OW35977   2.521   0.523   2.931 -0.3193 -0.2532  0.6792
 8115SOL    HW135978   2.609   0.490   2.949 -0.1706 -0.7545 -0.9838
 8115SOL    HW235979   2.501   0.552   3.020 -0.9253  0.3177  0.3532
 8116SOL     OW35980   0.834   1.310   9.653  0.1267 -0.0050  0.4268
 8116SOL    HW135981   0.913   1.311   9.708  0.5457  0.5392 -0.1904
 8116SOL    HW235982   0.876   1.333   9.571  0.4015  1.4298  0.9688
 8117SOL     OW35983   3.832   3.106  13.655 -0.0504 -0.2751 -0.7788
 8117SOL    HW135984   3.838   3.072  13.745 -1.6662 -0.6893 -0.8265
 8117SOL    HW235985   3.871   3.042  13.597  0.5713  0.7622 -1.5122
 8118SOL     OW35986   2.836   0.305  17.402 -0.3434 -0.0367  0.2670
 8118SOL    HW135987   2.794   0.221  17.382 -1.9819  0.9861 -0.6132
 8118SOL    HW235988   2.770   0.364  17.366  1.0099  0.8967 -0.6764
 8119SOL     OW35989   2.751   3.978   6.083 -0.0873  0.1554  0.5468
 8119SOL    HW135990   2.665   3.948   6.115 -0.0681 -0.9045 -0.3702
 8119SOL    HW235991   2.733   3.938   5.998 -0.6716  1.5018  0.0525
 8120SOL     OW35992   3.992   3.183   4.235  0.3430 -0.3824  0.2716
 8120SOL    HW135993   3.938   3.135   4.297  2.1711 -2.1606  0.4724
 8120SOL    HW235994   3.922   3.227   4.186  0.5085 -0.7403 -0.2848
 8121SOL     OW35995   1.034   3.303   4.574 -0.3867 -0.3027  0.6726
 8121SOL    HW135996   1.071   3.349   4.649 -1.5599  0.0699  1.0124
 8121SOL    HW235997   1.076   3.218   4.587  1.5939  0.6005  0.1522
 8122SOL     OW35998   4.266   0.830   7.892 -0.2329 -0.0495 -0.0914
 8122SOL    HW135999   4.235   0.918   7.910 -0.2972 -0.1454  0.2721
 8122SOL    HW236000   4.210   0.804   7.818  2.1292  1.5162 -2.4211
 8123SOL     OW36001   1.743   1.406  12.945 -0.3454 -0.1895 -0.4883
 8123SOL    HW136002   1.820   1.440  12.899  0.6490 -0.9829  0.5604
 8123SOL    HW236003   1.741   1.463  13.022  1.1164 -1.3326  0.4060
 8124SOL     OW36004   4.356   0.251   0.759  0.4447  0.2693 -0.4664
 8124SOL    HW136005   4.394   0.179   0.809 -3.4161 -0.7766  0.9737
 8124SOL    HW236006   4.394   0.231   0.674  1.4850 -0.2213  0.1139
 8125SOL     OW36007   3.642   4.099   4.543 -0.4745 -0.1919 -0.2109
 8125SOL    HW136008   3.694   4.167   4.498  0.1343 -2.5672 -3.0787
 8125SOL    HW236009   3.589   4.162   4.593 -1.9141 -1.4994 -0.1043
 8126SOL     OW36010   1.747   2.323  17.367 -0.3869 -0.0060 -0.5294
 8126SOL    HW136011   1.793   2.341  17.285 -0.1265  3.1703  0.3179
 8126SOL    HW236012   1.787   2.243  17.400 -1.0646  0.5510  1.6318
 8127SOL     OW36013   3.080   2.299   9.258 -0.4924  0.0982 -0.0797
 8127SOL    HW136014   3.039   2.386   9.259  0.2050  0.4190  1.0007
 8127SOL    HW236015   3.170   2.330   9.258 -0.4555 -0.0094  0.9635
 8128SOL     OW36016   0.716   1.329   3.948  0.3949  0.3054  0.2577
 8128SOL    HW136017   0.631   1.320   3.907  0.3417  0.1321  0.4047
 8128SOL    HW236018   0.728   1.245   3.992 -1.0196  0.8292  1.6193
 8129SOL     OW36019   4.136   0.137   8.380  0.0390 -0.5063 -0.0992
 8129SOL    HW136020   4.185   0.169   8.304 -1.1348 -1.1699 -1.1502
 8129SOL    HW236021   4.109   0.049   8.352 -1.0748 -0.0054 -0.6207
 8130SOL     OW36022   3.456   2.769  11.474  0.0223 -0.5607 -0.0028
 8130SOL    HW136023   3.390   2.838  11.478  0.6572 -0.0347  1.2518
 8130SOL    HW236024   3.511   2.800  11.546 -1.1335 -0.3119  0.7765
 8131SOL     OW36025   3.805   0.388  14.985 -0.4304  0.6122  0.2455
 8131SOL    HW136026   3.883   0.439  14.962  0.5558 -0.2860  1.6004
 8131SOL    HW236027   3.737   0.427  14.930 -0.5099  0.1948  0.0511
 8132SOL     OW36028   0.768   0.960   8.002 -0.5423 -0.0755  0.2697
 8132SOL    HW136029   0.792   1.048   7.972  2.0269 -0.8010  0.2398
 8132SOL    HW236030   0.723   0.927   7.924 -2.8996 -0.3380  1.7227
 8133SOL     OW36031   2.891   3.240   8.565  0.2050  0.1494 -0.0631
 8133SOL    HW136032   2.878   3.195   8.648  0.4806  0.1861  0.0006
 8133SOL    HW236033   2.814   3.296   8.563  0.8189  1.0166  0.5155
 8134SOL     OW36034   1.077   3.326   2.150 -0.6716 -0.1840  0.2200
 8134SOL    HW136035   1.052   3.418   2.142 -1.5389 -0.4862 -0.6641
 8134SOL    HW236036   1.024   3.293   2.077  1.2161  1.0752 -1.7217
 8135SOL     OW36037   4.063   0.781   5.369 -0.4498  0.3566  0.0516
 8135SOL    HW136038   4.126   0.785   5.442  0.9237  0.0130 -1.1226
 8135SOL    HW236039   3.979   0.811   5.406  0.0334 -0.2571  1.6505
 8136SOL     OW36040   3.807   0.446   6.009 -0.4509  0.6294  0.0798
 8136SOL    HW136041   3.715   0.423   6.023  0.3742 -1.9597  1.3274
 8136SOL    HW236042   3.802   0.439   5.914 -1.3562 -0.1998  0.1818
 8137SOL     OW36043   3.607   4.152   4.938  0.4617  0.0399  0.2046
 8137SOL    HW136044   3.578   4.086   5.001 -0.4779 -0.2917 -0.5690
 8137SOL    HW236045   3.699   4.155   4.963  0.2726 -0.5403  0.9686
 8138SOL     OW36046   4.547   2.458   7.459  0.5681  0.0411 -0.0729
 8138SOL    HW136047   4.512   2.424   7.376  1.5392 -0.8916 -0.1063
 8138SOL    HW236048   4.600   2.529   7.422  0.8777 -1.2612 -2.1736
 8139SOL     OW36049   3.388   3.709   2.168 -0.0474 -0.1477  0.1133
 8139SOL    HW136050   3.457   3.754   2.118  0.6279  0.0449  1.2083
 8139SOL    HW236051   3.424   3.621   2.160 -1.6006 -0.7556  0.0028
 8140SOL     OW36052   0.030   2.341  16.963  0.5590  0.2950  0.3413
 8140SOL    HW136053   0.030   2.365  17.055 -0.1163  1.5466  0.0046
 8140SOL    HW236054   4.727   2.418  16.926  0.4738  1.7264  3.4299
 8141SOL     OW36055   4.592   0.350   4.429 -0.1450  0.0576  0.0678
 8141SOL    HW136056   4.658   0.415   4.405 -0.2024  0.5554  1.2383
 8141SOL    HW236057   4.520   0.388   4.379  0.8308 -0.6950 -1.9141
 8142SOL     OW36058   2.331   1.860  13.976  0.3680 -0.4022 -0.4281
 8142SOL    HW136059   2.356   1.952  13.987 -2.0809  0.1866  0.2758
 8142SOL    HW236060   2.322   1.828  14.066 -1.4459 -2.4494 -1.3206
 8143SOL     OW36061   2.572   0.883   7.998 -0.5497  0.2259  0.2221
 8143SOL    HW136062   2.581   0.869   8.092 -0.2928  1.0074  0.3066
 8143SOL    HW236063   2.519   0.809   7.967  2.7818 -1.8243 -0.6347
 8144SOL     OW36064   2.800   1.350   2.171 -0.0868  0.4127 -0.4279
 8144SOL    HW136065   2.814   1.281   2.236  3.0696 -1.1053 -2.7489
 8144SOL    HW236066   2.786   1.309   2.086 -0.1606  1.5943 -0.9930
 8145SOL     OW36067   0.726   4.032  11.628  0.1992 -0.7035  0.2594
 8145SOL    HW136068   0.739   3.938  11.637 -3.6624 -1.1994  0.5340
 8145SOL    HW236069   0.726   4.056  11.721  1.5728 -1.0577  0.3577
 8146SOL     OW36070   4.066   1.288   8.677  0.1467 -0.0376  0.0639
 8146SOL    HW136071   4.108   1.223   8.620  0.6064  0.7510 -0.5132
 8146SOL    HW236072   4.135   1.354   8.689 -1.3887  1.2015  2.0065
 8147SOL     OW36073   1.529   2.478   4.934  0.5121  0.1026  0.0029
 8147SOL    HW136074   1.495   2.566   4.916  2.0401  0.8455  0.7096
 8147SOL    HW236075   1.621   2.502   4.949 -0.1014  0.4632  3.0876
 8148SOL     OW36076   2.291   4.656   6.505  0.2190 -0.3116  0.8217
 8148SOL    HW136077   2.253   4.686   6.422 -1.6747 -0.3371  1.6926
 8148SOL    HW236078   2.371   4.709   6.500  1.0641 -1.6352  0.3692
 8149SOL     OW36079   3.745   2.530   3.778 -0.0079  0.1127 -1.0116
 8149SOL    HW136080   3.761   2.452   3.725  1.1999  0.5921 -1.3425
 8149SOL    HW236081   3.826   2.545   3.826  0.4421 -0.1008 -1.7158
 8150SOL     OW36082   3.059   0.786   3.397 -0.0186 -0.5903  0.3082
 8150SOL    HW136083   3.031   0.783   3.305 -0.3055 -0.8476  0.4073
 8150SOL    HW236084   3.012   0.710   3.431 -0.4784  0.5153  2.1276
 8151SOL     OW36085   3.236   4.111   7.902 -0.5330  0.1312  0.0113
 8151SOL    HW136086   3.255   4.031   7.853  1.2350 -0.1707  1.2108
 8151SOL    HW236087   3.217   4.072   7.987  1.5728 -0.8173  0.0336
 8152SOL     OW36088   1.283   0.146   4.669  0.3955 -0.0654  0.0175
 8152SOL    HW136089   1.270   0.136   4.764  0.4957  1.1226  0.1623
 8152SOL    HW236090   1.379   0.144   4.664  0.3600  1.1615 -1.0145
 8153SOL     OW36091   3.830   2.196  14.616  0.0821 -0.1238  0.5466
 8153SOL    HW136092   3.829   2.152  14.531 -0.1647  1.8646 -0.4827
 8153SOL    HW236093   3.784   2.134  14.673  0.2847 -0.0552  0.7838
 8154SOL     OW36094   1.094   3.545   3.852 -0.6946 -0.5394  0.1613
 8154SOL    HW136095   1.010   3.554   3.808 -0.0491  0.1195 -0.9533
 8154SOL    HW236096   1.066   3.478   3.914  1.5674 -0.8217  0.8991
 8155SOL     OW36097   1.385   1.911  14.482  0.3546 -0.1537 -0.4013
 8155SOL    HW136098   1.357   1.909  14.390  0.6359  0.0578 -0.4895
 8155SOL    HW236099   1.434   1.829  14.476 -2.0040 -1.7780  2.6022
 8156SOL     OW36100   3.619   3.851   3.068  0.1145  0.2068 -0.1881
 8156SOL    HW136101   3.549   3.913   3.046 -0.4258  0.1113  1.2786
 8156SOL    HW236102   3.681   3.894   3.010  0.5923 -1.5585 -0.9627
 8157SOL     OW36103   4.165   0.179  16.455 -0.5772 -0.4540  0.1297
 8157SOL    HW136104   4.131   0.207  16.539  0.8026 -0.0174  0.5420
 8157SOL    HW236105   4.194   0.259  16.410  1.4726 -0.6902  1.0183
 8158SOL     OW36106   0.258   1.942   2.012 -0.7960  0.3672  0.0781
 8158SOL    HW136107   0.225   1.866   1.963 -0.8170  0.8957 -0.7297
 8158SOL    HW236108   0.266   1.912   2.102 -3.2479 -0.9498 -0.1375
 8159SOL     OW36109   3.685   2.333  12.306  0.3954 -0.4792 -0.4258
 8159SOL    HW136110   3.624   2.264  12.282 -2.8245  1.3670  2.3959
 8159SOL    HW236111   3.762   2.277  12.313  1.1884  0.6438 -0.0985
 8160SOL     OW36112   4.375   4.173   3.608 -0.0473 -0.0675  0.2039
 8160SOL    HW136113   4.356   4.258   3.649 -0.6904  1.2308 -2.7967
 8160SOL    HW236114   4.326   4.178   3.526 -1.6317 -0.1036  1.1473
 8161SOL     OW36115   3.433   1.373  15.659  0.4029  0.4126 -0.6607
 8161SOL    HW136116   3.486   1.441  15.617  1.7763  0.0078  0.4176
 8161SOL    HW236117   3.501   1.335  15.714  0.6906  2.4859  0.4356
 8162SOL     OW36118   1.607   0.019   7.895 -0.0590  0.4103  0.2623
 8162SOL    HW136119   1.621   0.102   7.941  2.7614 -0.0489  0.1771
 8162SOL    HW236120   1.565   0.051   7.815  0.7037 -2.1525 -1.1536
 8163SOL     OW36121   0.578   3.383  11.746 -0.3109 -0.1107  0.3624
 8163SOL    HW136122   0.663   3.367  11.704 -1.9185 -2.9833 -1.8014
 8163SOL    HW236123   0.516   3.375  11.673 -1.0451 -0.7491  1.0630
 8164SOL     OW36124   0.888   3.875   6.987  0.4345 -0.1032  0.3738
 8164SOL    HW136125   0.907   3.854   7.079 -0.2120  0.1676  0.5710
 8164SOL    HW236126   0.974   3.893   6.952  0.7513 -0.2236  1.0835
 8165SOL     OW36127   2.429   4.035  17.321  0.8434  0.6005 -0.0220
 8165SOL    HW136128   2.353   4.050  17.266  0.6748  2.6625  0.7883
 8165SOL    HW236129   2.394   3.986  17.396  1.5775 -0.2956 -0.2638
 8166SOL     OW36130   0.877   3.375   4.876 -0.3419 -0.0486 -0.2493
 8166SOL    HW136131   0.945   3.442   4.886 -0.5509  0.2249 -0.6696
 8166SOL    HW236132   0.808   3.428   4.838 -1.8069 -1.8564 -0.1063
 8167SOL     OW36133   1.551   0.702   3.679  0.3871 -0.5904 -0.1039
 8167SOL    HW136134   1.473   0.741   3.720  1.0974  0.9224 -0.1835
 8167SOL    HW236135   1.568   0.775   3.620 -1.8719 -0.0783 -0.1481
 8168SOL     OW36136   4.052   3.218   1.838 -0.4524 -0.1515  0.0979
 8168SOL    HW136137   4.004   3.166   1.773  0.4123 -0.2267 -0.4811
 8168SOL    HW236138   3.982   3.273   1.873 -0.5598 -0.6697  0.6961
 8169SOL     OW36139   2.145   2.204   3.070  0.2334  0.1545 -0.0900
 8169SOL    HW136140   2.156   2.258   2.992  0.9891  1.2919  0.8166
 8169SOL    HW236141   2.216   2.144   3.046  0.9840  0.7327  0.7236
 8170SOL     OW36142   3.535   2.732   6.278 -0.0071 -0.3318 -0.6409
 8170SOL    HW136143   3.473   2.804   6.290  0.9779  0.6847 -1.6324
 8170SOL    HW236144   3.539   2.688   6.362 -1.8296  1.7540  0.5439
 8171SOL     OW36145   2.439   0.157   5.942 -0.3473 -0.2540  1.1845
 8171SOL    HW136146   2.346   0.158   5.961 -0.9682 -0.3060 -1.7476
 8171SOL    HW236147   2.453   0.182   5.850  1.4360  0.2639  1.5888
 8172SOL     OW36148   2.431   2.780   9.175 -0.0116 -0.0367 -0.6628
 8172SOL    HW136149   2.367   2.839   9.213  0.0816 -0.4440  0.1438
 8172SOL    HW236150   2.514   2.827   9.185  0.1626 -0.0077 -2.2448
 8173SOL     OW36151   0.239   4.029   3.891  0.4482 -0.8816  0.1182
 8173SOL    HW136152   0.309   4.054   3.951 -1.2018 -1.4916  2.2703
 8173SOL    HW236153   0.162   4.014   3.945 -0.3164  0.3532 -0.6089
 8174SOL     OW36154   1.690   3.474  11.477 -0.1000  0.2571  0.2483
 8174SOL    HW136155   1.713   3.545  11.537 -2.9616  1.6770 -0.3481
 8174SOL    HW236156   1.699   3.523  11.395  0.2969  0.4794  0.4244
 8175SOL     OW36157   4.575   0.792  10.170  0.4810 -0.0998  0.8555
 8175SOL    HW136158   4.519   0.727  10.213  2.4448 -2.7345 -0.6022
 8175SOL    HW236159   4.638   0.739  10.121 -0.0106  0.7396 -0.7019
 8176SOL     OW36160   1.988   0.074   5.145  0.5272  0.4234 -0.0210
 8176SOL    HW136161   1.915   0.132   5.121  0.8336  0.4626 -0.8395
 8176SOL    HW236162   1.948   0.001   5.192 -1.4487  0.4456 -1.6672
 8177SOL     OW36163   3.445   3.749   6.569 -0.4401  0.3486  0.0147
 8177SOL    HW136164   3.499   3.814   6.525 -2.5163  2.3103  0.3481
 8177SOL    HW236165   3.493   3.668   6.556 -2.6374 -0.9667  0.0904
 8178SOL     OW36166   0.914   4.062  10.240 -0.1678  0.3532  0.5832
 8178SOL    HW136167   0.821   4.059  10.217  0.7536 -1.9134 -2.8513
 8178SOL    HW236168   0.906   4.055  10.335 -0.4498  0.2597  0.5525
 8179SOL     OW36169   1.177   2.440  17.512 -0.3811 -0.3469  0.1718
 8179SOL    HW136170   1.210   2.428  17.423  2.4003  1.1734  0.9989
 8179SOL    HW236171   1.095   2.393  17.501 -0.2274 -1.5283  4.1555
 8180SOL     OW36172   2.443   1.347   5.669  0.1442 -0.4394  0.1097
 8180SOL    HW136173   2.420   1.424   5.720 -2.2353 -0.6209 -0.6926
 8180SOL    HW236174   2.376   1.351   5.600 -0.5238 -1.0857  0.7219
 8181SOL     OW36175   2.004   3.115  17.055 -0.3903  0.5123 -0.4825
 8181SOL    HW136176   1.991   3.176  16.982  0.2047  0.9510 -0.2214
 8181SOL    HW236177   2.019   3.036  17.002  1.2328  0.9644 -0.6930
 8182SOL     OW36178   2.265   2.236  12.686 -0.3551 -0.1863 -0.8689
 8182SOL    HW136179   2.304   2.197  12.607  1.1587 -0.2494 -0.1015
 8182SOL    HW236180   2.320   2.208  12.759 -2.6543 -1.0175  0.5327
 8183SOL     OW36181   3.094   3.233  10.892 -0.0538  0.1160  0.1645
 8183SOL    HW136182   3.037   3.303  10.925  0.3467  0.9604 -0.9147
 8183SOL    HW236183   3.066   3.214  10.802 -2.2145 -0.6916  1.0176
 8184SOL     OW36184   2.243   0.755   8.601 -0.5359  0.0035  0.0520
 8184SOL    HW136185   2.148   0.766   8.604 -0.2908  2.0243  0.5256
 8184SOL    HW236186   2.271   0.845   8.588 -1.5417  0.1968 -0.8149
 8185SOL     OW36187   1.210   2.196   5.629  0.3475  0.2198  0.3012
 8185SOL    HW136188   1.155   2.169   5.703  0.9436  2.2428  1.4710
 8185SOL    HW236189   1.189   2.287   5.610 -0.4356  0.0721  0.4619
 8186SOL     OW36190   0.248   0.662  11.307  0.0397 -0.3180  0.2361
 8186SOL    HW136191   0.267   0.568  11.309 -0.8818 -0.5311 -1.2682
 8186SOL    HW236192   0.182   0.680  11.375 -0.8846 -0.1216 -0.7199
 8187SOL     OW36193   4.087   1.047   2.750 -0.4045 -0.2901  0.3511
 8187SOL    HW136194   4.133   1.008   2.675 -0.8630 -1.9030  0.9064
 8187SOL    HW236195   4.001   1.045   2.708 -0.0388  0.8662 -0.4420
 8188SOL     OW36196   2.919   2.463   5.661 -0.0116  0.4378  0.3349
 8188SOL    HW136197   2.887   2.374   5.648 -1.3550  1.1550 -1.1754
 8188SOL    HW236198   2.999   2.458   5.610 -1.0400 -1.3123 -1.0953
 8189SOL     OW36199   2.419   1.448   4.554  0.3062  0.2037  0.2789
 8189SOL    HW136200   2.462   1.517   4.503  0.1824  0.8509  1.0558
 8189SOL    HW236201   2.496   1.398   4.580 -0.0292  0.8468  2.4756
 8190SOL     OW36202   4.667   4.451   7.152  0.8027 -0.1382  0.1273
 8190SOL    HW136203   4.626   4.536   7.139  5.0959  1.8474 -0.2733
 8190SOL    HW236204   4.702   4.446   7.064  1.8057  0.9628  0.4738
 8191SOL     OW36205   3.291   1.412   4.829  0.2918 -0.0092  0.0244
 8191SOL    HW136206   3.289   1.441   4.738  2.9493 -0.0751 -0.0722
 8191SOL    HW236207   3.293   1.494   4.877  2.3408 -0.1472  0.1894
 8192SOL     OW36208   2.795   1.392   9.528  0.4533 -0.0233 -0.5884
 8192SOL    HW136209   2.700   1.398   9.530  0.4227 -1.2151  0.7733
 8192SOL    HW236210   2.808   1.320   9.466  0.7575  0.5986 -1.2614
 8193SOL     OW36211   2.044   1.538   7.775  0.4252 -0.0724  0.3516
 8193SOL    HW136212   2.131   1.502   7.753 -0.3613 -0.9599 -1.3356
 8193SOL    HW236213   2.061   1.568   7.864  1.4465 -2.5950  0.9931
 8194SOL     OW36214   4.659   1.652   8.483 -0.4076  0.0940  0.2259
 8194SOL    HW136215   4.594   1.688   8.545  0.8268  1.3022  0.8238
 8194SOL    HW236216   4.604   1.619   8.412  0.4909  0.0144 -0.4177
 8195SOL     OW36217   2.028   2.547   0.478  0.6209  0.3209  1.1656
 8195SOL    HW136218   2.100   2.604   0.451  2.6783 -1.7602  2.1542
 8195SOL    HW236219   1.975   2.557   0.400  0.2959  1.1960  1.5049
 8196SOL     OW36220   3.686   4.701   3.927  0.2586 -0.3820  0.6150
 8196SOL    HW136221   3.620   4.681   3.860  1.4551 -0.8146 -0.4385
 8196SOL    HW236222   3.740   0.023   3.878 -0.2219 -0.9597 -0.6545
 8197SOL     OW36223   4.318   3.267   2.762 -0.7779 -0.3102  0.1042
 8197SOL    HW136224   4.342   3.229   2.677  1.5621  2.8878 -0.6649
 8197SOL    HW236225   4.307   3.188   2.815 -0.6861 -0.7669 -0.5502
 8198SOL     OW36226   4.282   4.187   3.376  0.2175  0.1640  0.8912
 8198SOL    HW136227   4.357   4.177   3.318 -0.9098 -0.4816 -0.4657
 8198SOL    HW236228   4.250   4.274   3.351  1.2152 -0.0177 -1.0431
 8199SOL     OW36229   1.401   3.827   7.146  0.1723  0.4105  0.0430
 8199SOL    HW136230   1.399   3.737   7.180 -0.8849  0.3880 -0.0565
 8199SOL    HW236231   1.312   3.859   7.164  0.0442 -0.7504  1.5272
 8200SOL     OW36232   0.795   4.491   4.957  0.4487 -0.0449  0.2965
 8200SOL    HW136233   0.798   4.399   4.982 -0.9192 -0.5755 -1.4726
 8200SOL    HW236234   0.855   4.531   5.020 -0.1601 -1.6019  1.8586
 8201SOL     OW36235   0.220   4.502   3.930 -0.5177  0.1371 -0.5010
 8201SOL    HW136236   0.263   4.557   3.865  1.1781 -1.1394 -0.4550
 8201SOL    HW236237   0.154   4.464   3.872  0.8530  0.3918 -2.2347
 8202SOL     OW36238   2.370   3.268   5.083 -0.2863 -0.3259 -0.1510
 8202SOL    HW136239   2.436   3.244   5.019  0.2803 -0.9537  0.6760
 8202SOL    HW236240   2.398   3.359   5.098 -1.1632 -0.0776  0.0042
 8203SOL     OW36241   1.385   1.851   3.040 -0.2191  0.4968  0.2721
 8203SOL    HW136242   1.329   1.919   3.076 -0.7075  1.0411 -1.5609
 8203SOL    HW236243   1.468   1.897   3.046 -0.8252  1.3732  1.9411
 8204SOL     OW36244   0.294   1.719   3.308 -0.0928  0.1918  0.1369
 8204SOL    HW136245   0.327   1.808   3.326  0.6941  0.0135 -0.4270
 8204SOL    HW236246   0.206   1.745   3.282 -0.8684 -0.8801  1.6793
 8205SOL     OW36247   0.752   2.944  14.646 -0.4168  0.0152 -0.4619
 8205SOL    HW136248   0.680   2.957  14.707 -0.5026  1.4681 -0.8530
 8205SOL    HW236249   0.718   2.985  14.566  0.0235  0.3087 -0.4987
 8206SOL     OW36250   2.479   2.570   7.512  0.1156  0.0127 -0.2421
 8206SOL    HW136251   2.519   2.554   7.427  1.0883 -0.3821  0.2835
 8206SOL    HW236252   2.470   2.480   7.543 -0.0486 -1.0497 -3.3761
 8207SOL     OW36253   0.720   4.679   9.555  0.7104 -0.3066 -0.3110
 8207SOL    HW136254   0.658   4.615   9.518 -0.1948  0.1964  0.3477
 8207SOL    HW236255   0.662   4.708   9.625  0.7749  0.1218 -0.4351
 8208SOL     OW36256   2.877   2.400  12.707 -0.1586 -0.0560 -0.1090
 8208SOL    HW136257   2.963   2.358  12.714 -0.0559  0.5151  1.9762
 8208SOL    HW236258   2.867   2.438  12.795 -0.7934  0.9667 -0.6132
 8209SOL     OW36259   2.963   2.434  14.440 -0.4318  0.2886 -0.1969
 8209SOL    HW136260   2.919   2.430  14.525  0.2844  1.2222  0.2143
 8209SOL    HW236261   2.917   2.510  14.406  2.2624  0.7811 -2.6986
 8210SOL     OW36262   1.995   2.923  15.885 -0.0109  0.0318  0.1231
 8210SOL    HW136263   2.011   2.989  15.818  1.0462 -2.7707 -2.4046
 8210SOL    HW236264   2.080   2.914  15.928 -0.5103 -0.8667  0.9241
 8211SOL     OW36265   1.738   0.337   5.617  0.5492 -0.1668 -0.4600
 8211SOL    HW136266   1.657   0.384   5.596  1.4575  0.2066 -3.0674
 8211SOL    HW236267   1.753   0.382   5.701 -1.0103 -2.3745  1.0186
 8212SOL     OW36268   4.181   3.857  11.957  0.5078  0.3277  0.8528
 8212SOL    HW136269   4.227   3.821  12.032 -0.4782 -2.4988  0.1003
 8212SOL    HW236270   4.112   3.790  11.953  0.4904  0.4439 -0.9354
 8213SOL     OW36271   1.495   4.015   4.102 -0.2300 -0.2154 -0.0703
 8213SOL    HW136272   1.502   4.111   4.099 -2.1899 -0.0173  1.8515
 8213SOL    HW236273   1.418   4.010   4.045 -0.2956 -0.4337  0.0383
 8214SOL     OW36274   2.213   2.371   1.738 -0.3137 -1.1085 -0.0964
 8214SOL    HW136275   2.282   2.423   1.782 -1.9012 -0.2562  1.3886
 8214SOL    HW236276   2.256   2.347   1.656 -1.2822 -2.5756 -0.1649
 8215SOL     OW36277   1.382   3.499   8.422  0.4220  0.7433  0.2257
 8215SOL    HW136278   1.451   3.559   8.451  1.6144  0.0629 -1.1405
 8215SOL    HW236279   1.410   3.480   8.332 -1.8353 -0.5262 -0.2090
 8216SOL     OW36280   4.733   1.126  16.993  0.0542  0.2563 -0.1655
 8216SOL    HW136281   4.713   1.071  16.918  0.5908 -0.1007 -0.0403
 8216SOL    HW236282   4.737   1.211  16.949  2.6160 -1.5889 -3.4705
 8217SOL     OW36283   4.305   1.197   7.864  0.1433 -0.4185  0.3310
 8217SOL    HW136284   4.331   1.262   7.799 -1.5606  2.0916  2.1829
 8217SOL    HW236285   4.383   1.141   7.863 -0.1970 -0.9454  2.7368
 8218SOL     OW36286   2.480   3.776   0.561  0.1554  0.0691 -0.1958
 8218SOL    HW136287   2.521   3.793   0.645 -2.8622 -1.8075  1.6475
 8218SOL    HW236288   2.409   3.717   0.585  1.3818 -1.5118 -0.4464
 8219SOL     OW36289   3.895   2.623   3.010  0.1256  0.5384 -0.2036
 8219SOL    HW136290   3.901   2.530   3.034  0.6734  0.4194 -0.8188
 8219SOL    HW236291   3.988   2.646   3.011 -0.0522  1.2236  0.2170
 8220SOL     OW36292   2.119   3.395   5.473 -0.3907 -0.0608  0.5298
 8220SOL    HW136293   2.041   3.451   5.481 -0.5123  0.0915 -1.6536
 8220SOL    HW236294   2.173   3.422   5.547  1.6212  0.0807 -0.9743
 8221SOL     OW36295   2.450   3.797  16.540 -0.1916 -0.0304 -0.4100
 8221SOL    HW136296   2.528   3.821  16.490  1.0618  0.1614  1.6200
 8221SOL    HW236297   2.420   3.715  16.500  0.2958  0.8081 -2.5084
 8222SOL     OW36298   0.173   2.950   6.009  0.0866  0.1871 -0.3627
 8222SOL    HW136299   0.215   3.008   5.945  0.1639  1.0359  0.4471
 8222SOL    HW236300   0.247   2.936   6.067  0.0535  0.3972 -0.2681
 8223SOL     OW36301   4.517   2.481  15.610 -0.1470 -0.5067 -0.0412
 8223SOL    HW136302   4.476   2.568  15.617 -0.5054 -0.8604  2.4752
 8223SOL    HW236303   4.555   2.471  15.698 -1.1208 -2.8807  0.1174
 8224SOL     OW36304   0.588   0.849   3.294 -0.0936  0.5421  0.5942
 8224SOL    HW136305   0.526   0.790   3.338  1.0675 -0.3782  0.9915
 8224SOL    HW236306   0.595   0.809   3.207 -2.6842 -0.7962  0.9979
 8225SOL     OW36307   1.821   0.831   3.701  0.4180 -0.1022 -0.1047
 8225SOL    HW136308   1.878   0.897   3.741 -1.0620  0.3291  1.2861
 8225SOL    HW236309   1.742   0.860   3.748  0.5817 -1.0246  0.7334
 8226SOL     OW36310   2.483   0.800   0.472 -0.1546  0.3415  0.4246
 8226SOL    HW136311   2.410   0.858   0.494 -0.0828  0.5798  0.0231
 8226SOL    HW236312   2.423   0.740   0.427  0.8716 -0.9324  0.7656
 8227SOL     OW36313   1.792   0.435   3.185 -0.7593 -0.0448  0.1818
 8227SOL    HW136314   1.734   0.483   3.244 -1.7468 -1.6310  0.5090
 8227SOL    HW236315   1.747   0.461   3.105 -2.7865 -0.9425  1.0233
 8228SOL     OW36316   1.978   0.260   6.216 -0.0740 -0.3597 -0.4393
 8228SOL    HW136317   1.988   0.331   6.152 -0.4465  0.0167 -0.0830
 8228SOL    HW236318   1.887   0.275   6.244  0.2906 -2.2389  1.7134
 8229SOL     OW36319   0.549   0.493   2.396 -0.0653  0.2816 -0.1699
 8229SOL    HW136320   0.490   0.483   2.472 -0.0825 -0.1445 -0.2391
 8229SOL    HW236321   0.482   0.529   2.337 -1.7703 -3.0801 -0.2604
 8230SOL     OW36322   3.374   0.666  16.949  0.1064  0.1113  0.2822
 8230SOL    HW136323   3.424   0.585  16.963 -2.6035 -1.4851  0.8034
 8230SOL    HW236324   3.412   0.697  16.867 -1.5098  1.1186 -0.0788
 8231SOL     OW36325   4.438   3.271   1.962 -0.3019  0.0702  0.1788
 8231SOL    HW136326   4.407   3.189   1.923 -0.4636 -0.0735  0.6031
 8231SOL    HW236327   4.491   3.232   2.031  0.6955 -0.1316 -0.6929
 8232SOL     OW36328   1.328   4.566   6.109  0.0541  0.3538  0.0278
 8232SOL    HW136329   1.253   4.528   6.154  0.6378 -0.1683  0.5529
 8232SOL    HW236330   1.362   4.485   6.072  1.4070  1.0485 -0.2171
 8233SOL     OW36331   2.352   3.897   7.537  0.2535 -0.3329  0.6218
 8233SOL    HW136332   2.279   3.937   7.586 -0.8823 -0.3111 -1.0827
 8233SOL    HW236333   2.342   3.942   7.453  0.5534 -1.1209  0.1699
 8234SOL     OW36334   0.912   0.745   1.300  0.3956 -0.2654 -0.3798
 8234SOL    HW136335   0.888   0.756   1.392 -2.1493  1.2882 -1.2507
 8234SOL    HW236336   1.002   0.714   1.314  0.4382 -0.3328 -0.8133
 8235SOL     OW36337   2.958   2.807   2.968  0.7222  0.1919 -0.0988
 8235SOL    HW136338   2.870   2.777   2.988  0.3802  0.6446 -0.9228
 8235SOL    HW236339   2.949   2.863   2.891 -1.8450 -0.2097 -0.0879
 8236SOL     OW36340   0.310   3.911   1.680  0.3552  0.0529  0.1182
 8236SOL    HW136341   0.290   3.916   1.587 -2.0384 -1.7973  0.5606
 8236SOL    HW236342   0.235   3.942   1.730  0.1250 -0.7492  0.2648
 8237SOL     OW36343   3.501   1.363  10.556  0.4606  0.5823 -0.4318
 8237SOL    HW136344   3.531   1.303  10.489 -1.0495  0.2905 -0.8502
 8237SOL    HW236345   3.409   1.374  10.533  0.1927 -1.9949 -0.5742
 8238SOL     OW36346   1.275   0.523   5.471 -0.3194  0.2270  0.1770
 8238SOL    HW136347   1.237   0.536   5.558 -1.7268  2.6163 -0.8056
 8238SOL    HW236348   1.191   0.517   5.427 -1.4506  0.1251  2.3098
 8239SOL     OW36349   2.064   0.119   8.805  0.2862 -0.2646  0.0657
 8239SOL    HW136350   2.066   0.162   8.890  0.7748 -0.8726  0.3613
 8239SOL    HW236351   2.149   0.076   8.807  0.7841  0.7544  0.5926
 8240SOL     OW36352   3.591   2.621  16.383  0.4615 -0.5599  0.3489
 8240SOL    HW136353   3.613   2.658  16.469 -0.8787 -1.1247  0.9147
 8240SOL    HW236354   3.665   2.652  16.330 -1.3156  2.0664 -0.5827
 8241SOL     OW36355   1.265   4.457   5.140 -0.9688  0.1719  0.1787
 8241SOL    HW136356   1.219   4.470   5.057 -1.2462 -2.3766 -0.0733
 8241SOL    HW236357   1.194   4.438   5.202 -1.3670 -1.4503 -0.7543
 8242SOL     OW36358   3.382   3.347  10.775 -0.0659 -0.2736  0.2980
 8242SOL    HW136359   3.329   3.267  10.765 -0.4289 -0.1326  1.0801
 8242SOL    HW236360   3.319   3.408  10.737 -0.4395  0.0666  1.4647
 8243SOL     OW36361   2.965   0.646   1.816  0.0592  0.0867 -0.2266
 8243SOL    HW136362   3.058   0.660   1.795  0.0325  0.7447  0.1172
 8243SOL    HW236363   2.965   0.682   1.904 -0.6511  1.2821 -0.7215
 8244SOL     OW36364   4.212   4.048  12.555  0.1686  0.0398 -0.2209
 8244SOL    HW136365   4.163   4.124  12.522 -0.7719  0.5983  2.4498
 8244SOL    HW236366   4.277   4.086  12.614 -1.6708  0.1303  1.7374
 8245SOL     OW36367   4.392   2.212   7.885 -0.0659 -0.1222  0.0424
 8245SOL    HW136368   4.402   2.294   7.933 -2.1473  0.4062 -0.4261
 8245SOL    HW236369   4.483   2.182   7.878  0.0316  0.2341 -0.2276
 8246SOL     OW36370   0.111   1.172   9.277 -0.1441 -0.2345  0.4605
 8246SOL    HW136371   0.118   1.219   9.194  0.0458  0.6802  0.9948
 8246SOL    HW236372   0.196   1.181   9.321 -0.6102 -0.8324  1.4792
 8247SOL     OW36373   2.566   3.103  12.701  0.0798 -0.2849 -0.0349
 8247SOL    HW136374   2.525   3.026  12.662  2.7785 -0.3881 -2.6565
 8247SOL    HW236375   2.653   3.066  12.714  1.2268  2.4263 -0.0887
 8248SOL     OW36376   0.129   0.254   1.997  0.1433 -0.2228 -0.3101
 8248SOL    HW136377   0.124   0.327   1.936 -0.1636  1.5675  1.8573
 8248SOL    HW236378   0.036   0.233   2.003 -0.0290  1.0027  1.4367
 8249SOL     OW36379   3.176   3.426   1.782 -0.1656 -0.7528  0.5076
 8249SOL    HW136380   3.202   3.337   1.807  1.4155  0.0983  1.9626
 8249SOL    HW236381   3.209   3.462   1.865  0.7284  0.0979 -0.2248
 8250SOL     OW36382   3.886   4.432   6.145  0.1891  0.5147 -0.2716
 8250SOL    HW136383   3.910   4.344   6.117 -0.6469 -0.8248  3.2147
 8250SOL    HW236384   3.954   4.446   6.212  0.8203  0.5453 -0.9219
 8251SOL     OW36385   0.058   2.108   7.659 -0.8208  0.0431 -0.5358
 8251SOL    HW136386   0.067   2.183   7.600 -0.0443  2.6356  2.8448
 8251SOL    HW236387   0.017   2.037   7.611  0.1293 -0.8179 -0.0683
 8252SOL     OW36388   2.555   3.241   9.769 -0.1284  0.1037  0.3934
 8252SOL    HW136389   2.608   3.308   9.725  1.1503 -1.3822 -0.3061
 8252SOL    HW236390   2.513   3.197   9.695  1.4131 -1.1345  0.2468
 8253SOL     OW36391   2.700   1.116   7.149  0.1775  0.1405  0.2028
 8253SOL    HW136392   2.670   1.200   7.181  2.7046  1.1337  0.0003
 8253SOL    HW236393   2.752   1.143   7.072 -0.0878  0.8294  0.2685
 8254SOL     OW36394   0.619   0.450   0.639  0.1192 -0.1987 -0.1505
 8254SOL    HW136395   0.596   0.543   0.641  0.2659 -0.1425 -1.0829
 8254SOL    HW236396   0.532   0.414   0.622 -1.1269  2.8756 -0.3261
 8255SOL     OW36397   2.203   1.488  14.161  0.1972 -0.0881  0.1660
 8255SOL    HW136398   2.144   1.431  14.210 -0.6573  0.6165 -0.0547
 8255SOL    HW236399   2.282   1.434  14.167  0.5220  0.5243  1.3049
 8256SOL     OW36400   3.216   2.326   7.281 -0.1076  0.1218  0.0861
 8256SOL    HW136401   3.308   2.309   7.302 -0.0799  1.4669  1.0069
 8256SOL    HW236402   3.198   2.241   7.240  2.0353  1.1367 -2.9889
 8257SOL     OW36403   1.133   2.826  11.962 -0.2705 -0.0429 -0.3996
 8257SOL    HW136404   1.059   2.799  11.908  1.0860 -2.8844 -0.8838
 8257SOL    HW236405   1.110   2.915  11.986  0.6200 -0.2746  1.3479
 8258SOL     OW36406   3.945   0.443   9.078  0.6946 -0.1885  0.1032
 8258SOL    HW136407   3.990   0.523   9.049  1.1495  0.0799  1.5252
 8258SOL    HW236408   3.966   0.387   9.004  0.1406 -0.7889  0.4061
 8259SOL     OW36409   2.710   4.700   5.794 -0.5485 -0.2200  0.3143
 8259SOL    HW136410   2.690   4.620   5.746 -2.3754  0.2806  0.2435
 8259SOL    HW236411   2.762   0.014   5.734 -0.5595  0.0154  0.5147
 8260SOL     OW36412   4.710   4.639   2.305  0.2170  0.5611  0.0105
 8260SOL    HW136413   4.622   4.658   2.275  1.0153  0.4193 -2.4400
 8260SOL    HW236414   0.006   4.599   2.226  1.7609  0.8082  0.5859
 8261SOL     OW36415   2.548   3.962   3.721 -0.0414 -0.2789  0.0173
 8261SOL    HW136416   2.504   3.885   3.685 -0.1667 -1.0844  1.8938
 8261SOL    HW236417   2.619   3.987   3.662  0.7959 -2.6459  0.0521
 8262SOL     OW36418   0.488   2.775   3.795  0.3515 -0.4177  0.2797
 8262SOL    HW136419   0.556   2.799   3.731 -0.5089 -1.4546 -1.0371
 8262SOL    HW236420   0.416   2.743   3.740  0.4592 -1.4237  0.7207
 8263SOL     OW36421   3.118   3.477   3.865 -0.2331  0.3586  0.1586
 8263SOL    HW136422   3.199   3.526   3.859  0.2025 -0.4847 -0.9302
 8263SOL    HW236423   3.126   3.446   3.955 -2.3940 -1.4001 -0.2514
 8264SOL     OW36424   1.986   4.573   6.203  0.9081 -0.4093  0.5443
 8264SOL    HW136425   2.036   4.526   6.136  1.7675  0.4467  0.5950
 8264SOL    HW236426   1.913   4.614   6.157  0.2081 -1.3606  0.8061
 8265SOL     OW36427   0.837   4.431   3.447  0.0088 -0.1008 -0.1807
 8265SOL    HW136428   0.824   4.357   3.388 -1.9209 -1.2369  1.6555
 8265SOL    HW236429   0.899   4.489   3.404  0.3799 -0.6577 -0.4046
 8266SOL     OW36430   2.456   4.558   0.491 -0.2617 -0.3199 -0.6641
 8266SOL    HW136431   2.412   4.641   0.511  0.8027 -0.0026  0.3713
 8266SOL    HW236432   2.391   4.498   0.527  0.2465 -0.3161  0.2524
 8267SOL     OW36433   0.117   3.328   4.953  0.3053  0.2636 -0.6013
 8267SOL    HW136434   0.193   3.338   4.895 -0.7446 -1.3166 -2.2497
 8267SOL    HW236435   0.152   3.330   5.042 -1.0566 -1.1991 -0.0446
 8268SOL     OW36436   1.439   2.014   2.401  0.2721 -0.1153 -0.2386
 8268SOL    HW136437   1.532   1.990   2.396  0.8318  2.6373 -3.2151
 8268SOL    HW236438   1.397   1.939   2.359  0.5702 -0.9052  0.8665
 8269SOL     OW36439   2.047   3.582  16.962  1.1541 -0.6284 -0.6701
 8269SOL    HW136440   2.017   3.516  16.899  0.9669  0.8071 -2.0655
 8269SOL    HW236441   2.065   3.652  16.900  1.1296 -0.8863 -0.9713
 8270SOL     OW36442   0.616   1.467   4.775  0.0569  0.2285  0.1229
 8270SOL    HW136443   0.595   1.447   4.866 -2.5686  2.0617 -0.0772
 8270SOL    HW236444   0.618   1.561   4.796 -0.9255  0.6717 -1.8061
 8271SOL     OW36445   1.630   0.079  13.121  0.3636  0.1059 -0.0184
 8271SOL    HW136446   1.705   0.131  13.150  0.6623 -0.2885 -0.0862
 8271SOL    HW236447   1.675   0.008  13.076  0.7318  0.5836 -0.4034
 8272SOL     OW36448   3.889   4.321   2.097  0.7467  0.3312 -0.2489
 8272SOL    HW136449   3.883   4.241   2.044  0.0999 -0.6220  1.2751
 8272SOL    HW236450   3.829   4.378   2.048  1.0715 -0.1809 -1.2406
 8273SOL     OW36451   0.662   0.937   6.615  0.4715 -0.5768  0.2849
 8273SOL    HW136452   0.712   0.901   6.689  0.8631  0.8683  0.7114
 8273SOL    HW236453   0.680   0.871   6.548 -1.3427 -1.7221  0.9192
 8274SOL     OW36454   2.713   3.540   5.415  0.4071 -0.3249  0.1937
 8274SOL    HW136455   2.626   3.508   5.391  1.1678 -1.9961 -0.3636
 8274SOL    HW236456   2.711   3.533   5.510  0.7253  0.9162  0.2968
 8275SOL     OW36457   3.901   3.779   1.673  0.0991 -0.1226 -0.4731
 8275SOL    HW136458   3.912   3.701   1.617 -1.7821  1.5281 -3.1309
 8275SOL    HW236459   3.959   3.748   1.742  0.4170  4.0274  1.0538
 8276SOL     OW36460   2.664   2.110   2.960 -0.0404 -0.3548  0.1338
 8276SOL    HW136461   2.621   2.041   2.910 -0.9435 -0.0564  0.5056
 8276SOL    HW236462   2.753   2.106   2.924  0.4125 -0.7580  1.2757
 8277SOL     OW36463   4.288   2.194   9.347  0.4015  0.1113 -0.8656
 8277SOL    HW136464   4.286   2.117   9.290  1.3691  0.4570 -1.3623
 8277SOL    HW236465   4.196   2.210   9.365  0.3321 -2.1534  0.8845
 8278SOL     OW36466   4.068   3.373   4.572  0.5902 -0.1919 -0.0895
 8278SOL    HW136467   4.110   3.451   4.609  1.1637  0.4415 -2.1252
 8278SOL    HW236468   4.044   3.328   4.653  0.4262 -1.5098 -0.8747
 8279SOL     OW36469   2.904   3.471   2.544  0.8500 -0.1353  0.1955
 8279SOL    HW136470   2.911   3.510   2.631  3.1488  3.1833 -1.4603
 8279SOL    HW236471   2.832   3.524   2.509  0.6978 -0.1527  0.4790
 8280SOL     OW36472   1.077   2.378   5.333 -0.2994 -0.1155  0.2270
 8280SOL    HW136473   1.014   2.431   5.283  1.0576  3.0457  1.8305
 8280SOL    HW236474   1.056   2.286   5.319 -1.0259  0.1879 -0.7551
 8281SOL     OW36475   2.942   2.093   6.180  0.0082 -0.1029 -0.4681
 8281SOL    HW136476   2.917   2.002   6.194  1.3002 -0.4376 -0.3298
 8281SOL    HW236477   2.897   2.120   6.100  1.1857  3.2567 -0.0018
 8282SOL     OW36478   0.890   2.531  14.048  0.4796 -0.3662  0.8555
 8282SOL    HW136479   0.845   2.613  14.068  0.0240 -0.5592  0.6210
 8282SOL    HW236480   0.847   2.500  13.969  1.3249  0.7080 -0.0300
 8283SOL     OW36481   2.955   1.023   7.885 -0.3961 -0.3882 -0.3892
 8283SOL    HW136482   2.918   0.935   7.880 -0.6301 -0.4062  1.5732
 8283SOL    HW236483   2.914   1.063   7.808  0.1886 -0.0958 -0.5486
 8284SOL     OW36484   2.795   2.485   8.956 -0.3505  0.7358 -0.5729
 8284SOL    HW136485   2.848   2.535   8.894 -0.4776 -1.1498 -2.2005
 8284SOL    HW236486   2.805   2.528   9.041  0.0894  1.7473 -1.1338
 8285SOL     OW36487   1.642   3.197   3.101  0.1882 -0.3024 -0.7907
 8285SOL    HW136488   1.580   3.223   3.169  1.9479  0.4225  0.5418
 8285SOL    HW236489   1.587   3.146   3.042  1.7593 -0.5751 -2.0112
 8286SOL     OW36490   1.203   0.143   2.448  0.0379 -0.0246 -0.2503
 8286SOL    HW136491   1.130   0.202   2.468  1.8500  1.2623  2.6114
 8286SOL    HW236492   1.245   0.209   2.393  1.6509 -1.6581 -0.9764
 8287SOL     OW36493   3.088   1.175   6.440  0.0771 -0.4682  0.2683
 8287SOL    HW136494   3.141   1.207   6.367 -1.5507 -1.0072 -1.1691
 8287SOL    HW236495   3.113   1.243   6.502 -1.2681  0.0662  0.2262
 8288SOL     OW36496   1.057   3.015   9.521 -0.2110 -0.0257 -0.2418
 8288SOL    HW136497   1.109   2.935   9.523 -2.0887 -1.2546  0.1689
 8288SOL    HW236498   1.121   3.075   9.484 -1.6476  0.6130 -1.7090
 8289SOL     OW36499   3.380   3.437   1.383  0.3080 -0.3963 -0.1563
 8289SOL    HW136500   3.393   3.372   1.452 -0.5677  0.5785  0.9404
 8289SOL    HW236501   3.457   3.428   1.328  2.2124 -2.2247  2.7848
 8290SOL     OW36502   2.735   0.506   5.024 -0.1935 -0.0387  0.0966
 8290SOL    HW136503   2.656   0.453   5.015 -0.4556  0.1836  1.0635
 8290SOL    HW236504   2.787   0.482   4.948  0.5201 -0.5393  0.7455
 8291SOL     OW36505   3.621   1.458   6.304  0.2648 -0.1225  0.0159
 8291SOL    HW136506   3.580   1.470   6.390  0.9469 -2.3291  0.6471
 8291SOL    HW236507   3.629   1.547   6.271  1.8434 -0.7353 -1.2679
 8292SOL     OW36508   0.445   2.101   6.671 -0.0022 -0.2032  0.5440
 8292SOL    HW136509   0.388   2.156   6.725  0.1670 -0.3357  0.8578
 8292SOL    HW236510   0.417   2.121   6.582 -0.4381  0.7328  0.8897
 8293SOL     OW36511   2.129   1.022  12.214  0.6226  0.1190 -0.2815
 8293SOL    HW136512   2.207   1.067  12.179  0.1381  1.3927  0.2911
 8293SOL    HW236513   2.163   0.932  12.215 -0.5769 -0.3195  1.4711
 8294SOL     OW36514   1.402   3.813   6.167  0.0932  0.1979 -0.3351
 8294SOL    HW136515   1.440   3.766   6.092 -2.3625 -0.2556 -1.2732
 8294SOL    HW236516   1.426   3.763   6.245  2.1596 -2.1291 -2.4686
 8295SOL     OW36517   0.556   0.418   6.690  0.2961 -0.1750 -0.6060
 8295SOL    HW136518   0.646   0.446   6.706  0.4435 -1.5940  1.1615
 8295SOL    HW236519   0.562   0.323   6.701 -0.2988 -0.1146  0.3297
 8296SOL     OW36520   1.355   2.314   7.921  0.3712 -0.2633  0.4422
 8296SOL    HW136521   1.443   2.282   7.942  0.3930 -0.6659 -0.2753
 8296SOL    HW236522   1.321   2.327   8.010  0.0592  0.1380  0.2643
 8297SOL     OW36523   1.265   0.174   8.960 -0.2199  0.2001  0.4882
 8297SOL    HW136524   1.275   0.079   8.958  3.4029  0.6093 -0.4774
 8297SOL    HW236525   1.351   0.213   8.942 -0.2106 -0.1045 -0.1523
 8298SOL     OW36526   1.263   3.043   4.445 -0.2671 -0.7596  1.2096
 8298SOL    HW136527   1.283   3.044   4.351 -0.1153 -0.0786  1.2531
 8298SOL    HW236528   1.194   2.976   4.446 -0.8212 -0.2204 -0.1049
 8299SOL     OW36529   4.247   0.417   6.088 -0.5448 -0.4692  0.1925
 8299SOL    HW136530   4.326   0.372   6.118 -0.2092  0.9977  1.5049
 8299SOL    HW236531   4.206   0.451   6.167  1.0928  1.9085 -0.0152
 8300SOL     OW36532   0.967   0.611   5.482  0.7309 -0.5115  0.1856
 8300SOL    HW136533   0.915   0.571   5.413  0.3745 -2.7039  1.7414
 8300SOL    HW236534   0.963   0.549   5.555  0.0516 -1.1009 -0.3670
 8301SOL     OW36535   0.391   4.737   7.353  0.3441 -0.0484  0.0567
 8301SOL    HW136536   0.368   0.047   7.431 -3.4678  1.1579 -1.8160
 8301SOL    HW236537   0.350   0.052   7.286  1.1116  1.0627  0.4953
 8302SOL     OW36538   4.210   4.440  12.116 -0.1321  0.1438  0.3025
 8302SOL    HW136539   4.164   4.367  12.158  2.5418  0.4669  3.7101
 8302SOL    HW236540   4.260   4.390  12.051  0.5825 -0.7378  1.5449
 8303SOL     OW36541   4.517   4.055   2.282  0.0118  0.4207 -0.3867
 8303SOL    HW136542   4.554   4.077   2.197 -0.7579 -1.2893 -1.1660
 8303SOL    HW236543   4.554   4.130   2.328 -0.0083 -1.1317  2.2244
 8304SOL     OW36544   4.027   2.767   7.069  0.3134 -0.4063 -0.1751
 8304SOL    HW136545   4.101   2.709   7.090 -0.7538 -1.6262  0.2344
 8304SOL    HW236546   3.949   2.716   7.089  0.7427 -0.4438  1.4410
 8305SOL     OW36547   2.639   0.169  10.943  0.0878 -0.4946  0.1381
 8305SOL    HW136548   2.551   0.145  10.971 -0.4449  1.0300 -0.2440
 8305SOL    HW236549   2.670   0.195  11.030  0.6220  0.4317 -0.3372
 8306SOL     OW36550   2.585   0.039   6.861 -0.2504  0.2756 -0.5732
 8306SOL    HW136551   2.611   0.111   6.803  3.2957 -1.0878 -0.7188
 8306SOL    HW236552   2.503   0.066   6.902 -0.6357 -0.9011 -0.5445
 8307SOL     OW36553   0.756   3.339   2.357 -0.1424 -0.0055  0.0077
 8307SOL    HW136554   0.844   3.378   2.351 -0.8030  0.8611 -3.6992
 8307SOL    HW236555   0.763   3.271   2.424 -1.6730  0.1653  0.3339
 8308SOL     OW36556   1.722   3.551  17.365 -0.3573 -0.2499 -0.1735
 8308SOL    HW136557   1.696   3.632  17.410  0.5701 -0.2896  0.4313
 8308SOL    HW236558   1.806   3.571  17.324 -0.3819 -0.1441 -0.1744
 8309SOL     OW36559   3.639   3.044   7.732 -0.0071  0.3818  0.0668
 8309SOL    HW136560   3.547   3.052   7.708 -0.1294  0.6424  0.6016
 8309SOL    HW236561   3.686   3.072   7.653  0.9043  1.2836  0.9177
 8310SOL     OW36562   4.047   3.656   6.022  0.1483  0.2425  0.2211
 8310SOL    HW136563   4.129   3.684   5.981 -0.2387  1.6114  0.3818
 8310SOL    HW236564   4.054   3.560   6.030 -0.7107  0.2351  0.8417
 8311SOL     OW36565   2.007   4.234  11.478  0.4110 -0.0740  0.9849
 8311SOL    HW136566   2.045   4.167  11.536 -1.1582 -1.8975 -0.0906
 8311SOL    HW236567   2.085   4.289  11.473  0.6872 -0.2610  3.2740
 8312SOL     OW36568   4.694   0.727  17.096 -0.2743 -0.4435  0.2286
 8312SOL    HW136569   0.015   0.658  17.121 -0.3297  0.7281  3.6066
 8312SOL    HW236570   4.606   0.691  17.097  1.7249 -5.2150  3.1964
 8313SOL     OW36571   3.604   2.805   3.687 -0.0300  0.0967 -0.1022
 8313SOL    HW136572   3.514   2.805   3.720 -0.0728 -3.4611 -0.1355
 8313SOL    HW236573   3.650   2.759   3.758  1.0441  1.2519 -0.0486
 8314SOL     OW36574   0.497   3.068   5.963 -0.3334  0.4119  0.1262
 8314SOL    HW136575   0.463   3.030   6.044  0.0258 -1.8671 -0.7967
 8314SOL    HW236576   0.494   2.996   5.901  0.0154  1.1384 -0.7489
 8315SOL     OW36577   1.156   0.138   7.632 -0.1877  0.2990  0.2653
 8315SOL    HW136578   1.135   0.221   7.589  1.8243  0.7344  0.1071
 8315SOL    HW236579   1.216   0.172   7.699  0.3943 -1.5210  0.6705
 8316SOL     OW36580   2.973   0.724   8.148  0.0176 -0.1637  0.1891
 8316SOL    HW136581   2.924   0.709   8.067 -0.3159 -1.2296  0.5902
 8316SOL    HW236582   2.947   0.654   8.209  1.8326 -0.1941  0.9306
 8317SOL     OW36583   2.070   1.141   2.835  0.0668  0.5016  0.5985
 8317SOL    HW136584   2.111   1.155   2.920 -2.5383 -1.7588  2.2677
 8317SOL    HW236585   1.976   1.133   2.853  0.2490 -2.5085  0.2674
 8318SOL     OW36586   4.303   3.609   0.548 -0.0279  0.5117  0.2835
 8318SOL    HW136587   4.367   3.638   0.613 -0.0547  1.2383 -0.0148
 8318SOL    HW236588   4.357   3.602   0.470  1.4896 -2.9033  1.6303
 8319SOL     OW36589   3.424   0.208   4.360  0.3864  0.3222 -0.3472
 8319SOL    HW136590   3.478   0.135   4.390 -2.6322 -1.8822 -0.2782
 8319SOL    HW236591   3.363   0.208   4.434  1.1440 -1.9933  0.2745
 8320SOL     OW36592   2.321   0.950   5.715 -0.3336 -0.1582 -0.2751
 8320SOL    HW136593   2.336   1.031   5.764  1.7032 -0.1604 -0.8942
 8320SOL    HW236594   2.313   0.884   5.783 -1.4615  0.7144  0.4483
 8321SOL     OW36595   1.519   2.954  13.591  0.2332  0.5174  0.0595
 8321SOL    HW136596   1.444   2.928  13.537 -0.1041 -0.0845  0.8201
 8321SOL    HW236597   1.547   2.874  13.634 -2.7783 -1.0807 -0.9728
 8322SOL     OW36598   3.277   2.151   0.208 -0.5167 -0.1311 -0.4990
 8322SOL    HW136599   3.218   2.147   0.133 -1.2798 -0.9421  0.1331
 8322SOL    HW236600   3.257   2.068   0.251 -0.0484 -0.0487 -0.1168
 8323SOL     OW36601   1.270   0.674   0.352 -0.4756 -0.7909 -0.1108
 8323SOL    HW136602   1.232   0.725   0.280 -0.0544 -1.3408 -0.7227
 8323SOL    HW236603   1.349   0.725   0.367 -0.5676 -1.2089  1.8026
 8324SOL     OW36604   0.458   3.441   5.327  0.5282 -0.1349  0.1655
 8324SOL    HW136605   0.444   3.407   5.416 -0.1298 -0.9868 -0.2612
 8324SOL    HW236606   0.437   3.533   5.338  1.4023  0.1473 -0.6054
 8325SOL     OW36607   3.631   0.933   9.945  0.2372 -0.2573  0.1875
 8325SOL    HW136608   3.718   0.906   9.974  1.1856  0.0890 -2.3898
 8325SOL    HW236609   3.579   0.894  10.015 -0.8525 -0.2357 -0.6032
 8326SOL     OW36610   0.130   1.435   1.263 -0.0558  0.0581  0.0017
 8326SOL    HW136611   0.169   1.514   1.228 -0.3934 -0.3330 -1.2636
 8326SOL    HW236612   0.040   1.466   1.276  0.3470  1.3833 -0.4977
 8327SOL     OW36613   0.736   0.159   3.614  0.1876  0.1204 -0.1446
 8327SOL    HW136614   0.716   0.101   3.687 -0.4960 -0.8802 -1.1142
 8327SOL    HW236615   0.831   0.153   3.610  0.0815 -2.5507  1.9362
 8328SOL     OW36616   2.785   2.638  14.385  0.3715  0.1602  0.2977
 8328SOL    HW136617   2.744   2.666  14.303 -1.1329  2.4408  1.8564
 8328SOL    HW236618   2.726   2.690  14.440 -0.0289  0.7234 -0.6676
 8329SOL     OW36619   0.005   0.737   7.839 -0.0506 -0.7766  0.6093
 8329SOL    HW136620   4.660   0.748   7.881 -0.7532  0.2984 -1.0975
 8329SOL    HW236621   0.059   0.744   7.918  2.2955 -0.1034 -1.0364
 8330SOL     OW36622   3.200   1.890   8.002  0.0670  0.0707 -0.4914
 8330SOL    HW136623   3.190   1.881   7.907  1.5695 -2.2777 -0.4191
 8330SOL    HW236624   3.278   1.944   8.004  0.1018  0.0308 -0.7134
 8331SOL     OW36625   2.386   0.514  14.951  0.2634  0.5257  0.5317
 8331SOL    HW136626   2.318   0.449  14.933  1.9809 -0.7179 -1.4463
 8331SOL    HW236627   2.348   0.594  14.915  0.9714  0.3415 -0.6289
 8332SOL     OW36628   3.263   3.182   6.313  0.0121 -0.3660  0.2393
 8332SOL    HW136629   3.190   3.226   6.269  0.7916 -0.4363 -1.1100
 8332SOL    HW236630   3.303   3.257   6.356 -1.2628 -0.5432  1.7867
 8333SOL     OW36631   1.815   2.425   3.539  0.1861 -0.4274 -0.3756
 8333SOL    HW136632   1.729   2.430   3.581  1.1600  2.4696  1.2558
 8333SOL    HW236633   1.865   2.420   3.620  0.1379  1.6758 -0.2313
 8334SOL     OW36634   1.116   1.799  14.354 -0.0485  0.1166 -0.6442
 8334SOL    HW136635   1.043   1.772  14.298  0.1124  1.5520 -1.5510
 8334SOL    HW236636   1.189   1.816  14.295  0.0193 -0.3104 -0.6856
 8335SOL     OW36637   3.123   1.664   3.285 -0.3768  0.3426 -0.2960
 8335SOL    HW136638   3.171   1.583   3.268 -0.4862  0.5391 -1.5205
 8335SOL    HW236639   3.052   1.650   3.222 -1.4438 -1.6001  1.3341
 8336SOL     OW36640   1.910   0.563   6.545 -0.3524  0.1368 -0.1096
 8336SOL    HW136641   1.822   0.599   6.548 -0.4274 -0.1446  0.7960
 8336SOL    HW236642   1.910   0.522   6.631  1.0344 -1.5897 -0.9264
 8337SOL     OW36643   2.649   1.510   6.492 -0.1855 -0.7542  0.2383
 8337SOL    HW136644   2.652   1.415   6.498  0.4852 -0.8197 -0.9141
 8337SOL    HW236645   2.560   1.539   6.511  1.2969  2.2779  2.5265
 8338SOL     OW36646   1.308   1.695   9.186  0.2598 -0.2526 -0.2133
 8338SOL    HW136647   1.349   1.711   9.271 -1.6057  1.4916  0.3732
 8338SOL    HW236648   1.338   1.768   9.131 -0.7867  0.4462  0.1223
 8339SOL     OW36649   0.577   2.826   3.516 -0.1472  0.0150  0.1522
 8339SOL    HW136650   0.567   2.793   3.427  1.4335  0.8937 -0.3556
 8339SOL    HW236651   0.666   2.861   3.520  0.1118 -0.8421  2.0704
 8340SOL     OW36652   1.933   2.689  12.850 -0.0692  0.3373  0.2819
 8340SOL    HW136653   1.905   2.597  12.854 -3.7061  1.3902 -0.7948
 8340SOL    HW236654   1.927   2.698  12.755 -2.2615 -0.3220  0.3409
 8341SOL     OW36655   2.014   0.824   9.403  1.1512 -0.1140 -0.0817
 8341SOL    HW136656   1.953   0.887   9.443 -0.1478 -1.8465  0.6520
 8341SOL    HW236657   1.959   0.746   9.401 -0.6634  1.2325 -2.4139
 8342SOL     OW36658   0.366   1.592   5.928 -0.0861 -0.4864  0.1396
 8342SOL    HW136659   0.412   1.595   5.844 -0.2222 -1.2801  0.0424
 8342SOL    HW236660   0.315   1.512   5.924 -2.0756  0.8669 -1.4261
 8343SOL     OW36661   0.936   3.350   3.055 -0.2849  0.0153  0.2198
 8343SOL    HW136662   0.922   3.416   2.988 -0.2314 -0.6185 -0.4106
 8343SOL    HW236663   1.030   3.338   3.046 -0.0081  0.9524  1.7165
 8344SOL     OW36664   3.943   3.315   2.791  0.0164 -0.5271 -0.4816
 8344SOL    HW136665   3.956   3.228   2.752  1.0707 -0.1255 -1.0112
 8344SOL    HW236666   3.865   3.298   2.845  0.1952  3.2902  0.9191
 8345SOL     OW36667   0.412   0.135   3.681 -0.4666 -0.0546 -0.6962
 8345SOL    HW136668   0.462   0.216   3.694 -1.5584  0.6414 -0.8123
 8345SOL    HW236669   0.421   0.116   3.588 -1.4376 -0.5372 -0.6874
 8346SOL     OW36670   3.265   0.726   8.117  0.0648 -0.4549  0.4229
 8346SOL    HW136671   3.248   0.669   8.192  0.3874  0.8909  1.5347
 8346SOL    HW236672   3.176   0.735   8.082 -0.2496 -0.5801  1.1909
 8347SOL     OW36673   3.694   4.004   6.728  0.3585  0.0742 -0.0621
 8347SOL    HW136674   3.753   4.016   6.654  0.2733  0.0463 -0.1357
 8347SOL    HW236675   3.674   3.910   6.733 -0.7302  0.2571 -0.9356
 8348SOL     OW36676   2.613   4.599   6.177 -0.2210  0.2566 -0.0103
 8348SOL    HW136677   2.654   4.676   6.138 -1.9519  1.7545  1.1218
 8348SOL    HW236678   2.691   4.551   6.203 -0.4702 -1.4263 -2.3518
 8349SOL     OW36679   0.119   1.690  10.939 -0.5746 -0.5792  0.2916
 8349SOL    HW136680   0.169   1.632  10.882 -0.6517  1.9069 -2.3341
 8349SOL    HW236681   0.060   1.732  10.877 -1.3730  0.5428  1.7872
 8350SOL     OW36682   1.848   2.173   9.902  0.3406  0.2611 -0.4091
 8350SOL    HW136683   1.865   2.254   9.950 -1.0737  0.6343 -0.5313
 8350SOL    HW236684   1.886   2.116   9.968 -0.8224 -0.6020 -0.4795
 8351SOL     OW36685   1.874   3.618   1.050 -0.3465 -0.0581 -0.5459
 8351SOL    HW136686   1.933   3.670   0.995 -0.7436 -0.1392 -1.0483
 8351SOL    HW236687   1.877   3.537   1.001  1.5408 -1.6252  2.1508
 8352SOL     OW36688   1.380   0.445  13.367  0.4626 -0.1300  0.1372
 8352SOL    HW136689   1.449   0.481  13.423 -0.0275  0.0096  0.6566
 8352SOL    HW236690   1.383   0.513  13.299 -1.6044 -0.9283 -0.7352
 8353SOL     OW36691   4.329   3.189   6.431 -0.6587 -0.5557  0.5938
 8353SOL    HW136692   4.337   3.284   6.440  0.1502 -0.6492  0.8382
 8353SOL    HW236693   4.400   3.153   6.483 -1.2654 -0.6587  1.3575
 8354SOL     OW36694   1.049   1.487   5.266 -0.2355  0.0287  0.3662
 8354SOL    HW136695   1.015   1.546   5.333  0.1167 -0.2912  0.8349
 8354SOL    HW236696   1.115   1.434   5.311  2.2241  2.6498 -0.1579
 8355SOL     OW36697   3.865   2.386   3.238 -0.0690 -0.1548 -0.1651
 8355SOL    HW136698   3.952   2.349   3.221 -0.1844 -0.1802 -0.6870
 8355SOL    HW236699   3.809   2.327   3.188 -0.4682 -2.0507  2.4871
 8356SOL     OW36700   3.007   0.271   4.957 -0.2653  0.5300  0.3943
 8356SOL    HW136701   3.090   0.317   4.945 -0.5869  1.5773  2.1296
 8356SOL    HW236702   2.941   0.340   4.951 -0.8296 -0.0840 -0.4269
 8357SOL     OW36703   0.553   1.807  17.725 -0.4428 -0.7010 -0.7794
 8357SOL    HW136704   0.567   1.778   0.058  1.6835 -0.8729 -1.1660
 8357SOL    HW236705   0.504   1.734  17.687 -0.4667 -1.2284  0.2778
 8358SOL     OW36706   3.462   1.755   5.225  0.9169  0.4380  0.3716
 8358SOL    HW136707   3.415   1.756   5.308  0.0987 -1.8535 -0.0715
 8358SOL    HW236708   3.548   1.751   5.268 -0.1755 -2.9056  2.2613
 8359SOL     OW36709   4.584   0.917  13.878  0.4395 -0.1782  0.1804
 8359SOL    HW136710   4.545   0.999  13.848  0.7757 -1.7482 -4.6279
 8359SOL    HW236711   4.553   0.926  13.968 -1.5146  1.5089 -0.6625
 8360SOL     OW36712   0.338   4.562   7.095 -0.2129 -0.0501  0.0348
 8360SOL    HW136713   0.397   4.490   7.115  1.9285  1.5887 -0.4002
 8360SOL    HW236714   0.346   4.624   7.168  1.6346 -0.4505  0.1586
 8361SOL     OW36715   2.053   3.506   3.099 -0.4073 -0.3121 -0.0065
 8361SOL    HW136716   1.998   3.582   3.116  3.5251  2.0760  2.1491
 8361SOL    HW236717   2.039   3.506   3.004  2.2833  0.6230 -0.4106
 8362SOL     OW36718   3.962   4.442   2.718 -0.1328 -0.5386  0.2769
 8362SOL    HW136719   3.963   4.536   2.695 -3.2364  0.0311  2.5220
 8362SOL    HW236720   4.045   4.412   2.681 -0.4405 -1.4013  0.2923
 8363SOL     OW36721   3.293   0.685   7.128  0.2977 -0.0245 -0.4976
 8363SOL    HW136722   3.239   0.720   7.199  0.7118 -0.9735  0.2748
 8363SOL    HW236723   3.356   0.632   7.177 -0.6861 -3.4884 -2.9376
 8364SOL     OW36724   0.392   4.135   5.447  1.2548  0.5358  0.1436
 8364SOL    HW136725   0.300   4.122   5.425  1.3385 -0.9445  0.6946
 8364SOL    HW236726   0.424   4.209   5.396  2.2959 -1.2418 -1.7697
 8365SOL     OW36727   1.375   0.011  16.710  0.8740  0.5218  0.3398
 8365SOL    HW136728   1.465   4.727  16.691  0.0688 -0.7156 -1.9170
 8365SOL    HW236729   1.371   0.101  16.678  1.7740  0.5122  0.2136
 8366SOL     OW36730   1.387   2.210   0.800 -0.2446  0.1034  0.2265
 8366SOL    HW136731   1.382   2.305   0.792  0.8519  0.0127 -1.6537
 8366SOL    HW236732   1.441   2.205   0.879 -2.2287 -2.8519  1.3722
 8367SOL     OW36733   2.532   0.167   3.094 -0.9290 -0.0870 -0.1551
 8367SOL    HW136734   2.500   0.085   3.132 -1.6721 -0.1103 -0.8388
 8367SOL    HW236735   2.453   0.218   3.077 -1.9558 -1.0254  1.7196
 8368SOL     OW36736   1.641   1.529   9.908 -0.0497  0.0631 -0.0844
 8368SOL    HW136737   1.698   1.453   9.923  0.3394  0.3587 -0.0593
 8368SOL    HW236738   1.705   1.595   9.935  0.5741  0.3550 -2.3027
 8369SOL     OW36739   4.250   2.708   1.294 -0.4462  0.2171  0.1307
 8369SOL    HW136740   4.269   2.744   1.381 -1.3626  1.0777 -0.0322
 8369SOL    HW236741   4.157   2.730   1.298 -0.4166  0.9186 -3.2621
 8370SOL     OW36742   2.708   0.745   3.792  0.2840 -0.0535 -0.1049
 8370SOL    HW136743   2.625   0.726   3.749  0.8691 -0.1095 -1.2124
 8370SOL    HW236744   2.677   0.804   3.861  1.3446 -1.1088  1.2786
 8371SOL     OW36745   0.237   2.161   5.245  0.1464  0.1738 -0.4119
 8371SOL    HW136746   0.220   2.243   5.290 -1.3338 -0.3047 -0.1027
 8371SOL    HW236747   0.331   2.148   5.259 -0.3119 -2.5806  0.1922
 8372SOL     OW36748   0.702   0.490  17.583  1.0860 -0.0406 -0.6221
 8372SOL    HW136749   0.744   0.530  17.508 -0.3119  1.7172 -0.4648
 8372SOL    HW236750   0.656   0.565  17.623  2.8276 -0.6220  2.5151
 8373SOL     OW36751   4.528   2.285  10.994 -0.3855 -0.2488 -0.0289
 8373SOL    HW136752   4.534   2.203  10.943  1.0847  0.4624 -1.0157
 8373SOL    HW236753   4.547   2.353  10.929 -0.1728 -1.5922 -1.4007
 8374SOL     OW36754   2.161   2.565   3.104 -0.2572  0.1544  1.3338
 8374SOL    HW136755   2.172   2.632   3.037 -3.5597 -1.8006 -1.1222
 8374SOL    HW236756   2.181   2.621   3.179 -0.5726  1.6792  0.2851
 8375SOL     OW36757   0.967   0.046   9.542  0.7611 -0.2656 -0.0360
 8375SOL    HW136758   0.979   0.033   9.448  0.1050  0.9854 -0.2888
 8375SOL    HW236759   0.885   4.737   9.546 -0.8434  2.3542 -1.1019
 8376SOL     OW36760   0.130   1.123   6.553 -0.3028 -0.7835  0.2922
 8376SOL    HW136761   0.179   1.134   6.635  0.6686  1.3925 -0.5653
 8376SOL    HW236762   0.136   1.028   6.542  0.4111 -0.8292  1.1050
 8377SOL     OW36763   2.423   2.079  14.576  0.5612 -0.1394  0.0158
 8377SOL    HW136764   2.469   2.155  14.540  0.5107  0.2597  0.7813
 8377SOL    HW236765   2.454   2.008  14.520  2.5199  1.2187 -0.6114
 8378SOL     OW36766   1.388   0.538   8.677  0.2909  0.2850 -0.5738
 8378SOL    HW136767   1.371   0.620   8.724 -0.0111 -1.2266  1.9398
 8378SOL    HW236768   1.302   0.499   8.694 -0.7890  1.8162 -2.5935
 8379SOL     OW36769   2.462   0.902   6.336 -0.1252  0.6634 -0.0401
 8379SOL    HW136770   2.472   0.995   6.312 -0.2721  0.7206  0.1161
 8379SOL    HW236771   2.401   0.871   6.269 -0.8308  0.5202  0.6737
 8380SOL     OW36772   0.851   2.591   6.172  0.1852 -0.2635 -0.3079
 8380SOL    HW136773   0.907   2.528   6.127 -0.9079 -0.6407 -1.1656
 8380SOL    HW236774   0.798   2.626   6.100 -0.5251 -0.5159  0.0928
 8381SOL     OW36775   1.978   1.844  11.951 -0.4083 -0.3902 -0.4641
 8381SOL    HW136776   1.892   1.803  11.956  0.6196 -2.2143  2.4320
 8381SOL    HW236777   1.962   1.915  12.013  0.6066 -0.1319 -0.4933
 8382SOL     OW36778   3.227   0.351   1.267  0.2942  0.1429  0.3620
 8382SOL    HW136779   3.297   0.289   1.248 -2.3387 -3.0320  1.0891
 8382SOL    HW236780   3.206   0.389   1.182 -3.6019 -0.7044  0.9659
 8383SOL     OW36781   3.887   2.578   4.670  0.5657 -0.0786  0.1560
 8383SOL    HW136782   3.973   2.570   4.628  0.5792  1.2392 -0.0773
 8383SOL    HW236783   3.887   2.662   4.716  1.5499 -1.3415  2.4669
 8384SOL     OW36784   1.915   4.290   5.106 -0.3705  0.4364  0.0655
 8384SOL    HW136785   1.983   4.298   5.039  0.2035 -2.7764  0.2261
 8384SOL    HW236786   1.972   4.300   5.182 -0.4360 -0.7562  0.2709
 8385SOL     OW36787   4.232   0.748   8.154 -0.1818  0.2612 -0.1907
 8385SOL    HW136788   4.193   0.836   8.162 -0.9654  0.0137 -1.2721
 8385SOL    HW236789   4.269   0.748   8.066  2.5935  3.4028  0.9555
 8386SOL     OW36790   0.668   1.462   5.251  0.2063 -0.5589 -0.3025
 8386SOL    HW136791   0.718   1.387   5.285 -0.0840 -2.4533 -4.0599
 8386SOL    HW236792   0.591   1.461   5.308  0.4452 -0.2331  0.0207
 8387SOL     OW36793   1.920   1.073   9.267  0.2531 -0.0930 -0.2705
 8387SOL    HW136794   1.952   1.162   9.281  0.1163 -0.3065  1.5033
 8387SOL    HW236795   2.002   1.025   9.250 -0.6997 -0.9438 -2.4440
 8388SOL     OW36796   2.986   0.458   0.877 -0.6280 -0.7893 -0.3891
 8388SOL    HW136797   3.015   0.512   0.803  0.5466 -1.7961 -0.6510
 8388SOL    HW236798   3.056   0.394   0.871  1.1575  1.1194 -0.0984
 8389SOL     OW36799   2.657   3.336   3.465  0.2892  0.0610  0.1422
 8389SOL    HW136800   2.567   3.354   3.440  0.3018 -0.1821 -0.0639
 8389SOL    HW236801   2.676   3.405   3.529  0.8582  1.8905 -2.0059
 8390SOL     OW36802   3.249   2.182   0.720  0.8431 -0.2461 -0.4060
 8390SOL    HW136803   3.218   2.179   0.629 -1.4230  4.0927  0.2365
 8390SOL    HW236804   3.165   2.191   0.765  1.1282 -1.4880  0.3595
 8391SOL     OW36805   1.095   3.182   2.815  0.5254  0.5969 -0.3402
 8391SOL    HW136806   1.079   3.274   2.794 -2.0853 -0.1578 -1.6945
 8391SOL    HW236807   1.188   3.183   2.793  0.1875 -0.0334 -1.7716
 8392SOL     OW36808   3.411   4.132   6.038  0.9862 -0.7699 -0.5083
 8392SOL    HW136809   3.422   4.064   6.105 -0.4715  1.3708  1.8960
 8392SOL    HW236810   3.503   4.155   6.041  0.7299  0.1321  0.3697
 8393SOL     OW36811   1.913   4.459   6.460  0.0294  0.1488 -0.2609
 8393SOL    HW136812   1.933   4.467   6.366 -3.2988  0.5684 -0.9194
 8393SOL    HW236813   1.821   4.431   6.462 -0.3315  1.3867  0.2108
 8394SOL     OW36814   2.991   3.565   8.507  0.4574 -0.2590  0.0641
 8394SOL    HW136815   2.916   3.601   8.461 -0.6780 -0.8415  1.4590
 8394SOL    HW236816   3.000   3.478   8.470  0.7757 -1.2784  2.5524
 8395SOL     OW36817   1.148   0.862   5.561  0.0191 -0.2106  0.7860
 8395SOL    HW136818   1.207   0.814   5.619 -1.9603 -2.4271  0.9758
 8395SOL    HW236819   1.069   0.807   5.555  0.5110 -0.9782  1.3224
 8396SOL     OW36820   1.047   3.081   2.385  0.0564  0.2914  0.2171
 8396SOL    HW136821   1.100   3.025   2.443 -0.7904 -2.6274 -1.8407
 8396SOL    HW236822   1.111   3.091   2.314  2.3328 -0.3695  2.1475
 8397SOL     OW36823   2.135   1.196  10.397  0.4000 -0.1787 -0.2392
 8397SOL    HW136824   2.216   1.231  10.362 -1.0251  2.7274 -0.5701
 8397SOL    HW236825   2.149   1.198  10.492 -0.6795 -1.5640 -0.0452
 8398SOL     OW36826   3.209   4.072  16.572 -0.1130 -0.8516 -0.3309
 8398SOL    HW136827   3.152   4.094  16.646 -1.2625 -0.8928 -1.2099
 8398SOL    HW236828   3.288   4.116  16.605 -0.4777 -1.1968  1.0079
 8399SOL     OW36829   0.258   4.190  15.500 -0.0879  0.0357 -0.2118
 8399SOL    HW136830   0.250   4.229  15.587 -1.2387 -1.6355  0.4327
 8399SOL    HW236831   0.350   4.206  15.475 -0.1883 -0.6413 -1.0274
 8400SOL     OW36832   2.711   2.448   6.383  0.1160 -0.1215  0.5418
 8400SOL    HW136833   2.762   2.368   6.392  1.1000  0.1012 -2.7601
 8400SOL    HW236834   2.773   2.519   6.363  0.2143 -0.6125 -0.9118
 8401SOL     OW36835   3.739   4.500   3.318 -0.1040 -0.1755  0.6191
 8401SOL    HW136836   3.660   4.476   3.268 -0.2348 -0.9173  1.1858
 8401SOL    HW236837   3.756   4.418   3.363 -1.0099 -0.4730  0.4255
 8402SOL     OW36838   3.645   4.148   6.299 -0.4638 -0.2947  0.7616
 8402SOL    HW136839   3.596   4.228   6.320 -0.2502 -0.3717  1.5349
 8402SOL    HW236840   3.657   4.157   6.204  1.4356 -0.9060  0.9458
 8403SOL     OW36841   3.731   0.478   1.074 -0.4825 -0.1999 -0.1921
 8403SOL    HW136842   3.796   0.505   1.139 -1.1751  1.8535 -0.3539
 8403SOL    HW236843   3.693   0.403   1.120 -1.4230  0.7647  0.5799
 8404SOL     OW36844   4.191   0.875   2.555 -0.3137  0.5716  0.6474
 8404SOL    HW136845   4.272   0.925   2.561  0.1658  0.1799 -2.1342
 8404SOL    HW236846   4.232   0.788   2.549  0.3003  0.9930 -1.3661
 8405SOL     OW36847   3.843   2.938   0.275  0.2485  0.1685 -0.4841
 8405SOL    HW136848   3.819   2.927   0.367 -0.1640 -0.3718 -0.6591
 8405SOL    HW236849   3.787   2.870   0.238 -0.6812  0.2213  0.8105
 8406SOL     OW36850   0.127   4.193   6.099 -0.4154 -0.1523  0.0428
 8406SOL    HW136851   0.203   4.148   6.061 -0.2638 -0.4092  0.6547
 8406SOL    HW236852   0.063   4.179   6.029  0.9266  1.0613 -1.4376
 8407SOL     OW36853   4.264   0.567  10.509  0.0015  0.1944  0.2076
 8407SOL    HW136854   4.237   0.476  10.522 -1.3230  0.7714  1.4042
 8407SOL    HW236855   4.293   0.599  10.594  0.7343 -1.0763  0.4513
 8408SOL     OW36856   1.677   1.912   2.334  0.1244 -0.3327 -0.2769
 8408SOL    HW136857   1.695   1.840   2.272 -0.4256 -0.4750 -0.2672
 8408SOL    HW236858   1.764   1.950   2.342  0.0997 -0.6098  1.2097
 8409SOL     OW36859   1.726   1.004  11.538  0.0180 -0.1971 -0.4574
 8409SOL    HW136860   1.712   1.073  11.602 -0.7844 -3.0427  2.4173
 8409SOL    HW236861   1.744   0.936  11.603 -0.9439 -1.9122 -1.9813
 8410SOL     OW36862   2.964   0.165  14.301  0.4403  0.1506 -0.5377
 8410SOL    HW136863   2.967   0.087  14.356  0.6268 -1.0154 -2.2040
 8410SOL    HW236864   3.053   0.154  14.268  0.6325 -3.6126  1.1651
 8411SOL     OW36865   1.007   3.429  13.673  0.1439 -0.3101  0.4428
 8411SOL    HW136866   1.044   3.419  13.760 -0.8991  1.5209  1.0863
 8411SOL    HW236867   1.018   3.522  13.654  0.3562 -0.3880  0.1679
 8412SOL     OW36868   3.544   3.165   3.139  0.6688  0.0963  0.3183
 8412SOL    HW136869   3.509   3.199   3.221 -1.4372  0.4067 -0.7212
 8412SOL    HW236870   3.465   3.176   3.086  1.6169  0.6036 -0.9993
 8413SOL     OW36871   0.491   1.159  13.296 -0.0089  0.6009  0.3841
 8413SOL    HW136872   0.532   1.245  13.307 -1.0496  0.9984  1.1970
 8413SOL    HW236873   0.493   1.141  13.389 -0.7069  0.7326  0.4319
 8414SOL     OW36874   3.506   3.230  16.667 -0.4790 -0.8021 -0.1486
 8414SOL    HW136875   3.565   3.176  16.615 -1.5317 -0.4028 -1.7792
 8414SOL    HW236876   3.442   3.242  16.597  0.9620  0.8615 -1.1841
 8415SOL     OW36877   3.954   0.711   2.578 -0.2089  0.4945 -0.4120
 8415SOL    HW136878   3.872   0.754   2.554 -0.8819 -0.6518 -0.1515
 8415SOL    HW236879   4.013   0.786   2.580 -1.8755  1.7418  1.4268
 8416SOL     OW36880   4.137   2.555   2.829  0.1192  0.3099  0.1026
 8416SOL    HW136881   4.078   2.481   2.845 -0.6968  0.6546 -1.3343
 8416SOL    HW236882   4.220   2.536   2.874  0.4373 -0.7976 -0.9791
 8417SOL     OW36883   0.093   0.824  14.333 -0.6057  0.0694 -0.1371
 8417SOL    HW136884   0.008   0.780  14.327 -0.8984  0.7051 -0.7863
 8417SOL    HW236885   0.125   0.801  14.246 -0.3774 -1.3346  0.3183
 8418SOL     OW36886   0.038   4.268  16.575  0.2767 -0.0905  0.4908
 8418SOL    HW136887   0.130   4.272  16.601 -0.0947  1.8310  1.5757
 8418SOL    HW236888   0.032   4.174  16.560 -0.3094 -0.1358  1.0031
 8419SOL     OW36889   0.085   0.483   4.446 -0.1309 -0.1048  1.0128
 8419SOL    HW136890   0.058   0.568   4.481 -0.9616  0.2079 -0.3640
 8419SOL    HW236891   0.143   0.450   4.514 -0.2884  0.5182  1.4461
 8420SOL     OW36892   3.612   1.644   2.847 -0.0434 -0.4487 -0.4119
 8420SOL    HW136893   3.623   1.587   2.924 -0.4244  1.8289  1.3405
 8420SOL    HW236894   3.526   1.619   2.814 -1.2242  2.6162  0.3493
 8421SOL     OW36895   4.272   4.135   7.361 -0.2267  0.9012  0.6368
 8421SOL    HW136896   4.286   4.041   7.355  1.5032  1.2441 -0.5524
 8421SOL    HW236897   4.331   4.172   7.295 -0.1516 -0.7539 -0.2197
 8422SOL     OW36898   4.569   1.546   7.749 -0.4533 -0.2316  0.0754
 8422SOL    HW136899   4.632   1.497   7.696 -2.0691 -0.2336 -1.8349
 8422SOL    HW236900   4.636   1.569   7.812 -1.2090 -1.1587  1.2081
 8423SOL     OW36901   2.073   1.552  15.108 -0.1704  0.1271  0.0116
 8423SOL    HW136902   2.098   1.644  15.117  2.2123 -0.4156 -1.0548
 8423SOL    HW236903   2.149   1.515  15.061  0.2195  0.7935  0.1189
 8424SOL     OW36904   4.134   3.719  15.564  0.2333 -0.5695 -0.0171
 8424SOL    HW136905   4.183   3.638  15.548  0.4095 -0.2193 -1.2684
 8424SOL    HW236906   4.173   3.750  15.646 -1.9730  0.9887  0.4491
 8425SOL     OW36907   3.515   3.090  16.915 -0.3134  0.5315  0.1394
 8425SOL    HW136908   3.497   3.158  16.850  0.0165  0.5454  0.0634
 8425SOL    HW236909   3.608   3.111  16.915 -0.9194  3.2732  1.9888
 8426SOL     OW36910   2.441   2.057   7.570  0.4301 -0.3094 -0.5747
 8426SOL    HW136911   2.383   1.981   7.575 -0.1593  0.2757  1.7599
 8426SOL    HW236912   2.519   2.029   7.618  1.5240 -0.2213 -2.3004
 8427SOL     OW36913   1.462   4.357   2.330 -0.7413  0.3190  0.1470
 8427SOL    HW136914   1.412   4.418   2.383 -0.5088  1.0138 -0.4286
 8427SOL    HW236915   1.453   4.390   2.240  0.7450  0.8233  0.1767
 8428SOL     OW36916   0.628   4.573  12.627  0.0304  0.3879 -0.1069
 8428SOL    HW136917   0.699   4.509  12.633  1.1130  1.4796 -1.4230
 8428SOL    HW236918   0.620   4.583  12.532 -1.1778 -1.8728 -0.2445
 8429SOL     OW36919   2.701   3.148   3.675 -0.1884  0.3140 -0.0205
 8429SOL    HW136920   2.772   3.209   3.694 -0.5532  0.2406  1.6335
 8429SOL    HW236921   2.688   3.176   3.585  0.4247  2.4959  0.5676
 8430SOL     OW36922   0.585   2.316   7.181 -0.6998 -0.0401  0.3500
 8430SOL    HW136923   0.613   2.228   7.157  0.3164  0.2312  0.5256
 8430SOL    HW236924   0.537   2.304   7.263  1.0547  2.2890  1.7228
 8431SOL     OW36925   0.653   2.167   3.947 -0.0907  0.0403  0.4557
 8431SOL    HW136926   0.627   2.145   3.858  3.4384  1.6531 -0.9477
 8431SOL    HW236927   0.731   2.221   3.934  0.5800 -0.5718  1.8838
 8432SOL     OW36928   2.934   2.865  14.120  0.2868  0.4539 -0.4212
 8432SOL    HW136929   2.844   2.853  14.150  0.6230  0.0792  0.4333
 8432SOL    HW236930   2.990   2.857  14.197  0.2391  0.5242 -0.3779
 8433SOL     OW36931   1.945   2.764   8.876  0.1180  0.3455  0.1735
 8433SOL    HW136932   2.032   2.744   8.841  0.2552  1.4469 -0.1252
 8433SOL    HW236933   1.973   2.772   8.967  0.6020  2.0987 -0.1357
 8434SOL     OW36934   2.672   2.853   4.941  0.2290 -0.2819  0.1785
 8434SOL    HW136935   2.666   2.948   4.949  2.6642 -0.1764  0.9312
 8434SOL    HW236936   2.762   2.853   4.907  0.5714  1.2822  1.0419
 8435SOL     OW36937   2.017   4.656  14.760  0.5173 -0.1633 -0.4154
 8435SOL    HW136938   1.968   4.598  14.820  0.6039 -0.5639 -0.7328
 8435SOL    HW236939   1.954   4.728  14.763  0.6896  0.0047 -0.9936
 8436SOL     OW36940   0.771   3.165  15.578 -0.6134  0.8534 -0.6966
 8436SOL    HW136941   0.752   3.125  15.494  2.3046 -1.3951 -0.2858
 8436SOL    HW236942   0.866   3.176  15.570 -0.1753  0.4883  3.5719
 8437SOL     OW36943   2.663   4.209   5.507  0.3301 -0.2316 -0.4307
 8437SOL    HW136944   2.730   4.190   5.441 -0.0448 -3.7117  0.2214
 8437SOL    HW236945   2.622   4.124   5.517 -1.0985  0.7088  1.6709
 8438SOL     OW36946   0.620   1.410   9.769 -0.3632 -0.0427  0.5934
 8438SOL    HW136947   0.648   1.501   9.765 -0.6575 -0.1044 -3.0738
 8438SOL    HW236948   0.696   1.361   9.738  0.6164  0.7459  1.7458
 8439SOL     OW36949   1.431   3.132   8.315 -0.5796  0.5669  0.1707
 8439SOL    HW136950   1.480   3.059   8.276  0.8036  0.9995  1.1150
 8439SOL    HW236951   1.454   3.189   8.241  0.6052  0.5993  0.5622
 8440SOL     OW36952   4.270   4.331   6.353 -0.0653 -0.1169  0.1121
 8440SOL    HW136953   4.296   4.353   6.263  1.0560  1.7249  0.8869
 8440SOL    HW236954   4.200   4.391   6.377 -0.7367 -1.2111  0.8653
 8441SOL     OW36955   0.843   3.961   5.772 -0.1136  0.3943  0.2729
 8441SOL    HW136956   0.870   3.883   5.821 -0.2224 -0.5108 -1.1005
 8441SOL    HW236957   0.894   3.947   5.693  0.4127 -0.0634  0.6904
 8442SOL     OW36958   3.045   4.518  17.616  0.0534  0.0594  0.5947
 8442SOL    HW136959   3.089   4.475  17.689  0.0367  0.8780  1.0887
 8442SOL    HW236960   3.078   4.606  17.634 -1.3064  0.2946  1.9418
 8443SOL     OW36961   3.272   2.295   2.068 -0.6005 -0.0605  0.0355
 8443SOL    HW136962   3.289   2.229   2.135  1.6036  0.7861  0.3333
 8443SOL    HW236963   3.355   2.342   2.076 -1.2658  1.5486 -2.2801
 8444SOL     OW36964   3.881   2.712   5.565 -0.5871  0.4514 -0.2108
 8444SOL    HW136965   3.882   2.808   5.562 -1.0063  0.4123 -1.6821
 8444SOL    HW236966   3.811   2.688   5.626  0.5471  1.3976  1.4754
 8445SOL     OW36967   1.365   4.023   6.008  0.0813  0.5372 -0.6748
 8445SOL    HW136968   1.335   3.968   6.081 -0.4178 -0.1644 -1.4134
 8445SOL    HW236969   1.354   3.959   5.937 -2.2106  0.3336 -0.1324
 8446SOL     OW36970   3.882   2.481   1.402 -0.2511  0.6079 -0.3214
 8446SOL    HW136971   3.818   2.501   1.470 -0.3176  1.2299 -0.5714
 8446SOL    HW236972   3.886   2.386   1.399  0.6364  0.6096  0.6771
 8447SOL     OW36973   1.360   0.335   2.309 -0.3871 -0.0086 -0.5825
 8447SOL    HW136974   1.368   0.413   2.254  0.0170 -0.4862 -1.1922
 8447SOL    HW236975   1.428   0.341   2.376  0.6752 -4.0191 -1.3071
 8448SOL     OW36976   2.268   3.531  14.394 -0.0127 -0.0481 -0.5837
 8448SOL    HW136977   2.225   3.463  14.447  1.2158 -0.8058 -0.5550
 8448SOL    HW236978   2.346   3.555  14.444  0.0823 -1.2172 -0.1556
 8449SOL     OW36979   2.695   3.160   4.236 -0.0394  0.5135  0.0015
 8449SOL    HW136980   2.692   3.187   4.145  1.9766  1.3272  0.1781
 8449SOL    HW236981   2.769   3.100   4.222  0.1921  1.0380 -1.0202
 8450SOL     OW36982   2.289   0.782   5.465 -0.2492 -0.2673 -1.0088
 8450SOL    HW136983   2.206   0.741   5.492  0.5561 -2.5609 -2.0298
 8450SOL    HW236984   2.301   0.843   5.538  0.5323  0.2625 -1.5814
 8451SOL     OW36985   0.833   3.168   2.548  0.2730 -0.8565  0.2955
 8451SOL    HW136986   0.888   3.168   2.470  0.4418 -2.3475  0.4089
 8451SOL    HW236987   0.865   3.091   2.595  2.6974 -0.2079 -0.3178
 8452SOL     OW36988   2.919   3.622   5.220  0.4813  0.0468 -0.0508
 8452SOL    HW136989   2.852   3.614   5.288 -1.9801  1.8867 -2.2816
 8452SOL    HW236990   2.967   3.540   5.232  0.9982  0.0908 -1.8434
 8453SOL     OW36991   1.201   1.907   4.498 -0.1871 -0.1803 -0.1811
 8453SOL    HW136992   1.292   1.937   4.508  0.0509 -1.4160  1.5237
 8453SOL    HW236993   1.194   1.900   4.403  1.3450 -1.3378 -0.2201
 8454SOL     OW36994   2.490   3.827   6.437  0.0788 -0.0080 -0.1134
 8454SOL    HW136995   2.540   3.879   6.501 -0.1989 -1.7601  1.5251
 8454SOL    HW236996   2.410   3.875   6.455 -0.4219 -0.9247  0.0786
 8455SOL     OW36997   4.680   1.118   7.381  0.2088 -0.0635 -0.2700
 8455SOL    HW136998   4.701   1.206   7.411  1.8574 -0.4803 -0.1603
 8455SOL    HW236999   4.627   1.118   7.301 -0.3404  1.3838  0.1067
 8456SOL     OW37000   1.436   1.964   4.386  0.8018  0.0603 -0.4926
 8456SOL    HW137001   1.505   1.967   4.453 -0.0757 -0.1632  0.4159
 8456SOL    HW237002   1.417   2.058   4.387  2.3347  0.3515  3.8673
 8457SOL     OW37003   4.345   2.713   2.101  0.0435 -0.2571  0.5799
 8457SOL    HW137004   4.284   2.782   2.123 -0.0425 -1.0305  2.7938
 8457SOL    HW237005   4.301   2.661   2.033  2.7725 -1.0059 -0.6479
 8458SOL     OW37006   2.780   4.340   5.882 -0.5354 -0.2157  0.1085
 8458SOL    HW137007   2.874   4.357   5.890 -0.4458  0.0596 -1.5115
 8458SOL    HW237008   2.758   4.389   5.803 -0.4089 -1.0950 -0.4681
 8459SOL     OW37009   0.294   2.635   2.748 -0.0874  0.1254  0.3284
 8459SOL    HW137010   0.376   2.679   2.722  1.6173 -3.4915 -0.3803
 8459SOL    HW237011   0.316   2.548   2.715 -0.2259  0.0843  0.3449
 8460SOL     OW37012   1.085   2.337  13.622 -0.3712 -0.1413 -0.4593
 8460SOL    HW137013   1.054   2.248  13.637  4.3590 -1.6181  0.4385
 8460SOL    HW237014   1.021   2.369  13.559  0.9480  4.0136  0.2751
 8461SOL     OW37015   4.513   4.315   7.983  0.1893 -0.3289 -0.5628
 8461SOL    HW137016   4.493   4.343   8.072 -0.0564 -2.7243  0.1283
 8461SOL    HW237017   4.535   4.223   8.000 -2.0291 -0.7372  0.0597
 8462SOL     OW37018   0.551   3.061   2.742  0.2096  0.2824  0.3763
 8462SOL    HW137019   0.605   2.983   2.744  3.6907  2.6733  0.4171
 8462SOL    HW237020   0.581   3.111   2.819 -1.3317  2.5590 -0.4855
 8463SOL     OW37021   2.917   3.039   2.771 -0.3199  0.2257  0.5599
 8463SOL    HW137022   2.834   3.067   2.732  0.2261  1.1415  0.0601
 8463SOL    HW237023   2.956   3.123   2.794 -2.6362  0.7660  2.5533
 8464SOL     OW37024   4.626   0.802   8.164  0.5485 -0.9221  0.4152
 8464SOL    HW137025   4.573   0.791   8.085  0.4131  1.4160  0.1694
 8464SOL    HW237026   4.709   0.771   8.130  0.8608  0.5623 -0.1901
 8465SOL     OW37027   2.485   1.175   6.271  0.3598 -0.3675  0.4484
 8465SOL    HW137028   2.525   1.248   6.317  0.0738  0.2750 -0.3333
 8465SOL    HW237029   2.417   1.206   6.212  0.5483  3.0356  2.0328
 8466SOL     OW37030   4.228   2.527   9.709  0.4698  0.7738 -0.0309
 8466SOL    HW137031   4.288   2.456   9.736 -0.3014 -0.0851 -0.5734
 8466SOL    HW237032   4.159   2.479   9.663 -0.1560  1.5176  0.1395
 8467SOL     OW37033   4.579   2.017  15.066  0.9609 -0.2154  0.5259
 8467SOL    HW137034   4.509   1.975  15.016  1.7082 -2.0357  0.9935
 8467SOL    HW237035   4.623   1.939  15.101  2.0749  0.2672  0.2222
 8468SOL     OW37036   2.913   1.308   6.697  0.1264  0.0060  0.3117
 8468SOL    HW137037   2.994   1.336   6.654 -1.3809  1.2286 -1.6822
 8468SOL    HW237038   2.860   1.290   6.619  0.5204  2.5299 -0.5270
 8469SOL     OW37039   3.990   2.584  16.134  0.6744 -0.0154  0.9111
 8469SOL    HW137040   3.976   2.548  16.222 -1.0119  2.1142  1.5219
 8469SOL    HW237041   4.080   2.567  16.105  0.1730 -1.9323  0.4861
 8470SOL     OW37042   4.616   0.874  13.491  0.7459 -0.4697  0.0670
 8470SOL    HW137043   4.657   0.827  13.564 -0.3637 -0.7374  0.5179
 8470SOL    HW237044   4.688   0.922  13.451 -0.2724  0.8104 -0.2208
 8471SOL     OW37045   4.138   0.576   3.502  0.1975  0.2225 -0.5325
 8471SOL    HW137046   4.049   0.612   3.503  0.3899  0.6879 -0.1855
 8471SOL    HW237047   4.147   0.590   3.408  0.9366 -1.2317 -0.6758
 8472SOL     OW37048   0.760   0.037  11.162  0.5509  0.0456 -0.4252
 8472SOL    HW137049   0.749   0.127  11.134 -0.5909  0.2118  0.5476
 8472SOL    HW237050   0.841   0.024  11.113  0.5207 -0.9141 -0.2333
 8473SOL     OW37051   2.522   2.739   8.345 -0.0364  0.0111 -0.2651
 8473SOL    HW137052   2.527   2.712   8.253  0.5709 -1.9873  0.3387
 8473SOL    HW237053   2.527   2.834   8.349  1.5469 -0.0270 -1.2816
 8474SOL     OW37054   4.226   2.371   5.125 -0.1465  0.1734 -0.5970
 8474SOL    HW137055   4.250   2.304   5.062 -1.5627  1.4899 -2.5187
 8474SOL    HW237056   4.165   2.324   5.183 -1.6305 -0.9522 -3.0891
 8475SOL     OW37057   3.085   3.266   8.370 -0.5791  0.6189  0.0584
 8475SOL    HW137058   3.169   3.304   8.395 -0.3508  0.2355 -0.1258
 8475SOL    HW237059   3.032   3.252   8.448 -0.4907  1.3000  0.2448
 8476SOL     OW37060   3.523   2.410   2.169 -0.3149  0.2087 -0.1709
 8476SOL    HW137061   3.483   2.482   2.217 -1.7606  1.2496 -2.9553
 8476SOL    HW237062   3.544   2.354   2.244 -2.4449 -0.1372  0.1628
 8477SOL     OW37063   0.324   1.641  17.157  0.0951 -0.0896 -0.1340
 8477SOL    HW137064   0.382   1.691  17.100  0.7763 -0.7707 -0.0458
 8477SOL    HW237065   0.272   1.714  17.190  1.2467 -0.2268  1.9650
 8478SOL     OW37066   3.064   1.703   6.663  0.0679  0.1766  0.4213
 8478SOL    HW137067   3.020   1.652   6.731  2.4032 -0.7097  1.2501
 8478SOL    HW237068   3.002   1.698   6.590  2.1608 -1.2067 -1.2346
 8479SOL     OW37069   4.366   2.504   1.654 -0.5480  0.5269 -0.0101
 8479SOL    HW137070   4.274   2.494   1.631 -0.5669  3.2821 -1.0826
 8479SOL    HW237071   4.356   2.484   1.747 -0.3840 -3.1627 -0.7812
 8480SOL     OW37072   2.581   4.651   1.957 -0.4161 -0.6928 -0.3651
 8480SOL    HW137073   2.558   4.712   2.028  0.1661 -0.7293 -0.1446
 8480SOL    HW237074   2.502   4.612   1.920 -1.1563 -0.2423  0.7500
 8481SOL     OW37075   2.985   0.108   4.038  0.1195  0.3409  0.0794
 8481SOL    HW137076   2.912   0.146   4.086  0.6060  0.9862  0.3025
 8481SOL    HW237077   3.036   0.187   4.021 -0.7031  0.4658 -1.8585
 8482SOL     OW37078   4.069   1.567  13.753 -0.6276  0.0871 -0.1628
 8482SOL    HW137079   4.127   1.630  13.795  0.9193 -1.7264  0.4189
 8482SOL    HW237080   4.031   1.528  13.832  1.6082 -3.6515 -0.9139
 8483SOL     OW37081   1.251   2.143   7.021  0.2334  0.1863 -0.0758
 8483SOL    HW137082   1.282   2.057   6.991  0.1013 -0.0138  0.3501
 8483SOL    HW237083   1.320   2.159   7.086  1.0544 -2.4091 -0.2955
 8484SOL     OW37084   3.499   0.390   4.749 -0.4578  0.9465  0.5778
 8484SOL    HW137085   3.565   0.328   4.718 -2.2682 -0.6730 -0.0522
 8484SOL    HW237086   3.472   0.445   4.675 -0.3735  2.0478  1.3566
 8485SOL     OW37087   0.094   1.054   8.332  0.4062  0.3770 -0.0632
 8485SOL    HW137088   0.114   0.962   8.318  1.1729  0.1591  2.4565
 8485SOL    HW237089   0.129   1.092   8.251  2.0037 -4.2548 -1.5504
 8486SOL     OW37090   1.902   2.459   6.857 -0.8944  0.4120 -0.1152
 8486SOL    HW137091   1.948   2.451   6.941 -0.1928  0.0064 -0.5357
 8486SOL    HW237092   1.815   2.496   6.874 -0.2177  2.1908 -0.4861
 8487SOL     OW37093   0.205   3.840   6.178  0.9575  0.1256  0.1353
 8487SOL    HW137094   0.148   3.764   6.164  1.3221 -0.1129 -0.0593
 8487SOL    HW237095   0.207   3.887   6.095 -1.4401  2.6100  1.4997
 8488SOL     OW37096   3.477   0.804   7.910 -0.1827 -0.0394  0.4266
 8488SOL    HW137097   3.403   0.781   7.967 -0.5722  0.8439  0.2903
 8488SOL    HW237098   3.551   0.799   7.970  0.3082  0.8756 -0.0924
 8489SOL     OW37099   4.661   3.928   8.428 -0.6162 -0.3348  0.2209
 8489SOL    HW137100   4.713   3.879   8.492  1.7929  0.1074 -1.3816
 8489SOL    HW237101   4.697   3.901   8.344  0.3349 -1.6834  1.0640
 8490SOL     OW37102   0.651   1.381   8.881  0.5357  0.1002 -0.2378
 8490SOL    HW137103   0.701   1.379   8.800  2.6064 -1.6157  1.0643
 8490SOL    HW237104   0.608   1.466   8.882 -0.1914 -0.2507 -1.5030
 8491SOL     OW37105   0.893   2.730  17.247  0.0313 -0.2554 -0.3069
 8491SOL    HW137106   0.945   2.729  17.328  1.8611 -1.8291 -1.4981
 8491SOL    HW237107   0.811   2.693  17.280  0.0421 -0.1735 -0.1875
 8492SOL     OW37108   0.788   0.559  12.873 -0.7028  0.4082 -0.1274
 8492SOL    HW137109   0.832   0.481  12.909 -1.1265  0.1936 -0.0798
 8492SOL    HW237110   0.699   0.523  12.869 -0.7243  0.4677 -0.1888
 8493SOL     OW37111   2.158   1.015   5.375  0.1031 -0.4498 -0.4242
 8493SOL    HW137112   2.140   1.067   5.453  4.3790 -1.8074  1.4780
 8493SOL    HW237113   2.245   0.977   5.386 -0.9476 -3.1912 -1.4428
 8494SOL     OW37114   4.372   4.608   9.557  0.2625 -0.2663 -0.2357
 8494SOL    HW137115   4.367   4.605   9.462  1.1706  1.0222 -0.3299
 8494SOL    HW237116   4.459   4.574   9.577  1.3139  1.3533 -2.1154
 8495SOL     OW37117   2.274   2.679  16.583  0.5391  0.1190 -0.0080
 8495SOL    HW137118   2.335   2.752  16.575 -2.9721  2.8723 -1.8934
 8495SOL    HW237119   2.325   2.598  16.582 -0.1606 -0.3597  2.5003
 8496SOL     OW37120   3.087   4.355   3.850  0.1120 -0.0383  0.5498
 8496SOL    HW137121   3.120   4.336   3.762  0.1259  1.9751  0.1234
 8496SOL    HW237122   3.164   4.396   3.891  0.3694 -0.1834  0.2122
 8497SOL     OW37123   0.004   1.210   4.561  0.0595  0.2371  0.4569
 8497SOL    HW137124   0.043   1.262   4.491 -0.0293 -1.1186 -0.6137
 8497SOL    HW237125   4.727   1.127   4.516 -1.2139 -0.3098  1.9431
 8498SOL     OW37126   1.256   3.506   1.894  0.1797 -0.6785  0.3239
 8498SOL    HW137127   1.211   3.485   1.812 -0.7033  0.3653  0.5468
 8498SOL    HW237128   1.284   3.596   1.875 -1.7764 -0.4430 -1.4780
 8499SOL     OW37129   1.180   1.379   3.553 -0.2862  0.4624 -0.2539
 8499SOL    HW137130   1.258   1.433   3.559  0.6550 -0.8650 -0.5779
 8499SOL    HW237131   1.120   1.428   3.609 -0.3164  2.5081 -2.0818
 8500SOL     OW37132   2.054   4.481   4.520  0.1897  0.1270 -0.8951
 8500SOL    HW137133   2.129   4.537   4.540 -0.4520  0.0092  1.8494
 8500SOL    HW237134   2.090   4.395   4.494 -1.2045 -0.9061  0.6070
 8501SOL     OW37135   0.390   2.440   3.644 -0.5765  0.1849  0.1963
 8501SOL    HW137136   0.335   2.426   3.721 -1.3851 -2.3962 -0.8593
 8501SOL    HW237137   0.390   2.535   3.642  0.5470  0.1672 -0.6763
 8502SOL     OW37138   3.086   3.171   4.422  0.3109  0.1899  0.2214
 8502SOL    HW137139   2.999   3.210   4.436 -0.1202 -0.4900 -0.5338
 8502SOL    HW237140   3.068   3.079   4.405 -2.2271 -0.0028  4.0956
 8503SOL     OW37141   2.852   2.917   6.798  0.0399  0.4107 -0.4042
 8503SOL    HW137142   2.806   2.836   6.774 -0.3194  0.0655  1.4720
 8503SOL    HW237143   2.873   2.961   6.716  1.5399  0.4903  0.0345
 8504SOL     OW37144   3.187   0.338   4.594 -0.0759  0.2234 -0.4459
 8504SOL    HW137145   3.234   0.256   4.584 -2.6138 -1.2377 -0.3723
 8504SOL    HW237146   3.100   0.299   4.585 -0.3867  0.7326  0.2965
 8505SOL     OW37147   2.256   2.158   2.224 -0.4167 -0.3764  0.4842
 8505SOL    HW137148   2.207   2.091   2.175 -1.1792 -0.1412  0.9242
 8505SOL    HW237149   2.204   2.232   2.192  1.6003  2.2240  3.2792
 8506SOL     OW37150   0.741   4.208   0.254  0.0945  0.7938 -0.0879
 8506SOL    HW137151   0.765   4.196   0.162 -2.9931  2.8076 -1.1477
 8506SOL    HW237152   0.737   4.304   0.259  1.5178  0.6698  3.3379
 8507SOL     OW37153   1.124   3.020  11.696  0.4317 -0.3807  0.0928
 8507SOL    HW137154   1.086   3.067  11.770 -0.8445 -0.1452 -0.7126
 8507SOL    HW237155   1.220   3.023  11.693  0.4725 -1.3104  0.3523
 8508SOL     OW37156   3.027   2.870   3.553 -0.3422 -0.3091 -0.1037
 8508SOL    HW137157   3.025   2.960   3.523 -0.2233 -0.0122  0.7939
 8508SOL    HW237158   3.026   2.876   3.648 -1.1224 -2.8600  0.0456
 8509SOL     OW37159   4.140   4.695   6.532 -0.0677 -0.2869  0.1751
 8509SOL    HW137160   4.193   4.721   6.456 -1.5237 -1.2971 -1.1976
 8509SOL    HW237161   4.135   0.033   6.586 -0.5751  0.5334 -1.0471
 8510SOL     OW37162   3.505   1.095   6.063 -0.2979  0.1536 -0.7956
 8510SOL    HW137163   3.458   1.107   5.981 -0.8499 -0.2937 -0.5455
 8510SOL    HW237164   3.574   1.161   6.056  0.1687 -0.0093  2.1005
 8511SOL     OW37165   0.354   4.451   9.814 -0.0464  0.2029 -0.4707
 8511SOL    HW137166   0.424   4.458   9.749  0.9502 -3.8756  0.1761
 8511SOL    HW237167   0.339   4.357   9.815 -0.5651  0.2882  0.2991
 8512SOL     OW37168   0.709   3.369   3.815 -0.5592 -0.5957 -0.8325
 8512SOL    HW137169   0.749   3.424   3.748  2.6167 -1.9796 -0.0265
 8512SOL    HW237170   0.621   3.356   3.777 -0.3288 -0.9801 -1.2352
 8513SOL     OW37171   0.194   3.462   1.222  0.3598 -0.1795  0.2867
 8513SOL    HW137172   0.230   3.510   1.296 -0.0701  0.4887  0.0550
 8513SOL    HW237173   0.274   3.413   1.204  1.3532  1.6353 -0.1745
 8514SOL     OW37174   4.427   0.473   0.906 -0.0758 -0.0101  0.1489
 8514SOL    HW137175   4.399   0.408   0.841 -0.2579 -1.7953  2.0052
 8514SOL    HW237176   4.453   0.417   0.979 -0.6272  0.2037  0.5187
 8515SOL     OW37177   1.371   0.649   3.328  0.6294  0.0476  0.0130
 8515SOL    HW137178   1.440   0.582   3.331  0.0282 -0.5427  0.8706
 8515SOL    HW237179   1.412   0.724   3.286  0.5636  0.0582 -0.0301
 8516SOL     OW37180   3.599   1.721   1.606 -0.7131 -0.3080 -0.1382
 8516SOL    HW137181   3.665   1.785   1.635 -2.2206  1.0921  0.2062
 8516SOL    HW237182   3.640   1.640   1.636 -1.6677 -0.3970  0.8926
 8517SOL     OW37183   0.397   4.643   4.572 -0.5124 -0.1398  0.2354
 8517SOL    HW137184   0.385   4.560   4.526  1.3291 -1.1663  1.6120
 8517SOL    HW237185   0.417   4.622   4.664  2.7635  0.1775 -0.4193
 8518SOL     OW37186   0.620   4.204   2.608  0.4438  0.0358  0.8089
 8518SOL    HW137187   0.647   4.282   2.560 -0.6019 -0.3848 -0.4636
 8518SOL    HW237188   0.703   4.156   2.613  0.0842 -0.4460  2.0510
 8519SOL     OW37189   0.501   1.111   8.738  0.2196  0.4128 -0.3429
 8519SOL    HW137190   0.433   1.179   8.731  0.3645  0.5123 -0.7805
 8519SOL    HW237191   0.570   1.148   8.683  0.8139  1.9158  1.4187
 8520SOL     OW37192   1.146   3.260   5.056  0.1151 -0.3309 -0.1494
 8520SOL    HW137193   1.084   3.257   4.984 -0.2223  0.6659  0.0966
 8520SOL    HW237194   1.185   3.343   5.029  0.6882 -0.6159 -0.1829
 8521SOL     OW37195   2.128   0.421   5.198  0.1531 -0.3166 -0.0060
 8521SOL    HW137196   2.061   0.439   5.133  2.9427  1.6870 -2.3260
 8521SOL    HW237197   2.072   0.406   5.274  1.1206  2.6955  1.3396
 8522SOL     OW37198   0.224   2.897   2.614  0.0971  0.1333  0.4205
 8522SOL    HW137199   0.307   2.854   2.631  0.6930  1.4589  0.9239
 8522SOL    HW237200   0.233   2.982   2.659  0.0032 -0.6942  1.9962
 8523SOL     OW37201   2.046   1.890   2.673 -0.6782 -0.5821 -0.3467
 8523SOL    HW137202   2.005   1.844   2.600 -2.6547 -0.8966  0.9526
 8523SOL    HW237203   2.010   1.839   2.746 -0.8802 -0.5676 -0.4358
 8524SOL     OW37204   1.754   1.203  11.717  0.1632  0.0823 -0.1551
 8524SOL    HW137205   1.811   1.246  11.781 -0.4232  0.9173 -0.1892
 8524SOL    HW237206   1.670   1.245  11.739 -1.6968 -3.0515 -1.3685
 8525SOL     OW37207   3.234   1.661   5.911  1.0303  0.0509  0.2295
 8525SOL    HW137208   3.176   1.681   5.985 -1.1289  0.9901 -1.7357
 8525SOL    HW237209   3.304   1.719   5.941 -0.1444  1.8147 -0.5041
 8526SOL     OW37210   0.222   3.945   5.599  0.0028  0.1521 -0.1454
 8526SOL    HW137211   0.311   3.981   5.587  0.3314 -0.4507  0.5450
 8526SOL    HW237212   0.210   3.903   5.513 -0.7136 -1.4807  0.7671
 8527SOL     OW37213   1.186   2.101   2.518  0.4053 -0.5718  0.1108
 8527SOL    HW137214   1.215   2.067   2.434  1.1941 -1.5914  0.7969
 8527SOL    HW237215   1.153   2.025   2.566 -0.7585 -1.1519 -1.6139
 8528SOL     OW37216   4.050   3.016   1.314  0.2176 -0.3053  0.3525
 8528SOL    HW137217   4.000   2.934   1.310  1.2523 -0.9818  1.0805
 8528SOL    HW237218   4.122   2.992   1.372  0.4561  1.9650  0.9760
 8529SOL     OW37219   0.681   1.956   4.133  0.1450  0.0280  0.4381
 8529SOL    HW137220   0.647   1.895   4.067 -2.0642  0.4514  1.1898
 8529SOL    HW237221   0.688   2.037   4.082  2.2390 -0.3257  0.1667
 8530SOL     OW37222   1.780   1.659   4.386 -0.5556 -0.3513 -0.1136
 8530SOL    HW137223   1.780   1.679   4.480  1.7078 -2.7911  0.4130
 8530SOL    HW237224   1.808   1.568   4.387 -1.1515 -0.4856  2.7547
 8531SOL     OW37225   4.677   3.275   6.695  0.2200 -0.1838  0.4212
 8531SOL    HW137226   0.014   3.219   6.688  0.0947 -0.0952 -1.6428
 8531SOL    HW237227   4.724   3.358   6.695 -1.9654  1.0548  1.2180
 8532SOL     OW37228   2.791   1.697   3.439 -0.2809 -0.2080  0.1108
 8532SOL    HW137229   2.792   1.739   3.353  0.9333  0.7086  0.5788
 8532SOL    HW237230   2.750   1.615   3.411 -2.1787  1.0104 -0.6965
 8533SOL     OW37231   3.010   3.453  10.003  0.1400  0.2690  0.7709
 8533SOL    HW137232   3.064   3.389   9.956 -0.2481  1.2956 -1.1004
 8533SOL    HW237233   2.987   3.510   9.929  1.5028  2.4643  2.0260
 8534SOL     OW37234   0.842   2.388   3.330  0.0397 -0.4695 -0.2078
 8534SOL    HW137235   0.816   2.450   3.262 -0.9905  0.4664  1.0494
 8534SOL    HW237236   0.790   2.417   3.404  1.3987 -1.1769  1.0248
 8535SOL     OW37237   4.021   4.718   2.728  0.3505  0.8324  0.3641
 8535SOL    HW137238   3.967   0.032   2.786 -1.2945  0.4173 -0.7784
 8535SOL    HW237239   4.107   4.728   2.769  0.3298 -0.6736  0.7817
 8536SOL     OW37240   2.532   3.237   7.671 -0.6844  0.2707 -0.3655
 8536SOL    HW137241   2.563   3.168   7.730  1.2982  1.7742  0.3404
 8536SOL    HW237242   2.577   3.203   7.594  1.5704 -0.0415  1.1037
 8537SOL     OW37243   3.610   0.992   3.897  0.0668  0.4140  0.3420
 8537SOL    HW137244   3.551   1.028   3.962 -0.6557 -0.7179  0.3140
 8537SOL    HW237245   3.572   1.042   3.825  0.1319 -2.2129 -1.4992
 8538SOL     OW37246   4.639   4.491   6.703 -0.2058  0.2647  0.2281
 8538SOL    HW137247   4.598   4.405   6.703  0.2574  0.0450 -0.7791
 8538SOL    HW237248   4.708   4.491   6.770  0.1663 -0.8090 -0.1588
 8539SOL     OW37249   4.486   2.861  10.455 -0.1109  0.5321  0.4579
 8539SOL    HW137250   4.408   2.915  10.464  0.1459  1.1064 -0.8215
 8539SOL    HW237251   4.455   2.789  10.401  0.3537 -0.0776  1.0008
 8540SOL     OW37252   3.453   3.691   6.880  0.0640 -0.0811  0.6836
 8540SOL    HW137253   3.395   3.622   6.912  1.5143 -1.4452  0.3853
 8540SOL    HW237254   3.432   3.703   6.788  2.8277 -0.4722  0.0097
 8541SOL     OW37255   4.339   3.883  12.399 -0.1461 -0.2348 -0.1614
 8541SOL    HW137256   4.296   3.942  12.460 -2.5653 -1.1064 -1.0388
 8541SOL    HW237257   4.296   3.903  12.316  0.2251 -1.2407 -0.5928
 8542SOL     OW37258   1.030   1.182   3.016 -0.3220  0.3517  0.4794
 8542SOL    HW137259   0.970   1.112   3.044 -1.4437  1.2149  0.2164
 8542SOL    HW237260   1.040   1.233   3.096 -0.0282  1.4695 -0.2691
 8543SOL     OW37261   3.456   2.286   7.037  0.0889  0.1939 -0.4732
 8543SOL    HW137262   3.504   2.368   7.024 -1.8375  1.1993 -1.2347
 8543SOL    HW237263   3.456   2.282   7.133  2.1727 -1.6152 -0.5528
 8544SOL     OW37264   3.687   1.302   9.498  0.2686 -0.1841 -0.2972
 8544SOL    HW137265   3.742   1.358   9.442  0.2376  0.7625  0.6207
 8544SOL    HW237266   3.715   1.218   9.463 -2.3885 -0.3955 -1.8662
 8545SOL     OW37267   4.495   1.115   2.808 -0.4246  0.2233 -0.0249
 8545SOL    HW137268   4.570   1.165   2.778 -0.6619  0.5421 -0.0850
 8545SOL    HW237269   4.448   1.186   2.853  0.4544  0.2526  0.8484
 8546SOL     OW37270   1.392   2.305   3.696 -0.3174 -0.3596  0.0298
 8546SOL    HW137271   1.482   2.323   3.722 -0.4958  1.8339 -0.8399
 8546SOL    HW237272   1.348   2.303   3.781  1.3577 -2.1903  0.8427
 8547SOL     OW37273   1.714   0.211   8.928 -0.0269 -1.1346 -0.2692
 8547SOL    HW137274   1.641   0.237   8.871 -0.5215 -2.1893 -0.1151
 8547SOL    HW237275   1.668   0.174   9.003  2.2707 -0.6658  1.3628
 8548SOL     OW37276   0.345   2.231   5.830 -0.0378 -0.2480  0.3204
 8548SOL    HW137277   0.424   2.207   5.877 -0.2324  0.1322  0.8380
 8548SOL    HW237278   0.322   2.313   5.873  4.0121  0.7556  0.5654
 8549SOL     OW37279   0.309   3.041   4.755 -0.3288  0.3311 -0.4203
 8549SOL    HW137280   0.323   2.946   4.752 -0.8950  0.2377 -0.1948
 8549SOL    HW237281   0.285   3.049   4.662  1.1938  0.0233 -0.8357
 8550SOL     OW37282   1.508   4.632   8.813  0.3698  0.4202  0.0527
 8550SOL    HW137283   1.587   4.658   8.766 -0.1712 -0.6636 -1.4394
 8550SOL    HW237284   1.442   4.667   8.753 -0.7607 -0.2012  0.9184
 8551SOL     OW37285   2.746   4.546   0.528 -0.1967  0.2828 -0.2216
 8551SOL    HW137286   2.658   4.559   0.492 -0.1335  1.6111  0.1086
 8551SOL    HW237287   2.760   4.623   0.583 -0.3234  0.7181 -0.7974
 8552SOL     OW37288   1.900   0.386  10.911  0.9394  0.4811 -0.0814
 8552SOL    HW137289   1.815   0.407  10.949  0.9309  2.1541 -1.0383
 8552SOL    HW237290   1.928   0.313  10.966 -1.1462  0.2144  0.6339
 8553SOL     OW37291   0.337   4.688  17.514 -0.1123  0.4891  0.1723
 8553SOL    HW137292   0.309   0.022  17.459 -0.8986 -0.3879 -0.5982
 8553SOL    HW237293   0.264   4.626  17.508 -0.9734  1.9174 -3.7131
 8554SOL     OW37294   4.303   1.082   6.130  0.5777  0.4922 -0.9820
 8554SOL    HW137295   4.211   1.110   6.134  0.4875  0.1196 -0.5098
 8554SOL    HW237296   4.338   1.070   6.218 -0.9950  0.4811 -0.3451
 8555SOL     OW37297   3.523   2.108  11.504  0.2788 -0.5929  0.0531
 8555SOL    HW137298   3.600   2.157  11.531  0.0675  0.2750 -0.8622
 8555SOL    HW237299   3.537   2.031  11.558  1.5561 -0.3408  0.0804
 8556SOL     OW37300   0.111   3.097   9.727 -0.1193  0.2121  0.1241
 8556SOL    HW137301   0.129   3.176   9.778  1.0768  0.5281 -0.7777
 8556SOL    HW237302   0.047   3.139   9.668 -1.9604 -1.7166  0.7578
 8557SOL     OW37303   2.405   1.062   8.233  0.8070 -0.1712  0.3602
 8557SOL    HW137304   2.440   1.116   8.162  1.1256  1.6180  1.8691
 8557SOL    HW237305   2.476   1.067   8.297  0.2262  1.6917  0.8635
 8558SOL     OW37306   0.645   1.063   5.880 -0.2984 -0.2857  0.7599
 8558SOL    HW137307   0.680   1.091   5.965  1.5136 -1.5632  0.4170
 8558SOL    HW237308   0.569   1.012   5.909  0.1420 -0.9587  0.7185
 8559SOL     OW37309   2.908   1.171   7.651 -0.1920 -0.2811 -0.2303
 8559SOL    HW137310   2.960   1.114   7.593  0.0313 -1.0634  0.7308
 8559SOL    HW237311   2.956   1.254   7.644  0.4731 -0.6461  0.0049
 8560SOL     OW37312   4.513   3.392   2.933 -0.2885 -0.1744  0.2849
 8560SOL    HW137313   4.449   3.459   2.906 -0.7076  0.3768  2.6776
 8560SOL    HW237314   4.461   3.313   2.919  2.5804 -1.5111 -2.8068
 8561SOL     OW37315   0.394   2.592   1.750  0.0061 -0.1580  0.2991
 8561SOL    HW137316   0.461   2.603   1.682 -1.1399 -2.7448 -1.2357
 8561SOL    HW237317   0.449   2.570   1.826 -0.9565  0.6319  1.2278
 8562SOL     OW37318   2.167   2.211   5.963  0.1823  0.1732  0.6362
 8562SOL    HW137319   2.179   2.264   5.885 -1.5538  0.6181  0.6706
 8562SOL    HW237320   2.104   2.260   6.016  0.0710 -0.6629  1.2850
 8563SOL     OW37321   3.704   2.954   8.400 -0.0732 -0.0071 -0.1163
 8563SOL    HW137322   3.796   2.953   8.376  0.2421 -1.3741  1.1039
 8563SOL    HW237323   3.704   2.940   8.495  0.1689  0.1744 -0.0923
 8564SOL     OW37324   1.005   1.593  14.156  0.8711 -0.1751  0.1677
 8564SOL    HW137325   1.028   1.501  14.162  2.7492  0.1963 -1.2613
 8564SOL    HW237326   0.912   1.590  14.136  1.2719  1.8702 -2.0126
 8565SOL     OW37327   0.708   3.821  14.220 -0.2491 -0.2094 -0.1797
 8565SOL    HW137328   0.732   3.897  14.168 -0.9298  0.6115  0.7249
 8565SOL    HW237329   0.618   3.815  14.187 -0.3844 -0.7155  0.2758
 8566SOL     OW37330   0.954   2.622   5.857  0.7106 -0.7113 -0.2274
 8566SOL    HW137331   1.000   2.543   5.829  0.8933 -0.6340 -0.1453
 8566SOL    HW237332   1.007   2.694   5.823 -2.1200  0.0688 -3.0059
 8567SOL     OW37333   2.773   2.594   4.809  0.6604 -0.4277 -0.7544
 8567SOL    HW137334   2.820   2.656   4.864 -1.3069  1.7190 -1.4903
 8567SOL    HW237335   2.683   2.615   4.835  1.0873 -0.2815  0.6247
 8568SOL     OW37336   1.700   2.455  12.552  0.0417 -0.0608 -0.1054
 8568SOL    HW137337   1.616   2.489  12.522  0.9619  2.6702  0.4036
 8568SOL    HW237338   1.694   2.473  12.646  2.0756 -1.3648  0.2770
 8569SOL     OW37339   0.033   4.293   1.910  0.5647  0.1662 -0.1928
 8569SOL    HW137340   0.091   4.274   1.836  2.0833  2.0492  0.5241
 8569SOL    HW237341   0.108   4.322   1.962  1.1190 -1.2785 -0.1771
 8570SOL     OW37342   0.000   2.840   7.342 -0.2519  0.1211  0.5755
 8570SOL    HW137343   4.722   2.747   7.333  2.7753 -0.4083  0.0266
 8570SOL    HW237344   0.090   2.836   7.310 -0.9478 -2.1582 -1.0905
 8571SOL     OW37345   0.177   2.962   9.220  0.1658  0.4586 -0.1284
 8571SOL    HW137346   0.109   3.010   9.267 -0.0527  0.7623 -0.7579
 8571SOL    HW237347   0.145   2.958   9.130  1.3790  1.3515 -0.5980
 8572SOL     OW37348   0.098   3.824   0.097 -0.2333  0.7705 -0.0667
 8572SOL    HW137349   0.012   3.858   0.121 -0.8009  0.7217 -2.0467
 8572SOL    HW237350   0.072   3.741   0.058  0.5247  0.4118  0.1807
 8573SOL     OW37351   4.259   3.983  11.669  0.0803 -0.1775 -0.2560
 8573SOL    HW137352   4.182   3.951  11.623 -0.2284 -1.4550  1.1645
 8573SOL    HW237353   4.256   3.928  11.748  1.2362 -3.2848 -2.3956
 8574SOL     OW37354   4.346   1.358  15.390 -0.2967 -0.0806 -0.4634
 8574SOL    HW137355   4.302   1.293  15.333 -3.6359  0.6503  1.2828
 8574SOL    HW237356   4.305   1.443  15.374  1.2538  0.9529  1.1899
 8575SOL     OW37357   1.301   2.916  16.726  0.3656 -0.3990  0.1826
 8575SOL    HW137358   1.374   2.896  16.785  2.3968  0.6975 -1.9545
 8575SOL    HW237359   1.234   2.853  16.752  0.1804  0.9743  3.0424
 8576SOL     OW37360   3.841   1.869   3.631  0.0596  0.3120 -0.1301
 8576SOL    HW137361   3.778   1.902   3.568  0.6573 -1.6354 -1.7561
 8576SOL    HW237362   3.910   1.836   3.574 -0.7381 -1.2085 -0.2066
 8577SOL     OW37363   4.259   1.050   3.297 -0.2413 -0.0405 -0.4659
 8577SOL    HW137364   4.176   1.076   3.335 -0.0599 -0.2851  0.1051
 8577SOL    HW237365   4.315   1.070   3.372 -1.7846  0.0387  0.6469
 8578SOL     OW37366   0.123   2.481  11.785 -0.1399 -0.3203  0.4477
 8578SOL    HW137367   0.135   2.464  11.879 -2.1652  0.3867  0.8173
 8578SOL    HW237368   0.167   2.566  11.777 -1.0282  0.1449  0.5388
 8579SOL     OW37369   3.294   1.493   4.309 -0.6478 -0.1654 -0.0402
 8579SOL    HW137370   3.286   1.511   4.402 -1.1247  2.2884 -0.5730
 8579SOL    HW237371   3.300   1.580   4.269 -1.4670  0.0349  0.2753
 8580SOL     OW37372   0.671   3.946  14.764  0.0019  0.0790  0.6389
 8580SOL    HW137373   0.607   3.929  14.694  1.3802  0.3781 -0.6787
 8580SOL    HW237374   0.607   3.977  14.829  1.1450  2.3248  0.6875
 8581SOL     OW37375   2.626   0.399   7.897 -0.5390 -0.2735  0.2929
 8581SOL    HW137376   2.587   0.315   7.875  0.8667 -0.7154 -0.4758
 8581SOL    HW237377   2.710   0.359   7.915  0.5563  1.8999  0.0647
 8582SOL     OW37378   0.282   0.593   5.754  0.2068 -0.2245  1.0344
 8582SOL    HW137379   0.278   0.655   5.827 -0.6894 -0.5792  1.2802
 8582SOL    HW237380   0.260   0.509   5.794 -1.0744 -1.2390 -1.7564
 8583SOL     OW37381   4.499   0.685   7.940  0.0685  1.0300  0.2618
 8583SOL    HW137382   4.416   0.723   7.911  0.1268 -1.1408 -2.7369
 8583SOL    HW237383   4.490   0.612   7.879 -0.4017  2.5589 -1.4999
 8584SOL     OW37384   1.315   4.189   4.931  0.3859  0.6703 -0.1173
 8584SOL    HW137385   1.351   4.217   5.016  0.7562 -0.4690  0.0926
 8584SOL    HW237386   1.375   4.124   4.896 -0.0283  0.6199 -0.7292
 8585SOL     OW37387   4.507   1.560   9.481 -0.1583 -0.5513 -0.0517
 8585SOL    HW137388   4.548   1.489   9.432 -1.8264 -0.7368 -1.1771
 8585SOL    HW237389   4.539   1.558   9.572 -0.6672 -2.1710  0.0925
 8586SOL     OW37390   4.246   0.779  17.158 -0.4599 -0.6182  0.3856
 8586SOL    HW137391   4.233   0.859  17.210 -1.3915  0.1891 -1.1108
 8586SOL    HW237392   4.196   0.721  17.215 -0.4875  0.7365  1.7660
 8587SOL     OW37393   0.193   3.260   5.212 -0.2087  0.1734  0.1707
 8587SOL    HW137394   0.248   3.208   5.270  0.0572 -0.9074 -1.0474
 8587SOL    HW237395   0.138   3.290   5.284  0.2210  0.9283  0.1777
 8588SOL     OW37396   2.893   3.880  11.751 -0.6629  0.1978  0.1884
 8588SOL    HW137397   2.881   3.857  11.659 -1.1406  0.9170  0.0722
 8588SOL    HW237398   2.911   3.799  11.799 -1.4724  0.1329  0.3788
 8589SOL     OW37399   0.969   4.358   2.909  0.3376  0.0741 -0.0561
 8589SOL    HW137400   0.996   4.327   2.996 -1.0723 -1.3944 -0.1337
 8589SOL    HW237401   0.874   4.365   2.919  0.2721 -1.7404  0.6312
 8590SOL     OW37402   0.558   0.978   4.462  0.5683 -0.0359 -0.2775
 8590SOL    HW137403   0.536   1.070   4.477 -0.3446 -0.7997  3.2424
 8590SOL    HW237404   0.497   0.934   4.522 -1.9341 -0.2831 -3.0083
 8591SOL     OW37405   4.233   0.289  14.485 -0.3017  0.1075 -0.9984
 8591SOL    HW137406   4.170   0.285  14.557 -0.9461 -1.8701 -1.6785
 8591SOL    HW237407   4.177   0.344  14.430  0.4824  1.7123 -0.2060
 8592SOL     OW37408   2.012   2.851   7.161  0.0254 -0.7083 -0.2726
 8592SOL    HW137409   2.086   2.901   7.196 -0.0800  0.6357 -2.0036
 8592SOL    HW237410   1.996   2.797   7.239  0.7518 -1.0435 -0.3564
 8593SOL     OW37411   3.048   3.527   7.937 -0.3142 -0.1359  0.4389
 8593SOL    HW137412   3.072   3.465   8.007  1.6977  1.3208  1.0628
 8593SOL    HW237413   3.041   3.464   7.865  1.2925  1.3496 -1.0051
 8594SOL     OW37414   3.870   1.968   4.063 -0.0125 -0.1895  0.7943
 8594SOL    HW137415   3.784   2.001   4.037 -0.7785 -1.4599  1.7125
 8594SOL    HW237416   3.923   1.995   3.988 -2.5697 -0.4964 -1.1131
 8595SOL     OW37417   4.668   3.165   6.146 -0.3326 -0.0217 -0.2832
 8595SOL    HW137418   4.590   3.156   6.092 -1.7979  1.9294  1.5217
 8595SOL    HW237419   4.736   3.136   6.085  2.0367  2.9842  0.8798
 8596SOL     OW37420   1.540   1.752   1.806 -0.4103  0.4227 -0.1637
 8596SOL    HW137421   1.480   1.811   1.852 -0.2983 -0.1244  0.6928
 8596SOL    HW237422   1.481   1.706   1.746  0.8098  1.6808 -2.3220
 8597SOL     OW37423   2.770   0.212   9.937  0.6308 -0.4223 -0.1300
 8597SOL    HW137424   2.719   0.290   9.919  2.5892  0.5128 -1.7219
 8597SOL    HW237425   2.792   0.188   9.847  0.5669  0.3262 -0.3454
 8598SOL     OW37426   2.134   1.986  11.430  0.1872 -0.4653  0.1436
 8598SOL    HW137427   2.121   2.079  11.450 -0.0346 -0.6426  0.8218
 8598SOL    HW237428   2.171   1.992  11.342 -0.6715  1.5106 -0.0751
 8599SOL     OW37429   2.950   0.670   7.034 -0.1553 -0.7495  0.2495
 8599SOL    HW137430   2.948   0.763   7.058 -0.0769  0.0024 -2.7691
 8599SOL    HW237431   2.857   0.663   7.012 -0.3778  0.0270  0.9406
 8600SOL     OW37432   1.568   2.339   4.681 -0.3275  0.2765  0.1277
 8600SOL    HW137433   1.612   2.302   4.757  0.5015  1.8724  0.4383
 8600SOL    HW237434   1.522   2.417   4.714 -1.4131 -1.3251  2.4101
 8601SOL     OW37435   3.997   1.057   3.398 -0.0202 -0.0951  0.9655
 8601SOL    HW137436   3.903   1.068   3.386  0.2885 -0.3279 -1.5256
 8601SOL    HW237437   3.979   1.043   3.491  0.6932  0.9187  1.2571
 8602SOL     OW37438   2.836   4.122   2.960  0.1735 -0.0815 -0.0610
 8602SOL    HW137439   2.751   4.091   2.928 -0.8831  1.5570  1.1901
 8602SOL    HW237440   2.864   4.184   2.893 -0.7873 -0.1643 -0.5359
 8603SOL     OW37441   2.940   3.916   8.259 -0.0950  0.2859 -0.5747
 8603SOL    HW137442   3.006   3.919   8.190 -0.1388 -1.3589 -0.6886
 8603SOL    HW237443   2.998   3.936   8.333  1.7905 -0.6460 -1.7897
 8604SOL     OW37444   2.934   0.501   4.818  0.2651 -0.1790  0.5883
 8604SOL    HW137445   3.004   0.556   4.854 -0.9596  1.7179  0.0574
 8604SOL    HW237446   2.926   0.536   4.729 -2.2757 -0.9534  0.5239
 8605SOL     OW37447   0.047   3.440  14.685 -0.1544  0.2714 -0.5315
 8605SOL    HW137448   0.039   3.514  14.624 -1.8222 -0.1597 -0.8190
 8605SOL    HW237449   0.132   3.399  14.669  0.6524  1.1561  1.4301
 8606SOL     OW37450   4.595   2.607   2.171 -0.2102  0.2212  0.0217
 8606SOL    HW137451   4.515   2.645   2.134 -1.5808 -0.4877  2.3015
 8606SOL    HW237452   4.646   2.687   2.183  0.3418 -0.1667  0.2844
 8607SOL     OW37453   3.529   3.646   5.497 -0.0308 -0.1503 -0.0691
 8607SOL    HW137454   3.624   3.654   5.492 -0.1679  1.7902  0.8430
 8607SOL    HW237455   3.511   3.643   5.591  2.5799  0.2908  0.4551
 8608SOL     OW37456   1.490   3.191  13.721  0.2807 -0.2396 -0.7701
 8608SOL    HW137457   1.517   3.126  13.786 -3.7040 -1.5346 -0.4177
 8608SOL    HW237458   1.498   3.152  13.634  1.2520 -1.7903  0.0105
 8609SOL     OW37459   1.224   4.177   3.687  0.0401  0.4254 -0.0646
 8609SOL    HW137460   1.213   4.117   3.760  1.6948 -0.1327 -0.2781
 8609SOL    HW237461   1.235   4.267   3.720  1.1943  0.3070 -0.1342
 8610SOL     OW37462   1.114   0.180  14.412  0.3114 -0.5666 -0.2914
 8610SOL    HW137463   1.102   0.119  14.484  0.5087  1.2590  1.2819
 8610SOL    HW237464   1.180   0.238  14.451  1.7516 -1.3812 -1.5158
 8611SOL     OW37465   1.468   2.862  16.918 -0.7706 -1.1581 -0.0965
 8611SOL    HW137466   1.538   2.878  16.981  0.6335  1.9966 -2.4652
 8611SOL    HW237467   1.495   2.772  16.900  1.3350 -0.6045  0.2523
 8612SOL     OW37468   2.990   4.492   2.777 -0.6547 -0.1919  0.7622
 8612SOL    HW137469   2.954   4.527   2.695  0.9118  0.9714  0.5710
 8612SOL    HW237470   2.945   4.408   2.781 -3.6712  1.3428 -1.1041
 8613SOL     OW37471   3.460   0.018  12.085  0.2520  0.0131  0.4081
 8613SOL    HW137472   3.515   0.008  12.163  0.6784  1.5841  0.3155
 8613SOL    HW237473   3.411   0.095  12.115  2.3931  1.9222 -0.9386
 8614SOL     OW37474   4.481   3.008   2.751 -0.3285  0.6900  0.1361
 8614SOL    HW137475   4.525   2.922   2.750 -1.1865  0.2360  2.0438
 8614SOL    HW237476   4.465   3.009   2.845  1.3786 -2.1255  0.4655
 8615SOL     OW37477   3.859   2.650   0.762  0.2740  0.1017 -0.1160
 8615SOL    HW137478   3.840   2.736   0.799 -2.3380 -0.8181  0.7457
 8615SOL    HW237479   3.835   2.661   0.670 -2.3123 -0.0993  0.5110
 8616SOL     OW37480   3.235   4.576   2.873 -0.7317  0.3653 -0.1898
 8616SOL    HW137481   3.150   4.543   2.844  0.5369 -1.3530 -1.9338
 8616SOL    HW237482   3.227   4.551   2.965 -0.7974  1.7156  0.1846
 8617SOL     OW37483   0.101   1.659  13.309 -0.0952 -0.0688  0.1732
 8617SOL    HW137484   0.088   1.707  13.391  1.7369  1.0826 -0.2073
 8617SOL    HW237485   0.136   1.574  13.335  0.9217  0.6649  1.2455
 8618SOL     OW37486   1.912   1.711   8.453  0.4107 -0.2409  0.1688
 8618SOL    HW137487   1.861   1.652   8.508 -0.8169  1.3174  0.6752
 8618SOL    HW237488   1.955   1.759   8.524 -0.0198 -0.9530  0.9164
 8619SOL     OW37489   1.933   2.322   5.036  0.3759 -0.0137 -0.1589
 8619SOL    HW137490   2.024   2.350   5.037 -0.0331  1.2677  0.6552
 8619SOL    HW237491   1.927   2.264   5.112 -0.1074 -2.2502 -1.8686
 8620SOL     OW37492   3.861   3.290   8.457  0.3300 -0.2451  0.4416
 8620SOL    HW137493   3.859   3.234   8.534 -0.3380 -0.8754 -0.0401
 8620SOL    HW237494   3.900   3.365   8.501  1.0287 -1.0491  1.1958
 8621SOL     OW37495   4.581   2.209   5.381 -0.1473 -0.1085 -0.3410
 8621SOL    HW137496   4.629   2.136   5.342 -1.3340 -1.7183  1.2507
 8621SOL    HW237497   4.534   2.168   5.454 -0.4905  0.0494 -0.4765
 8622SOL     OW37498   1.983   1.275   1.771  0.8822  0.2395 -0.5112
 8622SOL    HW137499   2.070   1.301   1.739  2.1962  1.4835  4.0256
 8622SOL    HW237500   1.984   1.182   1.792 -0.4636 -0.4839 -3.7203
 8623SOL     OW37501   3.266   0.552  12.104 -0.4167  0.1418 -0.3536
 8623SOL    HW137502   3.337   0.616  12.096  0.1574 -0.3915  0.4063
 8623SOL    HW237503   3.197   0.609  12.138  0.5364  0.7391  0.5793
 8624SOL     OW37504   2.046   0.158   7.322  0.1507  0.0113 -0.0829
 8624SOL    HW137505   2.019   0.155   7.231  0.9644 -2.2444 -0.2618
 8624SOL    HW237506   2.016   0.245   7.347 -0.3586 -1.0282  3.0268
 8625SOL     OW37507   1.757   4.687   5.757  0.0544 -0.4366  0.1108
 8625SOL    HW137508   1.791   4.602   5.784  0.9621  0.0620  0.5233
 8625SOL    HW237509   1.668   4.682   5.793 -0.8676 -0.4331 -2.1720
 8626SOL     OW37510   4.676   4.025   4.059  0.5070 -0.2690  0.0908
 8626SOL    HW137511   4.641   3.966   4.127  0.4172 -0.7436 -0.3677
 8626SOL    HW237512   4.691   4.102   4.113  1.7264 -1.1245  0.9699
 8627SOL     OW37513   4.571   1.305   4.208 -0.2435 -0.2861  0.3684
 8627SOL    HW137514   4.575   1.220   4.252 -3.1254  0.5091  2.1935
 8627SOL    HW237515   4.606   1.282   4.122  1.2411  1.0695  0.6236
 8628SOL     OW37516   0.014   4.620  15.459  0.2489  0.6474 -0.0844
 8628SOL    HW137517   0.087   4.669  15.420  0.3138  1.9532  1.6797
 8628SOL    HW237518   4.692   4.692  15.451 -0.9110 -0.4817 -1.2257
 8629SOL     OW37519   3.430   4.316   8.919 -0.2316  0.3721  0.4256
 8629SOL    HW137520   3.509   4.309   8.971  0.4886  1.9458 -0.4505
 8629SOL    HW237521   3.368   4.316   8.992 -1.7901 -3.3629 -0.8593
 8630SOL     OW37522   1.976   2.272   1.840  0.0431  0.2644 -0.4752
 8630SOL    HW137523   1.951   2.181   1.822 -0.2294 -0.3076  2.7551
 8630SOL    HW237524   2.052   2.287   1.785  0.0294  1.2583 -0.2247
 8631SOL     OW37525   4.066   1.744   0.626  0.0908  0.0944 -0.0852
 8631SOL    HW137526   3.984   1.774   0.588  0.9579  0.6707 -1.5319
 8631SOL    HW237527   4.080   1.657   0.588  0.2343 -0.0995  0.4115
 8632SOL     OW37528   3.104   2.295   5.835  0.2533 -0.1219 -0.6737
 8632SOL    HW137529   3.017   2.332   5.821 -0.8245 -2.8467 -1.3079
 8632SOL    HW237530   3.087   2.216   5.887  1.4134 -0.3240 -0.6070
 8633SOL     OW37531   0.454   4.547   1.872  0.4993  0.3273  0.0120
 8633SOL    HW137532   0.428   4.481   1.808  0.0295  0.5984 -0.0733
 8633SOL    HW237533   0.521   4.496   1.916 -1.0463 -0.4590  1.4323
 8634SOL     OW37534   2.719   0.333  12.853 -0.3395  0.2091 -0.3098
 8634SOL    HW137535   2.626   0.333  12.874 -0.6747  3.3676 -1.8489
 8634SOL    HW237536   2.734   0.373  12.767 -1.2669  1.3663  0.0714
 8635SOL     OW37537   1.145   1.657   2.611  0.2871 -0.0957 -0.2462
 8635SOL    HW137538   1.122   1.750   2.606 -1.3206 -0.4465  0.5460
 8635SOL    HW237539   1.209   1.653   2.682  0.5821 -0.5812 -0.5367
 8636SOL     OW37540   1.323   0.943   3.983 -0.1093  0.1670  0.0658
 8636SOL    HW137541   1.240   0.941   4.030  0.2321 -0.0242  0.6609
 8636SOL    HW237542   1.350   1.035   3.988  1.6976 -0.3678  0.4146
 8637SOL     OW37543   0.337   4.464   4.826 -0.1309  0.1534 -1.1039
 8637SOL    HW137544   0.412   4.521   4.840  1.6073 -1.8399 -2.4355
 8637SOL    HW237545   0.373   4.378   4.847 -1.2832 -0.0679  0.0066
 8638SOL     OW37546   0.576   3.769  15.008 -0.0618 -0.5917  0.1755
 8638SOL    HW137547   0.494   3.732  14.975  0.0882 -0.3149 -0.5266
 8638SOL    HW237548   0.625   3.728  14.936  0.2909  0.8151 -0.4046
 8639SOL     OW37549   2.576   2.596   8.790 -0.2304  0.2250  1.1008
 8639SOL    HW137550   2.643   2.529   8.797  0.3729  0.8537  1.3812
 8639SOL    HW237551   2.594   2.615   8.698  0.7873 -3.0443  0.6577
 8640SOL     OW37552   0.469   3.236   0.224 -0.0821 -0.2444  0.4875
 8640SOL    HW137553   0.418   3.297   0.278 -0.3940  0.6039 -0.7827
 8640SOL    HW237554   0.470   3.167   0.291  0.1853 -0.8524 -0.1507
 8641SOL     OW37555   4.679   0.008  17.598 -0.1909  0.0754  0.1756
 8641SOL    HW137556   0.005   4.709  17.541 -2.6349 -0.1783 -2.4611
 8641SOL    HW237557   4.625   0.050  17.531 -2.2785 -0.4099  1.5586
 8642SOL     OW37558   4.737   3.975   4.527  0.3026 -0.0117  0.2993
 8642SOL    HW137559   4.739   4.071   4.530 -0.2363  0.0278 -0.9397
 8642SOL    HW237560   0.084   3.950   4.559  0.3636  0.6455  0.6466
 8643SOL     OW37561   4.279   1.838  12.220 -0.2279 -0.2343 -0.1697
 8643SOL    HW137562   4.321   1.772  12.275  1.1619 -0.4666 -1.5413
 8643SOL    HW237563   4.243   1.782  12.152 -0.6732 -0.1166 -0.0354
 8644SOL     OW37564   1.502   3.339   8.097  0.1048  0.0027  0.2921
 8644SOL    HW137565   1.590   3.371   8.114  0.4583  0.3637 -2.2278
 8644SOL    HW237566   1.505   3.328   8.002  1.4235 -1.8297  0.5521
 8645SOL     OW37567   0.671   3.096  13.889 -0.1528 -0.6714  0.0800
 8645SOL    HW137568   0.598   3.134  13.839  0.6361 -0.1306 -0.6423
 8645SOL    HW237569   0.739   3.160  13.868 -1.4508 -0.0304 -2.2740
 8646SOL     OW37570   1.667   4.396   6.061 -0.6552  0.0191  0.3090
 8646SOL    HW137571   1.738   4.342   6.027  2.4586  3.1166  1.9461
 8646SOL    HW237572   1.703   4.484   6.052 -1.3403  0.4544  1.8970
 8647SOL     OW37573   0.601   2.002  13.893 -0.4278  0.6997 -0.2116
 8647SOL    HW137574   0.677   1.976  13.842 -0.2214  1.5485 -0.3293
 8647SOL    HW237575   0.607   1.942  13.968  1.3416  1.3379  0.1387
 8648SOL     OW37576   3.286   3.490   2.760 -0.6060 -0.4645  0.1052
 8648SOL    HW137577   3.344   3.464   2.831 -0.2390 -1.2129 -0.4649
 8648SOL    HW237578   3.231   3.414   2.742 -1.1363 -0.1575  0.4318
 8649SOL     OW37579   4.582   4.678   0.698  0.3006  0.1122 -0.1134
 8649SOL    HW137580   4.586   4.583   0.703  1.2590  0.2531  1.9220
 8649SOL    HW237581   4.658   4.692   0.642 -0.9662  0.5321 -1.7072
 8650SOL     OW37582   3.901   3.380  17.313  0.0600  0.3697  0.3598
 8650SOL    HW137583   3.808   3.398  17.323 -0.5354 -1.7454 -1.3311
 8650SOL    HW237584   3.942   3.456  17.354  1.0611  1.1759 -2.1356
 8651SOL     OW37585   0.129   1.470   9.176 -0.1506 -0.4986  0.4728
 8651SOL    HW137586   0.214   1.509   9.200 -0.7915  0.7193  0.7725
 8651SOL    HW237587   0.158   1.396   9.123  1.5442 -0.3020  1.1031
 8652SOL     OW37588   0.866   1.525   6.577  0.4862 -0.0712  0.0809
 8652SOL    HW137589   0.869   1.480   6.493 -0.6743  0.0081  0.0086
 8652SOL    HW237590   0.784   1.493   6.613 -0.1481  0.0770 -1.2350
 8653SOL     OW37591   1.501   3.413   4.189  0.2591 -0.1061  0.3749
 8653SOL    HW137592   1.527   3.490   4.140  0.2817 -0.3367  0.0268
 8653SOL    HW237593   1.514   3.455   4.275 -0.4493  2.1542 -0.6171
 8654SOL     OW37594   0.647   2.005   2.591 -0.3421  0.3486 -0.1311
 8654SOL    HW137595   0.710   2.076   2.605 -1.0946  0.7048  1.5151
 8654SOL    HW237596   0.565   2.029   2.549 -0.2762  1.3515  0.3195
 8655SOL     OW37597   0.251   3.791   2.030 -0.6238  0.4394  0.4918
 8655SOL    HW137598   0.190   3.863   2.018  0.3370  1.2606  0.5919
 8655SOL    HW237599   0.296   3.813   2.111  0.1369  1.5190 -0.2267
 8656SOL     OW37600   3.704   0.203   1.432 -0.4778  0.4450  0.8801
 8656SOL    HW137601   3.752   0.156   1.364 -0.6494  0.5172  0.7124
 8656SOL    HW237602   3.755   0.178   1.510 -1.3809  0.5707  1.5074
 8657SOL     OW37603   3.000   1.416   8.606 -0.7485 -0.7775 -0.3337
 8657SOL    HW137604   3.019   1.415   8.700 -1.9124 -2.4341 -0.1155
 8657SOL    HW237605   2.932   1.348   8.602  0.5819 -2.2087  1.3604
 8658SOL     OW37606   0.384   2.195   3.543 -0.4380  0.3008  0.3080
 8658SOL    HW137607   0.449   2.138   3.585 -0.9428  0.4127  1.2445
 8658SOL    HW237608   0.394   2.279   3.588  0.0475  0.7897 -0.7136
 8659SOL     OW37609   4.039   0.874   4.824 -0.5698 -0.1527 -0.2726
 8659SOL    HW137610   3.982   0.899   4.897 -0.0638 -2.5107  0.9235
 8659SOL    HW237611   4.059   0.784   4.848  0.5649  0.0303 -0.5413
 8660SOL     OW37612   2.443   3.037   9.945 -0.4418 -0.2093 -0.2763
 8660SOL    HW137613   2.492   2.961   9.979 -0.4601  0.7031  1.7578
 8660SOL    HW237614   2.508   3.072   9.884 -0.7828 -1.5812 -1.4516
 8661SOL     OW37615   2.707   3.409   9.635  0.2322  0.4566 -0.6349
 8661SOL    HW137616   2.798   3.409   9.605  0.8527  0.7357  1.2527
 8661SOL    HW237617   2.658   3.422   9.554 -2.1945  2.8908  1.2649
 8662SOL     OW37618   2.727   3.403   8.779  0.0469 -0.4762  0.2011
 8662SOL    HW137619   2.758   3.465   8.844  0.5252 -1.0988  0.5648
 8662SOL    HW237620   2.661   3.458   8.737  1.3566  0.2020 -0.9586
 8663SOL     OW37621   2.081   1.208   8.556  0.1794  1.0432 -0.0111
 8663SOL    HW137622   1.986   1.216   8.549  0.1832 -0.7631 -2.1289
 8663SOL    HW237623   2.101   1.209   8.463  1.6088  1.2603  0.3016
 8664SOL     OW37624   3.389   2.218   5.143  1.0636  0.1548  0.4760
 8664SOL    HW137625   3.430   2.290   5.093  1.9574  0.9282  2.3320
 8664SOL    HW237626   3.419   2.147   5.087 -1.9129 -1.4889  1.0015
 8665SOL     OW37627   3.751   3.267   4.112 -0.8528  0.0917  0.2836
 8665SOL    HW137628   3.744   3.362   4.097  0.1851 -0.2256 -2.1362
 8665SOL    HW237629   3.692   3.246   4.184  0.0991 -0.0297  1.0249
 8666SOL     OW37630   2.715   1.063  17.144  0.2927 -1.1475 -0.6258
 8666SOL    HW137631   2.668   0.980  17.159  1.8005 -1.7525  0.7161
 8666SOL    HW237632   2.634   1.111  17.126  0.5617 -0.5547 -0.2393
 8667SOL     OW37633   2.707   0.056   2.605 -0.3567  0.3023  0.1935
 8667SOL    HW137634   2.704   0.088   2.696 -0.0645  0.1136  0.2688
 8667SOL    HW237635   2.795   0.073   2.572 -0.6769  0.8893 -0.3623
 8668SOL     OW37636   4.532   3.970  17.511 -0.0320 -0.2620 -0.3692
 8668SOL    HW137637   4.519   3.886  17.555 -0.7769 -0.4339 -0.9143
 8668SOL    HW237638   4.613   3.955  17.463  1.6388  0.4399  2.2153
 8669SOL     OW37639   2.320   1.446   1.598  0.8464  0.4414  0.1034
 8669SOL    HW137640   2.342   1.443   1.505  0.2076  2.8829 -0.1245
 8669SOL    HW237641   2.285   1.358   1.605 -0.8179  0.8960 -2.8125
 8670SOL     OW37642   0.881   1.145   8.962  0.3714 -0.2698  0.0297
 8670SOL    HW137643   0.799   1.099   8.979  0.3307 -0.6831 -1.2929
 8670SOL    HW237644   0.872   1.222   9.019 -1.5133 -1.1915  0.9834
 8671SOL     OW37645   1.055   3.542  16.183 -0.2449  0.8037  0.4999
 8671SOL    HW137646   1.060   3.506  16.271  1.0244  0.9782  0.5071
 8671SOL    HW237647   1.084   3.632  16.198 -2.4541  1.1086  2.8737
 8672SOL     OW37648   0.854   0.233   8.666 -0.0287 -1.2919 -0.5262
 8672SOL    HW137649   0.780   0.178   8.643 -2.6426  2.3067 -0.7514
 8672SOL    HW237650   0.859   0.281   8.584 -0.6225  1.4332  1.0146
 8673SOL     OW37651   0.733   3.619   2.405  0.1403 -0.2207  0.0035
 8673SOL    HW137652   0.810   3.588   2.358  1.2567 -2.0969  3.0619
 8673SOL    HW237653   0.700   3.536   2.440  1.1799 -0.6573 -0.0569
 8674SOL     OW37654   3.873   4.386   0.144  0.1615  0.7851  0.0476
 8674SOL    HW137655   3.859   4.321   0.213 -0.4382  1.5823  0.6932
 8674SOL    HW237656   3.817   4.461   0.164 -1.0806  0.0327 -0.6635
 8675SOL     OW37657   3.918   0.734   8.028  0.1181 -0.0974 -0.4935
 8675SOL    HW137658   3.997   0.690   8.059 -1.2849 -2.0679  0.2552
 8675SOL    HW237659   3.896   0.696   7.943 -4.2529  2.3328 -0.4554
 8676SOL     OW37660   0.285   3.975   1.410  0.3537 -0.5416 -0.1815
 8676SOL    HW137661   0.224   4.021   1.353  3.2466  2.6939 -0.6719
 8676SOL    HW237662   0.359   3.989   1.351 -0.7783  0.8643 -1.2618
 8677SOL     OW37663   1.505   4.017   4.900  0.1202 -0.3495  0.4638
 8677SOL    HW137664   1.563   4.055   4.966  0.6949  0.9802 -0.8046
 8677SOL    HW237665   1.571   3.955   4.870 -0.1919  0.5489 -2.0371
 8678SOL     OW37666   1.314   2.480   4.647  0.5065  0.4799  0.2540
 8678SOL    HW137667   1.334   2.544   4.716 -1.0033 -0.9501  1.9960
 8678SOL    HW237668   1.356   2.526   4.574  0.4696 -0.2301 -0.2057
 8679SOL     OW37669   0.186   3.890  11.780 -0.3417  0.5383 -0.0557
 8679SOL    HW137670   0.263   3.889  11.724 -1.4484 -1.0387 -1.5321
 8679SOL    HW237671   0.160   3.982  11.791 -0.3241  0.5615 -0.2175
 8680SOL     OW37672   1.535   1.275   5.397  0.2032  0.3213 -0.1404
 8680SOL    HW137673   1.542   1.370   5.411 -0.5176  0.4690 -0.7269
 8680SOL    HW237674   1.561   1.265   5.306 -0.2582 -0.2650 -0.2118
 8681SOL     OW37675   4.680   0.993   4.393 -0.7356 -0.4942 -0.2124
 8681SOL    HW137676   4.729   0.959   4.318 -1.7424  0.7995 -1.4528
 8681SOL    HW237677   4.589   0.975   4.372 -0.4537 -1.2661 -0.7896
 8682SOL     OW37678   0.339   0.246   6.742  0.2725 -0.7620 -0.3943
 8682SOL    HW137679   0.341   0.151   6.727 -1.3648 -0.9007  0.2025
 8682SOL    HW237680   0.324   0.287   6.657 -0.6738  1.2683  0.7383
 8683SOL     OW37681   0.127   0.044   0.897 -0.5096 -0.0875 -0.4790
 8683SOL    HW137682   0.217   0.018   0.917 -0.2209  1.1721 -0.1407
 8683SOL    HW237683   0.090   0.036   0.985  1.1771  0.8241  0.3101
 8684SOL     OW37684   3.177   0.440  15.811 -0.1046 -0.1546  0.2400
 8684SOL    HW137685   3.151   0.512  15.869  0.4403 -0.9101  1.4120
 8684SOL    HW237686   3.202   0.373  15.874 -1.5369  1.2758  2.3334
 8685SOL     OW37687   0.889   3.335  11.831  0.1232  0.4121  0.4388
 8685SOL    HW137688   0.864   3.260  11.885  0.5947 -0.2261 -0.2322
 8685SOL    HW237689   0.931   3.308  11.750  0.0996  0.1346  0.5188
 8686SOL     OW37690   0.315   2.058   3.042  0.3526 -0.0652  0.2868
 8686SOL    HW137691   0.269   2.046   2.958 -0.2599  3.1828  0.1639
 8686SOL    HW237692   0.401   2.085   3.010  0.7049 -2.1045 -0.5100
 8687SOL     OW37693   4.055   3.128   2.368  0.0358  0.7001 -0.6232
 8687SOL    HW137694   4.143   3.135   2.406 -0.2428  1.6405 -0.1420
 8687SOL    HW237695   4.067   3.169   2.282 -1.3533 -2.5098 -2.3311
 8688SOL     OW37696   3.776   3.699   6.040 -0.0175 -0.5157 -0.0508
 8688SOL    HW137697   3.871   3.688   6.036  0.3597  2.4287  0.7948
 8688SOL    HW237698   3.749   3.607   6.047  0.3422 -0.4439  2.3052
 8689SOL     OW37699   2.936   0.784   4.992  0.3251  0.6606  0.0901
 8689SOL    HW137700   2.857   0.814   4.948  0.5763 -0.5611 -1.2142
 8689SOL    HW237701   2.931   0.824   5.079  1.7877 -0.4193  0.6646
 8690SOL     OW37702   3.716   3.894  17.698  0.2722 -0.2596 -1.0686
 8690SOL    HW137703   3.719   3.988  17.680  0.5770 -0.3712 -1.6265
 8690SOL    HW237704   3.779   3.870   0.008  0.4217  0.1696 -1.0534
 8691SOL     OW37705   3.856   1.079  13.491 -0.3358  0.0381  0.0165
 8691SOL    HW137706   3.822   1.165  13.516 -2.2550 -0.5981 -0.4055
 8691SOL    HW237707   3.868   1.087  13.397 -0.3984  0.4185  0.0406
 8692SOL     OW37708   1.124   3.807   6.198  0.0159 -0.1687  0.4664
 8692SOL    HW137709   1.129   3.781   6.290  0.6509 -0.2489  0.4098
 8692SOL    HW237710   1.209   3.789   6.157  0.8500  2.5798  0.9537
 8693SOL     OW37711   0.804   0.898   5.736 -0.4198 -0.7987 -0.2416
 8693SOL    HW137712   0.758   0.815   5.728 -0.6038 -0.8331  1.0803
 8693SOL    HW237713   0.740   0.956   5.777  0.5733  0.5917 -0.6532
 8694SOL     OW37714   0.996   1.432   9.432 -0.2191 -0.2265  0.4505
 8694SOL    HW137715   1.049   1.509   9.454 -0.3404 -0.4905  1.6776
 8694SOL    HW237716   0.926   1.468   9.377 -0.5645 -0.3180  0.8286
 8695SOL     OW37717   0.946   4.423  14.302  0.1842 -0.2805  0.0493
 8695SOL    HW137718   0.932   4.375  14.384 -1.3377  2.1862  1.2441
 8695SOL    HW237719   0.888   4.499  14.312 -0.7066 -0.8623 -0.5781
 8696SOL     OW37720   3.467   0.300  10.089 -0.0828 -0.1915  0.4799
 8696SOL    HW137721   3.515   0.306  10.171 -0.6847  0.8432  0.7533
 8696SOL    HW237722   3.480   0.209  10.060  2.7135  0.0538  0.9959
 8697SOL     OW37723   4.492   3.426   8.499  0.5637  0.3007  0.1588
 8697SOL    HW137724   4.416   3.458   8.449  0.5204 -2.7704 -1.7105
 8697SOL    HW237725   4.463   3.420   8.590  0.4622  1.2460  0.1960
 8698SOL     OW37726   1.112   2.668   7.338 -0.1638 -0.2161  0.5514
 8698SOL    HW137727   1.165   2.614   7.279 -0.2219  1.1390 -0.7372
 8698SOL    HW237728   1.030   2.619   7.340 -0.1388 -0.2890 -0.2538
 8699SOL     OW37729   4.679   2.846   1.561  0.5172  0.2480  0.1112
 8699SOL    HW137730   4.692   2.758   1.597 -0.4758  0.3785  0.7761
 8699SOL    HW237731   0.027   2.879   1.581 -0.2472  1.9951  0.5505
 8700SOL     OW37732   1.919   4.429   7.991  0.0545 -0.1521 -1.1118
 8700SOL    HW137733   1.844   4.463   8.041  2.1674  0.0998  1.8605
 8700SOL    HW237734   1.981   4.501   8.000 -1.1955  0.6723  0.8459
 8701SOL     OW37735   3.164   4.413   4.951  0.1988 -0.3900  0.4412
 8701SOL    HW137736   3.253   4.392   4.977  0.8005  1.7674  0.1174
 8701SOL    HW237737   3.158   4.339   4.890  1.6498 -1.3283  1.4412
 8702SOL     OW37738   2.697   0.843   8.361 -0.5146  0.0518  0.3733
 8702SOL    HW137739   2.634   0.771   8.355 -0.4542  0.0559 -0.3518
 8702SOL    HW237740   2.721   0.844   8.454 -1.6980  0.8754  0.6683
 8703SOL     OW37741   2.969   4.113   7.478  0.1753  0.1384  0.5154
 8703SOL    HW137742   3.061   4.101   7.502  0.5869 -0.0820 -1.1825
 8703SOL    HW237743   2.919   4.102   7.559 -1.4769 -0.5164 -0.6127
 8704SOL     OW37744   2.115   0.952   1.221  0.5435  0.0766 -0.1312
 8704SOL    HW137745   2.097   0.989   1.308  1.2288  0.9282 -0.3543
 8704SOL    HW237746   2.071   1.012   1.161  1.5798  1.2260  0.2677
 8705SOL     OW37747   3.445   1.380   5.186 -0.3573  0.3542  0.1853
 8705SOL    HW137748   3.409   1.394   5.274 -0.0001 -1.3908  0.5980
 8705SOL    HW237749   3.515   1.321   5.212  0.8569  0.5943 -2.5576
 8706SOL     OW37750   2.326   4.652   5.742 -0.2758  0.3582  0.4695
 8706SOL    HW137751   2.413   4.690   5.750 -0.8132  1.4645  0.9761
 8706SOL    HW237752   2.337   4.557   5.734 -0.2497  0.0269  4.9105
 8707SOL     OW37753   4.429   4.152   4.427  0.2658  0.4234 -0.1315
 8707SOL    HW137754   4.517   4.132   4.459 -0.0294 -1.4759 -0.5209
 8707SOL    HW237755   4.421   4.246   4.440 -0.9273  0.2694  0.2188
 8708SOL     OW37756   3.795   1.363  13.522  0.0349  0.2735 -0.2605
 8708SOL    HW137757   3.834   1.445  13.491  0.1627  0.4952  0.4939
 8708SOL    HW237758   3.702   1.379  13.511 -0.1954 -1.0229 -0.1980
 8709SOL     OW37759   3.514   3.420   3.931 -0.0168 -0.7414  0.3637
 8709SOL    HW137760   3.520   3.513   3.907 -1.5383 -1.0436 -1.1718
 8709SOL    HW237761   3.606   3.402   3.909  0.3575  0.3540  1.0236
 8710SOL     OW37762   4.556   2.806   7.613 -0.0118 -0.1503 -0.2478
 8710SOL    HW137763   4.504   2.735   7.652  0.1280 -0.8430 -1.3051
 8710SOL    HW237764   4.643   2.770   7.628  0.1403  0.6244  0.7242
 8711SOL     OW37765   3.791   4.707   5.616 -0.1713 -0.6462 -0.4710
 8711SOL    HW137766   3.785   0.046   5.561  1.1737 -1.1045 -1.2667
 8711SOL    HW237767   3.697   4.687   5.622  0.0209 -1.9011 -1.7396
 8712SOL     OW37768   3.039   3.699   2.396  0.1429 -0.0599  0.3839
 8712SOL    HW137769   3.117   3.704   2.452  0.3606 -1.6633  0.2504
 8712SOL    HW237770   3.011   3.613   2.427 -2.4801  0.9104  0.6657
 8713SOL     OW37771   0.597   1.709   7.714 -0.4385 -0.5507  0.8664
 8713SOL    HW137772   0.567   1.797   7.690 -0.6080 -0.9399 -0.3555
 8713SOL    HW237773   0.676   1.731   7.762 -0.1363  2.0482 -0.8615
 8714SOL     OW37774   0.865   0.104   4.160  0.3531  0.2831 -0.3083
 8714SOL    HW137775   0.785   0.053   4.169  0.0092  0.9581  0.4763
 8714SOL    HW237776   0.893   0.067   4.076  2.4363  1.5310 -0.1700
 8715SOL     OW37777   0.894   3.281   4.322 -0.5667 -0.2925 -0.0646
 8715SOL    HW137778   0.947   3.304   4.398 -0.4331  1.4616 -0.6698
 8715SOL    HW237779   0.935   3.334   4.253 -0.3585  0.5161  0.6835
 8716SOL     OW37780   0.030   2.064  13.673  0.7996 -0.5041  0.3084
 8716SOL    HW137781   0.023   2.082  13.767  0.2980 -2.6886  0.6825
 8716SOL    HW237782   4.727   2.141  13.636 -1.8571 -2.2511 -0.2222
 8717SOL     OW37783   0.166   3.637   4.891  0.6424  0.3623  0.6858
 8717SOL    HW137784   0.177   3.726   4.926  1.7094  0.4433  0.1495
 8717SOL    HW237785   0.164   3.592   4.976  0.2048  1.2021  1.1287
 8718SOL     OW37786   1.459   1.951  17.741  0.3183 -0.2376  0.2151
 8718SOL    HW137787   1.390   2.005   0.022 -0.5194 -0.2204 -1.3552
 8718SOL    HW237788   1.533   1.974   0.041  0.1191 -0.1690  0.4472
 8719SOL     OW37789   2.693   1.650   3.013 -0.0730  0.3134 -0.8424
 8719SOL    HW137790   2.716   1.695   2.932 -2.9399  2.3004 -0.5519
 8719SOL    HW237791   2.730   1.710   3.078  0.4046  0.2296 -1.0318
 8720SOL     OW37792   0.289   3.774   3.161  0.0775 -0.1492 -0.2560
 8720SOL    HW137793   0.383   3.789   3.151 -0.3820  0.6365 -3.2373
 8720SOL    HW237794   0.254   3.802   3.077  1.3744 -0.8108 -1.0060
 8721SOL     OW37795   1.392   3.386   0.296 -0.0845  0.3606 -0.6960
 8721SOL    HW137796   1.388   3.452   0.365 -2.6747 -1.2123  0.6663
 8721SOL    HW237797   1.484   3.383   0.270 -0.1941  0.0719 -1.0561
 8722SOL     OW37798   1.322   2.797  16.205  0.3650  0.2282 -0.2027
 8722SOL    HW137799   1.378   2.799  16.128  0.0860  1.1645 -0.3773
 8722SOL    HW237800   1.277   2.719  16.172  2.4701 -0.1263 -2.2610
 8723SOL     OW37801   4.154   3.383   7.165  0.0469  0.3212  0.3782
 8723SOL    HW137802   4.248   3.373   7.181  0.1956  1.8732  0.4949
 8723SOL    HW237803   4.126   3.442   7.236  1.8774  0.6829  0.7926
 8724SOL     OW37804   1.654   2.320   7.251  0.2495  0.4231 -0.0592
 8724SOL    HW137805   1.681   2.408   7.226 -0.7888  1.1957  1.5500
 8724SOL    HW237806   1.723   2.287   7.308  2.0918  0.7329 -2.0919
 8725SOL     OW37807   4.020   1.451   4.289  0.3921 -0.0802  0.2884
 8725SOL    HW137808   3.973   1.369   4.276  2.2296 -0.9186 -1.0427
 8725SOL    HW237809   4.101   1.432   4.243  0.3385 -1.1899  0.6558
 8726SOL     OW37810   4.255   3.392   8.836 -0.1741  0.2883 -0.2273
 8726SOL    HW137811   4.313   3.454   8.790  0.7907  0.2235  0.8928
 8726SOL    HW237812   4.294   3.314   8.795 -0.6335  1.0306 -2.0590
 8727SOL     OW37813   3.776   1.461   2.206  0.7313 -0.1037 -0.0524
 8727SOL    HW137814   3.765   1.374   2.246 -0.8715  0.4231  0.6296
 8727SOL    HW237815   3.702   1.517   2.228  0.3455 -0.2204 -1.0702
 8728SOL     OW37816   0.425   1.637   2.110  0.4541 -0.3967  0.0717
 8728SOL    HW137817   0.367   1.561   2.108 -2.4577  1.7840  2.0946
 8728SOL    HW237818   0.455   1.651   2.020 -0.8031  0.9299 -0.1518
 8729SOL     OW37819   4.500   2.861  15.293  0.6709  0.1422  0.2020
 8729SOL    HW137820   4.487   2.807  15.216  2.0821 -0.7091  0.5556
 8729SOL    HW237821   4.556   2.929  15.257  0.5127 -0.1199 -0.5265
 8730SOL     OW37822   3.254   0.987  15.826  0.0659 -0.3989  0.0999
 8730SOL    HW137823   3.216   0.989  15.913 -1.8721  0.3909 -0.7672
 8730SOL    HW237824   3.269   1.080  15.813  1.4601 -0.3068  2.4535
 8731SOL     OW37825   3.934   2.435   6.567 -0.5169 -0.1020 -0.6106
 8731SOL    HW137826   3.990   2.485   6.625  0.6385  0.4403 -2.2002
 8731SOL    HW237827   3.874   2.395   6.630  1.0607 -0.9674  0.3391
 8732SOL     OW37828   3.176   4.705   6.203 -0.2532 -0.3528  0.1933
 8732SOL    HW137829   3.141   4.646   6.136  0.6112  0.8048 -1.2926
 8732SOL    HW237830   3.203   0.037   6.146  0.1684  0.0249  0.8695
 8733SOL     OW37831   0.576   2.253   9.107 -0.2401  0.1297  0.0936
 8733SOL    HW137832   0.627   2.251   9.188 -0.2572  0.9232  0.1237
 8733SOL    HW237833   0.620   2.184   9.057  2.4323  0.9705  1.2502
 8734SOL     OW37834   1.085   4.320  13.598 -0.0677 -0.2227 -0.2631
 8734SOL    HW137835   1.103   4.356  13.511  5.4535 -0.5824  0.7367
 8734SOL    HW237836   1.152   4.363  13.650  0.7824  1.9786 -3.1569
 8735SOL     OW37837   1.281   4.288  17.404 -0.1940  0.3236 -0.0280
 8735SOL    HW137838   1.291   4.209  17.456  2.7530 -1.2705 -3.0004
 8735SOL    HW237839   1.211   4.266  17.342  0.2247  0.2216 -0.4668
 8736SOL     OW37840   4.534   2.025   9.168 -0.0084 -0.0722  0.0522
 8736SOL    HW137841   4.505   2.100   9.117  0.3602 -0.2689 -0.4529
 8736SOL    HW237842   4.452   1.989   9.202 -0.5277 -0.5569 -1.7300
 8737SOL     OW37843   4.528   1.524   1.882 -0.1287  0.5270  0.0105
 8737SOL    HW137844   4.605   1.580   1.871  0.0404  0.8529  2.8165
 8737SOL    HW237845   4.521   1.476   1.800 -1.4978 -3.0381  2.2050
 8738SOL     OW37846   2.210   2.339   5.008  0.0034  0.2579  0.5157
 8738SOL    HW137847   2.283   2.305   5.060  0.2469 -0.5273 -0.3514
 8738SOL    HW237848   2.227   2.290   4.928  2.7750  0.8982  0.7099
 8739SOL     OW37849   0.717   0.908   2.375  0.4340 -0.4114 -0.2342
 8739SOL    HW137850   0.760   0.963   2.441  2.9117 -0.0645 -2.1192
 8739SOL    HW237851   0.728   0.820   2.412  0.2601 -0.8028 -1.1108
 8740SOL     OW37852   3.735   2.349  10.868  0.0192 -0.2946 -0.2252
 8740SOL    HW137853   3.721   2.428  10.816  2.5197 -0.0248 -0.4581
 8740SOL    HW237854   3.748   2.281  10.802 -0.0374 -1.7356  1.2418
 8741SOL     OW37855   1.785   0.009   8.747  0.2708  0.0273  0.1976
 8741SOL    HW137856   1.866   0.050   8.715 -0.8667  2.5985  0.6283
 8741SOL    HW237857   1.759   0.058   8.825 -1.9153  1.9495 -1.7236
 8742SOL     OW37858   2.374   1.294   8.518 -0.1883 -0.4853 -0.3390
 8742SOL    HW137859   2.394   1.368   8.575 -2.3679  0.4571 -0.7977
 8742SOL    HW237860   2.373   1.336   8.432 -1.8328 -1.6933 -0.9140
 8743SOL     OW37861   1.985   2.019  17.213  0.3276 -0.5818 -0.1259
 8743SOL    HW137862   1.986   1.958  17.287  1.0442  0.4588  0.7301
 8743SOL    HW237863   1.998   2.104  17.254 -1.6810  0.6194 -2.0217
 8744SOL     OW37864   0.558   0.778  11.175 -0.3077  0.1437  0.0832
 8744SOL    HW137865   0.573   0.822  11.258 -0.0473 -1.5862  0.9483
 8744SOL    HW237866   0.632   0.797  11.117 -2.0023 -2.7902 -3.0492
 8745SOL     OW37867   2.248   0.800   6.135 -0.0260 -0.5575 -0.2238
 8745SOL    HW137868   2.293   0.794   6.051 -1.0774  1.7506 -0.9500
 8745SOL    HW237869   2.164   0.837   6.109  0.8876  0.4634 -1.6757
 8746SOL     OW37870   2.347   3.749   3.087 -0.2691  0.4991 -0.2333
 8746SOL    HW137871   2.314   3.696   3.015 -2.2298  1.1862  0.1459
 8746SOL    HW237872   2.261   3.786   3.109 -0.6973  0.6074 -2.0662
 8747SOL     OW37873   3.437   2.509   4.482 -0.1169 -0.4505 -0.1019
 8747SOL    HW137874   3.377   2.469   4.419 -0.1137 -0.5185 -0.0614
 8747SOL    HW237875   3.403   2.488   4.569  0.0583 -1.0830 -0.1850
 8748SOL     OW37876   4.187   0.054   2.948  0.7984  0.3886  0.0785
 8748SOL    HW137877   4.253   0.002   2.902  0.4007  0.0396 -0.1077
 8748SOL    HW237878   4.246   0.121   2.981  0.5974  0.7719 -0.3339
 8749SOL     OW37879   0.164   3.072  10.170 -0.3049 -0.3701  0.5166
 8749SOL    HW137880   0.130   3.005  10.111  0.1401 -0.1512  0.0070
 8749SOL    HW237881   0.134   3.029  10.250 -2.5626  0.9887  0.4218
 8750SOL     OW37882   3.640   0.056   5.121 -0.0785 -0.1308 -0.1912
 8750SOL    HW137883   3.731   0.040   5.145  0.1205 -0.3671 -1.1326
 8750SOL    HW237884   3.639   0.148   5.095  0.8163  0.0227  0.3201
 8751SOL     OW37885   2.935   4.521  11.721  0.6277  0.0424  0.0634
 8751SOL    HW137886   3.023   4.557  11.719  1.0361 -0.8976  0.9769
 8751SOL    HW237887   2.889   4.572  11.788  1.2069 -0.0617  0.5362
 8752SOL     OW37888   2.278   1.062   8.625 -0.0323  0.2434 -0.0088
 8752SOL    HW137889   2.219   1.126   8.586  2.4010  2.1044 -0.6150
 8752SOL    HW237890   2.358   1.114   8.619 -0.3954  0.6632 -1.1906
 8753SOL     OW37891   4.117   3.121  10.659 -0.6065 -0.0520  0.1468
 8753SOL    HW137892   4.080   3.168  10.584 -0.6770  0.5531  0.5588
 8753SOL    HW237893   4.136   3.194  10.718  1.5488 -0.3552 -0.1918
 8754SOL     OW37894   2.070   3.424   6.208  0.8168 -0.5956  0.1290
 8754SOL    HW137895   2.057   3.467   6.293 -1.0660 -0.9374  0.0314
 8754SOL    HW237896   2.154   3.388   6.234  1.3109 -0.2426 -1.0041
 8755SOL     OW37897   4.082   4.038  17.672 -0.2628  0.0515  0.1538
 8755SOL    HW137898   4.091   4.008  17.581  2.5645  0.4703  0.2871
 8755SOL    HW237899   4.044   4.124  17.653 -3.1514 -1.1868  0.2933
 8756SOL     OW37900   1.499   2.687  14.389 -0.3773  0.0640  0.7131
 8756SOL    HW137901   1.407   2.671  14.406 -0.3962  0.1629  0.7019
 8756SOL    HW237902   1.543   2.623  14.445 -0.3124 -1.1765 -0.7867
 8757SOL     OW37903   4.578   3.424   2.169 -0.1777 -0.2623 -0.0172
 8757SOL    HW137904   4.652   3.405   2.227 -0.2954  1.1476  0.5999
 8757SOL    HW237905   4.531   3.346   2.197 -1.6025  0.6893  0.2642
 8758SOL     OW37906   2.343   1.283   1.072 -0.0137 -0.8288  0.6223
 8758SOL    HW137907   2.366   1.193   1.095  1.4317 -0.6146 -0.0041
 8758SOL    HW237908   2.411   1.305   1.009 -1.3562  1.2886 -0.0923
 8759SOL     OW37909   1.806   0.423  10.453  0.1838  0.5612 -0.1074
 8759SOL    HW137910   1.818   0.346  10.509 -0.7322  0.0539 -0.6071
 8759SOL    HW237911   1.797   0.494  10.517 -0.5468  0.3081  0.0720
 8760SOL     OW37912   1.098   3.604   7.163 -0.1586  0.1124 -0.5347
 8760SOL    HW137913   1.176   3.604   7.218 -0.1839  3.4019 -0.4885
 8760SOL    HW237914   1.136   3.628   7.078  0.1843 -0.4785 -0.5468
 8761SOL     OW37915   0.819   0.505   3.591 -0.1562 -0.6616 -0.6492
 8761SOL    HW137916   0.898   0.514   3.644  1.8137  1.0112 -3.8734
 8761SOL    HW237917   0.789   0.595   3.579  0.6418 -0.2062  0.6631
 8762SOL     OW37918   3.694   3.685   4.454  0.7029 -0.4127  0.9892
 8762SOL    HW137919   3.683   3.720   4.366 -2.6832 -0.0198  1.5741
 8762SOL    HW237920   3.604   3.650   4.455  0.4929  0.1067  0.2625
 8763SOL     OW37921   4.032   2.038   7.643  0.6033  0.5102 -0.1202
 8763SOL    HW137922   4.108   2.085   7.679 -0.6857  1.9721  0.6867
 8763SOL    HW237923   4.078   1.964   7.603 -0.3244  0.1363 -0.4747
 8764SOL     OW37924   0.636   1.573   8.012 -0.1067  0.3845 -0.0887
 8764SOL    HW137925   0.605   1.611   8.094  0.1625 -0.4739  0.4117
 8764SOL    HW237926   0.550   1.570   7.971 -0.9033  0.5423  1.5857
 8765SOL     OW37927   3.464   1.287   4.290 -0.1647 -0.5492  0.2816
 8765SOL    HW137928   3.408   1.364   4.286 -0.8943 -1.1036 -0.1370
 8765SOL    HW237929   3.446   1.249   4.377 -0.8267 -1.5087 -0.2722
 8766SOL     OW37930   2.579   1.802   8.973  0.0382 -0.1881  0.0200
 8766SOL    HW137931   2.541   1.715   8.986 -1.0145  0.3936  0.8950
 8766SOL    HW237932   2.499   1.855   8.973  1.3201  1.7471 -0.4095
 8767SOL     OW37933   0.164   4.058  16.792  0.4570 -0.1035  0.3421
 8767SOL    HW137934   0.204   4.036  16.708  1.2719  3.0671 -0.1195
 8767SOL    HW237935   0.099   3.990  16.806  0.8702 -0.3688  0.9620
 8768SOL     OW37936   4.106   3.110   4.948  0.1147  0.5365  0.0474
 8768SOL    HW137937   4.047   3.105   4.872 -0.4346 -1.8370  0.6489
 8768SOL    HW237938   4.145   3.197   4.954 -0.6985  0.9687 -0.9288
 8769SOL     OW37939   0.827   4.038   2.662  0.5213 -0.0391  0.2160
 8769SOL    HW137940   0.917   4.061   2.640  0.8211 -1.1767  0.2507
 8769SOL    HW237941   0.825   4.080   2.747 -1.4310 -1.9738  1.1378
 8770SOL     OW37942   4.668   4.212   5.361  0.1387  0.4328 -0.0321
 8770SOL    HW137943   4.602   4.144   5.346 -0.2768  1.0872 -1.1613
 8770SOL    HW237944   4.637   4.276   5.296 -0.4013  2.3253  2.0883
 8771SOL     OW37945   1.314   0.498   6.256 -0.2660  0.4302  0.3259
 8771SOL    HW137946   1.380   0.502   6.325 -0.4984  3.8724  0.3394
 8771SOL    HW237947   1.246   0.555   6.293  0.2215  0.2465  1.5120
 8772SOL     OW37948   4.427   4.520   5.270  0.2724 -0.0286 -0.0001
 8772SOL    HW137949   4.450   4.590   5.331 -2.0244 -0.0406  0.9004
 8772SOL    HW237950   4.494   4.541   5.204 -1.7049  1.6366 -1.5056
 8773SOL     OW37951   3.603   4.715   1.698  0.3387  0.3557 -0.3185
 8773SOL    HW137952   3.605   4.687   1.789 -0.0074  1.2747 -0.0226
 8773SOL    HW237953   3.554   0.058   1.700 -1.2988 -0.7467  3.7148
 8774SOL     OW37954   3.123   2.313  17.304  0.1504 -0.3776  0.1556
 8774SOL    HW137955   3.072   2.388  17.274 -0.1016  0.1931  2.0068
 8774SOL    HW237956   3.052   2.248  17.309 -1.2234  0.8894 -2.7089
 8775SOL     OW37957   1.433   2.812  17.629  0.1571  0.1363 -0.5072
 8775SOL    HW137958   1.364   2.850  17.575 -2.4430 -2.6497  0.8493
 8775SOL    HW237959   1.414   2.719  17.625  1.8763 -0.2634  0.7571
 8776SOL     OW37960   0.974   1.037   2.003 -0.2837 -0.4196 -0.5985
 8776SOL    HW137961   1.005   1.072   2.087 -0.6278  0.9147 -1.0330
 8776SOL    HW237962   1.034   0.963   1.998 -0.0901 -0.2966 -0.0824
 8777SOL     OW37963   3.069   4.460   6.686 -0.0854 -0.6822  0.1051
 8777SOL    HW137964   2.977   4.484   6.698  0.1209  0.2697 -0.2598
 8777SOL    HW237965   3.117   4.525   6.737  2.1666 -1.0009 -1.6387
 8778SOL     OW37966   0.172   3.517   3.121 -0.8166  0.1213 -0.2420
 8778SOL    HW137967   0.249   3.573   3.108 -1.6643  0.7426 -2.5944
 8778SOL    HW237968   0.110   3.574   3.075 -0.2277 -0.0904 -1.3018
 8779SOL     OW37969   3.308   1.699   7.555 -0.0277 -0.0729 -0.5137
 8779SOL    HW137970   3.352   1.677   7.637 -1.3535 -1.7070 -0.2432
 8779SOL    HW237971   3.314   1.615   7.510 -1.7704 -0.2645 -0.3842
 8780SOL     OW37972   1.348   4.372   6.690  0.0891 -0.1175  0.6830
 8780SOL    HW137973   1.368   4.410   6.775  0.0087  1.5151 -0.0326
 8780SOL    HW237974   1.357   4.281   6.718  0.6154 -1.2679 -3.2371
 8781SOL     OW37975   2.963   0.784  13.398 -0.2725 -0.1926 -0.2775
 8781SOL    HW137976   3.045   0.815  13.361 -0.7718 -0.9237 -1.9919
 8781SOL    HW237977   2.934   0.720  13.334  1.5026 -0.6994 -0.5523
 8782SOL     OW37978   0.487   2.964  11.309 -0.2389  0.5089 -0.0593
 8782SOL    HW137979   0.530   2.889  11.267 -1.3618  0.2616 -0.7715
 8782SOL    HW237980   0.483   2.939  11.401 -1.8065 -1.8744 -0.7717
 8783SOL     OW37981   2.617   1.849   1.568  0.3890  0.3765 -0.0685
 8783SOL    HW137982   2.589   1.759   1.585 -0.1590  0.7497  1.0450
 8783SOL    HW237983   2.669   1.860   1.647  1.3968 -1.2027 -0.5131
 8784SOL     OW37984   3.343   0.121  17.442  0.1798 -0.1123 -0.3371
 8784SOL    HW137985   3.401   0.077  17.380 -1.1540 -2.3508  0.0206
 8784SOL    HW237986   3.271   0.144  17.384 -1.0607  0.1861  1.3000
 8785SOL     OW37987   3.598   1.209  10.343 -0.1240  0.4036 -0.0039
 8785SOL    HW137988   3.542   1.170  10.277 -1.1188  0.3309  0.8783
 8785SOL    HW237989   3.683   1.173  10.317 -0.6971 -1.3759  0.5528
 8786SOL     OW37990   2.014   0.110   7.034  0.5927 -0.1136  0.0192
 8786SOL    HW137991   2.070   0.187   7.045  1.9125 -0.9554 -0.7872
 8786SOL    HW237992   2.037   0.085   6.944 -0.9239 -0.9394 -0.1265
 8787SOL     OW37993   2.661   3.615   9.829  0.5441  0.0874  0.1525
 8787SOL    HW137994   2.649   3.556   9.903 -1.7103  1.3874  0.8243
 8787SOL    HW237995   2.684   3.552   9.760  3.6678 -0.0309  1.3029
 8788SOL     OW37996   2.624   3.765   0.301  0.4860 -0.0835 -0.5123
 8788SOL    HW137997   2.585   3.791   0.384  1.6355 -0.3235  0.0950
 8788SOL    HW237998   2.543   3.743   0.255 -0.6592 -1.5914  2.2368
 8789SOL     OW37999   0.656   4.372  11.866  0.8672  0.0970 -0.4900
 8789SOL    HW138000   0.723   4.417  11.814  1.5206 -0.8048 -0.4235
 8789SOL    HW238001   0.705   4.314  11.924 -1.4008 -0.1487  1.1898
 8790SOL     OW38002   1.943   4.651   2.360 -0.1212  0.3562 -0.3067
 8790SOL    HW138003   2.011   4.628   2.297  1.3553  1.0980  1.0124
 8790SOL    HW238004   1.963   0.001   2.384 -1.6130  1.2837 -2.5965
 8791SOL     OW38005   4.632   1.244   8.245  0.0848  0.1006 -0.2349
 8791SOL    HW138006   4.583   1.291   8.178 -0.5263 -0.8379 -0.4450
 8791SOL    HW238007   4.717   1.268   8.208  0.0538  0.0893 -0.3129
 8792SOL     OW38008   2.334   1.798  13.729 -0.0631 -0.5366 -0.1547
 8792SOL    HW138009   2.419   1.840  13.710 -0.7888  0.9425 -0.1533
 8792SOL    HW238010   2.332   1.813  13.824  0.2427  1.8785 -0.5174
 8793SOL     OW38011   1.197   2.840  11.491  0.4600  0.3675  0.2149
 8793SOL    HW138012   1.177   2.890  11.570 -2.5463 -1.2870  0.4832
 8793SOL    HW238013   1.114   2.855  11.447  0.3866 -3.9704 -1.1340
 8794SOL     OW38014   4.170   0.805   4.318 -0.0841  0.3079  0.6913
 8794SOL    HW138015   4.146   0.764   4.401 -1.7039  1.2177  0.6814
 8794SOL    HW238016   4.109   0.878   4.308 -1.9611 -0.8786  3.3370
 8795SOL     OW38017   4.185   1.731   6.989  0.6186 -0.0051  0.3228
 8795SOL    HW138018   4.208   1.817   6.956  1.1949 -1.4164 -2.9623
 8795SOL    HW238019   4.175   1.747   7.083  0.2695 -1.1291  0.4812
 8796SOL     OW38020   4.107   3.457   1.102  0.2321  0.4209  0.2916
 8796SOL    HW138021   4.017   3.436   1.129  0.6115 -2.6245 -0.8053
 8796SOL    HW238022   4.147   3.370   1.101 -0.9323 -0.1031 -1.4307
 8797SOL     OW38023   1.107   0.394   7.378 -0.1144  0.4706  0.3817
 8797SOL    HW138024   1.052   0.469   7.353 -0.2803 -0.0693 -0.8836
 8797SOL    HW238025   1.087   0.337   7.304 -0.1838 -0.6953  1.3101
 8798SOL     OW38026   3.861   0.101   1.206  0.3439 -0.2061 -0.7437
 8798SOL    HW138027   3.892   0.052   1.283 -0.4285 -0.0225 -0.3152
 8798SOL    HW238028   3.942   0.137   1.171  0.2572  0.6990 -0.0142
 8799SOL     OW38029   3.172   4.330   3.565  0.1353  0.4387 -0.2081
 8799SOL    HW138030   3.248   4.281   3.534 -0.2762 -1.8049  2.3495
 8799SOL    HW238031   3.148   4.386   3.491 -0.0368  1.0475  0.3034
 8800SOL     OW38032   2.969   1.779  15.479  0.1739  0.2818  0.6319
 8800SOL    HW138033   3.042   1.750  15.533  1.2635  1.1212 -0.3777
 8800SOL    HW238034   2.893   1.738  15.519 -1.3458 -0.1486 -2.6891
 8801SOL     OW38035   4.202   0.183   1.485 -0.1261 -0.5025 -0.2381
 8801SOL    HW138036   4.221   0.236   1.408  0.5062  1.2831  1.1351
 8801SOL    HW238037   4.171   0.253   1.543 -0.3200  0.1862 -1.1814
 8802SOL     OW38038   1.538   4.496  11.422  0.0878 -0.3132  0.1235
 8802SOL    HW138039   1.609   4.433  11.411  1.5550  1.1270  1.3432
 8802SOL    HW238040   1.570   4.576  11.378  1.3028 -1.1247 -0.4652
 8803SOL     OW38041   3.047   2.408   5.021 -0.4606 -0.3628  0.7200
 8803SOL    HW138042   2.974   2.393   5.080 -0.8464  1.7207  0.7485
 8803SOL    HW238043   3.095   2.327   5.041  0.6644  0.2831  0.6005
 8804SOL     OW38044   1.837   3.869   1.929  0.6035 -0.0751  0.9689
 8804SOL    HW138045   1.893   3.905   1.997  1.2014  0.4277  0.2129
 8804SOL    HW238046   1.766   3.829   1.979 -0.2431 -1.3828 -1.2738
 8805SOL     OW38047   4.472   3.166   5.984  0.5614  0.2780 -0.4284
 8805SOL    HW138048   4.384   3.203   5.988  0.0127 -1.1623  0.9099
 8805SOL    HW238049   4.453   3.075   5.959 -1.8559  0.5273  0.5536
 8806SOL     OW38050   2.654   1.402   4.315  0.4812  0.0502 -0.3173
 8806SOL    HW138051   2.685   1.426   4.403  1.9016 -1.6581 -0.3534
 8806SOL    HW238052   2.705   1.323   4.296  2.4948  1.2367  0.2509
 8807SOL     OW38053   3.872   0.219  14.436 -0.2744  0.0372  0.0625
 8807SOL    HW138054   3.849   0.266  14.516  0.7973 -1.8201  1.4827
 8807SOL    HW238055   3.903   0.290  14.381 -2.4264  0.8852 -0.0689
 8808SOL     OW38056   4.184   3.520   3.922 -0.3835  0.2216 -0.0994
 8808SOL    HW138057   4.277   3.502   3.911 -0.7110 -0.9244 -0.9625
 8808SOL    HW238058   4.172   3.501   4.015 -0.1001  0.0821 -0.0932
 8809SOL     OW38059   1.837   2.151   7.728  0.5297  0.0348 -0.0349
 8809SOL    HW138060   1.878   2.175   7.811 -0.4290  0.7663  0.2273
 8809SOL    HW238061   1.850   2.234   7.682  0.8826  0.8878  1.6039
 8810SOL     OW38062   0.105   3.156  14.926 -0.2792  0.0719 -0.1130
 8810SOL    HW138063   0.121   3.199  15.010  0.8699 -1.2362  0.3367
 8810SOL    HW238064   0.162   3.207  14.868  0.1153  1.2402  1.2927
 8811SOL     OW38065   3.330   2.283  13.496 -0.2373  0.0038  0.0548
 8811SOL    HW138066   3.297   2.361  13.450  1.9903  0.1479 -1.3222
 8811SOL    HW238067   3.363   2.320  13.578 -0.7364 -1.3572  0.8593
 8812SOL     OW38068   2.451   1.306   6.787 -0.1599 -0.1659  0.8975
 8812SOL    HW138069   2.420   1.245   6.720  3.0966 -1.4251  0.5183
 8812SOL    HW238070   2.495   1.240   6.840  0.3906  0.6306  1.4463
 8813SOL     OW38071   2.105   3.847   3.198  0.0415 -0.2737  0.5872
 8813SOL    HW138072   2.107   3.938   3.229 -0.9514  0.3943 -1.3213
 8813SOL    HW238073   2.020   3.841   3.154  0.7016  0.7894 -0.8312
 8814SOL     OW38074   1.195   2.173   4.240  0.2332  0.2996  0.2341
 8814SOL    HW138075   1.208   2.172   4.335 -0.2732 -0.5205  0.3003
 8814SOL    HW238076   1.201   2.078   4.227  0.8481  0.5620 -1.4058
 8815SOL     OW38077   3.497   3.692   3.940 -0.3017 -0.5827 -0.3810
 8815SOL    HW138078   3.427   3.740   3.983  2.6296  1.6158  1.9787
 8815SOL    HW238079   3.572   3.747   3.961 -0.5188 -1.2916  2.1712
 8816SOL     OW38080   3.734   2.452   4.488 -0.3583 -0.4722  0.7725
 8816SOL    HW138081   3.640   2.474   4.490 -0.2136  0.3992 -1.5560
 8816SOL    HW238082   3.769   2.515   4.551  0.0821  1.2041 -1.1496
 8817SOL     OW38083   0.128   0.819   1.711 -0.1451  0.4203  0.4619
 8817SOL    HW138084   0.173   0.884   1.765 -0.8607  0.7177  0.6974
 8817SOL    HW238085   0.044   0.811   1.755 -0.2493 -1.5487 -0.1142
 8818SOL     OW38086   1.088   1.374   7.038  0.6962 -0.0522 -0.0737
 8818SOL    HW138087   1.002   1.375   6.995  0.6386  0.0369  0.0422
 8818SOL    HW238088   1.082   1.461   7.078 -0.3957 -0.8080  1.4218
 8819SOL     OW38089   2.010   1.876   1.978  0.1353 -0.1824 -0.3084
 8819SOL    HW138090   2.059   1.803   1.941  1.5455  1.4623 -1.6586
 8819SOL    HW238091   2.006   1.936   1.903  0.3862 -0.6104 -0.6596
 8820SOL     OW38092   2.987   0.307  16.922 -0.2129  0.0242 -0.1920
 8820SOL    HW138093   3.033   0.387  16.895 -0.7861 -0.2857 -2.0855
 8820SOL    HW238094   2.899   0.338  16.943  0.9605  1.7373  2.1736
 8821SOL     OW38095   2.653   0.834   6.695  0.0030 -0.0797 -0.1165
 8821SOL    HW138096   2.670   0.741   6.706 -3.3819 -0.6106  0.3727
 8821SOL    HW238097   2.665   0.832   6.600 -0.6417  1.0584 -0.2216
 8822SOL     OW38098   0.847   1.342   6.902 -0.0206 -0.5623 -0.1683
 8822SOL    HW138099   0.847   1.292   6.821  1.3663 -1.4160  0.3640
 8822SOL    HW238100   0.752   1.346   6.913  0.2078 -2.1938  2.3531
 8823SOL     OW38101   0.885   2.166  10.370  0.4374  0.1946  0.5170
 8823SOL    HW138102   0.902   2.260  10.379 -3.3490  0.9946 -0.6512
 8823SOL    HW238103   0.975   2.140  10.351  0.1573  2.1315 -3.5437
 8824SOL     OW38104   1.812   1.035   2.438  0.4048  0.1154 -0.2067
 8824SOL    HW138105   1.903   1.057   2.459  0.6894 -1.3781  0.0684
 8824SOL    HW238106   1.767   1.064   2.518  1.1064 -0.2441  0.3147
 8825SOL     OW38107   4.297   2.025   5.389 -0.0505  0.6298 -0.6936
 8825SOL    HW138108   4.217   2.072   5.365 -0.0703  0.7554 -0.3787
 8825SOL    HW238109   4.355   2.053   5.318  0.4905 -0.3694 -0.6463
 8826SOL     OW38110   1.871   1.238   7.039  0.2104  0.6959  0.6774
 8826SOL    HW138111   1.813   1.268   6.969 -0.8449  1.3046  1.8288
 8826SOL    HW238112   1.897   1.322   7.075 -0.2767  1.6831 -1.2525
 8827SOL     OW38113   2.906   1.846  14.772  0.1277  0.8001 -0.1295
 8827SOL    HW138114   2.880   1.922  14.824 -0.4632  0.6009 -0.1319
 8827SOL    HW238115   2.958   1.798  14.836 -2.2637 -2.1802 -0.3739
 8828SOL     OW38116   0.005   3.635   8.734  0.4930 -0.2754  0.4631
 8828SOL    HW138117   0.004   3.707   8.798 -0.7425  0.0198  0.1152
 8828SOL    HW238118   0.053   3.562   8.773  1.2503  0.3689  0.7327
 8829SOL     OW38119   1.285   1.291   5.276  0.4993 -0.0808  0.1670
 8829SOL    HW138120   1.319   1.294   5.186  3.0170  1.7766  1.1934
 8829SOL    HW238121   1.347   1.231   5.318  0.9742  0.2867 -0.0044
 8830SOL     OW38122   1.161   2.827   1.607  0.1652  0.2369  0.5508
 8830SOL    HW138123   1.104   2.805   1.680  0.8379 -0.8793  0.7417
 8830SOL    HW238124   1.103   2.812   1.532  0.5722 -0.2014  0.3191
 8831SOL     OW38125   0.647   4.247   7.450  0.5838 -0.0149  0.0969
 8831SOL    HW138126   0.649   4.342   7.445 -0.1703  0.0076  0.2440
 8831SOL    HW238127   0.574   4.229   7.509  1.5893 -2.2351  0.6512
 8832SOL     OW38128   3.317   2.489   9.896  0.2332  0.3686  0.1321
 8832SOL    HW138129   3.302   2.503   9.802 -1.0315 -0.3469  0.2165
 8832SOL    HW238130   3.341   2.397   9.893 -1.6064 -0.1775  1.5636
 8833SOL     OW38131   0.257   1.364   3.979  0.2377  0.0014 -0.8009
 8833SOL    HW138132   0.306   1.291   4.018  2.0278  1.8851  0.4761
 8833SOL    HW238133   0.338   1.407   3.952  0.0813  0.8173  0.0180
 8834SOL     OW38134   1.918   3.944   3.984  0.6717  0.0827  0.1057
 8834SOL    HW138135   1.832   3.919   3.951  0.9982 -0.8294 -0.0276
 8834SOL    HW238136   1.934   4.022   3.930 -0.7713 -0.3807 -0.9685
 8835SOL     OW38137   1.843   3.962   9.299 -0.4047 -0.2092 -0.5627
 8835SOL    HW138138   1.916   3.903   9.280 -0.3750 -0.8111  1.4532
 8835SOL    HW238139   1.779   3.900   9.332 -2.4066  2.4207  0.4685
 8836SOL     OW38140   2.023   2.325  13.674  0.1074  0.4488  0.0434
 8836SOL    HW138141   1.950   2.351  13.618 -0.1939  0.9286  0.6494
 8836SOL    HW238142   2.030   2.233  13.649  0.6545  0.6167 -0.4052
 8837SOL     OW38143   0.285   2.713   6.521  0.1654  0.3339  0.1780
 8837SOL    HW138144   0.320   2.794   6.556  0.7367 -0.6537  1.9052
 8837SOL    HW238145   0.278   2.755   6.435  1.7014  0.4662  0.1224
 8838SOL     OW38146   2.366   0.533  12.303  0.5521  0.2544 -0.1333
 8838SOL    HW138147   2.360   0.523  12.398 -0.1567  0.1117 -0.1991
 8838SOL    HW238148   2.445   0.480  12.290  1.1870  0.8993  1.0548
 8839SOL     OW38149   0.491   0.373   6.161  0.3134  0.5802  0.3381
 8839SOL    HW138150   0.577   0.413   6.169  0.2580  0.6374  0.6240
 8839SOL    HW238151   0.439   0.412   6.231  1.0888  1.0597  0.6410
 8840SOL     OW38152   0.728   3.626  13.910  0.8008 -0.1092 -0.0593
 8840SOL    HW138153   0.734   3.653  13.818 -1.3005 -2.6891 -0.9248
 8840SOL    HW238154   0.667   3.692  13.942 -0.5595 -1.1107 -0.6127
 8841SOL     OW38155   0.712   3.374   2.648  0.3877  0.0472  0.0542
 8841SOL    HW138156   0.756   3.290   2.634 -1.7613 -1.6216  3.2552
 8841SOL    HW238157   0.622   3.350   2.628  0.7151 -0.7287 -0.5358
 8842SOL     OW38158   2.455   0.584   8.589  0.1879 -0.0883 -0.0963
 8842SOL    HW138159   2.495   0.589   8.502  1.8333 -0.0463  0.6477
 8842SOL    HW238160   2.393   0.657   8.594  0.6881  0.3814 -0.6971
 8843SOL     OW38161   0.852   3.570  14.339 -0.2840  0.6170 -0.0002
 8843SOL    HW138162   0.803   3.611  14.267  0.2668 -0.1672 -0.8195
 8843SOL    HW238163   0.806   3.486  14.337 -1.7901  1.3517  2.5073
 8844SOL     OW38164   2.365   1.043   7.905  0.3025  0.0789  0.4552
 8844SOL    HW138165   2.327   0.976   7.848  0.0055 -1.0429  1.9731
 8844SOL    HW238166   2.429   0.994   7.957 -0.0218  0.9995  1.7188
 8845SOL     OW38167   1.617   4.684  13.376 -0.8042  0.7713 -0.2008
 8845SOL    HW138168   1.621   4.736  13.295 -0.6332 -1.6192 -1.7403
 8845SOL    HW238169   1.678   4.727  13.436  0.6313 -0.1765 -0.9780
 8846SOL     OW38170   1.973   3.059   9.302 -0.0503  0.4781 -0.7803
 8846SOL    HW138171   2.019   3.142   9.288  1.2771 -0.4363 -1.8514
 8846SOL    HW238172   1.916   3.092   9.372  0.1854  0.7890 -0.7327
 8847SOL     OW38173   3.043   2.274   1.062 -0.7463  0.0080 -0.0403
 8847SOL    HW138174   3.131   2.248   1.035 -1.7859 -1.5089 -1.9847
 8847SOL    HW238175   2.994   2.193   1.052 -1.0424  0.3176 -1.0621
 8848SOL     OW38176   1.553   0.302   7.321 -0.3966 -0.7077 -0.2662
 8848SOL    HW138177   1.600   0.222   7.343  0.5251  0.1932  1.0452
 8848SOL    HW238178   1.598   0.332   7.243  1.8860 -0.2417  1.2333
 8849SOL     OW38179   0.231   2.439   1.593 -0.6192  0.2869  0.7162
 8849SOL    HW138180   0.189   2.511   1.546 -1.2316 -1.6078 -1.6478
 8849SOL    HW238181   0.258   2.482   1.674  1.6768 -0.9163  0.5913
 8850SOL     OW38182   0.233   0.181  17.412  0.3377  0.2663  0.0875
 8850SOL    HW138183   0.171   0.241  17.454  1.8330 -0.0621  2.7668
 8850SOL    HW238184   0.318   0.215  17.437  0.8262 -1.0693  0.2713
 8851SOL     OW38185   2.377   0.117  10.992 -0.8170  0.4590 -0.3981
 8851SOL    HW138186   2.357   0.135  11.084  0.5601 -2.0658  0.3910
 8851SOL    HW238187   2.327   0.037  10.978 -1.8653  1.1265 -0.4984
 8852SOL     OW38188   0.714   1.560  11.431 -0.3226  0.3428  0.5410
 8852SOL    HW138189   0.744   1.650  11.445 -0.7091  0.4080  0.9336
 8852SOL    HW238190   0.777   1.512  11.486 -0.3101  1.0869  1.1698
 8853SOL     OW38191   1.026   1.526   3.746  0.1182 -0.0996  0.1236
 8853SOL    HW138192   1.051   1.585   3.817 -1.1164  0.9367 -0.3071
 8853SOL    HW238193   1.007   1.449   3.799  2.3823  0.7952  2.2185
 8854SOL     OW38194   0.228   1.317  17.624 -0.1253  0.1270 -0.5547
 8854SOL    HW138195   0.167   1.386  17.596  0.0576 -0.1854 -1.7111
 8854SOL    HW238196   0.231   1.288  17.533 -3.7160  1.9055 -1.2720
 8855SOL     OW38197   1.067   0.969   3.713 -0.0336  0.2997  1.0063
 8855SOL    HW138198   1.129   0.901   3.740  1.2043  1.0617  0.0724
 8855SOL    HW238199   1.020   0.978   3.796  0.6837  0.2194  1.4160
 8856SOL     OW38200   0.889   3.437   7.178 -0.1614 -0.1274 -0.2255
 8856SOL    HW138201   0.915   3.359   7.226 -1.3353 -1.6945 -2.1457
 8856SOL    HW238202   0.961   3.497   7.198 -0.1071  0.0434 -0.9085
 8857SOL     OW38203   1.985   3.969   4.275 -0.6353 -0.3699 -0.2391
 8857SOL    HW138204   1.939   3.885   4.266 -1.8243  0.2561 -0.0083
 8857SOL    HW238205   1.991   3.990   4.182  1.4200  1.4758  0.3215
 8858SOL     OW38206   3.822   4.728  16.128  0.0786 -0.3355 -0.3087
 8858SOL    HW138207   3.899   0.032  16.092 -1.0178  1.0171 -1.0217
 8858SOL    HW238208   3.862   4.702  16.211  2.0881 -0.4695 -1.3363
 8859SOL     OW38209   4.039   0.212  12.692  0.1222 -0.2884  0.0196
 8859SOL    HW138210   4.123   0.224  12.736 -0.6486 -4.7522  2.7543
 8859SOL    HW238211   3.973   0.234  12.757  1.3332  2.5919  0.2534
 8860SOL     OW38212   3.432   2.694   4.897  0.0014  0.3985  0.5146
 8860SOL    HW138213   3.485   2.703   4.977  0.4790  0.7546  0.1521
 8860SOL    HW238214   3.359   2.755   4.910 -2.4450 -2.0486 -1.7521
 8861SOL     OW38215   2.026   3.770   2.492  0.1288  0.4379  0.1854
 8861SOL    HW138216   1.943   3.752   2.449 -1.3351  1.2951  2.6319
 8861SOL    HW238217   2.069   3.686   2.475 -1.2099  0.0956 -1.4844
 8862SOL     OW38218   3.071   2.258   3.081 -0.0081  0.2401 -0.3007
 8862SOL    HW138219   3.126   2.311   3.139 -0.7554  0.7504 -0.0640
 8862SOL    HW238220   3.126   2.235   3.006  1.0076 -0.1373  0.5665
 8863SOL     OW38221   3.975   0.552   5.555  0.5637 -0.3009 -0.2937
 8863SOL    HW138222   4.060   0.508   5.560  1.4770  1.5492  0.4979
 8863SOL    HW238223   3.997   0.631   5.604  0.8272 -1.1859  1.0337
 8864SOL     OW38224   4.693   0.252   4.056  0.7653 -0.6164 -0.0040
 8864SOL    HW138225   0.009   0.300   4.116 -0.0719 -1.4283  1.4235
 8864SOL    HW238226   0.012   0.265   3.981 -0.6250  1.8066 -0.6886
 8865SOL     OW38227   2.668   3.354  14.891 -0.8372 -0.0427 -0.1865
 8865SOL    HW138228   2.698   3.270  14.856 -0.8984 -0.2728  0.3114
 8865SOL    HW238229   2.750   3.370  14.938 -1.3013  1.2083  0.1735
 8866SOL     OW38230   3.055   4.720   7.097 -0.0012  0.2342 -0.1328
 8866SOL    HW138231   3.020   4.638   7.134 -2.0173 -0.0156 -2.5879
 8866SOL    HW238232   2.996   4.729   7.022 -0.9346 -2.0400  0.3334
 8867SOL     OW38233   0.379   4.241   7.786 -0.1070 -0.3092 -0.0907
 8867SOL    HW138234   0.356   4.263   7.695  1.5105 -1.9450 -0.9161
 8867SOL    HW238235   0.287   4.232   7.810 -0.6327  1.5803 -1.4339
 8868SOL     OW38236   3.740   1.855   9.568 -0.3862  0.0853 -0.0847
 8868SOL    HW138237   3.749   1.768   9.530 -2.4263 -0.8582  1.6177
 8868SOL    HW238238   3.644   1.865   9.571 -0.2707  0.9191  1.0336
 8869SOL     OW38239   4.352   0.773   7.354 -0.4116 -0.0398 -0.4903
 8869SOL    HW138240   4.318   0.861   7.373  1.1419  0.7489 -1.4133
 8869SOL    HW238241   4.386   0.778   7.265 -1.2454 -1.1130 -0.8653
 8870SOL     OW38242   4.073   4.739   2.467 -0.2986  0.2310  0.4790
 8870SOL    HW138243   4.034   0.028   2.550  1.0716  0.1154  1.1636
 8870SOL    HW238244   4.066   4.643   2.472 -0.6107  0.3117  1.6882
 8871SOL     OW38245   2.421   1.954   8.738 -0.0668  0.1059 -0.2134
 8871SOL    HW138246   2.446   2.005   8.815 -0.3842  0.7746 -0.5505
 8871SOL    HW238247   2.428   2.029   8.678 -0.0540  0.4322  0.1937
 8872SOL     OW38248   3.685   1.544  11.366  1.1308 -0.4202 -0.0914
 8872SOL    HW138249   3.746   1.591  11.423  1.5976  0.5306 -1.3832
 8872SOL    HW238250   3.633   1.623  11.357  1.7395 -0.2752 -2.2941
 8873SOL     OW38251   2.383   3.325   7.915  0.3497  0.1591  0.2943
 8873SOL    HW138252   2.454   3.290   7.969 -0.5043 -2.1665 -0.0629
 8873SOL    HW238253   2.414   3.304   7.827  2.9446  1.6474  0.8779
 8874SOL     OW38254   3.561   0.705   0.872  0.3687  0.1084  0.1175
 8874SOL    HW138255   3.467   0.714   0.855  0.3515  0.6416  0.5039
 8874SOL    HW238256   3.578   0.611   0.863 -4.5740 -0.8328  0.6165
 8875SOL     OW38257   2.612   3.928   5.384 -0.3563 -0.3102 -0.2408
 8875SOL    HW138258   2.618   3.833   5.378 -1.3758 -0.2869 -1.5704
 8875SOL    HW238259   2.521   3.943   5.359  0.1590  2.6913 -0.3968
 8876SOL     OW38260   2.503   0.645   7.222 -0.0847 -0.6373  0.1448
 8876SOL    HW138261   2.467   0.612   7.304 -3.2184 -1.8686 -1.7548
 8876SOL    HW238262   2.528   0.734   7.250  1.3888 -0.9453 -0.1690
 8877SOL     OW38263   2.352   0.431  12.544  0.4785 -0.5078 -0.1716
 8877SOL    HW138264   2.419   0.370  12.511  0.3389  1.0296 -3.2607
 8877SOL    HW238265   2.361   0.414  12.638  3.0251  0.6083 -0.2298
 8878SOL     OW38266   1.903   2.089   3.154 -0.3552 -0.5635 -0.3994
 8878SOL    HW138267   1.908   2.103   3.249  1.9373 -1.4956 -0.3824
 8878SOL    HW238268   1.985   2.126   3.123 -0.4571  0.1353  0.1510
 8879SOL     OW38269   0.886   0.814   8.725  0.2637 -1.0420  0.3880
 8879SOL    HW138270   0.795   0.824   8.755 -0.4832 -2.8094 -1.2630
 8879SOL    HW238271   0.928   0.871   8.789 -0.7539  0.9448 -0.7114
 8880SOL     OW38272   3.634   0.122   2.853 -0.0782  0.3976 -0.0665
 8880SOL    HW138273   3.681   0.205   2.857 -1.7344  1.2844  0.6152
 8880SOL    HW238274   3.654   0.091   2.942  1.0613  0.8617 -0.1629
 8881SOL     OW38275   2.279   1.141   7.565  0.1614 -0.5983 -0.2974
 8881SOL    HW138276   2.363   1.146   7.518 -0.2617  0.8322 -0.8918
 8881SOL    HW238277   2.307   1.194   7.640 -1.6800  0.5465 -0.4433
 8882SOL     OW38278   3.103   2.617   2.739  0.3334 -0.0766  0.1445
 8882SOL    HW138279   3.112   2.625   2.834  2.0898 -0.2851  0.0009
 8882SOL    HW238280   3.149   2.535   2.722 -1.8208 -1.3146  0.2571
 8883SOL     OW38281   4.733   2.865  10.007  0.6311  0.2321  0.1495
 8883SOL    HW138282   4.720   2.865   9.912 -1.6203  1.3132  0.4602
 8883SOL    HW238283   4.644   2.879  10.038  0.0473 -2.3179 -0.3473
 8884SOL     OW38284   4.282   1.898   0.721 -0.1900  0.0336  0.3848
 8884SOL    HW138285   4.212   1.836   0.703  0.6079 -0.7787  0.0615
 8884SOL    HW238286   4.241   1.980   0.694  0.4936 -0.2533 -1.5731
 8885SOL     OW38287   1.418   4.668   5.153 -0.1923 -0.1803  0.2820
 8885SOL    HW138288   1.372   4.584   5.145 -0.2466 -0.6119  5.2472
 8885SOL    HW238289   1.482   4.646   5.221 -0.8138  0.3625  1.0320
 8886SOL     OW38290   1.497   3.275   3.315  0.2178 -0.5799 -0.3346
 8886SOL    HW138291   1.459   3.348   3.266 -0.2290  1.2428  2.7003
 8886SOL    HW238292   1.416   3.241   3.353  0.5759 -1.8401 -0.7083
 8887SOL     OW38293   2.425   2.506   4.897  0.0734  0.0048 -0.4675
 8887SOL    HW138294   2.487   2.517   4.969 -1.4492  2.1297  0.5181
 8887SOL    HW238295   2.435   2.413   4.878 -1.1423 -0.2852  0.3315
 8888SOL     OW38296   1.126   1.954   7.756 -0.0770 -0.0591  0.1689
 8888SOL    HW138297   1.112   2.003   7.837 -0.5827 -0.4687  0.3305
 8888SOL    HW238298   1.088   1.872   7.788 -0.0155 -0.4312 -0.7119
 8889SOL     OW38299   3.997   0.642  14.152  0.1711  0.5210 -0.0585
 8889SOL    HW138300   4.000   0.698  14.074 -1.1057 -0.5164 -0.8644
 8889SOL    HW238301   3.958   0.705  14.212  0.1107 -0.9954  1.5055
 8890SOL     OW38302   2.363   1.250   9.056 -0.1794  0.4854 -0.3366
 8890SOL    HW138303   2.397   1.311   8.991  1.4908 -0.1053 -0.0130
 8890SOL    HW238304   2.407   1.169   9.028  1.1317  0.8730  0.6693
 8891SOL     OW38305   3.360   0.096   2.797  0.0612 -0.3166 -0.2147
 8891SOL    HW138306   3.330   0.007   2.812 -2.5971  0.6162 -0.0382
 8891SOL    HW238307   3.453   0.087   2.817 -0.2794  1.3347  2.1032
 8892SOL     OW38308   1.019   0.508   3.790  0.0253 -0.4483 -0.3523
 8892SOL    HW138309   1.103   0.551   3.808 -1.1258  1.9376 -0.6440
 8892SOL    HW238310   1.047   0.418   3.774  2.9473  0.0012  2.2761
 8893SOL     OW38311   3.674   2.754   5.093  0.7577 -1.0032  0.4955
 8893SOL    HW138312   3.708   2.676   5.049 -3.4786 -2.0011 -0.9787
 8893SOL    HW238313   3.671   2.733   5.186 -2.3057  0.0056  0.6069
 8894SOL     OW38314   4.044   3.594  11.425 -0.2047  0.2367 -0.1240
 8894SOL    HW138315   4.037   3.652  11.501 -1.5896 -0.9052  0.6075
 8894SOL    HW238316   3.965   3.622  11.380 -0.9553 -1.8330 -0.0791
 8895SOL     OW38317   2.517   3.483   5.879  0.2756 -0.1019 -0.3905
 8895SOL    HW138318   2.449   3.519   5.936  0.6278 -1.4517  0.8720
 8895SOL    HW238319   2.578   3.556   5.891  0.0621 -0.1978  1.2680
 8896SOL     OW38320   4.341   2.880   7.890  0.6515 -0.5701 -0.6559
 8896SOL    HW138321   4.377   2.969   7.891  1.4246 -0.8798 -0.5391
 8896SOL    HW238322   4.348   2.858   7.983  1.9395 -2.3952 -1.1797
 8897SOL     OW38323   3.319   2.728   9.350  0.5913  0.8334  0.2192
 8897SOL    HW138324   3.297   2.812   9.390 -1.3019  0.2964  0.2980
 8897SOL    HW238325   3.254   2.727   9.280  0.1620  0.1170  0.6170
 8898SOL     OW38326   4.087   1.604   6.779 -0.7831 -0.5419 -0.0037
 8898SOL    HW138327   4.000   1.643   6.782 -0.3928  0.3910 -0.8675
 8898SOL    HW238328   4.130   1.639   6.856  0.3008 -2.1242  0.1093
 8899SOL     OW38329   2.006   2.888  12.397  0.0274 -0.1019  0.0738
 8899SOL    HW138330   2.017   2.983  12.393 -1.2258  0.0188 -0.5951
 8899SOL    HW238331   1.998   2.863  12.305  1.4511 -0.9438  0.1872
 8900SOL     OW38332   4.543   0.189   5.871  0.2205  0.1237 -0.2505
 8900SOL    HW138333   4.613   0.124   5.862  0.2584  0.2116 -0.6061
 8900SOL    HW238334   4.475   0.159   5.810 -0.7605  0.9278  0.4637
 8901SOL     OW38335   3.404   3.087   6.825  0.2514 -0.1890  0.0099
 8901SOL    HW138336   3.383   2.997   6.800 -0.6682  0.2454 -0.7895
 8901SOL    HW238337   3.315   3.118   6.807  0.3784 -0.1516 -0.5383
 8902SOL     OW38338   2.829   2.006   3.544 -0.2838  0.3178 -0.0227
 8902SOL    HW138339   2.830   1.954   3.624  0.5092 -0.0530 -0.2707
 8902SOL    HW238340   2.923   2.004   3.525  0.1000  0.9303  1.8570
 8903SOL     OW38341   1.657   3.876   3.906 -0.4369  0.4071 -0.0910
 8903SOL    HW138342   1.613   3.863   3.823 -1.1074 -2.2641  0.6834
 8903SOL    HW238343   1.598   3.929   3.959  0.6731  1.4889  0.0467
 8904SOL     OW38344   4.030   1.085   8.435 -0.3213 -0.3793 -0.2948
 8904SOL    HW138345   3.982   1.026   8.492  0.6263 -0.4666  0.4315
 8904SOL    HW238346   4.115   1.086   8.481 -0.6762 -3.0035  0.4095
 8905SOL     OW38347   2.863   3.296  11.615  0.4134 -0.0524  0.2375
 8905SOL    HW138348   2.914   3.321  11.538  0.8747 -2.6836 -0.3030
 8905SOL    HW238349   2.908   3.340  11.687 -2.2932  1.1610  1.2124
 8906SOL     OW38350   2.524   3.708   7.427 -0.6636 -0.2880  0.2780
 8906SOL    HW138351   2.447   3.763   7.442 -0.2801  0.1022  0.7859
 8906SOL    HW238352   2.521   3.647   7.501  1.3924 -0.7224  0.0024
 8907SOL     OW38353   1.447   3.241  14.240 -0.3808  0.3871 -0.3047
 8907SOL    HW138354   1.419   3.306  14.305 -0.4020  2.0013 -1.9420
 8907SOL    HW238355   1.523   3.199  14.280  0.5467  2.0158 -0.3371
 8908SOL     OW38356   2.126   0.355   3.539  0.0898  0.1267 -0.4780
 8908SOL    HW138357   2.136   0.316   3.625  0.7214  1.1864 -0.0758
 8908SOL    HW238358   2.031   0.346   3.535 -0.1214  2.6417 -1.0204
 8909SOL     OW38359   0.987   2.904   2.714 -0.1649 -0.0335  0.3434
 8909SOL    HW138360   1.055   2.893   2.647 -2.2073  0.4905 -1.8241
 8909SOL    HW238361   1.039   2.922   2.792  0.2948  2.0827 -0.4666
 8910SOL     OW38362   4.468   2.035   3.676  0.2841  0.0570  0.3914
 8910SOL    HW138363   4.501   2.108   3.728  0.3922  0.1677  0.1676
 8910SOL    HW238364   4.507   2.043   3.589  0.2018 -0.1843  0.3309
 8911SOL     OW38365   4.311   1.976   6.881  0.0884 -0.5776 -0.4267
 8911SOL    HW138366   4.365   2.055   6.872  0.4852 -0.4859  2.7445
 8911SOL    HW238367   4.222   2.011   6.873  0.7725  0.6374 -2.6643
 8912SOL     OW38368   1.179   2.498   3.194  0.2781  0.2158 -0.5525
 8912SOL    HW138369   1.182   2.524   3.286  1.7031  2.0008 -1.1036
 8912SOL    HW238370   1.255   2.537   3.152  0.8108  2.7528  2.8235
 8913SOL     OW38371   4.400   4.289  16.008  0.5391  0.0463 -0.6520
 8913SOL    HW138372   4.367   4.277  15.919  0.6980 -1.7739 -0.4721
 8913SOL    HW238373   4.395   4.384  16.012  3.3924  0.1648 -0.1791
 8914SOL     OW38374   1.398   4.244  12.687  0.1528  0.0086  0.0445
 8914SOL    HW138375   1.305   4.224  12.698 -0.0903  0.8291 -0.5526
 8914SOL    HW238376   1.420   4.179  12.620 -1.1261 -1.7290  1.2872
 8915SOL     OW38377   3.716   0.067   2.584  0.1704  0.5324 -0.0024
 8915SOL    HW138378   3.712   0.081   2.679 -1.2537 -0.6179  0.0987
 8915SOL    HW238379   3.808   0.088   2.566  0.5852 -0.2646  1.1813
 8916SOL     OW38380   3.574   2.739  16.943 -0.2818 -0.2804 -0.5302
 8916SOL    HW138381   3.669   2.726  16.936 -0.2672 -0.4640  0.0348
 8916SOL    HW238382   3.559   2.828  16.912  0.4532  0.3971  1.0881
 8917SOL     OW38383   3.313   3.622  16.455 -0.6291 -0.4500  0.1688
 8917SOL    HW138384   3.268   3.706  16.448 -1.6946 -0.9923  0.5383
 8917SOL    HW238385   3.317   3.602  16.362 -0.0279 -4.9478  1.1431
 8918SOL     OW38386   0.198   3.747   8.572 -0.5656  0.1102 -0.5169
 8918SOL    HW138387   0.133   3.716   8.636 -0.1315  0.3330  0.0342
 8918SOL    HW238388   0.279   3.770   8.617 -1.9772  0.0429  2.0565
 8919SOL     OW38389   2.111   2.953  11.999  0.2590  0.7439  0.1214
 8919SOL    HW138390   2.149   2.883  11.946 -1.5061  0.0569 -0.2493
 8919SOL    HW238391   2.048   2.908  12.055  0.6568 -1.6464 -1.3806
 8920SOL     OW38392   3.125   0.853  16.090  0.2266 -0.4233  0.1650
 8920SOL    HW138393   3.101   0.832  16.180 -1.7086 -2.2378 -0.7792
 8920SOL    HW238394   3.126   0.949  16.090  1.6547 -0.4284 -1.0318
 8921SOL     OW38395   1.268   4.222   1.674  0.1079  0.3413  0.0750
 8921SOL    HW138396   1.209   4.290   1.642 -0.0503  0.8188  1.3820
 8921SOL    HW238397   1.347   4.229   1.620 -1.3990  3.3586 -1.7219
 8922SOL     OW38398   3.812   3.180  13.159 -0.2976 -0.3917 -0.2588
 8922SOL    HW138399   3.899   3.218  13.172 -0.5650 -0.7783  2.5822
 8922SOL    HW238400   3.807   3.103  13.216  2.0665  0.1554  0.6946
 8923SOL     OW38401   0.330   4.078   4.189 -0.0819  0.2474  0.0583
 8923SOL    HW138402   0.254   4.130   4.214 -0.6716 -0.4596 -0.2663
 8923SOL    HW238403   0.330   4.006   4.251 -0.5001  2.0332  2.1433
 8924SOL     OW38404   0.687   3.672   0.796  0.1047  0.2079 -0.3121
 8924SOL    HW138405   0.619   3.697   0.734 -0.4244  0.4192  0.3502
 8924SOL    HW238406   0.647   3.589   0.823 -1.5962  0.5017 -1.9176
 8925SOL     OW38407   2.115   4.708  13.341  0.0328 -0.1028  0.4704
 8925SOL    HW138408   2.150   4.622  13.316 -0.7212 -0.3430  0.2102
 8925SOL    HW238409   2.034   4.685  13.387  0.6648 -1.7224  0.7610
 8926SOL     OW38410   3.982   1.064  12.549  0.1790  0.0591  0.1223
 8926SOL    HW138411   3.946   1.094  12.633  2.0406  4.2148 -0.5452
 8926SOL    HW238412   3.943   0.976  12.554  0.8637 -0.1658  1.6565
 8927SOL     OW38413   2.067   2.710   2.691 -0.7335  0.0424 -0.9570
 8927SOL    HW138414   1.979   2.687   2.662 -1.5781 -1.4295  2.7691
 8927SOL    HW238415   2.059   2.801   2.722 -0.5741  0.0230 -0.8595
 8928SOL     OW38416   2.902   0.927   4.625  0.3365 -0.0517  0.2083
 8928SOL    HW138417   2.993   0.935   4.656 -0.7338  3.1993  2.5156
 8928SOL    HW238418   2.873   1.017   4.637 -1.9650 -0.9945  1.6071
 8929SOL     OW38419   3.623   3.016  12.840 -0.7373  0.2758 -0.0199
 8929SOL    HW138420   3.574   3.097  12.856  0.0016  1.1069 -1.9618
 8929SOL    HW238421   3.661   3.041  12.756 -0.6416 -0.1935 -0.1136
 8930SOL     OW38422   1.611   0.272   8.015  0.7771  0.0165 -0.0502
 8930SOL    HW138423   1.592   0.298   8.106  1.1580  0.4436 -0.0922
 8930SOL    HW238424   1.547   0.320   7.962 -1.7880 -2.3248  0.9639
 8931SOL     OW38425   4.502   3.859   9.917 -0.2005  0.1448 -0.1345
 8931SOL    HW138426   4.510   3.798   9.991 -1.3388  0.0165 -0.1270
 8931SOL    HW238427   4.559   3.929   9.949  1.2480 -0.6367 -0.9566
 8932SOL     OW38428   0.175   4.696   4.212 -0.2250 -0.6832 -0.5021
 8932SOL    HW138429   0.237   4.700   4.140  1.2266  1.1437  0.8478
 8932SOL    HW238430   0.093   4.674   4.168 -1.2255  0.5582  0.7696
 8933SOL     OW38431   2.401   3.383   3.347 -0.0636  0.3050  0.1326
 8933SOL    HW138432   2.393   3.326   3.271 -0.0461  0.0851  0.2935
 8933SOL    HW238433   2.317   3.361   3.387  0.0889 -1.4920 -0.5268
 8934SOL     OW38434   2.145   4.078  11.663 -0.1732 -0.1170  0.0599
 8934SOL    HW138435   2.082   4.018  11.704  0.6002  0.0184  1.4368
 8934SOL    HW238436   2.148   4.148  11.728  0.0459  0.4609 -0.5802
 8935SOL     OW38437   0.098   0.487  16.530  0.4076 -0.3042  0.1968
 8935SOL    HW138438   0.064   0.472  16.442  2.2801 -0.9273 -0.4134
 8935SOL    HW238439   0.104   0.583  16.525 -0.5696 -0.2236  0.6339
 8936SOL     OW38440   3.545   0.166  12.825  0.1259 -0.2040  0.1426
 8936SOL    HW138441   3.509   0.122  12.902 -0.4465  1.4625  0.8442
 8936SOL    HW238442   3.620   0.117  12.792 -0.1331 -1.0706  0.8620
 8937SOL     OW38443   4.524   3.402   6.467 -0.1820  0.6336  0.3927
 8937SOL    HW138444   4.588   3.356   6.522  1.0816  1.0061 -0.7503
 8937SOL    HW238445   4.555   3.492   6.473 -1.2157  1.0144 -0.0968
 8938SOL     OW38446   4.288   0.738   4.964  0.5237 -0.0436 -0.0133
 8938SOL    HW138447   4.230   0.744   5.039  0.6988 -0.0644  0.1246
 8938SOL    HW238448   4.319   0.828   4.952  0.2781  0.2451  1.6451
 8939SOL     OW38449   1.860   4.663   9.371  0.5226  0.2335  0.4206
 8939SOL    HW138450   1.955   4.663   9.383  0.5433 -2.1374  0.1407
 8939SOL    HW238451   1.840   0.015   9.391 -1.0227  0.6825 -3.1398
 8940SOL     OW38452   1.081   0.581   2.512  0.0827 -0.6049 -0.1765
 8940SOL    HW138453   1.084   0.612   2.422  3.2803  0.6741  0.3541
 8940SOL    HW238454   1.105   0.489   2.502 -2.1884 -1.4561  2.1581
 8941SOL     OW38455   0.347   3.198   7.574  0.0440  0.0536  0.3593
 8941SOL    HW138456   0.390   3.193   7.489  1.6528 -1.7334  1.2796
 8941SOL    HW238457   0.397   3.270   7.614  2.0974 -1.2635  0.1424
 8942SOL     OW38458   3.179   4.152   4.493 -0.1632  0.3400 -0.0323
 8942SOL    HW138459   3.234   4.230   4.502 -0.1657  0.2966  0.3387
 8942SOL    HW238460   3.231   4.089   4.543  1.6703  0.6939 -1.4832
 8943SOL     OW38461   0.554   2.869   0.738 -0.2380 -0.0094 -0.1354
 8943SOL    HW138462   0.502   2.917   0.673 -1.3176 -0.7295  0.1908
 8943SOL    HW238463   0.539   2.920   0.818  0.9604 -2.1871  1.4989
 8944SOL     OW38464   4.651   2.939  13.938 -0.4202  0.5323  0.0249
 8944SOL    HW138465   4.656   2.969  13.847 -1.8614  0.1257 -0.1973
 8944SOL    HW238466   4.658   3.024  13.981 -1.1083  0.4593  0.2798
 8945SOL     OW38467   2.274   1.088   7.007  0.4622  0.2732  0.9621
 8945SOL    HW138468   2.228   1.033   6.943 -1.1849  1.4593  1.1449
 8945SOL    HW238469   2.360   1.101   6.966  0.3009  1.5849  1.0484
 8946SOL     OW38470   2.822   3.883   5.758 -0.3060 -0.4958 -0.6187
 8946SOL    HW138471   2.738   3.852   5.724 -1.5099  1.0993  0.9579
 8946SOL    HW238472   2.864   3.802   5.787 -0.6316 -0.6943 -0.7020
 8947SOL     OW38473   4.375   0.380   3.443  0.3501 -0.1594  0.0940
 8947SOL    HW138474   4.326   0.299   3.433 -1.1839  0.8774 -0.7553
 8947SOL    HW238475   4.319   0.437   3.496  1.7159 -0.0576  1.4349
 8948SOL     OW38476   1.949   3.322  16.396 -0.0030 -0.0744 -0.0945
 8948SOL    HW138477   1.925   3.400  16.445  0.1187 -1.8925  2.8502
 8948SOL    HW238478   1.875   3.312  16.336  0.3268 -0.5856 -0.4190
 8949SOL     OW38479   4.564   2.311   9.503  0.3524  0.3453 -0.2312
 8949SOL    HW138480   4.602   2.394   9.530  0.0963 -0.0117  1.2074
 8949SOL    HW238481   4.502   2.302   9.575  1.3254 -0.8681  0.4734
 8950SOL     OW38482   4.468   4.200  12.296  0.6742 -0.1790 -0.0924
 8950SOL    HW138483   4.410   4.260  12.344  1.5504  1.7437 -1.4231
 8950SOL    HW238484   4.408   4.153  12.238 -0.9989  2.2298 -0.3421
 8951SOL     OW38485   4.436   4.595  17.208 -0.1051 -0.2452 -0.2158
 8951SOL    HW138486   4.510   4.555  17.161 -0.4202 -0.4814 -0.5174
 8951SOL    HW238487   4.455   4.560  17.295 -0.2633 -0.0791 -0.1171
 8952SOL     OW38488   4.422   0.840   4.679 -0.0192  0.6914 -0.1644
 8952SOL    HW138489   4.421   0.777   4.608  0.8207 -1.3386  1.6405
 8952SOL    HW238490   4.426   0.927   4.639 -1.6984  0.3161 -1.1218
 8953SOL     OW38491   4.048   0.644  16.736  0.1190  0.8862 -0.2596
 8953SOL    HW138492   4.126   0.688  16.772  0.6744 -0.7187  0.4690
 8953SOL    HW238493   3.991   0.639  16.812 -0.1847  0.7697 -0.4938
 8954SOL     OW38494   4.631   3.522  12.591 -0.5364 -0.3624  0.4711
 8954SOL    HW138495   4.569   3.568  12.536  2.0606  0.4909 -1.7401
 8954SOL    HW238496   4.712   3.572  12.581 -0.6180 -0.3306 -0.0311
 8955SOL     OW38497   2.753   0.312   6.769  0.1826  0.0664 -0.1975
 8955SOL    HW138498   2.760   0.393   6.718  0.0316 -0.6154 -1.3126
 8955SOL    HW238499   2.799   0.256   6.707  0.5523 -0.4322  0.5222
 8956SOL     OW38500   0.115   1.455  17.176  0.2541 -0.2698 -0.2400
 8956SOL    HW138501   0.145   1.540  17.147 -0.8971  0.2116 -0.0176
 8956SOL    HW238502   0.063   1.429  17.100  1.3745 -1.0600 -0.7409
 8957SOL     OW38503   4.195   4.692   1.147 -0.3979 -0.0834 -0.3128
 8957SOL    HW138504   4.208   0.045   1.125 -0.0670  0.4232  2.0421
 8957SOL    HW238505   4.177   4.689   1.241  2.1435 -0.6795  0.1369
 8958SOL     OW38506   2.591   1.670   0.217 -0.3790 -0.2061  0.0689
 8958SOL    HW138507   2.556   1.612   0.149 -0.3919  0.4883 -0.5204
 8958SOL    HW238508   2.539   1.655   0.296 -0.2693 -1.3916 -0.0977
 8959SOL     OW38509   0.298   4.527  13.782 -0.0631 -0.0273 -0.1370
 8959SOL    HW138510   0.260   4.450  13.741  0.2504  0.1760 -0.8006
 8959SOL    HW238511   0.390   4.516  13.760  0.4873  2.5821  0.8851
 8960SOL     OW38512   2.085   0.295   8.596  0.4310 -0.2767  0.5712
 8960SOL    HW138513   2.095   0.233   8.668  1.0236  1.3314  1.8934
 8960SOL    HW238514   2.001   0.269   8.560  1.8051  1.0290 -3.5492
 8961SOL     OW38515   4.601   2.241   7.176  0.1741  0.0971 -0.4653
 8961SOL    HW138516   4.637   2.160   7.139  0.5034 -0.8443  1.8601
 8961SOL    HW238517   4.658   2.307   7.137  0.6564 -0.5281 -0.8154
 8962SOL     OW38518   2.317   3.596   6.019 -0.0504 -0.1172  0.1473
 8962SOL    HW138519   2.303   3.687   6.045 -0.5623 -0.5386  1.3453
 8962SOL    HW238520   2.256   3.551   6.078  0.0517  0.8744  1.0096
 8963SOL     OW38521   3.294   2.985  11.429  0.0878  0.1500  0.2428
 8963SOL    HW138522   3.240   3.045  11.482 -0.7549  1.0013 -1.5746
 8963SOL    HW238523   3.341   3.040  11.367  1.0610  0.8579  1.6072
 8964SOL     OW38524   0.204   4.059  12.998  0.0749 -0.2230  0.0924
 8964SOL    HW138525   0.166   4.114  12.929 -0.3743  0.7847  1.1374
 8964SOL    HW238526   0.164   3.974  12.978  0.6549 -0.6500  0.7348
 8965SOL     OW38527   0.366   2.374   2.330 -0.2729  0.4825 -0.5764
 8965SOL    HW138528   0.299   2.422   2.378  1.1309  1.2623  0.6167
 8965SOL    HW238529   0.448   2.416   2.356 -0.7558  0.4586  0.9735
 8966SOL     OW38530   1.899   1.072  15.056 -0.5744 -0.7164 -0.1956
 8966SOL    HW138531   1.893   1.026  14.972 -0.6101 -0.4705 -0.3263
 8966SOL    HW238532   1.990   1.049  15.073 -0.4629 -0.4590 -0.4377
 8967SOL     OW38533   3.759   0.402   1.884  0.2101 -0.1016 -0.0319
 8967SOL    HW138534   3.773   0.358   1.968  0.9887 -2.1237 -1.2125
 8967SOL    HW238535   3.830   0.466   1.887 -1.2484  1.6155 -2.4179
 8968SOL     OW38536   3.109   3.526   6.782  0.0224  0.1969 -0.3210
 8968SOL    HW138537   3.031   3.491   6.826  0.2874  0.7954  0.6110
 8968SOL    HW238538   3.175   3.490   6.840  0.7068 -1.6208 -2.2123
 8969SOL     OW38539   1.599   2.567   8.608  0.9574 -0.5876  0.3068
 8969SOL    HW138540   1.572   2.575   8.517 -0.5949 -0.7784  0.7452
 8969SOL    HW238541   1.548   2.640   8.641 -0.6835 -1.1413 -1.0416
 8970SOL     OW38542   4.366   1.166   3.781 -0.5495  0.2761 -0.1012
 8970SOL    HW138543   4.374   1.260   3.768 -0.9529 -0.0469 -2.6286
 8970SOL    HW238544   4.339   1.161   3.873 -0.9164 -0.1541 -0.2338
 8971SOL     OW38545   1.284   4.659   1.893  0.5186 -0.8069 -0.2122
 8971SOL    HW138546   1.309   4.736   1.944 -2.7235 -0.4288  0.8663
 8971SOL    HW238547   1.197   4.686   1.862  0.9359 -0.4668 -1.0986
 8972SOL     OW38548   1.334   1.776   2.254 -0.0832  0.0366 -0.0761
 8972SOL    HW138549   1.335   1.689   2.294  1.0785  0.0138 -0.1531
 8972SOL    HW238550   1.241   1.799   2.261  0.1209  1.6245 -2.6395
 8973SOL     OW38551   4.297   2.892   6.664  0.1780  0.3050 -0.4864
 8973SOL    HW138552   4.311   2.973   6.614  0.5339  0.8992  0.5780
 8973SOL    HW238553   4.202   2.901   6.675  0.5295  1.9381  1.2594
 8974SOL     OW38554   4.731   3.176   8.902 -0.1394 -0.3944 -0.0689
 8974SOL    HW138555   4.727   3.188   8.807 -0.0330  0.9643  0.0913
 8974SOL    HW238556   4.698   3.264   8.922  1.0820  0.0679 -0.0818
 8975SOL     OW38557   3.737   1.231   7.931  0.0450  0.4502 -0.1863
 8975SOL    HW138558   3.691   1.177   7.996 -2.0553  2.2365 -0.1988
 8975SOL    HW238559   3.818   1.183   7.913  0.5097  0.8200  0.8694
 8976SOL     OW38560   0.342   1.020   7.723  0.2618 -0.6213 -0.1672
 8976SOL    HW138561   0.296   1.025   7.807 -0.3080 -0.3473 -0.4960
 8976SOL    HW238562   0.343   0.925   7.713 -0.7085 -0.6724  0.2069
 8977SOL     OW38563   4.335   4.200   6.866 -0.1805  0.6444 -0.3258
 8977SOL    HW138564   4.294   4.261   6.927  1.1659  1.4014 -0.1791
 8977SOL    HW238565   4.330   4.249   6.784 -3.0694  0.7100 -0.1051
 8978SOL     OW38566   4.593   1.098  11.091  0.4146 -0.2246  0.4732
 8978SOL    HW138567   4.585   1.104  10.996 -0.6580 -0.3630  0.5548
 8978SOL    HW238568   4.534   1.161  11.132  0.6294  0.4610 -0.2892
 8979SOL     OW38569   0.783   1.907   7.793 -0.5972 -0.0812  0.3164
 8979SOL    HW138570   0.794   1.978   7.730 -0.4038 -0.4542 -0.0744
 8979SOL    HW238571   0.782   1.951   7.878 -1.3699  0.3812  0.0701
 8980SOL     OW38572   2.721   4.602  15.239 -0.2801 -0.0153 -0.2642
 8980SOL    HW138573   2.794   4.542  15.224  2.2951  3.0007  0.0956
 8980SOL    HW238574   2.735   4.676  15.179  0.7244 -0.3691 -0.4624
 8981SOL     OW38575   2.082   2.237  10.257 -0.3209 -0.2684 -0.4669
 8981SOL    HW138576   2.011   2.259  10.197 -2.1219 -2.2352  0.9379
 8981SOL    HW238577   2.141   2.203  10.190 -0.3381 -0.7595 -0.2307
 8982SOL     OW38578   3.975   2.225   5.935 -0.2227 -0.7539  0.0810
 8982SOL    HW138579   3.903   2.233   5.998  0.4215  1.4330  0.5472
 8982SOL    HW238580   4.005   2.315   5.927  1.2895 -1.2165  0.6510
 8983SOL     OW38581   0.787   3.631   6.304 -0.0211  0.4723  0.0109
 8983SOL    HW138582   0.838   3.707   6.333  0.4191 -0.2583  1.1456
 8983SOL    HW238583   0.699   3.668   6.294 -1.1011 -1.9909  0.4254
 8984SOL     OW38584   3.765   0.287   6.728  0.3108 -0.0590  0.0602
 8984SOL    HW138585   3.818   0.236   6.789  2.7153  2.0028 -0.2902
 8984SOL    HW238586   3.821   0.365   6.724  0.4580 -0.1082  1.3584
 8985SOL     OW38587   3.533   3.314   6.683 -0.0072 -0.4280 -0.7034
 8985SOL    HW138588   3.594   3.349   6.748 -0.6310 -2.6945  1.0741
 8985SOL    HW238589   3.525   3.225   6.716 -0.3261 -1.2379 -2.9964
 8986SOL     OW38590   0.334   1.284   4.609  0.0992 -0.1002 -0.4958
 8986SOL    HW138591   0.403   1.270   4.673  0.9132 -0.2618 -1.4063
 8986SOL    HW238592   0.304   1.374   4.622  2.5383  0.5157  0.8656
 8987SOL     OW38593   4.208   2.687   3.710 -0.1485 -0.1015  0.9609
 8987SOL    HW138594   4.242   2.720   3.792 -1.6169 -1.7101  2.2198
 8987SOL    HW238595   4.258   2.607   3.690 -1.4261 -0.4747 -0.8111
 8988SOL     OW38596   0.947   2.440   9.683  0.2811 -0.3059  0.0358
 8988SOL    HW138597   0.907   2.526   9.699  1.4782 -0.0503  1.6265
 8988SOL    HW238598   1.032   2.480   9.665 -0.1221  0.1497 -0.8338
 8989SOL     OW38599   3.057   0.698  11.278 -0.0464 -0.5527 -0.2515
 8989SOL    HW138600   3.072   0.689  11.372 -0.6004 -1.8617 -0.2881
 8989SOL    HW238601   3.010   0.781  11.289  1.7152 -0.0506  3.5403
 8990SOL     OW38602   2.156   0.223   7.891  0.1079 -0.1932  0.3698
 8990SOL    HW138603   2.061   0.231   7.894  0.1347  0.2389 -0.0800
 8990SOL    HW238604   2.179   0.220   7.984 -2.0612  4.4266  1.0460
 8991SOL     OW38605   2.341   2.791   8.899  0.6115  0.0501 -0.0926
 8991SOL    HW138606   2.380   2.767   8.983  1.3434 -1.4866 -0.8732
 8991SOL    HW238607   2.408   2.769   8.833  0.3548 -0.1839 -0.2761
 8992SOL     OW38608   0.803   4.630   1.952  0.6662 -0.2357  0.1970
 8992SOL    HW138609   0.802   4.595   1.863  0.1641  1.6258 -0.5259
 8992SOL    HW238610   0.756   4.713   1.946  2.4900  0.8817  1.1697
 8993SOL     OW38611   3.317   1.789   5.456 -0.1643 -0.1198  0.2928
 8993SOL    HW138612   3.265   1.774   5.535  0.4758 -0.0185  0.7428
 8993SOL    HW238613   3.381   1.848   5.496  0.9711 -0.4589 -1.0369
 8994SOL     OW38614   2.499   2.296   2.413 -0.1422  0.4594 -0.0002
 8994SOL    HW138615   2.507   2.368   2.476  0.8670  0.7962 -0.5075
 8994SOL    HW238616   2.405   2.292   2.396  0.3504 -1.4437 -2.3320
 8995SOL     OW38617   2.838   3.288  12.248 -0.4990 -1.0476 -0.1895
 8995SOL    HW138618   2.781   3.345  12.299 -1.1353 -0.7033 -1.2700
 8995SOL    HW238619   2.781   3.284  12.171  0.7690 -0.5913 -1.1473
 8996SOL     OW38620   0.119   2.235   3.421  0.0379 -0.1927  0.5271
 8996SOL    HW138621   0.117   2.204   3.330  0.1654  2.5994 -0.4384
 8996SOL    HW238622   0.205   2.213   3.456 -0.2041 -0.3728  1.0037
 8997SOL     OW38623   0.514   2.400  15.826  0.7310 -0.2433  0.0608
 8997SOL    HW138624   0.554   2.347  15.757 -0.3783  0.7218 -1.3310
 8997SOL    HW238625   0.592   2.412  15.881  0.7526  0.7397 -0.1741
 8998SOL     OW38626   2.704   4.599   2.249 -0.6327 -0.3392  0.6908
 8998SOL    HW138627   2.747   4.683   2.261  1.3205 -1.2494 -0.0048
 8998SOL    HW238628   2.767   4.552   2.195 -2.0715 -1.0006 -0.4042
 8999SOL     OW38629   2.127   4.381   2.604  0.1032 -0.1548  0.4052
 8999SOL    HW138630   2.065   4.353   2.672 -0.6556 -0.4971 -0.4221
 8999SOL    HW238631   2.060   4.400   2.538 -1.3736 -0.3099  1.8525
 9000SOL     OW38632   4.102   3.687   6.363  0.0451  0.3032  0.5719
 9000SOL    HW138633   4.145   3.687   6.278  0.1140 -1.8406  0.6094
 9000SOL    HW238634   4.076   3.596   6.373 -1.5915  0.8216  1.0532
 9001SOL     OW38635   3.108   2.722   5.846  0.2779 -0.0236 -0.0701
 9001SOL    HW138636   3.012   2.714   5.842  0.2454  0.2123  0.2815
 9001SOL    HW238637   3.124   2.696   5.937 -2.1049  1.0675  0.6703
 9002SOL     OW38638   3.131   2.850   8.535 -0.2353 -0.7919  0.3785
 9002SOL    HW138639   3.226   2.843   8.519  0.4210  1.1452  3.4383
 9002SOL    HW238640   3.107   2.834   8.444  1.3866  1.1907 -0.3827
 9003SOL     OW38641   3.389   2.039  11.999 -0.4992 -0.0381 -0.1133
 9003SOL    HW138642   3.427   1.954  11.982  0.6217  0.5229 -0.3778
 9003SOL    HW238643   3.390   2.091  11.919  0.3401  3.1083  1.9169
 9004SOL     OW38644   2.698   4.195  11.570 -0.3502 -0.2893  0.1765
 9004SOL    HW138645   2.769   4.148  11.527  1.1652  2.6170 -0.4474
 9004SOL    HW238646   2.732   4.192  11.659 -0.7708 -1.9327  0.2908
 9005SOL     OW38647   3.759   3.251   2.992  0.6208  0.3367 -0.4187
 9005SOL    HW138648   3.685   3.216   3.042  0.0600  0.2276 -1.3344
 9005SOL    HW238649   3.821   3.179   3.005 -1.8550 -1.8234 -0.6722
 9006SOL     OW38650   3.511   3.928   5.071  0.1167  0.5670 -0.4363
 9006SOL    HW138651   3.543   3.842   5.043 -0.2152  0.5474 -0.7596
 9006SOL    HW238652   3.519   3.924   5.166 -0.3131 -0.4313 -0.4446
 9007SOL     OW38653   2.112   2.619   3.545  0.0488  0.3201  0.4190
 9007SOL    HW138654   2.201   2.651   3.564  0.6399 -0.8793 -0.2850
 9007SOL    HW238655   2.074   2.649   3.627 -0.5707 -0.4797  0.4287
 9008SOL     OW38656   0.156   3.451   8.830 -0.2647 -0.2516  0.5012
 9008SOL    HW138657   0.241   3.477   8.866  0.9475 -2.2732 -0.9187
 9008SOL    HW238658   0.115   3.419   8.910 -0.1369 -0.7727  0.3565
 9009SOL     OW38659   3.888   3.636  15.587 -0.0765 -0.3298 -0.5090
 9009SOL    HW138660   3.975   3.676  15.584 -0.2347  0.2210  2.2166
 9009SOL    HW238661   3.866   3.652  15.679 -0.9862  1.8172 -1.0934
 9010SOL     OW38662   3.267   4.649   9.627  0.3699 -0.2989  0.7143
 9010SOL    HW138663   3.327   4.702   9.679  0.5942  1.2682 -1.1308
 9010SOL    HW238664   3.313   4.566   9.640  0.8294 -0.2008 -0.2701
 9011SOL     OW38665   1.305   1.996   3.930 -0.4318 -0.1869 -0.2779
 9011SOL    HW138666   1.219   2.030   3.906  0.9545  3.0872 -0.6604
 9011SOL    HW238667   1.286   1.903   3.935  0.1574 -0.2310  1.0822
 9012SOL     OW38668   0.528   2.701   4.357 -0.6941  0.4011  0.1628
 9012SOL    HW138669   0.602   2.738   4.406 -0.3253 -0.5522  0.3215
 9012SOL    HW238670   0.491   2.779   4.315  0.8165  0.6174 -0.7647
 9013SOL     OW38671   0.324   4.390   3.054 -0.7844 -0.2950 -0.0849
 9013SOL    HW138672   0.350   4.316   3.000  0.6533  0.1002  0.0663
 9013SOL    HW238673   0.396   4.449   3.031 -0.7857 -0.1577  0.2692
 9014SOL     OW38674   2.776   2.306  11.477  0.0190 -0.4330 -0.4440
 9014SOL    HW138675   2.774   2.217  11.512  3.7375  0.4977  2.2004
 9014SOL    HW238676   2.769   2.301  11.381  0.6862  0.8703 -0.5566
 9015SOL     OW38677   2.546   0.010   9.704 -0.2529  0.3043  0.2223
 9015SOL    HW138678   2.518   0.039   9.791 -0.2847 -1.4330  0.7839
 9015SOL    HW238679   2.622   0.068   9.697 -0.1913  0.3767  1.4569
 9016SOL     OW38680   0.466   3.237   6.992  0.5083  0.3847 -0.2559
 9016SOL    HW138681   0.558   3.237   7.018  0.7806 -0.6752 -1.2112
 9016SOL    HW238682   0.465   3.313   6.934  0.8435 -0.4013 -1.3001
 9017SOL     OW38683   1.111   1.352   2.177 -0.3332 -0.2131 -0.0158
 9017SOL    HW138684   1.088   1.261   2.197 -0.3444 -0.0383  0.7743
 9017SOL    HW238685   1.088   1.398   2.258 -4.6004  1.4538 -2.1818
 9018SOL     OW38686   2.240   4.381   6.522  0.0181  0.1538 -0.0978
 9018SOL    HW138687   2.260   4.466   6.483 -1.7025  0.0672 -1.1687
 9018SOL    HW238688   2.322   4.367   6.569 -0.4528 -1.7885  0.1638
 9019SOL     OW38689   3.000   2.931   7.183 -0.3180  0.0341 -0.9832
 9019SOL    HW138690   3.048   2.952   7.103 -0.3339  0.4754 -0.8775
 9019SOL    HW238691   3.067   2.887   7.236  1.9315  0.8705 -3.0858
 9020SOL     OW38692   1.120   1.182   7.725  0.1301  0.4686 -0.2172
 9020SOL    HW138693   1.162   1.104   7.761 -0.5194  0.5555  0.7221
 9020SOL    HW238694   1.191   1.215   7.670  1.4237  0.1675  1.2832
 9021SOL     OW38695   4.120   2.573  17.561 -0.0926  0.3512  0.1158
 9021SOL    HW138696   4.089   2.588  17.650 -0.4193  0.2851  0.0135
 9021SOL    HW238697   4.214   2.589  17.572 -0.2056  0.5719  0.7630
 9022SOL     OW38698   1.771   3.469   8.191 -0.0752 -0.4013 -0.6098
 9022SOL    HW138699   1.748   3.546   8.243 -0.3339 -0.0434 -1.2559
 9022SOL    HW238700   1.812   3.517   8.119 -1.5438  1.7855  0.0091
 9023SOL     OW38701   3.466   1.321   0.513  0.3250 -0.1246 -0.0570
 9023SOL    HW138702   3.425   1.387   0.569 -3.7635 -1.8949 -0.9265
 9023SOL    HW238703   3.461   1.365   0.428  2.8022 -2.1358 -1.2480
 9024SOL     OW38704   0.968   3.515  15.721 -0.2918 -0.0281 -0.1552
 9024SOL    HW138705   0.928   3.511  15.808  0.8784  0.6096  0.4006
 9024SOL    HW238706   1.060   3.493  15.736 -0.0322  0.8603 -0.4708
 9025SOL     OW38707   2.995   0.547  14.016 -0.5190 -0.0902  0.5983
 9025SOL    HW138708   2.933   0.526  13.946  0.7654  2.6202 -1.3538
 9025SOL    HW238709   3.081   0.533  13.976 -1.3796 -0.1018 -1.2533
 9026SOL     OW38710   0.667   0.264  13.060 -0.0315  0.0127  0.6123
 9026SOL    HW138711   0.706   0.228  13.140 -1.3561 -1.2790  0.6721
 9026SOL    HW238712   0.649   0.181  13.015 -1.2791 -0.3232  1.7293
 9027SOL     OW38713   2.044   3.735  10.402  0.5894 -0.0829  0.0110
 9027SOL    HW138714   1.977   3.709  10.339  0.4370  1.3286 -0.4204
 9027SOL    HW238715   2.052   3.655  10.453  2.1155 -0.4242 -0.7549
 9028SOL     OW38716   0.947   3.863  11.628 -0.6203 -0.0205  0.0411
 9028SOL    HW138717   0.984   3.937  11.579 -2.1178  0.1477 -0.8370
 9028SOL    HW238718   0.921   3.801  11.561 -1.1813  0.8672 -0.5704
 9029SOL     OW38719   4.455   0.893  16.336  0.2967  0.1960  0.2897
 9029SOL    HW138720   4.414   0.979  16.341 -0.6807 -0.2731  0.3666
 9029SOL    HW238721   4.506   0.921  16.260 -0.8750 -1.9377 -1.2493
 9030SOL     OW38722   1.835   3.358   2.937  0.3719  0.1875  0.3462
 9030SOL    HW138723   1.875   3.437   2.974 -0.8640  0.7399  0.4997
 9030SOL    HW238724   1.790   3.315   3.010  0.0646 -0.1988 -0.0765
 9031SOL     OW38725   0.850   4.033   4.806 -0.4735  0.1214  0.1965
 9031SOL    HW138726   0.938   4.060   4.780  0.1310 -0.8308  1.2625
 9031SOL    HW238727   0.822   4.106   4.861 -0.9135 -1.2221  1.7470
 9032SOL     OW38728   0.949   2.034   6.458  0.8873  0.1702  0.0436
 9032SOL    HW138729   0.987   2.111   6.414  4.0838 -0.4240  1.7655
 9032SOL    HW238730   0.854   2.045   6.458  0.7888 -0.6096  2.1171
 9033SOL     OW38731   1.358   0.771   6.457 -0.0690 -0.3120  0.5162
 9033SOL    HW138732   1.334   0.812   6.539 -0.9413  1.5698 -0.6739
 9033SOL    HW238733   1.277   0.721   6.451 -0.4526  0.2601  0.9785
 9034SOL     OW38734   0.556   3.767   6.318  0.2856 -0.4404 -0.2356
 9034SOL    HW138735   0.560   3.721   6.402  0.2552 -3.2174 -1.7462
 9034SOL    HW238736   0.474   3.814   6.328  0.7265  0.2541  0.0812
 9035SOL     OW38737   1.887   0.588   8.063 -0.1683  0.2533 -0.3376
 9035SOL    HW138738   1.893   0.604   8.157 -0.9085  0.2128 -0.2824
 9035SOL    HW238739   1.976   0.602   8.031  0.7441 -1.8978  1.2184
 9036SOL     OW38740   0.886   2.842  12.783 -0.2617  0.0369 -0.2007
 9036SOL    HW138741   0.912   2.750  12.785  1.3552  0.4552 -2.9575
 9036SOL    HW238742   0.810   2.834  12.725 -1.2616  1.4117  0.9109
 9037SOL     OW38743   0.965   2.277   8.009 -0.3375 -0.4372 -0.1410
 9037SOL    HW138744   0.939   2.369   8.002 -0.0758 -0.4014 -0.6774
 9037SOL    HW238745   0.953   2.270   8.103  0.0041  1.6061  0.0452
 9038SOL     OW38746   1.431   0.453  13.781  0.5153 -0.1888 -0.6233
 9038SOL    HW138747   1.362   0.517  13.797  1.3012  0.6700 -0.6705
 9038SOL    HW238748   1.486   0.464  13.859 -0.2888  0.6815 -0.1702
 9039SOL     OW38749   3.076   0.755   1.416 -0.2797 -0.0074 -0.3336
 9039SOL    HW138750   3.165   0.787   1.403  0.0316 -0.0220  1.7472
 9039SOL    HW238751   3.086   0.674   1.466 -1.1466 -0.5732 -1.0815
 9040SOL     OW38752   2.926   2.294  10.532  0.1684  0.4582 -0.7471
 9040SOL    HW138753   2.951   2.269  10.621  1.6899 -2.0163 -1.8746
 9040SOL    HW238754   2.840   2.254  10.548  0.1775  0.5116 -0.5639
 9041SOL     OW38755   0.470   1.260   6.330 -0.5637 -0.0772  0.2544
 9041SOL    HW138756   0.428   1.345   6.336 -0.0914  0.2793 -1.5555
 9041SOL    HW238757   0.517   1.250   6.413  0.0778 -0.1127 -0.1049
 9042SOL     OW38758   2.057   1.921   7.775 -0.0643  0.3639 -0.0091
 9042SOL    HW138759   2.081   2.001   7.822  0.4812  0.5446 -0.5963
 9042SOL    HW238760   1.964   1.944   7.779  0.6376  3.1222  0.5031
 9043SOL     OW38761   3.022   1.602   5.526  0.2303  0.6964 -0.1340
 9043SOL    HW138762   3.072   1.673   5.567  0.0807 -0.1132  1.4396
 9043SOL    HW238763   3.068   1.589   5.442 -1.0790  1.1211 -0.9141
 9044SOL     OW38764   3.021   0.454   0.430 -0.3502  0.6437 -0.4237
 9044SOL    HW138765   3.005   0.371   0.384  1.2922  0.2863 -0.3558
 9044SOL    HW238766   3.004   0.522   0.365  0.1857 -1.5107 -2.8362
 9045SOL     OW38767   4.464   2.541   8.814  0.4872  0.0811 -0.6129
 9045SOL    HW138768   4.444   2.556   8.722  0.2725  0.3865 -0.5176
 9045SOL    HW238769   4.375   2.549   8.850  1.5220 -0.4616  2.0507
 9046SOL     OW38770   0.877   1.559   2.025  0.0519  0.0359 -0.2167
 9046SOL    HW138771   0.811   1.546   1.956  3.1019  0.3494 -3.2113
 9046SOL    HW238772   0.900   1.468   2.044 -0.2836 -0.0556 -0.2500
 9047SOL     OW38773   2.108   1.862   4.313  0.3360 -0.3477 -0.0858
 9047SOL    HW138774   2.029   1.904   4.347  1.5470  0.7522  1.4162
 9047SOL    HW238775   2.139   1.796   4.376 -0.5612 -1.3583 -0.7141
 9048SOL     OW38776   2.792   0.453  13.831  0.0984  0.1441 -0.1280
 9048SOL    HW138777   2.800   0.478  13.739  0.3006 -0.2579 -0.2180
 9048SOL    HW238778   2.728   0.381  13.831  0.4116 -0.1413  1.0201
 9049SOL     OW38779   3.632   2.524   1.937  0.5202  0.3373  0.3486
 9049SOL    HW138780   3.552   2.505   1.889  0.4422  0.3872  0.4605
 9049SOL    HW238781   3.602   2.486   2.019 -2.0499  0.3394 -0.6076
 9050SOL     OW38782   1.168   3.335   6.945  0.3063  0.9631 -0.4852
 9050SOL    HW138783   1.225   3.301   6.876  0.8059 -0.0161  0.4165
 9050SOL    HW238784   1.161   3.426   6.917  3.0074  1.9612  2.0619
 9051SOL     OW38785   1.329   3.852   9.718 -0.0201 -0.6722 -0.0730
 9051SOL    HW138786   1.398   3.815   9.663 -0.5747  1.5260 -2.3076
 9051SOL    HW238787   1.324   3.941   9.682  1.3886 -0.4228  0.3574
 9052SOL     OW38788   3.649   1.062   8.170  0.7217  0.3953  0.2162
 9052SOL    HW138789   3.702   1.098   8.241  1.3710  0.2208 -0.1834
 9052SOL    HW238790   3.565   1.106   8.183  0.8064  0.0057  1.9804
 9053SOL     OW38791   0.415   2.390   9.375 -0.2980  0.4873  0.6783
 9053SOL    HW138792   0.483   2.443   9.333  0.0659  0.9254  1.8140
 9053SOL    HW238793   0.400   2.448   9.450  1.3373  1.8992 -0.0711
 9054SOL     OW38794   3.021   2.052   8.706  0.1109  0.1788 -0.3640
 9054SOL    HW138795   3.067   2.098   8.776 -1.2426 -0.2287  0.8153
 9054SOL    HW238796   2.956   2.008   8.761  0.9061  2.0039  2.0231
 9055SOL     OW38797   0.249   3.922  17.501  0.3972 -0.4463  0.7814
 9055SOL    HW138798   0.237   4.014  17.525 -3.3981 -0.4215 -1.1548
 9055SOL    HW238799   0.283   3.873  17.576  3.2904 -2.5421 -1.9267
 9056SOL     OW38800   0.018   3.297   5.412 -0.2992  0.8052 -0.3732
 9056SOL    HW138801   4.684   3.251   5.373 -0.0060  1.4640 -1.6827
 9056SOL    HW238802   0.003   3.286   5.506  0.2972  0.5987 -0.2995
 9057SOL     OW38803   0.461   1.641   7.279 -0.3892 -0.3467 -0.2842
 9057SOL    HW138804   0.479   1.723   7.325 -0.3076 -1.2101  1.2317
 9057SOL    HW238805   0.428   1.587   7.351  0.2303  2.0348  1.7770
 9058SOL     OW38806   1.905   3.664  12.909  0.5711 -0.0724 -0.1458
 9058SOL    HW138807   1.843   3.674  12.981 -0.8932  0.0773 -1.4138
 9058SOL    HW238808   1.962   3.740  12.923 -1.3605  1.0603  1.4968
 9059SOL     OW38809   0.614   0.071   8.579 -0.3642 -0.4618  0.2226
 9059SOL    HW138810   0.540   0.131   8.568  1.5741  1.5407 -1.7733
 9059SOL    HW238811   0.579   0.017   8.651 -2.5164  0.7260  0.0856
 9060SOL     OW38812   0.731   2.649   8.140  0.6505 -0.4658 -0.2039
 9060SOL    HW138813   0.803   2.610   8.091 -0.5384 -0.2089 -2.1445
 9060SOL    HW238814   0.667   2.669   8.071  2.0390  2.7479 -0.5531
 9061SOL     OW38815   1.324   2.587   3.420 -0.0632 -0.4957 -0.1075
 9061SOL    HW138816   1.394   2.648   3.399 -0.0634 -0.3287  0.3669
 9061SOL    HW238817   1.359   2.501   3.397  1.1472  0.0711 -0.3774
 9062SOL     OW38818   1.111   4.598  17.587  0.4535  0.0717 -0.6551
 9062SOL    HW138819   1.018   4.621  17.596  0.5381  0.2503 -0.2229
 9062SOL    HW238820   1.134   4.546  17.664 -1.3877  0.1965 -0.0045
 9063SOL     OW38821   3.483   3.690   1.769  0.5335  0.1826 -0.2338
 9063SOL    HW138822   3.538   3.612   1.766  0.7730  0.3774 -0.9227
 9063SOL    HW238823   3.409   3.657   1.820 -0.2758  0.0190 -1.5252
 9064SOL     OW38824   2.648   2.257  15.145 -0.2875  0.4751 -0.3787
 9064SOL    HW138825   2.601   2.235  15.226 -0.4651 -1.7025 -1.0797
 9064SOL    HW238826   2.636   2.352  15.140  1.4047  0.5934 -2.3395
 9065SOL     OW38827   0.202   1.933  12.088 -0.4840  0.3978  0.0955
 9065SOL    HW138828   0.160   2.001  12.035  2.6425  1.7792 -0.5509
 9065SOL    HW238829   0.161   1.857  12.046 -2.2391  1.0713  0.5664
 9066SOL     OW38830   4.386   4.646   2.485 -0.1332 -0.1860  0.2218
 9066SOL    HW138831   4.420   4.621   2.399 -2.8249  0.5983 -1.0452
 9066SOL    HW238832   4.327   4.715   2.455 -1.9157 -2.0677 -0.5040
 9067SOL     OW38833   2.142   4.230   4.686 -0.2619  0.3251  0.4255
 9067SOL    HW138834   2.226   4.208   4.726 -0.1106 -1.4661 -0.8634
 9067SOL    HW238835   2.142   4.178   4.605 -1.1291  0.4053  0.3681
 9068SOL     OW38836   4.121   3.096  17.107  0.5386 -0.5720 -0.0123
 9068SOL    HW138837   4.092   3.034  17.174 -0.7960 -0.9523 -0.9397
 9068SOL    HW238838   4.192   3.140  17.153  1.1890 -0.3849 -1.1934
 9069SOL     OW38839   3.039   0.330   3.272  0.0463 -0.1877 -0.0687
 9069SOL    HW138840   2.964   0.340   3.331 -0.4570  0.2936 -0.7863
 9069SOL    HW238841   3.108   0.330   3.338 -0.3498 -0.5361  0.3432
 9070SOL     OW38842   4.582   0.511   5.924  0.6699  0.2446  0.2727
 9070SOL    HW138843   4.640   0.582   5.893  0.5310 -0.2929 -1.2136
 9070SOL    HW238844   4.601   0.445   5.858  0.9116 -1.6735  2.2956
 9071SOL     OW38845   2.461   1.625   8.497  0.4288  0.0720  0.3267
 9071SOL    HW138846   2.433   1.591   8.412  2.0122  0.1337 -0.2142
 9071SOL    HW238847   2.456   1.719   8.476  0.1621  0.0058  0.0971
 9072SOL     OW38848   0.316   2.707   3.590  0.6274 -0.8282 -0.4401
 9072SOL    HW138849   0.272   2.664   3.518  0.7204 -1.5366 -0.0787
 9072SOL    HW238850   0.376   2.769   3.549 -0.6830 -0.6134 -2.0390
 9073SOL     OW38851   1.538   2.722   7.452  0.7273  0.1434  0.2658
 9073SOL    HW138852   1.474   2.783   7.416 -0.1533 -0.4737  0.7817
 9073SOL    HW238853   1.485   2.666   7.509  0.8377  0.7092  0.9198
 9074SOL     OW38854   3.168   4.294  10.669  0.4777 -0.0444 -0.2928
 9074SOL    HW138855   3.166   4.350  10.747  2.2256  1.4689 -1.3474
 9074SOL    HW238856   3.225   4.339  10.608 -0.3492  1.8529  0.3179
 9075SOL     OW38857   4.691   0.041   8.006 -0.8235 -0.6635  0.7049
 9075SOL    HW138858   4.728   0.097   8.073 -1.3889  1.7929 -1.0126
 9075SOL    HW238859   0.008   4.705   8.014 -0.6884 -0.3784  2.3823
 9076SOL     OW38860   0.161   3.614   0.723  0.3820 -0.6282  0.5731
 9076SOL    HW138861   0.119   3.594   0.807  1.6836 -0.5754  1.2337
 9076SOL    HW238862   0.094   3.649   0.664  0.5107 -2.7000 -0.8173
 9077SOL     OW38863   3.374   1.256  15.917 -0.1750  0.1908 -0.1182
 9077SOL    HW138864   3.444   1.320  15.903 -0.8839  0.8424 -0.6666
 9077SOL    HW238865   3.315   1.262  15.842  0.2714 -1.7208 -0.6131
 9078SOL     OW38866   3.148   0.188   2.663  0.4737  0.1718  0.1639
 9078SOL    HW138867   3.221   0.137   2.698  1.5874  1.4407 -0.3049
 9078SOL    HW238868   3.202   0.239   2.603  0.7045 -0.5597 -0.2410
 9079SOL     OW38869   0.593   1.657  15.359  0.5153 -0.8349  0.2350
 9079SOL    HW138870   0.501   1.633  15.346  0.6806 -1.1379 -0.3649
 9079SOL    HW238871   0.608   1.699  15.274  2.5425  0.1665  1.0887
 9080SOL     OW38872   3.800   4.404  11.079  0.0583 -0.1348  0.2208
 9080SOL    HW138873   3.866   4.409  11.011  0.7358  1.2732  0.9754
 9080SOL    HW238874   3.852   4.416  11.158  0.7616 -0.4073 -0.2076
 9081SOL     OW38875   0.710   0.262   5.154 -0.2345  0.3193  0.3437
 9081SOL    HW138876   0.748   0.200   5.092 -2.1656  0.8807 -1.3990
 9081SOL    HW238877   0.741   0.228   5.238  0.1147  1.4632  0.6875
 9082SOL     OW38878   4.028   0.146   7.665 -0.2121  0.5031 -0.6558
 9082SOL    HW138879   4.095   0.214   7.665  0.1820  0.1168 -0.3046
 9082SOL    HW238880   3.948   0.195   7.649  0.1311  1.5948  0.9217
 9083SOL     OW38881   3.269   3.978   5.886 -0.2521  0.3350  0.1277
 9083SOL    HW138882   3.287   4.001   5.795 -1.0273 -1.9139 -0.6098
 9083SOL    HW238883   3.333   4.025   5.939 -0.2784  0.9712 -0.4033
 9084SOL     OW38884   0.414   3.713   8.980  0.1122  0.3157 -0.2903
 9084SOL    HW138885   0.426   3.620   8.963  0.7687  0.4598 -0.6245
 9084SOL    HW238886   0.483   3.738   9.042 -0.4262  1.9823 -0.3567
 9085SOL     OW38887   0.869   2.446  15.561  0.1649 -0.1542  0.3397
 9085SOL    HW138888   0.791   2.425  15.509  0.4806  1.1814 -0.6939
 9085SOL    HW238889   0.833   2.459  15.649 -0.4233 -0.0147  0.0830
 9086SOL     OW38890   4.211   1.768   5.856 -0.4666  0.3625  0.3494
 9086SOL    HW138891   4.207   1.802   5.767 -2.4571  1.2859  0.8092
 9086SOL    HW238892   4.147   1.823   5.901 -0.6850 -0.0361  0.5294
 9087SOL     OW38893   1.614   0.465   4.710  0.1362  0.2924 -0.4857
 9087SOL    HW138894   1.587   0.381   4.746 -1.6156 -0.1010 -2.7609
 9087SOL    HW238895   1.710   0.470   4.710  0.1259  0.4647 -0.8318
 9088SOL     OW38896   3.089   2.171  15.362 -0.0529  0.1778 -0.4280
 9088SOL    HW138897   3.017   2.142  15.307  0.4407  0.7172 -1.3507
 9088SOL    HW238898   3.051   2.168  15.450 -0.6030 -2.2914 -0.7485
 9089SOL     OW38899   0.200   0.203   4.810  0.3212 -0.5536 -0.5465
 9089SOL    HW138900   0.133   0.202   4.742 -0.3668 -1.1841  0.1413
 9089SOL    HW238901   0.231   0.293   4.803  0.1210 -0.5103 -0.8527
 9090SOL     OW38902   2.913   0.276   7.393 -0.0025 -0.1832 -0.2743
 9090SOL    HW138903   2.945   0.356   7.352 -0.2401 -0.5909 -1.2442
 9090SOL    HW238904   2.925   0.203   7.332  1.2305 -1.2291  1.1880
 9091SOL     OW38905   3.883   3.593  14.023 -0.5527  0.2473  0.2183
 9091SOL    HW138906   3.822   3.667  14.020 -0.5117  0.2547 -0.2865
 9091SOL    HW238907   3.891   3.559  13.934 -0.1527 -2.5336  1.3270
 9092SOL     OW38908   2.424   3.481   5.357 -0.5206  0.0360 -0.4952
 9092SOL    HW138909   2.465   3.499   5.272  0.0542  2.2716  0.2536
 9092SOL    HW238910   2.354   3.422   5.330 -0.8040 -0.5612  1.5293
 9093SOL     OW38911   2.463   1.069   0.246 -0.6423  0.3108  0.3010
 9093SOL    HW138912   2.388   1.034   0.293 -0.0832  0.2830  1.1808
 9093SOL    HW238913   2.428   1.054   0.158  0.3146 -1.0077  0.1442
 9094SOL     OW38914   4.523   2.609   0.584  0.2906 -0.0302  0.0592
 9094SOL    HW138915   4.613   2.588   0.562  0.5868  0.1672  1.0956
 9094SOL    HW238916   4.520   2.703   0.598  1.2826 -0.0120  0.1062
 9095SOL     OW38917   4.072   4.645  16.616 -0.4926 -0.8729 -0.3117
 9095SOL    HW138918   4.063   4.619  16.708 -4.9962  2.4660  0.1783
 9095SOL    HW238919   4.157   4.601  16.610 -1.1310 -1.8923 -1.7493
 9096SOL     OW38920   1.248   1.933   5.602 -0.0185 -0.1704  0.1595
 9096SOL    HW138921   1.241   2.028   5.615 -1.9835 -0.1165 -1.2467
 9096SOL    HW238922   1.171   1.890   5.640 -0.1716 -0.1583 -0.1314
 9097SOL     OW38923   0.524   0.374  15.027  0.4081  0.1755 -0.2629
 9097SOL    HW138924   0.561   0.443  14.971  1.5311  0.5845  0.9815
 9097SOL    HW238925   0.459   0.341  14.965 -0.1397  0.9202 -0.0843
 9098SOL     OW38926   3.284   3.062  15.612  0.0468 -0.0850 -0.2161
 9098SOL    HW138927   3.375   3.065  15.581 -0.0607 -0.2598 -0.5531
 9098SOL    HW238928   3.242   3.123  15.551 -0.4285  0.8411  1.0495
 9099SOL     OW38929   1.569   0.941   8.468  0.2582 -0.1890  0.2968
 9099SOL    HW138930   1.619   0.890   8.532  1.3121 -1.1287 -1.2694
 9099SOL    HW238931   1.485   0.958   8.512 -1.1147 -2.3709 -1.4789
 9100SOL     OW38932   3.486   3.187  11.693  0.0151 -0.5763 -0.4550
 9100SOL    HW138933   3.508   3.105  11.650 -0.9360  0.0205 -2.1133
 9100SOL    HW238934   3.519   3.240  11.620 -0.4157  1.0820  0.5441
 9101SOL     OW38935   4.505   4.602   6.282  0.3486 -0.1213 -0.1074
 9101SOL    HW138936   4.571   4.533   6.290  0.5778 -0.1240 -2.0005
 9101SOL    HW238937   4.498   4.624   6.375  0.6794  0.6818 -0.2734
 9102SOL     OW38938   1.017   1.991   0.432 -0.5058 -0.5185  0.3350
 9102SOL    HW138939   0.945   1.933   0.409 -0.9882  0.1004  0.2878
 9102SOL    HW238940   1.062   1.927   0.487  2.5869  1.4759  0.1563
 9103SOL     OW38941   3.855   0.182   5.305  0.4237  0.2520 -0.5229
 9103SOL    HW138942   3.847   0.231   5.387 -1.8596  0.3279 -0.7919
 9103SOL    HW238943   3.798   0.240   5.255 -0.8659 -0.3992  0.1925
 9104SOL     OW38944   4.228   3.744  17.512 -0.4791 -0.3276  0.5991
 9104SOL    HW138945   4.209   3.834  17.485 -0.3665 -0.2725  0.7087
 9104SOL    HW238946   4.257   3.756  17.602 -0.3326 -0.2680  0.5437
 9105SOL     OW38947   2.637   0.533  15.986  0.6183 -0.2159 -0.2559
 9105SOL    HW138948   2.585   0.609  15.959 -1.0900 -1.5041 -0.5784
 9105SOL    HW238949   2.727   0.565  15.993 -0.5106  2.8044  0.4641
 9106SOL     OW38950   1.063   2.887  15.364  0.1720  0.3050 -0.0726
 9106SOL    HW138951   1.035   2.814  15.419  3.9407 -1.8222 -0.9683
 9106SOL    HW238952   1.019   2.862  15.283 -1.4479 -0.9320  1.1929
 9107SOL     OW38953   1.225   0.859  11.352 -0.0813  0.5040 -0.4989
 9107SOL    HW138954   1.140   0.902  11.357 -0.3235 -0.1147  0.6450
 9107SOL    HW238955   1.199   0.771  11.323  0.3053 -0.2740  1.5100
 9108SOL     OW38956   3.218   2.794   7.371  0.3848  1.0432  0.9231
 9108SOL    HW138957   3.246   2.713   7.413 -1.5112 -1.2091 -2.1415
 9108SOL    HW238958   3.291   2.852   7.394  0.2535  0.9841  1.4874
 9109SOL     OW38959   2.047   0.489   1.031  0.0373 -0.4427 -0.5404
 9109SOL    HW138960   2.085   0.530   0.953  0.6447  0.4497  0.2165
 9109SOL    HW238961   1.992   0.429   0.982  0.6585 -0.6165 -1.0179
 9110SOL     OW38962   3.173   3.548   3.470  0.0406  0.3393 -0.3730
 9110SOL    HW138963   3.209   3.630   3.436  1.2997 -1.5183 -3.5066
 9110SOL    HW238964   3.135   3.574   3.554  0.3083  2.3250 -0.8739
 9111SOL     OW38965   3.374   3.253  17.123 -0.1989  0.7791  0.4077
 9111SOL    HW138966   3.446   3.316  17.122  0.2979  0.2118  0.0338
 9111SOL    HW238967   3.324   3.289  17.196  2.0094  2.4917  1.0777
 9112SOL     OW38968   1.152   4.452   1.580 -0.1584  0.1048 -0.4988
 9112SOL    HW138969   1.101   4.519   1.626  3.2466  1.1509  1.7246
 9112SOL    HW238970   1.195   4.510   1.518  0.5168  0.3292  0.1736
 9113SOL     OW38971   0.626   4.668   4.177  0.2292  0.2827  0.1119
 9113SOL    HW138972   0.635   4.660   4.272  0.3274  0.9035  0.1506
 9113SOL    HW238973   0.545   4.616   4.171 -0.0565  0.5150  1.8433
 9114SOL     OW38974   4.500   2.599  13.315 -0.2826 -0.0307  0.6744
 9114SOL    HW138975   4.575   2.544  13.293  0.2027  1.4309 -1.4232
 9114SOL    HW238976   4.487   2.643  13.230 -0.2631  2.5219  1.9816
 9115SOL     OW38977   1.434   0.485   3.880 -0.1530  0.0039  0.0268
 9115SOL    HW138978   1.484   0.551   3.832 -2.5546  1.3340 -0.6441
 9115SOL    HW238979   1.401   0.540   3.951  0.0887  1.2372 -0.8080
 9116SOL     OW38980   4.152   2.114  13.704  0.0816 -0.0101 -0.1917
 9116SOL    HW138981   4.078   2.173  13.718 -0.8261 -1.1916 -0.0969
 9116SOL    HW238982   4.105   2.044  13.660  1.1165  0.1218 -1.5204
 9117SOL     OW38983   3.003   2.348   6.689  0.0112 -0.1880 -0.2296
 9117SOL    HW138984   3.073   2.339   6.754 -0.0738  1.0102  0.0349
 9117SOL    HW238985   2.936   2.400   6.733 -0.4869 -0.9244 -0.1221
 9118SOL     OW38986   1.035   0.172   0.585 -0.0478  0.3398  0.0237
 9118SOL    HW138987   0.942   0.174   0.564 -0.6883 -0.7553  2.7374
 9118SOL    HW238988   1.035   0.139   0.675  0.5729 -0.7707 -0.3846
 9119SOL     OW38989   2.426   2.704   8.043  0.2070  0.1366 -0.3039
 9119SOL    HW138990   2.392   2.792   8.026 -0.2270 -0.2199 -1.3169
 9119SOL    HW238991   2.346   2.657   8.067 -0.2100  1.1004  0.1674
 9120SOL     OW38992   2.656   3.280   3.982 -0.0854 -0.2945  0.3832
 9120SOL    HW138993   2.703   3.249   3.905  1.1823 -0.6184  1.2983
 9120SOL    HW238994   2.566   3.251   3.966 -1.9145  3.9382  2.8124
 9121SOL     OW38995   2.162   2.411   3.376 -0.0667  0.2574 -0.3990
 9121SOL    HW138996   2.246   2.424   3.331  0.2189 -0.5177 -0.0854
 9121SOL    HW238997   2.161   2.496   3.420  1.7663 -0.6317  1.3772
 9122SOL     OW38998   2.252   1.692   3.982  0.4608 -0.2193 -0.3282
 9122SOL    HW138999   2.306   1.621   4.018  0.9647  0.6082  0.5390
 9122SOL    HW239000   2.168   1.687   4.026  1.0574  0.9185  0.9366
 9123SOL     OW39001   2.507   2.264  15.413 -0.3301 -0.1710 -0.3456
 9123SOL    HW139002   2.502   2.170  15.426  1.4090 -0.0878  0.8233
 9123SOL    HW239003   2.504   2.300  15.502 -0.3449 -0.0926 -0.3773
 9124SOL     OW39004   2.008   1.371   9.279  0.1611 -0.3799 -0.5501
 9124SOL    HW139005   2.040   1.427   9.350 -1.3626  0.0559 -0.1924
 9124SOL    HW239006   2.011   1.438   9.210  0.3836 -0.3158 -0.4786
 9125SOL     OW39007   2.419   1.663   4.415 -0.6528 -0.6298 -0.2286
 9125SOL    HW139008   2.337   1.620   4.438 -1.1366  0.0588 -0.6848
 9125SOL    HW239009   2.446   1.631   4.329 -0.4731 -2.8658  0.6433
 9126SOL     OW39010   1.172   2.453   6.982  0.0288  0.4540 -0.1954
 9126SOL    HW139011   1.078   2.456   6.964 -0.0299 -0.5226 -0.0075
 9126SOL    HW239012   1.194   2.365   7.011 -2.5967 -1.0350 -2.6835
 9127SOL     OW39013   3.345   4.163   6.439  0.2384 -0.1112  0.0946
 9127SOL    HW139014   3.267   4.219   6.446 -0.8042 -1.5918  0.2205
 9127SOL    HW239015   3.339   4.113   6.358  0.8175  0.1575 -0.1141
 9128SOL     OW39016   3.849   4.504  14.221  0.2418 -0.6125  0.3514
 9128SOL    HW139017   3.804   4.572  14.273 -0.4428  0.9605 -2.2700
 9128SOL    HW239018   3.940   4.527  14.239  0.6585 -2.1941  0.2512
 9129SOL     OW39019   3.353   3.635   6.077 -0.0930  0.1410  0.5274
 9129SOL    HW139020   3.318   3.549   6.052  4.0950 -2.2550  2.9738
 9129SOL    HW239021   3.401   3.613   6.156  1.6625  0.5643 -0.4371
 9130SOL     OW39022   0.040   1.981   5.351 -0.0111  0.2619  0.4219
 9130SOL    HW139023   0.110   2.036   5.318 -0.5108  1.0133  0.6244
 9130SOL    HW239024   0.061   1.978   5.445  0.6750  2.8622  0.3395
 9131SOL     OW39025   0.770   3.342  13.892 -0.1985 -0.3027  0.1140
 9131SOL    HW139026   0.740   3.431  13.907  1.7000 -0.0291  2.4518
 9131SOL    HW239027   0.862   3.359  13.912 -0.6757  0.4913  1.6361
 9132SOL     OW39028   0.625   2.884   5.080  0.6517  0.4714  0.0885
 9132SOL    HW139029   0.577   2.961   5.112  0.1650 -0.3946  1.4433
 9132SOL    HW239030   0.700   2.869   5.137 -0.3263  1.6999  1.7081
 9133SOL     OW39031   0.636   2.930   1.754  0.2241 -0.0849  0.3695
 9133SOL    HW139032   0.576   3.001   1.776 -0.0297 -0.1196 -0.2150
 9133SOL    HW239033   0.655   2.891   1.840 -0.4786  0.7464  0.8985
 9134SOL     OW39034   4.587   2.995   0.865 -0.1420  0.4822  0.3931
 9134SOL    HW139035   4.633   2.925   0.912  1.4891  1.0562 -0.3196
 9134SOL    HW239036   4.574   2.956   0.779 -1.2263 -0.3315  0.9249
 9135SOL     OW39037   4.563   3.786   4.166  0.0895  0.2633  0.1090
 9135SOL    HW139038   4.563   3.741   4.081 -2.4099 -0.8594  0.7176
 9135SOL    HW239039   4.594   3.711   4.217 -0.6064  1.0980  1.7314
 9136SOL     OW39040   1.535   2.307   8.550  0.0581  0.1199 -0.1405
 9136SOL    HW139041   1.601   2.241   8.529 -0.6859 -1.4527  2.4802
 9136SOL    HW239042   1.580   2.392   8.557  0.7862 -0.3546  0.9900
 9137SOL     OW39043   1.058   4.043   8.689 -0.2287 -0.0724  0.0790
 9137SOL    HW139044   1.058   4.119   8.748  0.0851 -0.2249  0.2723
 9137SOL    HW239045   1.092   4.070   8.604  0.9670  0.9114  0.8615
 9138SOL     OW39046   0.634   2.730   5.445 -0.1230  0.0655  0.0269
 9138SOL    HW139047   0.668   2.820   5.446  2.8752 -1.0306 -1.8674
 9138SOL    HW239048   0.541   2.743   5.425 -0.9604 -3.7817  1.5156
 9139SOL     OW39049   4.349   4.598  12.338  0.3646 -0.6344 -0.0682
 9139SOL    HW139050   4.390   4.523  12.381 -0.9178 -0.7021  1.0398
 9139SOL    HW239051   4.403   4.669  12.373 -1.2853  0.0409  1.1320
 9140SOL     OW39052   3.738   3.923   4.717  0.4689  1.0029 -0.0265
 9140SOL    HW139053   3.708   3.972   4.640 -0.5783  2.8905  1.5953
 9140SOL    HW239054   3.649   3.909   4.747  0.2553  1.0005 -0.6533
 9141SOL     OW39055   2.170   3.560   6.453 -0.2885  0.0381 -0.4063
 9141SOL    HW139056   2.115   3.552   6.531 -1.1133  1.2568 -0.8650
 9141SOL    HW239057   2.194   3.653   6.446  2.6027 -0.6031  0.8465
 9142SOL     OW39058   3.420   0.803  13.020  0.0557  0.4953  0.5416
 9142SOL    HW139059   3.361   0.878  13.015 -0.3273  0.1318 -0.4793
 9142SOL    HW239060   3.423   0.804  12.924 -0.8186  2.6139  0.5275
 9143SOL     OW39061   2.296   3.736  17.311 -0.1568  0.3057  0.6700
 9143SOL    HW139062   2.248   3.802  17.260 -0.3343 -1.4444 -1.4491
 9143SOL    HW239063   2.330   3.785  17.385  2.0633 -1.5845  0.9220
 9144SOL     OW39064   0.486   2.418   1.950 -0.0091  0.0420 -0.1188
 9144SOL    HW139065   0.542   2.450   2.021 -1.1075  0.0762  0.7267
 9144SOL    HW239066   0.401   2.414   1.993 -1.0508 -0.0855 -2.1790
 9145SOL     OW39067   4.061   0.208   7.304 -0.0512  0.6769  0.6605
 9145SOL    HW139068   4.122   0.137   7.329 -0.6471 -0.0745 -0.0222
 9145SOL    HW239069   4.116   0.252   7.240 -0.0674 -0.1899  0.0417
 9146SOL     OW39070   4.721   1.213   3.398  0.1820  0.2139 -0.1277
 9146SOL    HW139071   4.679   1.286   3.444  2.0072  0.7200  0.7362
 9146SOL    HW239072   4.737   1.161   3.476  1.0383 -1.1807 -1.2289
 9147SOL     OW39073   4.321   2.480   3.933 -0.1216  0.5500 -0.0693
 9147SOL    HW139074   4.345   2.389   3.949  3.0034  1.5008  0.7744
 9147SOL    HW239075   4.408   2.522   3.929  1.0772 -1.8953  0.3136
 9148SOL     OW39076   4.658   2.589   7.229  0.1267 -0.1533  0.6802
 9148SOL    HW139077   4.731   2.550   7.181  1.5501  2.9428  0.3022
 9148SOL    HW239078   4.596   2.598   7.158 -1.2783  0.9407  2.0391
 9149SOL     OW39079   4.378   0.476   4.273  0.5579 -0.0608 -0.3594
 9149SOL    HW139080   4.283   0.484   4.284  0.2674 -3.0167 -0.6909
 9149SOL    HW239081   4.381   0.446   4.182  2.6548 -1.5830  0.1994
 9150SOL     OW39082   1.667   2.943   3.522 -0.7501  0.3482  0.0434
 9150SOL    HW139083   1.616   3.022   3.536 -0.6518  0.2557  0.8874
 9150SOL    HW239084   1.757   2.963   3.548 -0.5120 -2.6952  1.6425
 9151SOL     OW39085   2.461   3.524  10.074 -0.1378 -0.1271 -0.0721
 9151SOL    HW139086   2.432   3.532  10.165 -2.5669 -0.2070 -0.8592
 9151SOL    HW239087   2.557   3.525  10.069 -0.1110  1.4036  0.7507
 9152SOL     OW39088   1.651   1.145   4.836 -0.0432  0.2248 -0.1976
 9152SOL    HW139089   1.741   1.116   4.828  0.2758  0.5357  2.1942
 9152SOL    HW239090   1.663   1.240   4.843  2.3338 -0.0942 -0.1124
 9153SOL     OW39091   3.767   0.446  16.578 -0.6266  0.1208 -0.4909
 9153SOL    HW139092   3.782   0.467  16.671 -0.2136  1.6599 -0.9081
 9153SOL    HW239093   3.777   0.351  16.587 -0.4017  0.3215  1.4173
 9154SOL     OW39094   0.042   2.712   7.694  0.0087  0.3500  0.1179
 9154SOL    HW139095   0.113   2.674   7.642  0.8216  0.1748  1.3692
 9154SOL    HW239096   4.734   2.635   7.726  0.8073 -0.4716 -0.6788
 9155SOL     OW39097   4.240   2.595   7.055 -0.1523  0.2876  0.1767
 9155SOL    HW139098   4.256   2.631   7.142 -1.5334 -1.2900  1.0860
 9155SOL    HW239099   4.286   2.512   7.068  0.2559  0.1892 -1.8739
 9156SOL     OW39100   3.030   2.477   4.300 -0.5654  0.2880 -0.1525
 9156SOL    HW139101   3.069   2.431   4.225 -0.1591 -1.0898  0.9057
 9156SOL    HW239102   2.956   2.417   4.317 -0.1528 -0.1927 -0.0561
 9157SOL     OW39103   1.132   3.572   6.427  0.4107  1.0647  0.1424
 9157SOL    HW139104   1.067   3.593   6.495  1.5026 -0.3845  1.6194
 9157SOL    HW239105   1.205   3.630   6.447  2.0197 -1.5275  1.8310
 9158SOL     OW39106   3.675   0.237   7.800  0.4081  0.2273 -0.6042
 9158SOL    HW139107   3.635   0.171   7.744  0.3221  0.0810 -0.3705
 9158SOL    HW239108   3.656   0.196   7.884  1.8826 -0.5142 -0.6461
 9159SOL     OW39109   4.262   0.651  16.930 -0.3349 -0.4143 -0.0217
 9159SOL    HW139110   4.312   0.713  16.877 -0.7950 -0.4809 -0.5410
 9159SOL    HW239111   4.252   0.689  17.017  0.8216  0.2062 -0.1661
 9160SOL     OW39112   0.137   1.590   2.365 -0.1710  0.2926 -0.3471
 9160SOL    HW139113   0.141   1.682   2.391  0.4913 -0.1850  1.2414
 9160SOL    HW239114   0.217   1.559   2.407 -2.0130 -1.6270  1.7748
 9161SOL     OW39115   1.037   1.284  13.876 -0.2261 -0.5385  0.2367
 9161SOL    HW139116   1.055   1.309  13.967 -0.2519  0.5271 -0.0434
 9161SOL    HW239117   1.004   1.364  13.834 -1.0677 -0.7960  0.4079
 9162SOL     OW39118   1.095   2.018   1.848 -0.3796 -0.2901 -0.0638
 9162SOL    HW139119   1.037   2.086   1.812 -0.4583  0.1981  0.9823
 9162SOL    HW239120   1.037   1.978   1.913  2.3569 -2.6938  0.8714
 9163SOL     OW39121   2.681   3.878   9.787  0.2035  0.2280 -0.7759
 9163SOL    HW139122   2.738   3.806   9.813  1.7418  0.9389 -2.1139
 9163SOL    HW239123   2.636   3.894   9.870 -0.7428 -1.2189 -1.0242
 9164SOL     OW39124   4.379   2.410  10.228  0.4684 -0.4198 -0.1616
 9164SOL    HW139125   4.407   2.433  10.140 -4.4724 -1.3711 -2.0043
 9164SOL    HW239126   4.284   2.424  10.230  0.3671 -1.2027  0.6453
 9165SOL     OW39127   4.227   4.377   7.046  0.0405  0.1747 -0.0201
 9165SOL    HW139128   4.301   4.347   7.100 -2.1523 -2.8530  1.3300
 9165SOL    HW239129   4.207   4.464   7.078 -0.9079 -0.6486  1.6046
 9166SOL     OW39130   0.804   2.163   0.782 -0.5603  0.8951 -0.4678
 9166SOL    HW139131   0.720   2.208   0.775 -1.5622 -0.9260 -0.0091
 9166SOL    HW239132   0.813   2.143   0.689 -1.5749 -1.9034  0.0393
 9167SOL     OW39133   0.961   3.488   2.769 -0.1401 -0.2222  0.3742
 9167SOL    HW139134   0.894   3.468   2.703  3.7898 -0.6695 -3.4427
 9167SOL    HW239135   0.954   3.581   2.788 -0.2987 -0.4935  1.6863
 9168SOL     OW39136   0.224   4.194   6.364  0.1732 -0.8208 -0.9195
 9168SOL    HW139137   0.221   4.098   6.367 -0.0356 -0.7555  0.9283
 9168SOL    HW239138   0.216   4.196   6.269  0.7348 -1.0013 -0.9707
 9169SOL     OW39139   0.810   2.562   0.672  0.9748 -0.3342 -0.3834
 9169SOL    HW139140   0.868   2.492   0.703  1.3847 -0.4448 -1.4008
 9169SOL    HW239141   0.725   2.536   0.707  0.3814  0.7490 -1.0107
 9170SOL     OW39142   1.704   3.259  12.636  0.0216 -0.1331 -0.0798
 9170SOL    HW139143   1.794   3.250  12.666  0.9979  1.8775 -2.4889
 9170SOL    HW239144   1.707   3.335  12.578 -0.8754 -0.1244 -0.1223
 9171SOL     OW39145   3.807   3.210   2.396 -0.3088  0.5768  0.1586
 9171SOL    HW139146   3.842   3.261   2.469  2.8742  0.5533 -1.3491
 9171SOL    HW239147   3.883   3.155   2.377 -0.7270 -0.6884  2.1364
 9172SOL     OW39148   2.568   3.597   4.333  0.0889 -0.4611 -0.0605
 9172SOL    HW139149   2.586   3.551   4.251  1.5939 -0.2513  0.1499
 9172SOL    HW239150   2.530   3.527   4.385  2.3011 -2.5289 -1.2483
 9173SOL     OW39151   1.408   0.751   5.445 -0.2569 -0.7148 -0.1090
 9173SOL    HW139152   1.342   0.795   5.392 -0.2324  0.5451  0.9043
 9173SOL    HW239153   1.379   0.660   5.454 -2.4326 -0.0578 -0.5406
 9174SOL     OW39154   2.066   3.716   4.026  0.7156 -0.2332 -0.3887
 9174SOL    HW139155   2.141   3.770   4.051  0.7837  0.6615 -2.5055
 9174SOL    HW239156   2.006   3.786   4.003 -1.4719 -0.5862  4.3494
 9175SOL     OW39157   2.627   0.462   9.977 -0.6170 -0.3571  0.7703
 9175SOL    HW139158   2.690   0.486  10.045  0.6689 -0.2290 -0.4537
 9175SOL    HW239159   2.680   0.494   9.904 -0.1354 -0.1282  1.2145
 9176SOL     OW39160   1.136   1.297   5.499 -0.2720  0.1471 -0.0685
 9176SOL    HW139161   1.179   1.269   5.419 -0.7583 -2.6040  0.6445
 9176SOL    HW239162   1.067   1.232   5.510  0.1052 -0.6730 -2.6011
 9177SOL     OW39163   4.546   2.609  16.036 -0.1652 -0.1841 -0.6474
 9177SOL    HW139164   4.603   2.686  16.045 -0.6718 -0.3202  3.9574
 9177SOL    HW239165   4.606   2.543  16.001 -0.2977  0.6959 -2.5109
 9178SOL     OW39166   4.336   2.387   5.663  0.4076  0.0972 -0.5499
 9178SOL    HW139167   4.327   2.437   5.744 -0.2018 -0.6555 -0.1607
 9178SOL    HW239168   4.413   2.426   5.620  0.6566  0.5474  0.2966
 9179SOL     OW39169   1.580   3.309   1.483 -0.0544  0.2531 -0.0823
 9179SOL    HW139170   1.489   3.321   1.508 -0.5721  2.6826 -3.0611
 9179SOL    HW239171   1.605   3.221   1.510 -0.2240  0.2927  0.1963
 9180SOL     OW39172   2.400   4.407   5.749 -0.1380 -0.5090 -0.0424
 9180SOL    HW139173   2.377   4.342   5.816  1.3447 -1.5338 -0.5135
 9180SOL    HW239174   2.495   4.404   5.765 -0.6689 -1.6706  2.8268
 9181SOL     OW39175   2.527   0.170   7.837  0.2972  0.3190  0.1173
 9181SOL    HW139176   2.510   0.126   7.754 -2.6102  0.2283  0.7647
 9181SOL    HW239177   2.454   0.141   7.891  0.3857 -1.9377 -0.9562
 9182SOL     OW39178   0.706   3.774   2.652 -0.0391  0.6144 -0.0196
 9182SOL    HW139179   0.766   3.723   2.598 -0.4456  1.7189 -1.4931
 9182SOL    HW239180   0.760   3.851   2.664 -1.4349  1.3781  1.3876
 9183SOL     OW39181   2.378   0.982   7.269 -0.4671 -0.3427  0.5358
 9183SOL    HW139182   2.328   0.901   7.268  0.6905 -1.0365 -0.6545
 9183SOL    HW239183   2.350   1.023   7.187  2.9454  3.2307  1.1797
 9184SOL     OW39184   1.747   3.677   0.332 -0.1666 -0.5794  0.4119
 9184SOL    HW139185   1.674   3.708   0.279  0.3199 -2.3979 -1.3084
 9184SOL    HW239186   1.756   3.759   0.380 -0.6978 -0.8381  0.9636
 9185SOL     OW39187   4.172   2.790  10.095  0.2011 -0.0497 -1.0260
 9185SOL    HW139188   4.242   2.732  10.125 -0.4638 -0.3652 -0.0914
 9185SOL    HW239189   4.133   2.794  10.182 -0.4632 -2.1633 -1.2272
 9186SOL     OW39190   3.948   0.978   3.121 -0.1419  0.3567 -0.1465
 9186SOL    HW139191   4.010   0.998   3.191 -1.7306 -0.9400  1.6464
 9186SOL    HW239192   3.865   0.992   3.167  0.6397 -0.5340  1.5253
 9187SOL     OW39193   1.265   2.353   8.596  0.0759  0.0812 -0.0655
 9187SOL    HW139194   1.356   2.326   8.603  0.1415  0.1409 -0.7112
 9187SOL    HW239195   1.236   2.321   8.511 -1.9930  3.3517 -0.6134
 9188SOL     OW39196   4.255   2.004   9.149 -0.5673 -0.2921  0.1580
 9188SOL    HW139197   4.277   2.034   9.061  0.9688 -1.7850  0.0410
 9188SOL    HW239198   4.190   1.938   9.126 -0.4393 -0.1606 -0.5661
 9189SOL     OW39199   4.522   2.133   0.407 -0.3480 -0.0118  0.2156
 9189SOL    HW139200   4.533   2.173   0.320  0.0165 -0.0772  0.2308
 9189SOL    HW239201   4.428   2.146   0.422 -0.4339 -2.8579  2.0968
 9190SOL     OW39202   3.775   3.479  15.386  0.5002 -0.0871  0.5050
 9190SOL    HW139203   3.686   3.491  15.419 -0.2366  2.2418 -2.2768
 9190SOL    HW239204   3.825   3.514  15.459 -0.3050  1.1958  0.4554
 9191SOL     OW39205   3.590   3.806   8.649  0.4963 -0.4868 -0.0205
 9191SOL    HW139206   3.567   3.899   8.648  2.1170 -0.0688  0.8313
 9191SOL    HW239207   3.575   3.786   8.742  1.4088 -1.7140 -0.1340
 9192SOL     OW39208   0.570   3.736  15.277 -0.1866 -0.0022  0.9007
 9192SOL    HW139209   0.560   3.729  15.182 -0.2428  1.1001  0.8250
 9192SOL    HW239210   0.662   3.744  15.302 -0.1435 -1.7297  1.3243
 9193SOL     OW39211   0.166   4.219   1.672 -0.4915  1.0424 -0.1949
 9193SOL    HW139212   0.092   4.253   1.620  0.2194  0.5771 -1.4932
 9193SOL    HW239213   0.190   4.140   1.624 -1.3928 -1.4128  3.4620
 9194SOL     OW39214   4.090   2.463  16.398 -0.1710  0.2801 -0.4318
 9194SOL    HW139215   4.144   2.399  16.445  1.8749 -0.1895 -3.4102
 9194SOL    HW239216   4.144   2.541  16.394 -0.4777  0.5165 -0.0493
 9195SOL     OW39217   3.862   1.087   7.598  0.1032 -0.1527  0.0108
 9195SOL    HW139218   3.785   1.086   7.656 -0.6620  1.0869 -0.9725
 9195SOL    HW239219   3.932   1.075   7.662  0.0016 -0.8712 -0.0113
 9196SOL     OW39220   1.746   0.170  10.762  0.3113 -0.1403 -0.0540
 9196SOL    HW139221   1.667   0.198  10.714  0.0811  1.3769  1.2149
 9196SOL    HW239222   1.812   0.173  10.693 -0.2960  0.4389 -0.6177
 9197SOL     OW39223   2.391   1.228  12.199 -0.2939 -0.4734  0.0222
 9197SOL    HW139224   2.344   1.268  12.272  0.5041  0.8063 -0.1523
 9197SOL    HW239225   2.364   1.295  12.136  2.8445  0.0702 -0.7784
 9198SOL     OW39226   1.092   2.635   3.578 -0.5827  0.0542  0.0878
 9198SOL    HW139227   1.072   2.727   3.563  0.0903 -0.0609 -1.6039
 9198SOL    HW239228   1.181   2.613   3.550 -0.9115 -4.3856  2.5380
 9199SOL     OW39229   0.265   4.376   6.546 -0.2743 -0.3695 -0.2897
 9199SOL    HW139230   0.186   4.359   6.596  0.2586 -1.4468  0.1815
 9199SOL    HW239231   0.252   4.311   6.477  2.3904  1.1347 -2.2490
 9200SOL     OW39232   2.635   3.803   8.661 -0.3350  0.4590  0.0389
 9200SOL    HW139233   2.706   3.787   8.599 -0.3484  0.9639 -0.1131
 9200SOL    HW239234   2.637   3.899   8.667 -0.3464  0.4633 -0.0249
 9201SOL     OW39235   0.017   2.744  12.015  0.2243 -0.0635 -0.2292
 9201SOL    HW139236   0.055   2.766  11.929 -0.9355 -0.4813 -0.8409
 9201SOL    HW239237   4.667   2.740  11.985 -0.2579 -2.1795  1.5461
 9202SOL     OW39238   3.227   4.633   6.841  0.2240 -0.7018 -0.2821
 9202SOL    HW139239   3.292   4.691   6.802  1.0424 -0.6290  1.2067
 9202SOL    HW239240   3.219   4.660   6.932 -0.5805  0.1997 -0.6229
 9203SOL     OW39241   0.452   4.528   6.369 -0.4445  0.0589 -0.3390
 9203SOL    HW139242   0.405   4.589   6.313 -0.6371 -0.8563 -1.1625
 9203SOL    HW239243   0.388   4.501   6.435  0.0229  1.2852  0.6340
 9204SOL     OW39244   1.167   0.369   2.935 -0.6666  0.5421  0.1148
 9204SOL    HW139245   1.221   0.447   2.925 -0.4886  0.4853  0.6141
 9204SOL    HW239246   1.160   0.337   2.845 -0.8816 -0.9437  0.6538
 9205SOL     OW39247   2.491   1.067  16.880  0.1477 -0.0988  0.1657
 9205SOL    HW139248   2.425   1.115  16.831  0.3052 -0.4054 -0.3459
 9205SOL    HW239249   2.458   1.065  16.970 -0.8739  1.1910 -0.1741
 9206SOL     OW39250   1.749   4.149   8.641 -0.3567  0.0410 -0.1698
 9206SOL    HW139251   1.730   4.214   8.574 -1.0986 -1.1546 -1.1086
 9206SOL    HW239252   1.795   4.089   8.582 -2.2951 -1.9971  0.3922
 9207SOL     OW39253   3.036   0.968   3.591  0.5123 -0.4674 -0.1022
 9207SOL    HW139254   3.046   0.885   3.544 -1.6779  0.0931 -1.5958
 9207SOL    HW239255   2.956   0.998   3.547  1.0412  1.0681 -0.0065
 9208SOL     OW39256   3.580   1.215   3.438 -0.4632  0.1653 -0.6926
 9208SOL    HW139257   3.618   1.187   3.521 -1.8019  0.9297  0.1956
 9208SOL    HW239258   3.487   1.215   3.463  0.0721  1.5156  1.3591
 9209SOL     OW39259   1.861   2.370   6.001  0.5550 -0.3969  0.1583
 9209SOL    HW139260   1.773   2.344   5.977  1.3264 -1.5423 -1.4219
 9209SOL    HW239261   1.858   2.346   6.093 -1.7516  0.6450  0.3381
 9210SOL     OW39262   1.266   3.324   1.321  0.6048 -0.8740 -0.2398
 9210SOL    HW139263   1.193   3.381   1.297  0.2691 -1.0758  0.3086
 9210SOL    HW239264   1.311   3.387   1.376 -1.9320  0.6349  0.1221
 9211SOL     OW39265   4.049   3.010   3.356  0.5801 -0.2399 -0.1082
 9211SOL    HW139266   3.993   2.993   3.280  0.9799  0.5154 -0.5645
 9211SOL    HW239267   4.109   3.076   3.322  0.2232 -0.0138 -0.3004
 9212SOL     OW39268   3.066   1.837  13.044 -0.0349 -0.1672 -0.0875
 9212SOL    HW139269   3.041   1.744  13.049 -0.9160  0.0232 -1.0155
 9212SOL    HW239270   3.138   1.848  13.105 -1.2161  2.8938  0.7094
 9213SOL     OW39271   0.889   0.143   8.962 -0.1376 -0.0607  0.0726
 9213SOL    HW139272   0.916   0.204   8.893  0.1273  1.6074  1.6546
 9213SOL    HW239273   0.953   0.076   8.940 -1.2852 -1.7930  2.0853
 9214SOL     OW39274   3.928   0.559   9.836  1.0672  0.2411  0.0078
 9214SOL    HW139275   3.921   0.644   9.792 -1.7499  0.4470  0.8957
 9214SOL    HW239276   3.844   0.520   9.815  2.3182 -1.2238 -2.3280
 9215SOL     OW39277   2.938   2.530   9.208 -0.4885  0.6168  0.3676
 9215SOL    HW139278   2.848   2.545   9.237 -0.5833 -1.5321  1.1712
 9215SOL    HW239279   2.982   2.608   9.242  0.6915  0.3404 -0.5208
 9216SOL     OW39280   0.853   4.271   2.391 -0.0340  0.3139  0.0721
 9216SOL    HW139281   0.945   4.298   2.392  0.3582 -0.9544 -1.5278
 9216SOL    HW239282   0.813   4.356   2.375  0.1727  0.7255  1.7332
 9217SOL     OW39283   0.182   4.736  15.280  0.5454  0.2724  0.5341
 9217SOL    HW139284   0.111   0.034  15.228  0.7977  0.6387  0.4652
 9217SOL    HW239285   0.259   0.029  15.235  0.2897 -1.5108 -1.2296
 9218SOL     OW39286   3.299   2.035   2.623 -0.5002 -0.3880  0.0597
 9218SOL    HW139287   3.223   2.000   2.576 -1.4065  1.9951 -0.2054
 9218SOL    HW239288   3.363   2.034   2.552  0.6652  3.2112  1.1080
 9219SOL     OW39289   3.512   0.608   3.699  0.0914 -0.6275 -0.4107
 9219SOL    HW139290   3.427   0.631   3.661 -1.4924 -1.1467  2.8774
 9219SOL    HW239291   3.498   0.617   3.793  0.6690  3.2003 -0.6980
 9220SOL     OW39292   3.640   1.543   5.602  0.3543  0.6993  0.1602
 9220SOL    HW139293   3.632   1.602   5.676 -0.1641 -0.6324  1.1683
 9220SOL    HW239294   3.680   1.466   5.644 -1.4407  1.2582  2.8730
 9221SOL     OW39295   0.842   3.221   5.482  0.2421  0.2505 -0.4936
 9221SOL    HW139296   0.856   3.220   5.388  1.3602 -0.5791 -0.3134
 9221SOL    HW239297   0.935   3.237   5.496  0.7634  0.5265 -4.3310
 9222SOL     OW39298   4.462   1.586   3.178  0.6488  0.0843  0.1894
 9222SOL    HW139299   4.557   1.600   3.181  0.5324  0.9768 -0.3087
 9222SOL    HW239300   4.427   1.625   3.258  0.4490 -0.3015  0.2880
 9223SOL     OW39301   3.951   4.644   4.879 -0.2450  0.3039 -0.2840
 9223SOL    HW139302   3.899   4.565   4.893  0.0549  0.0327 -0.7435
 9223SOL    HW239303   3.949   4.672   4.971  2.3706  0.0453 -0.1558
 9224SOL     OW39304   4.107   1.149   4.767 -0.2133 -0.0441 -0.2581
 9224SOL    HW139305   4.019   1.174   4.737 -0.2240  0.0840 -0.1195
 9224SOL    HW239306   4.086   1.056   4.775 -1.2451  0.1109 -1.1216
 9225SOL     OW39307   1.703   2.601  17.485  0.0422 -0.3000 -0.3873
 9225SOL    HW139308   1.693   2.514  17.447  1.8387 -1.7201  2.4243
 9225SOL    HW239309   1.666   2.582  17.571  0.0590 -1.2567 -0.5945
 9226SOL     OW39310   4.104   4.536  14.286  0.1543  0.8138 -0.5347
 9226SOL    HW139311   4.080   4.625  14.312  0.1525  0.6078  0.1655
 9226SOL    HW239312   4.189   4.558  14.249  0.1160  0.2834 -0.9366
 9227SOL     OW39313   4.027   0.625   7.141  0.0863 -0.0036 -0.1349
 9227SOL    HW139314   4.033   0.711   7.099 -1.4218  0.0454 -0.2465
 9227SOL    HW239315   3.956   0.634   7.204 -1.2034  1.6866 -1.8379
 9228SOL     OW39316   0.081   1.935   8.255 -0.0319 -0.7010  0.2509
 9228SOL    HW139317   0.135   2.014   8.262 -1.0960  0.1105 -0.5440
 9228SOL    HW239318   4.730   1.965   8.263 -0.0222 -0.1132 -1.8281
 9229SOL     OW39319   3.997   3.035   3.853 -0.5529 -0.3485  0.1114
 9229SOL    HW139320   4.049   3.069   3.780 -1.4115  1.1695  0.1921
 9229SOL    HW239321   3.933   3.106   3.860 -0.1336 -0.2947  3.5500
 9230SOL     OW39322   4.034   3.789   2.139  0.1922 -0.1566 -0.4931
 9230SOL    HW139323   4.014   3.751   2.224 -0.7745  0.2800 -0.5219
 9230SOL    HW239324   4.084   3.864   2.170 -0.2980  1.5354 -3.7600
 9231SOL     OW39325   0.018   4.018  10.582 -0.2375  0.0112  0.2313
 9231SOL    HW139326   4.719   4.089  10.530 -1.4848 -0.2761  0.7834
 9231SOL    HW239327   4.685   3.998  10.640  0.4074 -0.3562  0.9054
 9232SOL     OW39328   3.399   3.741   3.213  0.0620  0.7003  0.5409
 9232SOL    HW139329   3.453   3.738   3.292  0.3164  1.8330  0.4139
 9232SOL    HW239330   3.453   3.709   3.141 -2.5969 -1.8289 -0.3193
 9233SOL     OW39331   4.026   1.694   7.491 -0.1444  0.3215  0.2344
 9233SOL    HW139332   3.940   1.731   7.511  0.4635  0.6563  2.1982
 9233SOL    HW239333   4.048   1.664   7.579  0.4713 -0.7601 -0.2911
 9234SOL     OW39334   4.113   3.105   7.477  0.0774  0.3323 -0.2690
 9234SOL    HW139335   4.188   3.049   7.457 -0.2882 -0.1940 -0.1897
 9234SOL    HW239336   4.091   3.145   7.393 -4.3426 -0.7559  0.3769
 9235SOL     OW39337   0.282   1.783   7.703  0.1910  0.3337 -0.0365
 9235SOL    HW139338   0.371   1.750   7.692  0.3582  0.5711  0.6216
 9235SOL    HW239339   0.280   1.856   7.765 -0.7037  0.1109  0.1985
 9236SOL     OW39340   0.286   4.012   5.925  0.3983  0.0041  0.2789
 9236SOL    HW139341   0.206   3.983   5.881  0.2942 -0.1623  0.5745
 9236SOL    HW239342   0.333   3.934   5.895  0.5550  0.2772 -0.1916
 9237SOL     OW39343   1.056   0.366   5.281 -0.7115  0.1027  0.3399
 9237SOL    HW139344   0.972   0.345   5.241  0.6966 -1.3402 -1.8514
 9237SOL    HW239345   1.074   0.281   5.321 -0.5418 -0.7279 -1.5117
 9238SOL     OW39346   1.794   3.800   6.130 -0.7820  0.3662  0.0866
 9238SOL    HW139347   1.749   3.880   6.102 -1.0035 -0.3537 -1.6081
 9238SOL    HW239348   1.774   3.812   6.223 -0.8887 -2.9394  0.5017
 9239SOL     OW39349   1.585   0.400   0.517 -0.2369  0.3644 -0.3712
 9239SOL    HW139350   1.658   0.380   0.458  0.5416 -1.2743  1.1266
 9239SOL    HW239351   1.508   0.392   0.461 -0.3745  0.2150 -0.1601
 9240SOL     OW39352   2.968   3.782  14.289  0.2861  0.1054  0.0291
 9240SOL    HW139353   2.938   3.707  14.239  0.3397 -1.1146  1.8365
 9240SOL    HW239354   2.964   3.850  14.221 -2.0704 -0.9297 -0.8600
 9241SOL     OW39355   4.382   4.391   7.750  0.3477  0.5013  0.0223
 9241SOL    HW139356   4.327   4.318   7.721 -1.3692  0.4860  3.3674
 9241SOL    HW239357   4.430   4.352   7.823 -1.5151  0.4175  1.1851
 9242SOL     OW39358   0.451   0.246   7.029  0.9292  0.9746 -0.5308
 9242SOL    HW139359   0.398   0.190   7.084  1.9608 -0.4286 -0.9680
 9242SOL    HW239360   0.424   0.228   6.938 -0.5415 -1.1691  0.3337
 9243SOL     OW39361   3.319   3.538   4.918 -0.5662 -0.4415  0.0218
 9243SOL    HW139362   3.321   3.507   4.827  0.7327 -0.2802  0.0017
 9243SOL    HW239363   3.378   3.469   4.949 -0.6939 -1.0787 -1.1563
 9244SOL     OW39364   0.808   1.016   6.878  0.3783 -0.4616  0.2815
 9244SOL    HW139365   0.854   0.934   6.896  2.5704  0.7256  0.0722
 9244SOL    HW239366   0.879   1.079   6.889  0.6423 -0.5748 -0.8335
 9245SOL     OW39367   1.664   2.075   7.128  0.3984  0.3910 -0.1275
 9245SOL    HW139368   1.620   2.020   7.193 -1.5169 -0.2205 -1.9222
 9245SOL    HW239369   1.661   2.162   7.168 -0.8059  0.7087 -0.8957
 9246SOL     OW39370   1.248   1.291   8.947  0.4358 -0.1842  0.1256
 9246SOL    HW139371   1.205   1.346   9.012 -1.8371  0.6404 -2.0924
 9246SOL    HW239372   1.221   1.331   8.864 -0.8919  2.4163  1.8445
 9247SOL     OW39373   1.797   4.655   3.526 -0.6083  0.4903 -0.5065
 9247SOL    HW139374   1.858   4.712   3.479  0.2473  0.0876  0.1250
 9247SOL    HW239375   1.711   4.689   3.500 -1.8620 -1.7636  0.7472
 9248SOL     OW39376   0.609   3.505  11.982 -0.4717 -0.0288  0.0897
 9248SOL    HW139377   0.575   3.462  11.904  2.9741 -0.9550 -0.8955
 9248SOL    HW239378   0.561   3.588  11.987 -0.5161 -0.0413 -0.1463
 9249SOL     OW39379   2.038   2.169   2.729  0.3257  0.3791 -0.5778
 9249SOL    HW139380   2.011   2.083   2.698  0.1060 -0.2220  1.3024
 9249SOL    HW239381   1.956   2.218   2.719  0.3654  0.5124 -0.2443
 9250SOL     OW39382   2.060   4.681   7.477 -0.0257 -0.1088  0.0389
 9250SOL    HW139383   2.044   0.016   7.419  1.0143  0.2743  0.2556
 9250SOL    HW239384   2.124   4.721   7.536 -1.7158 -0.2267  1.9554
 9251SOL     OW39385   3.285   4.245   3.256 -0.1566 -0.1331  0.1137
 9251SOL    HW139386   3.328   4.235   3.341 -1.8592  0.2204  1.0087
 9251SOL    HW239387   3.271   4.152   3.240 -1.0420  0.0846 -0.3293
 9252SOL     OW39388   3.217   0.026   2.203 -0.6084  0.4934 -0.3015
 9252SOL    HW139389   3.208   4.690   2.145 -1.2338 -0.8962  1.6173
 9252SOL    HW239390   3.268   4.731   2.275  0.7663 -0.0449 -1.5317
 9253SOL     OW39391   2.173   1.481   0.921 -0.1305 -0.0383 -0.8875
 9253SOL    HW139392   2.234   1.417   0.957 -1.1502 -0.8034 -0.4863
 9253SOL    HW239393   2.131   1.507   1.003  0.8073 -1.3997  0.0171
 9254SOL     OW39394   0.345   3.287   5.651 -0.1736  0.0031  0.2998
 9254SOL    HW139395   0.437   3.301   5.628 -0.6276  1.9870 -0.2808
 9254SOL    HW239396   0.321   3.378   5.665 -0.0165 -0.2737  2.3863
 9255SOL     OW39397   4.131   1.635   2.147 -0.0323 -0.3470  0.2448
 9255SOL    HW139398   4.224   1.646   2.130 -0.0184 -0.9387 -0.0488
 9255SOL    HW239399   4.100   1.581   2.074  0.2908  0.4449 -0.4794
 9256SOL     OW39400   0.517   3.567  17.745 -0.2022  0.5463  0.3810
 9256SOL    HW139401   0.575   3.500   0.023 -0.4529 -0.9386 -2.0683
 9256SOL    HW239402   0.550   3.560  17.656 -1.0742  0.1540  0.0863
 9257SOL     OW39403   3.492   4.530   5.214  0.1762 -0.0307  0.3983
 9257SOL    HW139404   3.528   4.616   5.192 -1.2295  0.2406 -0.8313
 9257SOL    HW239405   3.537   4.509   5.296  1.8160 -0.8259 -0.7011
 9258SOL     OW39406   4.721   0.651   9.973 -0.1715 -0.3244 -0.1610
 9258SOL    HW139407   0.058   0.697   9.939  0.5265 -1.2289  0.1803
 9258SOL    HW239408   4.656   0.674   9.907  0.6986  4.6228  0.6871
 9259SOL     OW39409   2.127   2.840   1.684  0.6516  0.1857 -0.1998
 9259SOL    HW139410   2.139   2.864   1.775 -2.2240 -0.1593  0.2858
 9259SOL    HW239411   2.101   2.923   1.643 -0.3723  0.5408  1.1792
 9260SOL     OW39412   4.286   1.576   7.263  0.1697  0.1969 -0.9018
 9260SOL    HW139413   4.327   1.575   7.349  0.1814  0.1609 -0.9079
 9260SOL    HW239414   4.322   1.657   7.228 -0.1315  1.0683  0.8100
 9261SOL     OW39415   0.262   2.855   7.237 -0.1175 -1.0651 -0.6966
 9261SOL    HW139416   0.276   2.949   7.226 -1.2612 -0.7285  0.7304
 9261SOL    HW239417   0.329   2.844   7.305  0.9382  1.3809 -1.3445
 9262SOL     OW39418   4.562   2.679   4.323 -0.0512 -0.4021 -0.1223
 9262SOL    HW139419   4.553   2.632   4.405 -2.6262  0.8491  0.3359
 9262SOL    HW239420   4.644   2.727   4.328 -0.2159 -0.3465  1.7405
 9263SOL     OW39421   0.809   1.419  12.756  0.3419 -0.2752 -0.0108
 9263SOL    HW139422   0.895   1.462  12.753 -1.2112  2.9054  1.4065
 9263SOL    HW239423   0.822   1.368  12.676  1.3511 -1.3177  0.8111
 9264SOL     OW39424   3.611   2.013   4.376 -0.4275  0.5281 -0.0837
 9264SOL    HW139425   3.671   2.077   4.412 -1.4159  0.5408  1.5255
 9264SOL    HW239426   3.544   2.061   4.328 -1.4531 -2.2384 -1.4409
 9265SOL     OW39427   4.353   4.553  11.558 -0.0173 -0.0580 -0.0904
 9265SOL    HW139428   4.359   4.533  11.465 -0.0397 -0.5492  0.0135
 9265SOL    HW239429   4.377   4.645  11.553 -0.4972  0.0263 -0.8784
 9266SOL     OW39430   4.716   1.430   6.788 -0.3924  0.2352  0.1234
 9266SOL    HW139431   4.716   1.525   6.804 -1.7255  0.0759  1.0583
 9266SOL    HW239432   4.689   1.386   6.869  0.9034  0.2784  0.5813
 9267SOL     OW39433   3.508   0.424   2.091  0.2263  0.5393  0.1629
 9267SOL    HW139434   3.603   0.412   2.082 -0.2677  0.1290 -4.3114
 9267SOL    HW239435   3.479   0.334   2.089  1.2216  0.2396 -0.8046
 9268SOL     OW39436   3.280   0.623   4.334 -0.4387 -0.0503 -0.1165
 9268SOL    HW139437   3.258   0.671   4.413  0.9789  0.6905 -0.1893
 9268SOL    HW239438   3.253   0.686   4.268  0.2240 -0.7869 -1.0985
 9269SOL     OW39439   2.151   2.569   3.875  0.0144  0.1660  0.0280
 9269SOL    HW139440   2.190   2.573   3.962 -0.9505 -1.8706  0.5455
 9269SOL    HW239441   2.231   2.552   3.825 -2.0237 -1.0689 -2.7978
 9270SOL     OW39442   2.106   4.459   9.265  0.0306 -0.1189 -0.2135
 9270SOL    HW139443   2.111   4.517   9.341 -0.0182  0.6176 -0.7738
 9270SOL    HW239444   2.044   4.392   9.294 -0.4718  1.0342  1.3315
 9271SOL     OW39445   2.998   0.482   7.247  0.1697  0.5282  0.4778
 9271SOL    HW139446   2.971   0.570   7.220 -0.6211  0.4051  0.8678
 9271SOL    HW239447   2.982   0.440   7.163  1.4146 -0.3399  0.6816
 9272SOL     OW39448   4.380   1.449  14.688 -1.1359 -0.5539 -0.3544
 9272SOL    HW139449   4.320   1.520  14.712 -1.0076 -1.0500  1.4028
 9272SOL    HW239450   4.445   1.494  14.634 -0.6511  0.4268  1.0419
 9273SOL     OW39451   2.346   0.007   7.981  0.2518  0.0094  0.0376
 9273SOL    HW139452   2.252   4.731   7.987  0.3007  0.0493  0.9007
 9273SOL    HW239453   2.371   4.655   7.980 -0.4066 -0.1841  2.5059
 9274SOL     OW39454   3.379   0.497   7.598  0.1348 -0.7145  0.4467
 9274SOL    HW139455   3.327   0.528   7.673  0.4159 -0.4082  0.5137
 9274SOL    HW239456   3.314   0.497   7.528  1.6145  2.1686 -0.9060
 9275SOL     OW39457   3.589   0.139  16.023 -0.5361  0.0226  0.1831
 9275SOL    HW139458   3.655   0.077  16.052 -1.2920 -0.8912 -0.0277
 9275SOL    HW239459   3.531   0.117  16.096  1.2744 -2.2004  0.9317
 9276SOL     OW39460   2.801   3.962   2.002  0.5115  0.4438 -0.4663
 9276SOL    HW139461   2.798   4.041   2.057 -1.3564  0.6669 -0.8744
 9276SOL    HW239462   2.887   3.961   1.962  1.1832  0.2536  0.9792
 9277SOL     OW39463   4.473   0.441   9.227 -0.1558 -0.6124  0.3104
 9277SOL    HW139464   4.435   0.365   9.184 -0.2117  0.4674 -1.5817
 9277SOL    HW239465   4.396   0.498   9.221  0.6205  0.2696 -1.4906
 9278SOL     OW39466   2.653   2.096   4.147  0.0461 -0.0744 -0.1812
 9278SOL    HW139467   2.687   2.141   4.070 -1.5343 -0.3937 -1.0592
 9278SOL    HW239468   2.594   2.149   4.201  0.2794 -0.7415  0.7415
 9279SOL     OW39469   1.599   0.085  10.985  0.2231  0.2723 -0.3106
 9279SOL    HW139470   1.539   0.159  10.970  0.9739  0.4581 -2.4854
 9279SOL    HW239471   1.667   0.107  10.922 -1.5050 -3.4842 -3.4825
 9280SOL     OW39472   1.753   1.044   4.097 -0.4858  0.0430 -0.1944
 9280SOL    HW139473   1.711   0.962   4.074 -0.8561  0.3077 -0.4489
 9280SOL    HW239474   1.746   1.043   4.193 -0.1242  2.9110 -0.1322
 9281SOL     OW39475   1.197   0.278   9.541 -0.2740 -0.3894 -0.0055
 9281SOL    HW139476   1.147   0.343   9.590  1.9728  0.9231  0.5433
 9281SOL    HW239477   1.198   0.212   9.610 -0.0476 -1.4613 -1.0234
 9282SOL     OW39478   3.718   1.562   4.191  0.1362 -0.1665 -0.2517
 9282SOL    HW139479   3.757   1.509   4.260 -1.4852  1.5918  2.0163
 9282SOL    HW239480   3.702   1.638   4.247  1.6196 -0.8686  1.1029
 9283SOL     OW39481   2.965   3.605   4.630 -0.1433  0.1836 -0.0952
 9283SOL    HW139482   3.053   3.641   4.618  0.6012 -1.7825 -0.4681
 9283SOL    HW239483   2.979   3.574   4.720  0.8398  0.9166  0.0134
 9284SOL     OW39484   2.862   4.033  11.396  0.3864 -0.1668  0.2706
 9284SOL    HW139485   2.810   4.041  11.315 -1.8234 -2.3662  1.4819
 9284SOL    HW239486   2.827   3.950  11.427  2.1732 -1.4395 -1.1202
 9285SOL     OW39487   1.728   4.554  14.379  0.3417  0.0195  0.6451
 9285SOL    HW139488   1.655   4.586  14.432  0.5140  1.5009 -0.0291
 9285SOL    HW239489   1.687   4.548  14.292 -0.7929  1.4110  1.0781
 9286SOL     OW39490   2.083   3.562   8.462  0.1085 -0.7375 -0.4383
 9286SOL    HW139491   2.066   3.617   8.538 -1.3151 -1.0199 -0.5549
 9286SOL    HW239492   2.048   3.605   8.384 -1.1417 -1.3372 -0.2208
 9287SOL     OW39493   2.560   3.947  11.247  0.3136  0.0773 -0.0890
 9287SOL    HW139494   2.643   3.947  11.200  0.5881  0.7408  0.3952
 9287SOL    HW239495   2.511   4.023  11.214 -0.2440 -0.8145 -1.2975
 9288SOL     OW39496   3.808   3.144   6.719 -0.0457 -0.4060  0.0568
 9288SOL    HW139497   3.753   3.170   6.794  1.0962  1.4086  0.2561
 9288SOL    HW239498   3.744   3.122   6.651  1.7972  1.4163 -2.2799
 9289SOL     OW39499   1.058   0.817   9.099 -0.0162  0.2071  0.4220
 9289SOL    HW139500   1.018   0.875   9.164 -1.6139  0.4635 -0.7566
 9289SOL    HW239501   1.114   0.761   9.152 -2.0653 -1.0295  1.2788
 9290SOL     OW39502   0.714   0.891   2.083  0.0444  0.6597 -0.6370
 9290SOL    HW139503   0.783   0.825   2.078 -1.4452 -0.8878 -0.9937
 9290SOL    HW239504   0.722   0.915   2.176 -0.8442 -0.8954 -0.1479
 9291SOL     OW39505   1.083   3.612  12.169 -0.1213  0.4269 -0.3784
 9291SOL    HW139506   1.101   3.700  12.201  0.8924 -0.1238  0.5709
 9291SOL    HW239507   0.997   3.618  12.127 -0.5647  3.2056  0.9348
 9292SOL     OW39508   2.930   0.927   7.148 -0.2106 -0.6169 -0.0600
 9292SOL    HW139509   3.003   0.982   7.176 -1.7547  0.4085  1.9559
 9292SOL    HW239510   2.853   0.982   7.135  0.6876  0.7899  0.6134
 9293SOL     OW39511   3.860   3.852   8.372  0.3679 -0.0649 -0.0981
 9293SOL    HW139512   3.768   3.835   8.348  0.6725 -3.3337  1.1560
 9293SOL    HW239513   3.874   3.832   8.464  0.6740  1.7324  0.2409
 9294SOL     OW39514   1.321   1.843  15.999  0.1027  0.5889 -0.5989
 9294SOL    HW139515   1.361   1.876  15.918  2.1223 -1.7892 -0.5412
 9294SOL    HW239516   1.370   1.899  16.060 -2.0409  2.4815 -0.6017
 9295SOL     OW39517   4.496   2.658   2.597  0.0302  0.5523 -0.5307
 9295SOL    HW139518   4.437   2.689   2.528 -0.2566  2.1773  0.4257
 9295SOL    HW239519   4.573   2.713   2.583  0.8434 -0.3195  0.5882
 9296SOL     OW39520   2.131   4.473   4.182 -0.3446 -0.3115  0.3416
 9296SOL    HW139521   2.114   4.555   4.136  0.8518  0.9562  2.1512
 9296SOL    HW239522   2.082   4.478   4.264 -0.5023 -0.1616  0.2372
 9297SOL     OW39523   0.087   0.526  14.452  0.2487  0.4723 -0.0006
 9297SOL    HW139524   0.019   0.593  14.454  0.8143  1.0564 -0.4981
 9297SOL    HW239525   0.023   0.454  14.453  1.2277 -0.4172 -1.8216
 9298SOL     OW39526   0.809   0.194  10.069  0.0630 -0.5677 -0.2219
 9298SOL    HW139527   0.746   0.243  10.016 -0.7172 -0.5750  0.7017
 9298SOL    HW239528   0.814   0.111  10.021  0.7011 -0.4705 -0.3285
 9299SOL     OW39529   3.159   1.363   2.822 -0.1946  0.3625 -0.0601
 9299SOL    HW139530   3.157   1.459   2.826 -0.2060  0.4145 -1.2658
 9299SOL    HW239531   3.202   1.348   2.906  0.2700  0.3241 -0.3086
 9300SOL     OW39532   2.413   4.498   3.697  0.4012 -0.3558  0.1993
 9300SOL    HW139533   2.471   4.423   3.701  2.0951  0.9293 -0.2740
 9300SOL    HW239534   2.364   4.478   3.618 -0.7459  0.0445  0.7987
 9301SOL     OW39535   1.639   2.607   7.821 -0.3455  0.1750 -0.2228
 9301SOL    HW139536   1.616   2.561   7.741 -1.2824 -2.0416  1.3274
 9301SOL    HW239537   1.728   2.640   7.805 -1.1948  1.6669 -1.8461
 9302SOL     OW39538   1.439   1.146   9.576  0.4123  0.1247 -0.4923
 9302SOL    HW139539   1.356   1.190   9.559  1.9554  3.3631  0.2736
 9302SOL    HW239540   1.506   1.201   9.535 -1.2780  1.1062 -1.9466
 9303SOL     OW39541   1.739   4.404   9.332  0.6185 -0.0141 -0.5127
 9303SOL    HW139542   1.777   4.492   9.327 -0.1492  0.3950  0.7447
 9303SOL    HW239543   1.813   4.350   9.303  0.7310 -0.1621  0.0562
 9304SOL     OW39544   4.458   0.116   3.946 -0.4043  0.4958  0.4871
 9304SOL    HW139545   4.520   0.081   3.882 -0.5474  0.7758  0.1939
 9304SOL    HW239546   4.520   0.168   3.997  0.1812 -2.1548  2.4804
 9305SOL     OW39547   3.643   4.329  14.303  0.1846  0.4539 -0.3758
 9305SOL    HW139548   3.624   4.377  14.384 -0.3933 -2.0855  1.0061
 9305SOL    HW239549   3.714   4.382  14.267  1.1940  0.0911  1.0942
 9306SOL     OW39550   2.553   1.110   3.591 -0.0036  0.2812 -0.6791
 9306SOL    HW139551   2.561   1.205   3.596  1.1373  0.1805 -0.6090
 9306SOL    HW239552   2.505   1.081   3.668  0.0059 -0.3610 -0.9135
 9307SOL     OW39553   4.341   4.022  13.540 -0.0471  0.6412  0.2393
 9307SOL    HW139554   4.275   4.089  13.556  0.5540  1.7792 -2.0032
 9307SOL    HW239555   4.416   4.071  13.507  1.2426 -0.0185  2.2084
 9308SOL     OW39556   0.254   1.390   7.134 -0.1507 -0.2966  0.0500
 9308SOL    HW139557   0.209   1.306   7.136 -1.3922  0.3312 -1.3260
 9308SOL    HW239558   0.342   1.371   7.164 -1.0100 -1.2571  1.9064
 9309SOL     OW39559   0.669   4.716   8.937  0.4704 -0.4694 -0.7843
 9309SOL    HW139560   0.754   0.007   8.907  0.4138 -0.0492 -0.5152
 9309SOL    HW239561   0.612   0.051   8.921  1.9183  0.4091 -1.7530
 9310SOL     OW39562   2.350   1.147   5.896  0.3966 -0.1264  0.5378
 9310SOL    HW139563   2.341   1.164   5.990 -0.5242 -0.1437  0.4537
 9310SOL    HW239564   2.376   1.234   5.866  0.3968  0.5362  2.4393
 9311SOL     OW39565   4.199   4.711  17.666  0.1134  0.3359  0.2409
 9311SOL    HW139566   4.167   4.635  17.715 -1.6338  0.2035 -1.1135
 9311SOL    HW239567   4.291   4.711  17.695  0.8617 -1.0727 -2.1342
 9312SOL     OW39568   4.616   1.923   7.563 -0.3008  0.2723 -0.1210
 9312SOL    HW139569   4.569   1.980   7.502 -1.3518 -1.2712 -0.7512
 9312SOL    HW239570   4.674   1.873   7.506  0.9611  2.4087 -0.7372
 9313SOL     OW39571   3.504   3.133   8.377 -0.5953  0.7224 -0.2953
 9313SOL    HW139572   3.568   3.063   8.373 -0.3101  0.8689  1.7269
 9313SOL    HW239573   3.446   3.093   8.442  0.4221  0.8156  0.6669
 9314SOL     OW39574   4.727   4.576   4.065 -0.4457  0.0008 -0.5068
 9314SOL    HW139575   4.690   4.497   4.026 -2.1725  1.2440 -1.3901
 9314SOL    HW239576   0.071   4.570   4.020 -0.7153 -2.6344 -0.7095
 9315SOL     OW39577   3.632   3.162  17.353 -0.3928  0.0992  0.3462
 9315SOL    HW139578   3.619   3.225  17.282  0.6784  2.0871  1.9373
 9315SOL    HW239579   3.581   3.206  17.421 -1.2368 -0.8576  0.3299
 9316SOL     OW39580   0.273   4.173   4.689 -0.0705  0.0278 -0.8520
 9316SOL    HW139581   0.228   4.153   4.771 -0.0774  0.0452 -0.8516
 9316SOL    HW239582   0.262   4.268   4.685  0.1366  0.0092 -1.9628
 9317SOL     OW39583   3.255   0.736   6.596  0.0013  0.2717 -0.3732
 9317SOL    HW139584   3.343   0.697   6.598  0.1681  0.6935  0.6867
 9317SOL    HW239585   3.245   0.770   6.685  2.4836 -0.3302  0.1336
 9318SOL     OW39586   0.111   4.087   1.238  0.0059 -0.6072  0.1314
 9318SOL    HW139587   0.142   4.093   1.148 -0.0561  2.3931  0.3255
 9318SOL    HW239588   0.017   4.075   1.223 -0.0113 -0.1998 -0.0749
 9319SOL     OW39589   0.324   2.019   7.049  0.2649 -0.1732 -0.2350
 9319SOL    HW139590   0.412   2.035   7.083  1.2435 -1.9392 -2.0011
 9319SOL    HW239591   0.341   1.951   6.984 -0.4078  0.1303 -0.7364
 9320SOL     OW39592   2.871   0.628   5.519  0.3598  0.1824  0.3144
 9320SOL    HW139593   2.869   0.628   5.423 -0.4193 -0.3294  0.3353
 9320SOL    HW239594   2.807   0.697   5.535 -0.5186 -0.6516  0.3880
 9321SOL     OW39595   1.164   0.664  17.197 -0.3065 -0.3350  0.1881
 9321SOL    HW139596   1.119   0.720  17.134 -0.3927 -0.2777  0.3002
 9321SOL    HW239597   1.198   0.599  17.136 -2.1150  0.5137 -1.7387
 9322SOL     OW39598   0.976   1.105   7.490 -0.3960  0.9520 -0.1064
 9322SOL    HW139599   1.027   1.153   7.425  0.6002 -1.5945 -1.2017
 9322SOL    HW239600   1.016   1.143   7.568  0.3221  0.4780 -0.2498
 9323SOL     OW39601   1.426   2.795   4.046  0.2441  0.4306 -0.5342
 9323SOL    HW139602   1.417   2.700   4.061  0.7200  0.6809  1.4353
 9323SOL    HW239603   1.421   2.796   3.951 -0.5823  3.4296 -0.4412
 9324SOL     OW39604   1.483   2.904   6.913  0.2572 -0.2586 -0.7424
 9324SOL    HW139605   1.490   2.934   7.004  3.4393  0.1624 -1.1487
 9324SOL    HW239606   1.400   2.855   6.917  1.0097 -1.4362  0.5599
 9325SOL     OW39607   0.484   4.139   6.498  0.2555  0.0259  0.5470
 9325SOL    HW139608   0.429   4.211   6.466  0.4872  0.4610  1.1301
 9325SOL    HW239609   0.414   4.080   6.526 -1.1752  1.1793 -0.5572
 9326SOL     OW39610   1.482   3.421   6.163  0.0410 -0.0490  0.1031
 9326SOL    HW139611   1.490   3.502   6.213  2.2656 -0.2254  0.0135
 9326SOL    HW239612   1.568   3.383   6.180 -0.4684  1.0435  5.1032
 9327SOL     OW39613   3.945   3.890  16.755 -0.1607  0.0637 -0.3297
 9327SOL    HW139614   4.017   3.898  16.693 -0.8060 -1.0728 -1.2458
 9327SOL    HW239615   3.871   3.924  16.704  1.0375  3.2316  0.0882
 9328SOL     OW39616   0.560   4.662   5.974 -0.4753 -0.7988 -0.0829
 9328SOL    HW139617   0.469   4.668   6.004 -0.8137 -1.3801 -0.9618
 9328SOL    HW239618   0.586   4.572   5.993  1.0847  0.1667  2.2856
 9329SOL     OW39619   2.404   1.059   1.458  0.1325 -0.7411 -0.0538
 9329SOL    HW139620   2.357   1.090   1.536  0.6990  0.2751 -0.1252
 9329SOL    HW239621   2.488   1.102   1.473 -0.4120 -0.2217  1.5593
 9330SOL     OW39622   0.706   2.067   8.017  0.6159 -0.3000 -0.6495
 9330SOL    HW139623   0.729   2.158   7.997  0.4951  0.1726  1.3642
 9330SOL    HW239624   0.615   2.076   7.990  0.5155  0.1325 -0.1605
 9331SOL     OW39625   3.032   4.229  12.122  0.1415  0.0918  0.3791
 9331SOL    HW139626   2.940   4.222  12.149  0.0407 -1.7501 -0.4603
 9331SOL    HW239627   3.072   4.253  12.206 -1.7352  1.7973  0.7798
 9332SOL     OW39628   3.733   0.343   4.213  0.3696 -0.1468 -0.0193
 9332SOL    HW139629   3.734   0.347   4.117  0.9594  0.9526  0.0347
 9332SOL    HW239630   3.647   0.382   4.231 -0.3551 -0.9022 -1.8112
 9333SOL     OW39631   1.605   1.663   6.436  0.2841  0.3426 -0.2152
 9333SOL    HW139632   1.514   1.679   6.460  0.4564  1.9571 -0.6112
 9333SOL    HW239633   1.585   1.596   6.371 -0.1818  1.5558 -1.3404
 9334SOL     OW39634   1.294   1.451   9.810 -0.4706 -0.3828  0.0310
 9334SOL    HW139635   1.344   1.445   9.892  2.7865 -1.5156 -2.0491
 9334SOL    HW239636   1.360   1.472   9.744 -1.0357  1.2443 -0.0152
 9335SOL     OW39637   1.535   4.649  17.280 -0.3284  0.4615  0.0160
 9335SOL    HW139638   1.524   4.631  17.187 -0.1284 -1.4557  0.3550
 9335SOL    HW239639   1.456   4.621  17.326  2.0125 -0.6664  3.4244
 9336SOL     OW39640   3.085   0.772   2.804 -0.5910  0.1684 -0.6079
 9336SOL    HW139641   3.178   0.762   2.821 -0.5245 -1.0944 -1.6928
 9336SOL    HW239642   3.091   0.843   2.740 -0.8036 -1.0712 -2.0017
 9337SOL     OW39643   3.838   2.412   2.501 -0.0021 -0.2279  0.0340
 9337SOL    HW139644   3.929   2.436   2.483 -0.1460 -0.0936 -0.5117
 9337SOL    HW239645   3.807   2.449   2.584 -1.1473 -2.4071  0.6130
 9338SOL     OW39646   4.589   2.075   3.952 -0.5850  0.3417  0.4449
 9338SOL    HW139647   4.588   1.995   3.899 -1.0486  0.5447  0.1443
 9338SOL    HW239648   4.680   2.105   3.948 -0.2678 -0.4826  1.6927
 9339SOL     OW39649   0.211   1.889  14.420 -0.2095  0.6195 -0.1545
 9339SOL    HW139650   0.285   1.831  14.438 -0.5064  0.6468  1.1861
 9339SOL    HW239651   0.226   1.928  14.334  0.3496  1.7681  0.4686
 9340SOL     OW39652   2.424   1.890   8.439 -0.0522  0.2312 -0.0020
 9340SOL    HW139653   2.514   1.898   8.406 -0.4666 -1.0177 -1.4720
 9340SOL    HW239654   2.422   1.975   8.482 -1.5159 -0.5426  1.4516
 9341SOL     OW39655   0.907   3.560   4.434  0.3907 -0.3774 -0.0113
 9341SOL    HW139656   0.816   3.547   4.461 -0.1122  0.5253 -1.2722
 9341SOL    HW239657   0.953   3.487   4.475 -0.2737  0.4771  2.2956
 9342SOL     OW39658   4.024   3.469   6.897  0.3738 -0.0020 -0.0965
 9342SOL    HW139659   4.056   3.402   6.957 -0.3354  2.3095  2.8812
 9342SOL    HW239660   4.068   3.548   6.927  0.6554 -0.2115  0.0357
 9343SOL     OW39661   3.132   3.836  10.183  0.6518 -0.2391  0.7395
 9343SOL    HW139662   3.213   3.880  10.206  0.6768 -0.0689  0.3154
 9343SOL    HW239663   3.159   3.758  10.133 -0.3658  0.2009 -0.4966
 9344SOL     OW39664   1.224   3.841  12.333 -0.7907 -0.1656 -0.1045
 9344SOL    HW139665   1.198   3.931  12.314 -0.6200 -0.2070 -0.5287
 9344SOL    HW239666   1.267   3.806  12.255  2.2374  2.9801  0.1773
 9345SOL     OW39667   3.493   1.965   5.063 -0.2245 -0.1543  0.0686
 9345SOL    HW139668   3.435   1.948   4.988 -2.4595  0.2797  1.7256
 9345SOL    HW239669   3.472   1.895   5.125  0.2568  2.8352  3.5837
 9346SOL     OW39670   2.989   1.694   8.591 -0.0219  0.1548  0.5536
 9346SOL    HW139671   3.011   1.719   8.681  0.2832 -1.8705  1.0234
 9346SOL    HW239672   3.013   1.602   8.601 -2.1326 -0.4616  0.0791
 9347SOL     OW39673   2.754   2.662   6.711 -0.1239  0.0310  0.1030
 9347SOL    HW139674   2.778   2.580   6.755  0.1329 -0.7346 -1.4663
 9347SOL    HW239675   2.659   2.656   6.725  0.1343 -1.6496  1.1699
 9348SOL     OW39676   4.139   4.491   7.647 -0.2710 -0.3833 -0.1730
 9348SOL    HW139677   4.192   4.483   7.568 -0.4218 -0.4136 -0.2710
 9348SOL    HW239678   4.208   4.503   7.713 -1.4096  1.5505  0.6988
 9349SOL     OW39679   1.229   3.837   9.090  0.2626 -0.0494  0.0671
 9349SOL    HW139680   1.314   3.854   9.050 -0.0601  0.5749 -0.3564
 9349SOL    HW239681   1.232   3.876   9.177  1.0018  0.6183 -0.2577
 9350SOL     OW39682   4.542   4.050  13.773  0.0988 -0.5803  0.3447
 9350SOL    HW139683   4.557   4.130  13.723  1.9064  0.2580  2.2337
 9350SOL    HW239684   4.465   4.012  13.730  0.9632 -1.4043 -0.4649
 9351SOL     OW39685   1.849   4.288   4.239 -0.4272 -0.0190  0.0220
 9351SOL    HW139686   1.807   4.334   4.311 -0.5589 -0.1970  0.0579
 9351SOL    HW239687   1.902   4.228   4.292  1.4307 -0.0766 -1.9063
 9352SOL     OW39688   0.349   2.922   1.956  0.3096  0.2118  0.0137
 9352SOL    HW139689   0.315   2.873   1.880 -0.5468 -0.5417  0.8847
 9352SOL    HW239690   0.370   3.006   1.915  0.1264  0.1042 -0.3041
 9353SOL     OW39691   2.631   0.326   7.424  0.2859  0.1674 -0.3760
 9353SOL    HW139692   2.651   0.400   7.482  0.5607 -0.7757  0.7373
 9353SOL    HW239693   2.721   0.298   7.410  1.2312  2.0960  1.7405
 9354SOL     OW39694   1.170   1.922   6.199  0.4082  0.6197 -0.3718
 9354SOL    HW139695   1.227   1.996   6.178  0.2607  1.2127  1.3331
 9354SOL    HW239696   1.209   1.859   6.138 -0.9140  0.6263 -1.2322
 9355SOL     OW39697   3.630   0.582   9.881 -0.1014  0.4066  0.0452
 9355SOL    HW139698   3.545   0.564   9.921  0.6037  1.7058  2.1375
 9355SOL    HW239699   3.612   0.668   9.842 -0.8930  1.2982  2.4134
 9356SOL     OW39700   4.576   3.943   2.806 -0.0202 -0.0407  0.4036
 9356SOL    HW139701   4.645   3.929   2.741 -0.4083 -0.9573  0.1792
 9356SOL    HW239702   4.499   3.899   2.769 -0.7873  0.7123  1.1210
 9357SOL     OW39703   3.253   1.890   3.087 -0.0460 -0.0797  0.4779
 9357SOL    HW139704   3.223   1.799   3.087  1.0470 -0.4395  1.7454
 9357SOL    HW239705   3.301   1.893   3.004 -0.0823 -0.4383  0.4451
 9358SOL     OW39706   2.484   0.364   1.518 -0.2560 -0.5515 -0.0492
 9358SOL    HW139707   2.544   0.386   1.446 -0.5158  0.5550  0.0733
 9358SOL    HW239708   2.439   0.447   1.529 -2.1499 -1.4138 -1.2278
 9359SOL     OW39709   2.957   2.418   2.417 -0.3147  0.5081  0.2545
 9359SOL    HW139710   2.887   2.373   2.370  0.0968 -0.2486  0.3616
 9359SOL    HW239711   3.027   2.424   2.352 -1.0331 -0.5425 -0.6082
 9360SOL     OW39712   3.127   1.593  17.689 -0.0073  0.0888  0.0402
 9360SOL    HW139713   3.145   1.686  17.704  0.3055  0.3223 -1.7753
 9360SOL    HW239714   3.170   1.548   0.005  0.2240  0.7225  0.2957
 9361SOL     OW39715   4.093   0.181  17.367  0.0692 -0.4370  0.2160
 9361SOL    HW139716   4.153   0.201  17.439 -0.4537  0.2951  0.4449
 9361SOL    HW239717   4.105   0.086  17.356 -2.1188 -0.7438  0.4524
 9362SOL     OW39718   4.239   0.288  10.556  0.5252 -0.7313 -0.0519
 9362SOL    HW139719   4.316   0.298  10.611  0.6797  1.2930 -0.6183
 9362SOL    HW239720   4.211   0.199  10.576 -2.9504  0.2504 -0.4672
 9363SOL     OW39721   3.864   0.375  14.656 -0.3413 -0.0254  0.0791
 9363SOL    HW139722   3.782   0.357  14.703 -0.4306  0.6663  0.1923
 9363SOL    HW239723   3.907   0.436  14.716  0.4942 -1.0789  0.5515
 9364SOL     OW39724   0.023   2.288   4.013 -0.7722  0.8149 -0.2335
 9364SOL    HW139725   4.673   2.283   4.044 -1.3656  2.5056 -1.6820
 9364SOL    HW239726   0.069   2.331   4.085  1.2527 -1.6471 -0.0572
 9365SOL     OW39727   0.705   0.443   5.919  0.2249  0.2906  0.6932
 9365SOL    HW139728   0.758   0.462   5.996  0.5960 -1.2648  0.8400
 9365SOL    HW239729   0.640   0.380   5.953  1.8604 -2.7037 -1.6866
 9366SOL     OW39730   2.270   3.346  10.427 -0.1280 -0.2084 -0.2551
 9366SOL    HW139731   2.336   3.280  10.450  1.9309  2.8007  2.3506
 9366SOL    HW239732   2.224   3.296  10.359 -1.3086 -1.6769  1.6189
 9367SOL     OW39733   0.268   2.829   5.233  0.3093  0.1361 -0.5907
 9367SOL    HW139734   0.270   2.780   5.151 -1.4704 -2.3873  0.8783
 9367SOL    HW239735   0.176   2.828   5.262  0.9554  0.4304  1.4229
 9368SOL     OW39736   0.188   2.351   2.936 -0.0074 -0.0778  0.7641
 9368SOL    HW139737   0.128   2.385   2.870 -1.5822 -0.7441  1.8280
 9368SOL    HW239738   0.139   2.391   3.009  1.0626 -0.0671  1.4657
 9369SOL     OW39739   3.601   3.594   7.929 -0.2625 -0.0665  0.3050
 9369SOL    HW139740   3.550   3.569   8.006  0.9832 -1.8905  0.5466
 9369SOL    HW239741   3.662   3.521   7.919 -1.7467 -0.8483 -3.0620
 9370SOL     OW39742   2.103   4.428   7.433  0.0379  0.3130  0.7331
 9370SOL    HW139743   2.172   4.439   7.368 -1.7535 -0.1789 -1.2547
 9370SOL    HW239744   2.072   4.519   7.437  1.4416  0.7700  1.2604
 9371SOL     OW39745   3.356   2.220   3.890 -0.2903  0.3191  0.1370
 9371SOL    HW139746   3.308   2.273   3.953  1.1965  2.8521 -0.8503
 9371SOL    HW239747   3.426   2.280   3.865  0.7033  0.2702  2.7251
 9372SOL     OW39748   2.004   3.370   4.459 -0.0536  0.7571 -0.4279
 9372SOL    HW139749   2.031   3.453   4.499  0.7399 -0.4931  1.6042
 9372SOL    HW239750   2.032   3.376   4.368  1.6128  1.7434  0.1438
 9373SOL     OW39751   2.885   0.353   8.002  0.4431  0.0548 -0.4784
 9373SOL    HW139752   2.933   0.436   8.001  1.6626 -0.6510  0.3676
 9373SOL    HW239753   2.929   0.309   7.928  1.3228  0.5037 -0.2213
 9374SOL     OW39754   0.685   0.739   2.743 -0.3095  0.1486  0.7391
 9374SOL    HW139755   0.754   0.724   2.808 -2.2062 -2.0147  2.2226
 9374SOL    HW239756   0.718   0.709   2.659 -0.9565 -0.6305  0.7693
 9375SOL     OW39757   1.459   2.163   0.468  0.3449 -0.2618  0.3475
 9375SOL    HW139758   1.370   2.167   0.504 -0.1862  1.5533 -1.1348
 9375SOL    HW239759   1.509   2.136   0.545 -0.0679 -1.2318  0.2718
 9376SOL     OW39760   1.677   1.601   2.630 -0.1623  0.3175 -0.0709
 9376SOL    HW139761   1.694   1.590   2.723  0.7546 -1.2494 -0.4246
 9376SOL    HW239762   1.689   1.696   2.622 -0.2019  0.2943 -0.4090
 9377SOL     OW39763   3.958   1.623   2.352 -0.2552  0.3072 -0.3228
 9377SOL    HW139764   3.899   1.568   2.300 -0.1981 -0.2637  0.2137
 9377SOL    HW239765   4.034   1.616   2.293  1.8568 -0.5106  2.5078
 9378SOL     OW39766   0.760   4.718   2.494  0.9414 -0.6275 -0.0684
 9378SOL    HW139767   0.732   4.738   2.405 -1.9199 -2.1472  0.4985
 9378SOL    HW239768   0.714   0.044   2.547  1.9953 -0.6296  0.8581
 9379SOL     OW39769   4.487   2.680  15.051  0.3842  0.5148  0.0615
 9379SOL    HW139770   4.580   2.663  15.063  0.3664 -0.9474 -1.7818
 9379SOL    HW239771   4.478   2.710  14.961  2.4302  2.6436  0.5809
 9380SOL     OW39772   0.100   1.872   2.416 -0.0747  0.0540  0.2677
 9380SOL    HW139773   0.147   1.865   2.499  0.2253  1.1291  0.1869
 9380SOL    HW239774   0.171   1.900   2.359 -0.6052  1.2551  0.2143
 9381SOL     OW39775   4.693   4.343  12.251  0.1227  0.1870  0.3087
 9381SOL    HW139776   4.663   4.367  12.163 -0.7460 -1.7473  0.0721
 9381SOL    HW239777   4.628   4.277  12.273  1.6256 -2.3311 -2.7709
 9382SOL     OW39778   1.110   4.466   6.260  0.0595  0.5924  0.0131
 9382SOL    HW139779   1.138   4.487   6.349 -0.4525  2.0520 -0.1742
 9382SOL    HW239780   1.044   4.399   6.275 -0.3348  1.7437  3.4130
 9383SOL     OW39781   2.567   1.112   4.523 -0.4361  0.4087 -0.1288
 9383SOL    HW139782   2.500   1.167   4.482 -0.6250  0.5726  0.3956
 9383SOL    HW239783   2.513   1.038   4.550  0.2752  0.0993  0.4376
 9384SOL     OW39784   0.522   3.388  11.474 -0.6876 -0.2536 -0.3543
 9384SOL    HW139785   0.476   3.309  11.447  1.8806 -1.1468 -2.1531
 9384SOL    HW239786   0.453   3.452  11.457 -1.6561 -1.2999 -0.3423
 9385SOL     OW39787   2.739   1.710   1.226 -0.1491 -0.3159  0.0510
 9385SOL    HW139788   2.652   1.682   1.254 -1.5687  0.4422 -3.5381
 9385SOL    HW239789   2.742   1.806   1.224  1.2897 -0.3776 -0.6417
 9386SOL     OW39790   0.842   3.438  12.142 -0.3652 -0.1062  0.0339
 9386SOL    HW139791   0.787   3.461  12.067  1.0284 -2.7909 -1.7863
 9386SOL    HW239792   0.819   3.512  12.198  0.2332 -0.9652  1.4147
 9387SOL     OW39793   3.039   2.099   9.442 -0.0009 -0.3200 -0.0790
 9387SOL    HW139794   3.049   2.171   9.380  2.1655  1.4879  2.3768
 9387SOL    HW239795   2.951   2.120   9.472 -0.1240 -3.3964  1.7038
 9388SOL     OW39796   0.906   3.754  13.232 -0.2258  0.1737  0.5930
 9388SOL    HW139797   0.921   3.660  13.228 -1.7427 -0.1603  2.5753
 9388SOL    HW239798   0.933   3.792  13.148 -2.9022  1.6638  0.3911
 9389SOL     OW39799   0.271   2.679   5.017 -0.2038  0.3292  0.1615
 9389SOL    HW139800   0.252   2.592   4.982  0.6910  0.6178 -1.0181
 9389SOL    HW239801   0.289   2.729   4.937  0.2402  1.2904  0.8582
 9390SOL     OW39802   3.666   2.427  14.536 -0.3137  0.2275  0.1751
 9390SOL    HW139803   3.662   2.469  14.622  0.4198  0.8471 -0.0894
 9390SOL    HW239804   3.743   2.372  14.549 -0.9223 -0.5137  0.6603
 9391SOL     OW39805   1.355   4.683   2.831  0.1073 -0.2389  0.9227
 9391SOL    HW139806   1.277   4.635   2.802 -0.0439  1.2257 -1.1218
 9391SOL    HW239807   1.347   4.682   2.927 -0.0580  1.1177  0.9322
 9392SOL     OW39808   0.061   2.295   7.455 -0.3348  0.1572  0.7195
 9392SOL    HW139809   4.715   2.336   7.441 -0.6479 -0.8024 -0.1700
 9392SOL    HW239810   0.097   2.310   7.368  0.2597  1.5088  1.2045
 9393SOL     OW39811   0.966   3.933  13.038 -0.7558  0.9066 -0.0679
 9393SOL    HW139812   0.989   3.916  12.947  2.0455 -0.9530  0.9922
 9393SOL    HW239813   1.049   3.974  13.063  0.0602 -0.3729 -0.7017
 9394SOL     OW39814   2.760   0.575  10.540  0.1958 -0.4077 -0.6027
 9394SOL    HW139815   2.743   0.509  10.608 -2.6691  0.8566 -0.0960
 9394SOL    HW239816   2.690   0.551  10.479  0.4272  3.6202 -2.4188
 9395SOL     OW39817   3.968   0.380   7.486  0.3065 -0.0760  0.1109
 9395SOL    HW139818   3.899   0.435   7.451  0.4278 -0.2341 -0.3798
 9395SOL    HW239819   3.996   0.331   7.408 -0.1394 -1.2238  0.6872
 9396SOL     OW39820   3.837   1.971   2.874 -0.1622  0.0077 -0.4240
 9396SOL    HW139821   3.818   2.018   2.793 -2.8935 -0.3238  0.0084
 9396SOL    HW239822   3.927   1.941   2.867  0.0334  0.4383  0.2826
 9397SOL     OW39823   0.077   2.619   3.963 -0.5118  0.5077 -0.7194
 9397SOL    HW139824   0.138   2.551   3.992 -1.4842 -0.6498 -1.3956
 9397SOL    HW239825   0.097   2.692   4.021 -1.4056 -0.0968  0.3472
 9398SOL     OW39826   0.850   1.319  14.999  0.0618  0.7042 -0.0829
 9398SOL    HW139827   0.839   1.297  14.907  0.3038 -1.0701  0.3178
 9398SOL    HW239828   0.836   1.235  15.042  0.9474  0.0289 -1.1191
 9399SOL     OW39829   3.863   2.470   7.730 -0.0219 -0.6991 -0.0995
 9399SOL    HW139830   3.838   2.557   7.700  1.7804 -0.3444 -0.5725
 9399SOL    HW239831   3.799   2.456   7.800 -0.2452  0.0779 -0.1512
 9400SOL     OW39832   2.777   4.417   3.479 -0.0685  0.8527 -0.2678
 9400SOL    HW139833   2.717   4.343   3.492 -0.8611  1.3626 -1.0807
 9400SOL    HW239834   2.757   4.448   3.391 -0.9727  0.5547 -0.1692
 9401SOL     OW39835   1.435   2.600  16.793 -0.1803  0.6392  0.1650
 9401SOL    HW139836   1.357   2.578  16.843  0.7447 -3.5017 -0.2216
 9401SOL    HW239837   1.450   2.521  16.740 -0.1486  1.6250 -1.3165
 9402SOL     OW39838   4.443   3.884   5.238  0.3462  0.1607 -0.5482
 9402SOL    HW139839   4.460   3.949   5.170  0.5746  0.1234 -0.5267
 9402SOL    HW239840   4.374   3.830   5.199  0.6330  0.2007 -1.1094
 9403SOL     OW39841   2.113   4.106   9.522 -0.2834  0.6021 -0.1585
 9403SOL    HW139842   2.166   4.043   9.570 -0.6555  0.8611  0.5967
 9403SOL    HW239843   2.145   4.181   9.571 -1.8845  2.1052 -1.3916
 9404SOL     OW39844   0.696   3.394   8.854  0.5630 -0.0952  0.1850
 9404SOL    HW139845   0.703   3.489   8.867 -0.4622 -0.2448  1.7769
 9404SOL    HW239846   0.762   3.370   8.789  0.0181  1.2687 -0.8724
 9405SOL     OW39847   4.191   2.349   8.357 -0.4257  0.1477 -0.1493
 9405SOL    HW139848   4.212   2.426   8.305 -1.2104  1.0613  0.8772
 9405SOL    HW239849   4.194   2.280   8.291  1.0143 -0.6265  0.7166
 9406SOL     OW39850   4.150   4.612   0.232  0.4725  0.0790  0.0928
 9406SOL    HW139851   4.134   4.539   0.172  1.8208 -1.1072  1.1714
 9406SOL    HW239852   4.065   4.635   0.270 -0.0437  1.2797 -1.8197
 9407SOL     OW39853   3.866   4.310   4.467  0.3910  0.5875  0.0982
 9407SOL    HW139854   3.880   4.394   4.423 -1.7907  1.0996  0.3875
 9407SOL    HW239855   3.847   4.343   4.554 -1.3042  1.3461 -0.5508
 9408SOL     OW39856   2.092   3.183   0.638 -0.6056  0.2843 -0.1037
 9408SOL    HW139857   2.108   3.272   0.668  1.4102 -0.1716  0.1293
 9408SOL    HW239858   2.183   3.153   0.636 -0.8349 -0.3643 -0.9625
 9409SOL     OW39859   0.933   4.598   4.515  0.0992 -0.4431 -0.5219
 9409SOL    HW139860   0.880   4.528   4.555 -0.7381 -0.0753 -0.9864
 9409SOL    HW239861   0.867   4.645   4.464  2.6073  0.3477 -3.0485
 9410SOL     OW39862   3.107   1.409  15.572  0.0480  0.3095 -0.3468
 9410SOL    HW139863   3.195   1.417  15.609 -0.3647  0.3778  0.6388
 9410SOL    HW239864   3.053   1.426  15.650 -0.3917  1.0489 -0.8146
 9411SOL     OW39865   1.457   4.739  12.778  0.5464  0.6782  0.1392
 9411SOL    HW139866   1.464   0.052  12.698  1.2729 -0.9769 -0.8838
 9411SOL    HW239867   1.454   4.649  12.747 -3.2520  0.8555 -0.0418
 9412SOL     OW39868   4.142   3.770   3.563  0.1697 -0.2417 -0.2763
 9412SOL    HW139869   4.177   3.682   3.547 -3.0498 -1.4728 -0.4542
 9412SOL    HW239870   4.189   3.828   3.503  2.3533 -0.1093  1.5431
 9413SOL     OW39871   0.427   3.075   2.468  0.4110  0.0562 -0.0415
 9413SOL    HW139872   0.470   3.055   2.551 -0.9524 -0.8894  0.4343
 9413SOL    HW239873   0.435   2.988   2.430  2.4310  0.8755 -1.5181
 9414SOL     OW39874   3.540   4.523  12.748  0.5835 -0.3182  0.4257
 9414SOL    HW139875   3.620   4.572  12.769  1.2423 -1.0084 -0.4782
 9414SOL    HW239876   3.521   4.536  12.655 -1.2862  0.5133  0.9333
 9415SOL     OW39877   2.361   3.665   5.551 -0.1310  0.4067  0.2258
 9415SOL    HW139878   2.328   3.601   5.614  0.0390  0.6251  0.5403
 9415SOL    HW239879   2.386   3.605   5.481  1.6709  1.9911 -0.4928
 9416SOL     OW39880   4.085   1.804   9.264 -0.3754  0.3803 -0.8726
 9416SOL    HW139881   4.171   1.767   9.287 -0.8228 -0.8858 -1.2592
 9416SOL    HW239882   4.031   1.728   9.285  0.0434  0.3630  0.1391
 9417SOL     OW39883   2.263   3.620   4.754 -0.4583  0.5926 -0.5538
 9417SOL    HW139884   2.249   3.714   4.756 -0.3259  0.6397 -1.8544
 9417SOL    HW239885   2.195   3.584   4.812 -0.8407  0.1757 -1.2565
 9418SOL     OW39886   3.371   2.102  17.608 -0.8423 -0.0006 -1.0744
 9418SOL    HW139887   3.435   2.102  17.679 -1.0284  1.4960 -0.9087
 9418SOL    HW239888   3.310   2.167  17.643 -1.0910 -0.5352 -0.5111
 9419SOL     OW39889   0.255   3.935   7.811 -0.0563  0.5722  0.1372
 9419SOL    HW139890   0.216   3.891   7.886  1.6082  0.4814  0.9557
 9419SOL    HW239891   0.210   4.019   7.811 -2.1877 -0.5685  0.4599
 9420SOL     OW39892   0.111   0.966   2.580  0.0100  0.4937 -0.2841
 9420SOL    HW139893   0.165   0.958   2.502 -0.9205  1.3227 -1.0202
 9420SOL    HW239894   0.084   0.877   2.601  0.6507 -0.2408 -2.5108
 9421SOL     OW39895   0.158   1.934   3.523 -0.2181  0.2235 -0.2248
 9421SOL    HW139896   0.098   1.917   3.450 -0.3147 -2.6834  0.5456
 9421SOL    HW239897   0.236   1.969   3.479 -0.9110 -0.0797 -1.7070
 9422SOL     OW39898   2.397   1.731   2.542 -0.0490  0.0841  0.0802
 9422SOL    HW139899   2.359   1.746   2.628  2.1969  1.3559  0.8704
 9422SOL    HW239900   2.388   1.821   2.510  2.5091  0.0993 -0.6217
 9423SOL     OW39901   3.436   1.896   2.414 -0.4542 -0.3305 -0.0707
 9423SOL    HW139902   3.406   1.843   2.339  0.3198  0.6431 -1.0697
 9423SOL    HW239903   3.477   1.820   2.455 -0.4453  0.3537  1.1812
 9424SOL     OW39904   2.077   3.477  14.650  0.1414  0.2890  0.1923
 9424SOL    HW139905   2.070   3.568  14.622 -2.0390  0.3387  0.8818
 9424SOL    HW239906   1.997   3.458  14.698  0.1238 -0.0220  0.0400
 9425SOL     OW39907   1.821   0.746   9.827  0.0372 -0.9627 -0.8858
 9425SOL    HW139908   1.734   0.706   9.821 -0.7500  0.5070  0.6970
 9425SOL    HW239909   1.880   0.672   9.838 -0.1935 -0.8916  0.6964
 9426SOL     OW39910   1.946   3.230   6.026 -0.1656  0.3904  0.2798
 9426SOL    HW139911   1.873   3.193   6.075  0.1709  0.4894  0.8483
 9426SOL    HW239912   1.997   3.270   6.096  2.3379  0.4503 -1.5739
 9427SOL     OW39913   0.167   1.170   2.295 -0.0664  0.0883 -0.5924
 9427SOL    HW139914   0.231   1.123   2.348 -1.3818 -0.0075  0.9085
 9427SOL    HW239915   0.100   1.184   2.362 -1.2604  1.0924 -1.9813
 9428SOL     OW39916   2.621   0.592  11.837  0.4635 -0.0768 -0.0976
 9428SOL    HW139917   2.678   0.519  11.861 -1.5964 -1.6956 -0.0949
 9428SOL    HW239918   2.555   0.573  11.904 -1.4065  1.5437 -1.4788
 9429SOL     OW39919   0.342   3.500   1.724 -0.2827 -0.2327 -0.4521
 9429SOL    HW139920   0.296   3.581   1.746  1.7234  1.5156 -2.6842
 9429SOL    HW239921   0.328   3.468   1.813  1.0381 -0.7916 -0.4379
 9430SOL     OW39922   3.006   2.984   7.574  0.1475 -0.3595  0.6563
 9430SOL    HW139923   3.065   2.962   7.645  0.6980 -1.2669 -0.0855
 9430SOL    HW239924   2.966   2.898   7.558  2.3369 -0.9279 -1.7297
 9431SOL     OW39925   1.867   3.300   3.501  0.0200  0.8426 -0.0019
 9431SOL    HW139926   1.950   3.327   3.461  1.0716 -1.5013  0.5784
 9431SOL    HW239927   1.850   3.212   3.467  2.2808  0.5972 -0.5120
 9432SOL     OW39928   4.475   0.019   0.012  0.1913  0.3999  0.0893
 9432SOL    HW139929   4.560   0.001  17.730  0.7193  1.1494  0.8756
 9432SOL    HW239930   4.465   4.677   0.060 -0.7429  1.5995  1.9789
 9433SOL     OW39931   4.220   2.748   7.274  0.5635  0.8990 -0.4135
 9433SOL    HW139932   4.286   2.783   7.335 -2.4347  1.4516  2.5323
 9433SOL    HW239933   4.188   2.834   7.248  0.8857  1.5334  1.3181
 9434SOL     OW39934   2.918   2.739   2.366 -0.2277 -0.4359  0.0400
 9434SOL    HW139935   2.965   2.822   2.357 -0.6574  0.1073  2.8228
 9434SOL    HW239936   2.984   2.677   2.335 -2.5140 -2.6587 -0.3083
 9435SOL     OW39937   3.511   2.485   1.451  0.1562 -0.6026  0.2653
 9435SOL    HW139938   3.431   2.537   1.455 -1.2639 -2.7945  0.8822
 9435SOL    HW239939   3.575   2.551   1.427  0.1869 -1.3190 -1.6178
 9436SOL     OW39940   2.507   4.313   6.199 -0.0847  0.5837  0.2390
 9436SOL    HW139941   2.597   4.286   6.216  0.5307  0.4679 -3.1714
 9436SOL    HW239942   2.490   4.363   6.279  0.6504 -0.8763  1.2879
 9437SOL     OW39943   2.179   3.496   8.973  0.0835  0.2915 -0.1537
 9437SOL    HW139944   2.255   3.477   8.919 -0.5553  0.8395 -1.2505
 9437SOL    HW239945   2.120   3.549   8.919 -0.0144  1.1565  0.8045
 9438SOL     OW39946   0.604   2.652   6.777 -0.1411  0.0664 -0.4084
 9438SOL    HW139947   0.600   2.583   6.844  0.3126 -1.7355 -2.2446
 9438SOL    HW239948   0.561   2.718   6.832 -3.2757 -0.8792 -1.7383
 9439SOL     OW39949   3.415   2.491   2.451  0.2241 -0.1489 -0.4177
 9439SOL    HW139950   3.486   2.535   2.404 -1.2537  2.7549  0.0586
 9439SOL    HW239951   3.438   2.399   2.444  3.3725  0.5116  1.3509
 9440SOL     OW39952   4.085   3.253   9.855 -0.1457  0.0894  0.0539
 9440SOL    HW139953   4.015   3.304   9.896  1.3520  1.4369  0.9253
 9440SOL    HW239954   4.080   3.175   9.911  1.1986  0.0833  0.1780
 9441SOL     OW39955   1.532   3.666   6.352  0.2670 -0.3047  0.1375
 9441SOL    HW139956   1.600   3.725   6.384 -2.3692  1.4751  2.4409
 9441SOL    HW239957   1.493   3.639   6.436 -1.3962 -1.2631 -0.9399
 9442SOL     OW39958   1.647   2.723  11.756 -0.0915  0.0613  0.7807
 9442SOL    HW139959   1.560   2.744  11.791 -0.4361 -0.1318  0.0683
 9442SOL    HW239960   1.659   2.792  11.690 -0.0183  0.1060  0.8414
 9443SOL     OW39961   2.436   1.128  17.137 -0.2318 -0.1122 -0.3906
 9443SOL    HW139962   2.448   1.215  17.174 -2.5929 -0.2502  0.6682
 9443SOL    HW239963   2.404   1.083  17.216  0.0858  0.4129  0.0370
 9444SOL     OW39964   0.407   0.644   3.375  0.0970  0.2073  0.7823
 9444SOL    HW139965   0.403   0.637   3.470  2.3533 -1.2210  0.7662
 9444SOL    HW239966   0.318   0.620   3.347 -0.6332  1.8651  1.7331
 9445SOL     OW39967   2.229   2.948   6.099  0.2481 -0.5202  0.0637
 9445SOL    HW139968   2.277   2.908   6.171  0.0296 -2.8583 -1.0951
 9445SOL    HW239969   2.267   3.036   6.102  0.5637 -0.5951 -1.4313
 9446SOL     OW39970   0.734   0.371   0.067 -0.0665 -0.6522 -0.6846
 9446SOL    HW139971   0.698   0.402  17.741 -1.5389 -1.5261 -0.3797
 9446SOL    HW239972   0.826   0.360   0.046 -0.3473 -3.1797 -0.6418
 9447SOL     OW39973   0.059   2.117   6.104  0.0016 -0.0559 -0.3270
 9447SOL    HW139974   0.073   2.029   6.138  1.3447  0.3524  0.2077
 9447SOL    HW239975   0.152   2.141   6.104 -0.0450  0.1206  0.2672
 9448SOL     OW39976   4.534   1.352   9.266  0.2093 -0.0376 -0.1716
 9448SOL    HW139977   4.587   1.293   9.319 -0.7804 -2.6941 -2.1328
 9448SOL    HW239978   4.571   1.339   9.178  2.2560  1.4186  0.4811
 9449SOL     OW39979   4.727   4.738   5.819 -0.4269  0.1582  0.1517
 9449SOL    HW139980   0.058   0.062   5.816 -2.6274  2.5861  0.1317
 9449SOL    HW239981   4.726   4.705   5.729 -1.7822  2.8021 -0.8003
 9450SOL     OW39982   4.266   0.538   5.664  0.4678  0.0085 -0.5054
 9450SOL    HW139983   4.267   0.622   5.618  1.5508  0.4721  0.3592
 9450SOL    HW239984   4.301   0.555   5.751  0.3277  0.4110 -0.5293
 9451SOL     OW39985   1.498   1.839   6.198 -0.0785  0.7815  0.0621
 9451SOL    HW139986   1.536   1.762   6.241 -3.2782 -0.1185  1.2372
 9451SOL    HW239987   1.488   1.891   6.278  0.9994  0.4992  0.3940
 9452SOL     OW39988   3.833   3.140   1.219  0.0554  0.6476 -0.1712
 9452SOL    HW139989   3.915   3.107   1.255 -0.1838  1.2805  0.9685
 9452SOL    HW239990   3.867   3.222   1.183  1.3683  0.7180  1.2033
 9453SOL     OW39991   2.965   3.118  16.397 -0.0781  0.1488  0.3497
 9453SOL    HW139992   3.045   3.106  16.347  0.4928 -2.4670  1.8973
 9453SOL    HW239993   2.930   3.204  16.376  0.2773  0.7955  2.4079
 9454SOL     OW39994   0.566   1.611   9.127 -0.5529  0.2138  0.1695
 9454SOL    HW139995   0.510   1.605   9.204  0.9790 -0.7311  1.2021
 9454SOL    HW239996   0.502   1.654   9.070  0.3220  0.0755 -0.9271
 9455SOL     OW39997   2.385   1.417   8.821  0.3836 -0.5760  0.6109
 9455SOL    HW139998   2.369   1.511   8.836  1.4376 -0.3803  0.4659
 9455SOL    HW239999   2.298   1.398   8.785  0.6056 -0.6850  0.1296
 9456SOL     OW40000   1.432   2.519   6.827 -0.7755  0.2732 -0.3489
 9456SOL    HW140001   1.449   2.452   6.760  1.3516  0.5211 -0.0440
 9456SOL    HW240002   1.372   2.481   6.891  0.6090 -0.0258  0.7697
 9457SOL     OW40003   2.319   0.933  10.781 -0.4728 -0.8459  0.5467
 9457SOL    HW140004   2.336   0.916  10.874  1.0282  2.6220  0.9090
 9457SOL    HW240005   2.406   0.966  10.757 -0.2495  0.4618  3.1252
 9458SOL     OW40006   3.877   1.841  10.572  0.3992 -0.4911  0.3352
 9458SOL    HW140007   3.907   1.750  10.575 -1.1235 -0.9973  0.4859
 9458SOL    HW240008   3.785   1.824  10.592  0.4073  0.0839  0.8633
 9459SOL     OW40009   3.739   2.123   6.090 -0.2866  0.2579  0.1434
 9459SOL    HW140010   3.719   2.214   6.109  1.7949  0.6052  0.6572
 9459SOL    HW240011   3.672   2.096   6.028  0.4789 -0.5028 -0.3637
 9460SOL     OW40012   2.871   2.116   4.585  0.1679 -0.3845 -0.2938
 9460SOL    HW140013   2.846   2.205   4.608  0.7929 -0.5328  0.9592
 9460SOL    HW240014   2.869   2.123   4.489  0.3942  1.9384 -0.1349
 9461SOL     OW40015   2.657   1.947  17.195  0.4198  0.6044  0.7173
 9461SOL    HW140016   2.618   1.954  17.283 -0.5640 -0.2134  0.3526
 9461SOL    HW240017   2.726   2.011  17.181 -0.7699  2.0709  1.4835
 9462SOL     OW40018   2.961   2.209   3.924  0.4642  0.2746  0.2061
 9462SOL    HW140019   2.973   2.118   3.949 -0.8053  0.2032  0.5183
 9462SOL    HW240020   2.870   2.216   3.898  0.8326 -0.0664 -1.1358
 9463SOL     OW40021   3.594   1.651   8.769  0.0855 -0.4795 -0.1485
 9463SOL    HW140022   3.653   1.578   8.790 -0.2338 -0.5984  0.3289
 9463SOL    HW240023   3.557   1.660   8.856 -0.3012  0.2924 -0.3886
 9464SOL     OW40024   4.289   0.075  12.572 -0.6185  0.2732 -0.0709
 9464SOL    HW140025   4.307   0.145  12.634 -2.0352  0.6611 -0.0913
 9464SOL    HW240026   4.374   0.051  12.536 -1.5890 -1.9997 -0.8704
 9465SOL     OW40027   4.036   3.141   7.205  0.4563 -0.3895 -0.0020
 9465SOL    HW140028   4.066   3.230   7.184 -1.6399  0.0262 -1.3711
 9465SOL    HW240029   4.107   3.098   7.157  1.4519  1.8711 -0.5608
 9466SOL     OW40030   0.192   3.139   3.764 -0.3661  0.5920 -0.2913
 9466SOL    HW140031   0.251   3.154   3.838 -3.0221  0.0985  1.9202
 9466SOL    HW240032   0.165   3.051   3.787 -2.2843  0.8573 -1.5261
 9467SOL     OW40033   2.819   1.901   3.794 -0.3655 -0.3628  0.1613
 9467SOL    HW140034   2.811   1.902   3.890  1.7181  1.3729  0.3153
 9467SOL    HW240035   2.725   1.900   3.773 -0.6228  0.2518  1.2608
 9468SOL     OW40036   2.953   1.385  13.162  0.5879 -0.1725 -0.0369
 9468SOL    HW140037   3.040   1.385  13.122  0.0563  1.0317 -1.1681
 9468SOL    HW240038   2.945   1.474  13.196  0.2292  0.3228 -1.4123
 9469SOL     OW40039   0.391   1.186   2.662  0.2808  0.2282 -0.5304
 9469SOL    HW140040   0.361   1.107   2.617 -1.9004  0.6277  0.2202
 9469SOL    HW240041   0.433   1.232   2.590  1.0192  2.4158  1.3000
 9470SOL     OW40042   2.151   2.150   5.618  0.7135  0.0675 -0.5928
 9470SOL    HW140043   2.193   2.104   5.691  0.7935  1.6455  0.3381
 9470SOL    HW240044   2.078   2.187   5.667  0.4541 -0.2766 -0.7198
 9471SOL     OW40045   0.128   0.020  17.200  0.2084 -0.2800 -0.4294
 9471SOL    HW140046   0.089   0.084  17.142 -1.3227 -0.0627  0.8472
 9471SOL    HW240047   0.160   0.071  17.275  0.5749  0.4677 -1.1055
 9472SOL     OW40048   0.428   2.452   3.239 -0.4347 -0.4762  0.0925
 9472SOL    HW140049   0.412   2.546   3.232 -0.9494 -0.7913 -2.8069
 9472SOL    HW240050   0.471   2.440   3.324 -0.3856  1.1804  0.3000
 9473SOL     OW40051   1.436   0.278   8.500  0.4210  0.0586  0.3583
 9473SOL    HW140052   1.472   0.359   8.462 -0.9923  0.1613 -0.7438
 9473SOL    HW240053   1.345   0.297   8.523  0.4759  1.8019 -0.8419
 9474SOL     OW40054   2.817   4.118  10.689 -0.3088 -0.7864 -0.6575
 9474SOL    HW140055   2.826   4.081  10.601  1.6958 -0.0141 -0.7748
 9474SOL    HW240056   2.765   4.198  10.676 -0.9413 -0.8340  1.6303
 9475SOL     OW40057   0.711   2.791  11.744  0.0409  0.2748 -0.0231
 9475SOL    HW140058   0.695   2.885  11.753 -0.4138  0.2167 -0.2431
 9475SOL    HW240059   0.622   2.762  11.762 -0.0295 -0.0498 -0.9324
 9476SOL     OW40060   0.247   2.361  16.331  0.4242 -0.0801  0.2303
 9476SOL    HW140061   0.252   2.278  16.283 -0.1933 -0.4710  0.8213
 9476SOL    HW240062   0.216   2.430  16.272  1.1417  0.0690  0.0384
 9477SOL     OW40063   0.815   0.139   5.662  1.3913  0.0184  0.1977
 9477SOL    HW140064   0.895   0.186   5.687  1.1290  0.5588  0.0127
 9477SOL    HW240065   0.830   0.045   5.671  1.8118 -0.0153 -0.8596
 9478SOL     OW40066   4.522   2.724   2.873 -0.4663  0.4381  0.2498
 9478SOL    HW140067   4.519   2.689   2.784  1.4542  0.4092  0.1992
 9478SOL    HW240068   4.617   2.721   2.885 -0.6189 -1.4813  0.9193
 9479SOL     OW40069   1.623   1.683   5.648 -0.0796  0.5077 -0.1653
 9479SOL    HW140070   1.660   1.627   5.579 -0.5476 -0.1054  0.0854
 9479SOL    HW240071   1.681   1.668   5.723 -0.0198  1.3677 -0.0371
 9480SOL     OW40072   2.120   3.378   9.869 -0.0761 -0.7567  0.5560
 9480SOL    HW140073   2.061   3.432   9.922 -0.7416 -1.7152  0.8014
 9480SOL    HW240074   2.143   3.313   9.936 -2.2968 -0.9540  1.1156
 9481SOL     OW40075   0.292   2.422   5.405  0.2513  0.0783 -0.2729
 9481SOL    HW140076   0.282   2.469   5.488 -2.6335 -0.9011 -0.0601
 9481SOL    HW240077   0.363   2.460   5.353  1.3251 -0.4049  0.8303
 9482SOL     OW40078   0.200   2.558   3.379  0.1318 -0.3825 -0.3114
 9482SOL    HW140079   0.164   2.632   3.330 -1.5805  0.5450  2.3499
 9482SOL    HW240080   0.255   2.501   3.325  0.5337 -0.3610  0.0807
 9483SOL     OW40081   1.537   2.360  16.651 -0.0055  0.4198  0.1615
 9483SOL    HW140082   1.627   2.390  16.653  0.7438 -1.9402  2.3030
 9483SOL    HW240083   1.531   2.291  16.717 -1.5547 -0.9739 -1.4274
 9484SOL     OW40084   1.383   1.838   5.027 -0.2013  0.0393 -0.3745
 9484SOL    HW140085   1.294   1.803   5.033 -0.5017  0.7097 -0.8772
 9484SOL    HW240086   1.419   1.765   4.976  0.5225 -0.4943  0.9015
 9485SOL     OW40087   3.545   1.299   6.969  0.2025 -0.1019  0.4101
 9485SOL    HW140088   3.587   1.283   6.885 -0.1771  2.5883 -0.2866
 9485SOL    HW240089   3.469   1.346   6.937  0.8486 -0.5724 -1.7861
 9486SOL     OW40090   2.253   1.288   4.703  0.2189  0.2167  0.3745
 9486SOL    HW140091   2.335   1.330   4.676 -0.1965  1.1313  0.5208
 9486SOL    HW240092   2.213   1.352   4.761 -0.2977  0.5654 -0.3651
 9487SOL     OW40093   2.089   0.806   4.459 -0.2104  0.7218  0.2381
 9487SOL    HW140094   2.023   0.820   4.390  1.9441  0.2508 -1.9179
 9487SOL    HW240095   2.077   0.718   4.494  0.2311  0.1457 -1.0528
 9488SOL     OW40096   2.256   3.636  14.938  0.0457 -0.0851 -0.1827
 9488SOL    HW140097   2.304   3.555  14.920  1.2409  0.5076  0.2950
 9488SOL    HW240098   2.260   3.634  15.034 -1.0315  1.5819 -0.1092
 9489SOL     OW40099   2.009   3.786  16.793  0.3823  0.6703 -0.0048
 9489SOL    HW140100   1.967   3.808  16.710 -1.5270 -1.2674  0.4310
 9489SOL    HW240101   2.034   3.868  16.836 -4.7620  0.9711  2.3927
 9490SOL     OW40102   0.297   0.091   5.649 -0.3985 -0.1031  0.7573
 9490SOL    HW140103   0.370   0.108   5.591  0.1826  0.4467  1.6468
 9490SOL    HW240104   0.286   4.737   5.635 -0.0963 -0.1775  1.0243
 9491SOL     OW40105   1.680   0.064   7.323  0.2628  0.4833  0.4129
 9491SOL    HW140106   1.670   0.056   7.229 -1.1915 -1.9282  0.7855
 9491SOL    HW240107   1.685   4.711   7.345  2.7334  0.2006 -1.3204
 9492SOL     OW40108   1.460   2.441   0.420 -0.1288 -0.8966 -0.3922
 9492SOL    HW140109   1.465   2.345   0.418  0.1659 -0.9095  1.1217
 9492SOL    HW240110   1.382   2.460   0.473 -1.1374 -2.7140 -1.1800
 9493SOL     OW40111   1.763   2.128   4.165 -0.5903  0.2622  0.3657
 9493SOL    HW140112   1.687   2.083   4.128  0.1295 -1.4518  0.9724
 9493SOL    HW240113   1.793   2.182   4.092 -0.6359  2.8135  2.2304
 9494SOL     OW40114   2.400   1.264   3.209  0.6270  0.2671 -0.6028
 9494SOL    HW140115   2.496   1.257   3.202  0.4415 -2.1632 -0.7692
 9494SOL    HW240116   2.388   1.350   3.169 -1.2661  1.1267  1.8577
 9495SOL     OW40117   3.234   2.449   3.184 -0.7119  0.2982 -0.2650
 9495SOL    HW140118   3.317   2.455   3.230 -0.2746  2.1192 -1.2993
 9495SOL    HW240119   3.227   2.525   3.125  3.4987  0.1376 -0.9526
 9496SOL     OW40120   0.275   4.417   9.388  0.0953 -0.0374 -0.1659
 9496SOL    HW140121   0.244   4.505   9.409  0.6969  0.2866 -0.6354
 9496SOL    HW240122   0.229   4.399   9.306  0.1220  0.5103 -0.2986
 9497SOL     OW40123   1.030   2.434   6.057 -0.2064  0.1169 -0.6208
 9497SOL    HW140124   1.015   2.422   5.964  0.5636  0.0070 -0.7318
 9497SOL    HW240125   1.076   2.518   6.061 -0.4095  0.1479  1.2239
 9498SOL     OW40126   4.051   0.353  10.790  0.2773  0.4445 -0.2287
 9498SOL    HW140127   3.964   0.364  10.752  0.7822  1.9537 -0.9634
 9498SOL    HW240128   4.060   0.258  10.795 -1.0166  0.3082 -0.6188
 9499SOL     OW40129   4.535   1.001   4.073  0.0827  0.6536  0.0550
 9499SOL    HW140130   4.541   0.911   4.042 -0.9736  0.6038 -0.0152
 9499SOL    HW240131   4.442   1.025   4.063 -0.3018 -0.3236  1.2410
 9500SOL     OW40132   1.970   3.892   7.949  0.2144 -0.3845  0.3786
 9500SOL    HW140133   2.015   3.930   7.873 -0.7587  1.1144  0.5538
 9500SOL    HW240134   1.881   3.908   7.917 -0.2381 -0.3029  1.6572
 9501SOL     OW40135   3.719   3.583   7.297  0.4575  0.1724 -0.1438
 9501SOL    HW140136   3.685   3.647   7.235  0.8080  0.8454  0.3596
 9501SOL    HW240137   3.641   3.534   7.322 -0.6114  1.2514 -1.3654
 9502SOL     OW40138   2.368   0.220   7.234 -0.3408 -0.8040  0.4077
 9502SOL    HW140139   2.392   0.129   7.248  0.3023 -0.7812 -0.5268
 9502SOL    HW240140   2.434   0.248   7.170 -2.4664 -0.1650 -1.4980
 9503SOL     OW40141   2.940   1.235  12.252 -0.1637  0.2056 -0.3445
 9503SOL    HW140142   2.863   1.277  12.215  1.0612  1.7978 -1.1221
 9503SOL    HW240143   2.934   1.264  12.342 -1.3799 -0.6635 -0.1553
 9504SOL     OW40144   2.162   3.005   7.302  0.0933 -0.3080 -0.1676
 9504SOL    HW140145   2.233   2.973   7.357  1.0568  0.2135 -1.1066
 9504SOL    HW240146   2.196   3.088   7.269  1.7518 -0.1876  1.8652
 9505SOL     OW40147   0.655   0.722  10.021 -0.5049  0.0304 -0.5872
 9505SOL    HW140148   0.588   0.741   9.955 -1.4010  3.5753  1.3397
 9505SOL    HW240149   0.697   0.646   9.981 -2.5722 -1.0280 -0.7421
 9506SOL     OW40150   3.262   0.906  15.333 -0.3535 -0.4316  0.1681
 9506SOL    HW140151   3.264   0.940  15.243  0.2987 -2.0954 -0.4569
 9506SOL    HW240152   3.343   0.946  15.364  0.0749 -0.1877 -1.2587
 9507SOL     OW40153   4.207   4.468   8.449 -0.4341  0.0998  0.1318
 9507SOL    HW140154   4.260   4.451   8.528 -0.3626 -0.8496 -0.1185
 9507SOL    HW240155   4.137   4.403   8.455  1.0966 -1.6190 -0.5102
 9508SOL     OW40156   1.118   0.695   5.993 -0.6663 -0.2170  0.5245
 9508SOL    HW140157   1.066   0.776   5.993 -1.8783 -0.9999  1.6578
 9508SOL    HW240158   1.198   0.720   6.040 -0.2468 -2.2483  0.8753
 9509SOL     OW40159   1.457   3.041   7.180 -0.0289  0.7202  0.0297
 9509SOL    HW140160   1.401   2.989   7.238  0.4389  1.8483  1.5024
 9509SOL    HW240161   1.540   3.015   7.219  0.0280 -1.2764 -1.4531
 9510SOL     OW40162   4.038   0.085  15.891  0.5380  0.3094  0.2917
 9510SOL    HW140163   3.981   0.023  15.845 -0.0118 -0.1397  1.5735
 9510SOL    HW240164   4.082   0.131  15.819 -2.6273  0.7518 -1.3412
 9511SOL     OW40165   2.093   2.376   2.106  0.3508  0.3801 -0.1427
 9511SOL    HW140166   2.019   2.361   2.164  1.4079 -0.4814  0.9701
 9511SOL    HW240167   2.063   2.337   2.024 -0.5234 -2.0082  1.3169
 9512SOL     OW40168   4.333   1.450   3.671 -0.1773 -0.1919 -0.4212
 9512SOL    HW140169   4.382   1.503   3.733 -0.6753 -1.6260  1.1822
 9512SOL    HW240170   4.264   1.510   3.642 -0.2091  1.1978  2.5598
 9513SOL     OW40171   0.897   1.962   6.145 -0.7972 -0.3080  0.6664
 9513SOL    HW140172   0.974   1.940   6.197 -1.7923 -0.0008  2.2914
 9513SOL    HW240173   0.929   2.039   6.099 -1.3097  0.1806  1.1322
 9514SOL     OW40174   1.964   4.144   0.895  0.7859 -0.1239  0.1263
 9514SOL    HW140175   1.985   4.099   0.977  0.5545  0.8367  0.7155
 9514SOL    HW240176   1.883   4.190   0.917  0.3801 -1.7845  2.0294
 9515SOL     OW40177   4.690   3.347   3.139  0.1464  0.5149  0.0836
 9515SOL    HW140178   0.032   3.394   3.127  1.4623 -1.7439  0.1007
 9515SOL    HW240179   4.632   3.373   3.067 -0.9347  2.9488  1.8347
 9516SOL     OW40180   2.128   1.702   8.887  0.2431 -0.0122  0.0998
 9516SOL    HW140181   2.120   1.796   8.873  0.7096 -0.3319 -2.2378
 9516SOL    HW240182   2.188   1.682   8.816 -1.0971 -3.8120  0.0365
 9517SOL     OW40183   0.113   0.102   7.755  0.1711  0.3086 -0.0520
 9517SOL    HW140184   0.023   0.088   7.725  0.2753 -0.0439 -0.1995
 9517SOL    HW240185   0.119   0.067   7.844 -1.1339 -0.5211 -0.2892
 9518SOL     OW40186   2.839   0.249   7.671  0.3401  0.0489  0.5518
 9518SOL    HW140187   2.837   0.216   7.581  0.9158 -2.7323  1.5545
 9518SOL    HW240188   2.796   0.334   7.658  1.8253  0.7244  0.1441
 9519SOL     OW40189   4.592   2.463   5.433  0.1131 -0.3163 -0.0150
 9519SOL    HW140190   4.598   2.369   5.419  4.2623  0.3141 -2.3220
 9519SOL    HW240191   4.651   2.480   5.506 -1.2999 -1.2330  1.3359
 9520SOL     OW40192   0.576   0.773   6.046  0.3297  0.0493  0.0671
 9520SOL    HW140193   0.514   0.846   6.048  1.1504  0.6865  2.1118
 9520SOL    HW240194   0.577   0.752   5.952 -0.8595  1.4885 -0.2666
 9521SOL     OW40195   0.466   1.977  17.240  0.2827  0.1797  0.0332
 9521SOL    HW140196   0.549   1.951  17.199  0.7388  3.5936 -1.2729
 9521SOL    HW240197   0.449   2.057  17.190  1.1772  0.3818  0.0542
 9522SOL     OW40198   4.091   0.415  16.967  0.1185 -0.3692 -0.2450
 9522SOL    HW140199   4.046   0.417  17.051 -0.7394  1.0394 -0.7318
 9522SOL    HW240200   4.141   0.496  16.979 -2.1765  1.2157 -1.3289
 9523SOL     OW40201   2.838   1.164   5.452 -0.3850 -0.3505 -0.8545
 9523SOL    HW140202   2.893   1.086   5.464  0.5897  0.1106 -2.2305
 9523SOL    HW240203   2.770   1.158   5.518 -0.2006 -1.9324 -0.8036
 9524SOL     OW40204   2.255   2.312   9.902  0.1279 -0.1119 -0.0894
 9524SOL    HW140205   2.219   2.398   9.922  0.6432  0.4315 -1.4860
 9524SOL    HW240206   2.346   2.343   9.898 -0.4492  1.3256 -2.1464
 9525SOL     OW40207   2.506   1.075   8.916 -0.3383  0.0487  0.3204
 9525SOL    HW140208   2.599   1.053   8.915 -0.1007  1.0675 -1.6010
 9525SOL    HW240209   2.470   0.995   8.878 -2.7230  2.2148 -2.0516
 9526SOL     OW40210   1.974   3.900  16.541 -0.5250  0.2424  0.1372
 9526SOL    HW140211   1.963   3.864  16.453  0.0662  0.5312 -0.0491
 9526SOL    HW240212   1.889   3.944  16.548 -1.3236 -1.3044  0.1610
 9527SOL     OW40213   4.353   3.313   0.804  0.0229  0.3910 -0.2758
 9527SOL    HW140214   4.379   3.395   0.846  0.2893 -0.5531  1.3912
 9527SOL    HW240215   4.356   3.343   0.713 -0.7667 -0.1313 -0.4714
 9528SOL     OW40216   0.090   1.242   8.032  0.4351  0.3861  0.1998
 9528SOL    HW140217   0.166   1.293   8.004  0.9442 -2.2872 -3.1921
 9528SOL    HW240218   0.023   1.260   7.966  1.2421 -2.0208 -1.2542
 9529SOL     OW40219   3.018   2.855  11.584  0.0428 -0.1194 -0.2953
 9529SOL    HW140220   2.936   2.846  11.632  0.5252  0.9793  0.7609
 9529SOL    HW240221   3.013   2.919  11.513 -0.0821  0.2356  0.0331
 9530SOL     OW40222   0.038   1.820   3.268 -0.6365 -0.3533  0.5019
 9530SOL    HW140223   4.730   1.896   3.235 -0.8236  0.4077  2.5254
 9530SOL    HW240224   4.722   1.750   3.235 -1.4127  0.0306  1.0143
 9531SOL     OW40225   3.520   3.765   4.788  0.2933 -0.1389 -0.8808
 9531SOL    HW140226   3.547   3.721   4.869 -0.5444 -1.9194 -1.5581
 9531SOL    HW240227   3.505   3.689   4.732 -0.6705 -0.6390  0.0587
 9532SOL     OW40228   2.676   4.487  10.477  0.0742  0.6009 -0.7151
 9532SOL    HW140229   2.584   4.515  10.481 -1.0006 -3.3256  1.4747
 9532SOL    HW240230   2.720   4.569  10.501 -0.6378  0.8399 -0.2217
 9533SOL     OW40231   1.814   0.997   9.985 -0.1186 -0.2740  0.0841
 9533SOL    HW140232   1.772   0.915   9.958 -0.6337 -0.3107  1.0120
 9533SOL    HW240233   1.888   0.959  10.033  0.8324  2.2083  0.5512
 9534SOL     OW40234   0.153   1.182  13.789  0.3047  0.6090  0.0100
 9534SOL    HW140235   0.183   1.273  13.782 -0.5457  0.8948  0.0688
 9534SOL    HW240236   0.152   1.167  13.694 -2.7393 -3.2613  0.6572
 9535SOL     OW40237   2.131   1.353   8.773  0.4701 -0.4251 -0.3442
 9535SOL    HW140238   2.124   1.288   8.703 -2.3226 -1.4724  0.9100
 9535SOL    HW240239   2.038   1.372   8.787  0.2464 -2.0642  0.3909
 9536SOL     OW40240   0.921   2.567  16.770  0.1645 -0.4519  0.7323
 9536SOL    HW140241   0.923   2.616  16.853  1.4827 -3.0458  2.2284
 9536SOL    HW240242   1.015   2.556  16.752  0.3425  0.0886  1.3057
 9537SOL     OW40243   3.753   3.852   3.951 -0.0108 -0.0719 -0.0073
 9537SOL    HW140244   3.766   3.940   3.916  2.4525 -0.3227  0.3245
 9537SOL    HW240245   3.823   3.812   3.898 -0.2429  0.6093 -0.8305
 9538SOL     OW40246   4.692   2.082  10.820  0.1400 -0.0455 -0.0318
 9538SOL    HW140247   0.022   2.147  10.820 -1.2443  1.4518  1.9557
 9538SOL    HW240248   4.710   2.035  10.901  1.7960  0.1199 -0.2949
 9539SOL     OW40249   2.234   2.603   1.294  0.3248 -0.0195 -0.0420
 9539SOL    HW140250   2.267   2.598   1.384  0.2198 -2.0099 -0.1229
 9539SOL    HW240251   2.153   2.652   1.304  1.5386  1.8142  0.8430
 9540SOL     OW40252   3.879   2.725  16.860 -0.3210 -0.5471 -0.1846
 9540SOL    HW140253   3.913   2.808  16.827 -0.2175 -0.2364  0.7068
 9540SOL    HW240254   3.924   2.666  16.799 -0.9910 -1.0521 -0.1810
 9541SOL     OW40255   2.896   3.224   4.751  0.4089  0.2442  0.5028
 9541SOL    HW140256   2.944   3.306   4.747  0.2556  0.3702  1.2812
 9541SOL    HW240257   2.850   3.219   4.667  1.3213  1.2903 -0.0495
 9542SOL     OW40258   0.005   0.566   1.120  0.1778  0.1271 -0.2038
 9542SOL    HW140259   4.688   0.490   1.131  0.5984 -0.1670 -0.0321
 9542SOL    HW240260   0.074   0.508   1.087  1.5625  0.9142  1.2681
 9543SOL     OW40261   1.545   0.592   8.467  0.1632  0.1111  0.3046
 9543SOL    HW140262   1.478   0.572   8.532  1.7078  0.7126  2.0717
 9543SOL    HW240263   1.614   0.625   8.524 -0.1972 -0.1092  0.8624
 9544SOL     OW40264   0.947   4.664  14.572 -0.3308  0.1190  0.1448
 9544SOL    HW140265   0.934   4.652  14.666  0.9599  1.2158  0.4665
 9544SOL    HW240266   0.860   4.640  14.541 -0.9921 -0.2923  2.3620
 9545SOL     OW40267   1.817   3.529  16.556  0.2640 -0.0362 -0.5771
 9545SOL    HW140268   1.777   3.616  16.547  0.1508  0.0195  0.4490
 9545SOL    HW240269   1.746   3.474  16.522  1.9917 -1.9581 -1.0258
 9546SOL     OW40270   2.759   4.207   3.259 -0.2917  0.0879 -0.0861
 9546SOL    HW140271   2.767   4.164   3.174 -1.4585 -0.2916 -0.0024
 9546SOL    HW240272   2.786   4.293   3.228 -3.5611  1.4207  0.7404
 9547SOL     OW40273   3.626   3.470   1.753 -0.2096 -1.1088 -0.1570
 9547SOL    HW140274   3.688   3.459   1.825 -0.2672 -0.1202  0.0404
 9547SOL    HW240275   3.667   3.425   1.679 -0.7039  2.1880 -2.4065
 9548SOL     OW40276   3.170   1.972  17.472 -0.0020  0.5772  0.1450
 9548SOL    HW140277   3.193   1.981  17.379 -1.1605  0.7701 -0.1212
 9548SOL    HW240278   3.257   1.997  17.503  0.1780 -0.9422  0.8824
 9549SOL     OW40279   0.824   0.932  13.696 -0.4331 -0.5106  0.3767
 9549SOL    HW140280   0.883   0.891  13.759  0.4048 -0.8645 -0.6318
 9549SOL    HW240281   0.758   0.960  13.759 -1.1859 -2.3428  0.4193
 9550SOL     OW40282   2.762   1.746   6.079 -0.2883  0.0783 -0.1588
 9550SOL    HW140283   2.725   1.657   6.082  0.4763 -0.2683 -1.2054
 9550SOL    HW240284   2.729   1.777   6.164 -0.5990 -0.3380 -0.1220
 9551SOL     OW40285   4.690   2.276  13.109 -0.1609  0.2339 -0.0857
 9551SOL    HW140286   4.719   2.361  13.141 -0.3045  0.4743 -0.5874
 9551SOL    HW240287   4.689   2.225  13.190 -0.5667  0.4550  0.0515
 9552SOL     OW40288   4.133   1.616   1.301  0.5343 -0.0754 -0.3362
 9552SOL    HW140289   4.107   1.579   1.385  0.2866  1.4215  0.2558
 9552SOL    HW240290   4.059   1.596   1.245  0.2914 -2.4901  0.8773
 9553SOL     OW40291   1.303   0.424  10.557  0.5904  0.8520  0.0681
 9553SOL    HW140292   1.283   0.391  10.470 -1.5163  2.1847  0.0511
 9553SOL    HW240293   1.281   0.515  10.537  0.8320  1.1847  1.2886
 9554SOL     OW40294   0.011   2.835   9.728  0.3212 -0.6428  0.2060
 9554SOL    HW140295   0.055   2.917   9.709  1.4796 -1.4837 -0.7220
 9554SOL    HW240296   4.668   2.840   9.679 -0.0520 -2.3822  0.6708
 9555SOL     OW40297   3.073   1.315   7.099 -0.4586 -0.0577 -0.2096
 9555SOL    HW140298   3.110   1.244   7.151 -0.7954  0.4777  0.7561
 9555SOL    HW240299   2.981   1.296   7.083 -0.0116 -2.1462 -0.2722
 9556SOL     OW40300   2.303   3.622   7.077  0.2128 -0.4591  0.1411
 9556SOL    HW140301   2.222   3.571   7.067 -0.5998  1.1045 -1.2411
 9556SOL    HW240302   2.359   3.586   7.008 -0.0686 -1.3016  0.3464
 9557SOL     OW40303   0.418   3.007   0.361  0.1397 -0.0131 -0.3872
 9557SOL    HW140304   0.477   2.935   0.384  2.7695  2.5903  1.0940
 9557SOL    HW240305   0.361   2.972   0.293  1.1561 -0.5176 -0.9870
 9558SOL     OW40306   0.901   3.859   6.409  0.2847  0.7495 -1.0835
 9558SOL    HW140307   0.850   3.847   6.489 -1.6479  1.7594 -2.1458
 9558SOL    HW240308   0.986   3.877   6.448 -0.1354  0.2965  0.0266
 9559SOL     OW40309   2.885   3.630  11.355 -0.2842  0.2464  0.0544
 9559SOL    HW140310   2.970   3.672  11.342 -0.1254  0.0841  0.5470
 9559SOL    HW240311   2.914   3.538  11.354 -1.2864 -0.0322 -1.7929
 9560SOL     OW40312   2.640   1.648   2.636 -0.2423 -0.2648 -0.6380
 9560SOL    HW140313   2.554   1.682   2.610 -1.9292 -3.4314  0.7734
 9560SOL    HW240314   2.655   1.572   2.580  2.0768  0.6825 -1.2725
 9561SOL     OW40315   3.704   3.014   1.419 -0.3863 -0.0090 -0.1827
 9561SOL    HW140316   3.743   3.036   1.334 -1.1047 -1.5668 -0.9125
 9561SOL    HW240317   3.617   3.050   1.402 -0.3856 -0.8323 -1.9933
 9562SOL     OW40318   0.501   1.918  13.187  0.2139  0.1380 -0.0969
 9562SOL    HW140319   0.455   1.934  13.269 -2.7896  0.9744 -1.9566
 9562SOL    HW240320   0.470   1.829  13.172  1.8570  0.1894 -3.8263
 9563SOL     OW40321   3.992   2.556   7.370 -0.7490 -0.1547  0.0406
 9563SOL    HW140322   4.064   2.499   7.398 -2.0041 -0.3787  2.8076
 9563SOL    HW240323   4.028   2.634   7.414  0.4157 -1.6067  1.6753
 9564SOL     OW40324   1.855   3.106   1.782 -0.4817  0.1108  0.5464
 9564SOL    HW140325   1.840   3.200   1.791 -1.7578 -0.1312  0.8833
 9564SOL    HW240326   1.906   3.085   1.860 -2.4604 -0.0918  1.7804
 9565SOL     OW40327   0.382   1.455  11.204  0.0125 -0.4396  0.3206
 9565SOL    HW140328   0.348   1.418  11.285 -1.8416  0.6692  0.0489
 9565SOL    HW240329   0.332   1.537  11.205 -0.4955 -0.7531  0.2756
 9566SOL     OW40330   1.105   3.021   6.877 -1.0368 -0.0930  0.2742
 9566SOL    HW140331   1.167   2.979   6.937 -0.5058  2.0338  1.2067
 9566SOL    HW240332   1.098   2.956   6.807  0.2273  0.4168 -0.3212
 9567SOL     OW40333   2.612   2.006   2.569  0.0994 -0.0517  0.3437
 9567SOL    HW140334   2.587   2.095   2.594  0.2890  0.7780 -2.3396
 9567SOL    HW240335   2.529   1.982   2.526 -0.4644  0.1507  1.3263
 9568SOL     OW40336   0.394   1.045   9.758  0.1150 -0.5663 -0.2613
 9568SOL    HW140337   0.450   1.034   9.681  0.6138  2.4576 -0.3158
 9568SOL    HW240338   0.374   1.139   9.755  1.3861 -0.2796  0.2062
 9569SOL     OW40339   1.645   1.764   3.254  0.1828 -0.3099 -0.2813
 9569SOL    HW140340   1.675   1.674   3.236 -2.8425 -1.5727  1.0776
 9569SOL    HW240341   1.560   1.746   3.293 -0.9768 -0.1830 -2.7813
 9570SOL     OW40342   1.990   1.276   7.578 -0.5300 -0.1478 -0.2288
 9570SOL    HW140343   2.057   1.217   7.613  0.0768 -1.6579 -3.9068
 9570SOL    HW240344   1.997   1.357   7.629  1.3846 -0.1727 -0.4405
 9571SOL     OW40345   3.298   1.380   0.913 -0.2215  0.0226 -0.6364
 9571SOL    HW140346   3.227   1.411   0.856 -1.1050 -0.4332  0.2161
 9571SOL    HW240347   3.300   1.292   0.874  0.5776  0.2659 -1.1275
   4.73990   4.73990  17.75723
